# vtk DataFile Version 2.0
track0
ASCII
DATASET POLYDATA
POINTS 10635 double
-0.0205 0.001 1e-05
-0.0204991 0.00100536 1e-05
-0.0204976 0.00101063 1e-05
-0.0204947 0.00101518 1e-05
-0.0204905 0.00101864 1e-05
-0.0204746 0.00102682 1e-05
-0.0201831 0.00105563 1e-05
-0.0203616 0.00128794 1e-05
-0.0204488 0.00141936 1e-05
-0.0201625 0.0014444 1e-05
-0.0201519 0.00173163 1e-05
-0.0202219 0.00184007 1e-05
-0.0200496 0.00193025 1e-05
-0.0200808 0.00212222 1e-05
-0.0201294 0.00229098 1e-05
-0.0200088 0.00238763 1e-05
-0.0199911 0.00254123 1e-05
-0.0200041 0.00269529 1e-05
-0.0199827 0.00277425 1e-05
-0.019869 0.00287784 1e-05
-0.0198179 0.00302292 1e-05
-0.0198054 0.00317623 1e-05
-0.01976 0.00329221 1e-05
-0.0196347 0.00340323 1e-05
-0.0195486 0.00354672 1e-05
-0.0194777 0.0036983 1e-05
-0.019391 0.00384149 1e-05
-0.0193842 0.00384734 1e-05
-0.0193108 0.00390808 1e-05
-0.0192439 0.00397593 1e-05
-0.0191791 0.00404574 1e-05
-0.0191113 0.00411269 1e-05
-0.0190172 0.00419787 1e-05
-0.0189564 0.00424676 1e-05
-0.0188939 0.00429336 1e-05
-0.0188297 0.00433765 1e-05
-0.018764 0.00437963 1e-05
-0.0186585 0.00444232 1e-05
-0.0184263 0.00456527 1e-05
-0.0181852 0.00466953 1e-05
-0.017937 0.00475574 1e-05
-0.0176828 0.0048221 1e-05
-0.0174976 0.00485365 1e-05
-0.0172058 0.00488437 1e-05
-0.0169124 0.00488612 1e-05
-0.0166199 0.00486377 1e-05
-0.0163297 0.00482057 1e-05
-0.0160387 0.00475648 1e-05
-0.0158291 0.00469365 1e-05
-0.0156233 0.00461972 1e-05
-0.0154215 0.00453506 1e-05
-0.0152227 0.00444392 1e-05
-0.0152195 0.00444232 1e-05
-0.0151032 0.00438407 1e-05
-0.0149897 0.00432057 1e-05
-0.0148794 0.00425174 1e-05
-0.0147713 0.00417932 1e-05
-0.0146381 0.00408412 1e-05
-0.0145771 0.00403676 1e-05
-0.014517 0.00398831 1e-05
-0.0144579 0.00393874 1e-05
-0.0143997 0.00388805 1e-05
-0.0143537 0.00384734 1e-05
-0.0142296 0.00373631 1e-05
-0.014112 0.00361838 1e-05
-0.014002 0.00349339 1e-05
-0.0138979 0.0033634 1e-05
-0.0138434 0.00329221 1e-05
-0.0137663 0.00318862 1e-05
-0.0136966 0.00307983 1e-05
-0.0136333 0.00296725 1e-05
-0.0135738 0.00285261 1e-05
-0.0135366 0.00277425 1e-05
-0.0134935 0.0026776 1e-05
-0.0134576 0.00257807 1e-05
-0.0134256 0.00247719 1e-05
-0.0133983 0.00237497 1e-05
-0.0133802 0.00229098 1e-05
-0.0133651 0.0022008 1e-05
-0.013356 0.00210982 1e-05
-0.0133523 0.00201846 1e-05
-0.0133545 0.00192705 1e-05
-0.013363 0.00184007 1e-05
-0.0133777 0.00175593 1e-05
-0.0134001 0.0016735 1e-05
-0.0134294 0.00159325 1e-05
-0.0134657 0.00151592 1e-05
-0.0135221 0.00141936 1e-05
-0.0135795 0.00134085 1e-05
-0.0136477 0.00127163 1e-05
-0.0137218 0.00120862 1e-05
-0.0138003 0.00115136 1e-05
-0.0139938 0.00102682 1e-05
-0.0141227 0.000957191 1e-05
-0.0142583 0.000901994 1e-05
-0.0143973 0.000855679 1e-05
-0.0145369 0.000811417 1e-05
-0.0146381 0.000781025 1e-05
-0.0147216 0.000756933 1e-05
-0.0148055 0.000734169 1e-05
-0.0148898 0.000712529 1e-05
-0.0149745 0.000692895 1e-05
-0.015147 0.000660566 1e-05
-0.0153253 0.000637919 1e-05
-0.0155041 0.000618716 1e-05
-0.0156831 0.000602191 1e-05
-0.0158623 0.000587669 1e-05
-0.0160387 0.000567923 1e-05
-0.0162822 0.000518107 1e-05
-0.0165296 0.000493348 1e-05
-0.016778 0.000482268 1e-05
-0.0170265 0.000475497 1e-05
-0.0174976 0.000406565 1e-05
-0.0174976 0.000406565 1e-05
-0.0174976 0.000406565 1e-05
-0.0174976 0.000406565 1e-05
-0.0174976 0.000406565 1e-05
-0.0174976 0.000406565 1e-05
-0.0174952 0.00038902 1e-05
-0.0174898 0.000372152 1e-05
-0.0174821 0.000356206 1e-05
-0.0174727 0.000341211 1e-05
-0.0174557 0.000318841 1e-05
-0.0173838 0.000255072 1e-05
-0.0172967 0.000214401 1e-05
-0.0172047 0.000186608 1e-05
-0.0171105 0.000167067 1e-05
-0.0160387 4.48975e-06 1e-05
-0.0160287 3.5918e-06 1e-05
-0.0160186 3.13285e-06 1e-05
-0.0160086 2.71603e-06 1e-05
-0.0159986 2.29921e-06 1e-05
-0.0159432 0 1e-05
-0.0205 0.00367778 1e-05
-0.0203955 0.00371169 1e-05
-0.0203045 0.00377319 1e-05
-0.0202171 0.00383976 1e-05
-0.020198 0.00384734 1e-05
-0.0199618 0.00393431 1e-05
-0.019766 0.00409243 1e-05
-0.0196202 0.00429752 1e-05
-0.0194753 0.00444232 1e-05
-0.0193837 0.00449615 1e-05
-0.0192963 0.00455665 1e-05
-0.0192132 0.00462289 1e-05
-0.0191277 0.00468601 1e-05
-0.0190172 0.0047615 1e-05
-0.0189141 0.0048252 1e-05
-0.0188083 0.00488438 1e-05
-0.0187002 0.00493909 1e-05
-0.01859 0.00498947 1e-05
-0.0183687 0.00508 1e-05
-0.0181945 0.00513504 1e-05
-0.0180182 0.00518311 1e-05
-0.0178402 0.00522436 1e-05
-0.0176607 0.00525868 1e-05
-0.0174976 0.00528168 1e-05
-0.0172058 0.00530959 1e-05
-0.0169127 0.00531444 1e-05
-0.0166201 0.00529745 1e-05
-0.0163294 0.00526026 1e-05
-0.0160387 0.00520529 1e-05
-0.0159403 0.00518023 1e-05
-0.0158425 0.00515318 1e-05
-0.0157452 0.00512422 1e-05
-0.0156483 0.00509404 1e-05
-0.0156051 0.00508 1e-05
-0.0154117 0.00501582 1e-05
-0.0152217 0.0049422 1e-05
-0.0150358 0.0048588 1e-05
-0.0148542 0.00476636 1e-05
-0.0146381 0.00464665 1e-05
-0.0145718 0.00460578 1e-05
-0.014506 0.00456403 1e-05
-0.0144408 0.00452138 1e-05
-0.0143762 0.00447794 1e-05
-0.0143237 0.00444232 1e-05
-0.0141502 0.00432332 1e-05
-0.0139832 0.00419531 1e-05
-0.0138239 0.00405778 1e-05
-0.0136693 0.00391504 1e-05
-0.0135989 0.00384734 1e-05
-0.0135378 0.00378746 1e-05
-0.0134788 0.0037255 1e-05
-0.0134213 0.00366214 1e-05
-0.0133647 0.00359801 1e-05
-0.0132934 0.00351487 1e-05
-0.0132568 0.00347034 1e-05
-0.0132205 0.00342544 1e-05
-0.0131847 0.00338016 1e-05
-0.0131495 0.0033345 1e-05
-0.0131173 0.00329221 1e-05
-0.0130392 0.00318862 1e-05
-0.012963 0.0030836 1e-05
-0.0128897 0.00297659 1e-05
-0.0128195 0.00286744 1e-05
-0.0127622 0.00277425 1e-05
-0.0127044 0.0026776 1e-05
-0.0126481 0.00258012 1e-05
-0.0125933 0.00248176 1e-05
-0.01254 0.00238261 1e-05
-0.0124931 0.00229098 1e-05
-0.0124494 0.0022008 1e-05
-0.012406 0.00211049 1e-05
-0.0123629 0.00202005 1e-05
-0.01232 0.00192949 1e-05
-0.0122789 0.00184007 1e-05
-0.0122438 0.00175593 1e-05
-0.0122072 0.00167243 1e-05
-0.0121693 0.00158951 1e-05
-0.0121299 0.0015073 1e-05
-0.0120853 0.00141936 1e-05
-0.0120688 0.00138767 1e-05
-0.012051 0.00135665 1e-05
-0.0120321 0.00132627 1e-05
-0.0120122 0.00129659 1e-05
-0.0120025 0.00128329 1e-05
-0.0119638 0.001232 1e-05
-0.0119217 0.00118337 1e-05
-0.0118764 0.00113777 1e-05
-0.0118279 0.00109553 1e-05
-0.0117365 0.00102682 1e-05
-0.0116204 0.000953567 1e-05
-0.0114964 0.000894613 1e-05
-0.0113678 0.000846442 1e-05
-0.0112364 0.000806772 1e-05
-0.0107632 0.000724471 1e-05
-0.0105252 0.00073287 1e-05
-0.0102872 0.000727945 1e-05
-0.0100491 0.000725194 1e-05
-0.00981096 0.000723762 1e-05
-0.00957337 0.00072316 1e-05
-0.00934491 0.000732604 1e-05
-0.00911629 0.000728924 1e-05
-0.00888765 0.000726402 1e-05
-0.008659 0.000724674 1e-05
-0.00843108 0.000723503 1e-05
-0.00821175 0.000732554 1e-05
-0.00799227 0.000728471 1e-05
-0.00777278 0.000725413 1e-05
-0.00755327 0.000723093 1e-05
-0.00733443 0.000721316 1e-05
-0.00712387 0.000729738 1e-05
-0.00691317 0.000725574 1e-05
-0.00670246 0.000722332 1e-05
-0.00649174 0.000719773 1e-05
-0.0062816 0.000717729 1e-05
-0.00607944 0.000725445 1e-05
-0.00587718 0.000721548 1e-05
-0.0056749 0.000718442 1e-05
-0.00547262 0.000715935 1e-05
-0.00527083 0.000713889 1e-05
-0.00507675 0.000720904 1e-05
-0.00488258 0.000717413 1e-05
-0.0046884 0.000714582 1e-05
-0.00449421 0.000712262 1e-05
-0.00430044 0.000710343 1e-05
-0.00411412 0.000716709 1e-05
-0.00392771 0.000713641 1e-05
-0.0037413 0.000711109 1e-05
-0.00355488 0.000709002 1e-05
-0.00336883 0.000707232 1e-05
-0.00318995 0.00071299 1e-05
-0.003011 0.000710276 1e-05
-0.00283204 0.000708017 1e-05
-0.00265308 0.00070612 1e-05
-0.00247443 0.000704516 1e-05
-0.0023027 0.00070975 1e-05
-0.00213091 0.0007074 1e-05
-0.00195911 0.000705378 1e-05
-0.0017873 0.000703623 1e-05
-0.00161577 0.000702088 1e-05
-0.0014509 0.000706696 1e-05
-0.00128598 0.000704376 1e-05
-0.00112106 0.00070231 1e-05
-0.000956136 0.000700452 1e-05
-0.000791418 0.000698767 1e-05
-0.000633135 0.000702517 1e-05
-0.000474825 0.000700137 1e-05
-0.00031651 0.000698091 1e-05
-0.000158191 0.00069632 1e-05
0 0.000694777 1e-05
0.000105677 0.000697045 1e-05
0.000211375 0.000696061 1e-05
0.000317073 0.000695221 1e-05
0.000422773 0.000694509 1e-05
0.000528387 0.000693911 1e-05
0.000634886 0.000696012 1e-05
0.000741405 0.000695555 1e-05
0.000847924 0.000695226 1e-05
0.000954444 0.000695012 1e-05
0.00106088 0.000694901 1e-05
0.00116821 0.000697052 1e-05
0.00127556 0.000697435 1e-05
0.0013829 0.000698116 1e-05
0.00149025 0.000699067 1e-05
0.00159752 0.000700261 1e-05
0.00170568 0.000703632 1e-05
0.00181387 0.000705828 1e-05
0.00192205 0.000708468 1e-05
0.00203022 0.000711518 1e-05
0.00213833 0.000714944 1e-05
0.00224733 0.000720779 1e-05
0.00235638 0.000725648 1e-05
0.00246541 0.000730994 1e-05
0.00257441 0.000736793 1e-05
0.00268334 0.000743017 1e-05
0.00279319 0.000751921 1e-05
0.0029031 0.000759962 1e-05
0.00301299 0.000768447 1e-05
0.00312284 0.000777364 1e-05
0.00323259 0.000787068 1e-05
0.00334329 0.000799106 1e-05
0.00345403 0.000810855 1e-05
0.00356476 0.000822609 1e-05
0.00367545 0.000834751 1e-05
0.00378611 0.00084813 1e-05
0.00389767 0.000863106 1e-05
0.00400924 0.000878055 1e-05
0.00412081 0.00089298 1e-05
0.00423232 0.000908352 1e-05
0.00434393 0.000924703 1e-05
0.00445636 0.000942188 1e-05
0.0045688 0.000959625 1e-05
0.00468122 0.000977173 1e-05
0.00479358 0.000995114 1e-05
0.00490609 0.00101353 1e-05
0.00499363 0.00102843 1e-05
0.0050812 0.0010432 1e-05
0.00516874 0.0010581 1e-05
0.00525626 0.00107313 1e-05
0.00534217 0.00108801 1e-05
0.00536826 0.00109257 1e-05
0.00539435 0.00109715 1e-05
0.00542043 0.00110174 1e-05
0.00544652 0.00110634 1e-05
0.00547262 0.00111096 1e-05
0.00558681 0.00113104 1e-05
0.00570095 0.00115137 1e-05
0.00581508 0.00117179 1e-05
0.00592919 0.0011923 1e-05
0.00604356 0.00121283 1e-05
0.00615863 0.0012328 1e-05
0.00627364 0.00125316 1e-05
0.00638859 0.00127382 1e-05
0.00650357 0.00129436 1e-05
0.00661893 0.00131423 1e-05
0.0067349 0.00133343 1e-05
0.00685083 0.00135286 1e-05
0.00696673 0.0013725 1e-05
0.00708268 0.00139179 1e-05
[...]
POINT_DATA 10635
 FIELD attributes 1
U 3 10635 float
1.13289 	6.39887 	0 1.59178 	5.97928 	0 3.06058 	4.65991 	0 4.29066 	3.52875 	0 5.18154 	2.68003 	0 7.15403 	0.707086 	0 -4.22531 	5.50159 	0 -5.18603 	7.8107 	0 7.56548 	0.661752 	0 0.171749 	4.66611 	0 -9.04969 	14.026 	0 5.93254 	3.1046 	0 -2.52853 	15.5167 	0 -6.42058 	22.2978 	0 7.16747 	5.74107 	0 1.97817 	17.2214 	0 -2.24906 	26.6779 	0 4.29331 	15.85 	0 9.07769 	8.27005 	0 6.22475 	17.6658 	0 2.39083 	29.3758 	0 7.48958 	19.1144 	0 11.9521 	10.5968 	0 10.9784 	18.2856 	0 10.8645 	23.2143 	0 12.8645 	21.2659 	0 16.0836 	13.7038 	0 16.2322 	13.4317 	0 16.3926 	16.63 	0 16.8099 	18.1018 	0 17.5795 	17.3616 	0 18.3617 	16.6197 	0 19.4187 	15.6308 	0 20.1846 	15.0473 	0 20.959 	14.4664 	0 21.7408 	13.8888 	0 22.0863 	13.1252 	0 22.0704 	11.6866 	0 24.273 	10.4936 	0 26.3557 	9.15474 	0 27.077 	7.06759 	0 27.2317 	4.64002 	0 27.3586 	2.88073 	0 28.0782 	0.166866 	0 28.3343 	-2.16482 	0 28.2618 	-4.20681 	0 27.2063 	-5.99216 	0 25.8122 	-7.74001 	0 25.2025 	-9.04939 	0 24.5617 	-10.309 	0 23.3528 	-10.7025 	0 22.1337 	-11.072 	0 22.1136 	-11.0776 	0 21.4862 	-12.0217 	0 20.862 	-13.0117 	0 20.0241 	-13.4258 	0 19.1153 	-13.6568 	0 17.9692 	-13.9608 	0 17.5318 	-14.1383 	0 17.093 	-14.319 	0 16.653 	-14.503 	0 16.3203 	-14.4518 	0 16.0713 	-14.3771 	0 14.8159 	-14.8633 	0 13.5185 	-15.3556 	0 12.3296 	-15.3966 	0 11.4574 	-14.9742 	0 10.9836 	-14.7467 	0 9.65655 	-15.0823 	0 8.546 	-15.1946 	0 7.77243 	-14.9731 	0 6.95951 	-14.6553 	0 6.36756 	-14.2893 	0 5.1585 	-14.2837 	0 4.41412 	-13.9468 	0 3.64771 	-13.62 	0 2.8581 	-13.3053 	0 2.1691 	-12.9662 	0 1.26147 	-12.6062 	0 0.501422 	-12.1958 	0 -0.28921 	-11.7994 	0 -1.11083 	-11.4205 	0 -1.93112 	-11.0377 	0 -2.86498 	-10.5406 	0 -3.67753 	-10.0771 	0 -4.52513 	-9.64286 	0 -5.40305 	-9.24265 	0 -6.41275 	-8.78021 	0 -7.99716 	-8.10884 	0 -8.9656 	-7.63134 	0 -9.91507 	-7.22598 	0 -10.7063 	-6.89103 	0 -11.6114 	-6.27425 	0 -13.1302 	-5.34227 	0 -14.0203 	-4.67338 	0 -13.1595 	-4.17192 	0 -12.3412 	-3.70658 	0 -11.7827 	-3.39788 	0 -12.3822 	-3.359 	0 -13.0137 	-3.34422 	0 -13.8296 	-3.20562 	0 -15.0106 	-2.81231 	0 -17.4867 	-2.22066 	0 -18.1946 	-1.95474 	0 -19.2368 	-1.77587 	0 -20.5383 	-1.6646 	0 -19.8819 	-2.22535 	0 -16.3106 	-3.33605 	0 -24.4321 	-2.44538 	0 -37.0017 	-1.65078 	0 -49.4251 	-1.34655 	0 -35.4949 	-5.19388 	0 1.77202 	-13.0823 	0 1.77202 	-13.0823 	0 1.77202 	-13.0823 	0 1.77202 	-13.0823 	0 1.77202 	-13.0823 	0 1.77202 	-13.0823 	0 4.18408 	-13.1207 	0 6.32412 	-13.1078 	0 8.19629 	-13.0537 	0 9.83059 	-12.9676 	0 14.8301 	-13.1451 	0 23.0817 	-10.777 	0 30.0089 	-9.06263 	0 38.0187 	-7.89233 	0 46.6158 	-7.07065 	0 0.356962 	-0.0320452 	0 1.1984 	-0.0548238 	0 1.505 	-0.062518 	0 1.30476 	-0.0542001 	0 1.10452 	-0.0458822 	0 0 	0 	0
9.83289 	3.19126 	0 9.65826 	6.52586 	0 10.0778 	7.67585 	0 11.8158 	4.68123 	0 12.0608 	4.44157 	0 12.9623 	10.469 	0 13.4039 	18.8473 	0 15.3403 	15.3334 	0 17.3395 	10.1874 	0 17.8522 	12.3628 	0 18.3292 	14.6087 	0 18.9074 	13.9596 	0 19.503 	13.3203 	0 20.2743 	12.5284 	0 21.1495 	11.8347 	0 22.0485 	11.1581 	0 22.9686 	10.4991 	0 23.0564 	9.43189 	0 23.1841 	7.32386 	0 24.2108 	6.60193 	0 25.2178 	5.84499 	0 26.0679 	4.9847 	0 26.0999 	3.67962 	0 26.1695 	2.50329 	0 26.7802 	0.442946 	0 27.5082 	-1.59739 	0 27.2106 	-3.48059 	0 26.2681 	-4.96746 	0 25.308 	-6.4468 	0 25.1439 	-6.95224 	0 24.9605 	-7.42943 	0 24.5399 	-7.64135 	0 24.121 	-7.85042 	0 23.9346 	-7.94256 	0 23.295 	-9.02503 	0 22.7001 	-10.1829 	0 22.0128 	-11.2043 	0 20.8981 	-11.5783 	0 19.5683 	-12.0587 	0 19.2602 	-12.2284 	0 18.9542 	-12.4011 	0 18.6617 	-12.5372 	0 18.4171 	-12.5123 	0 18.219 	-12.4924 	0 17.0604 	-13.0772 	0 15.8941 	-13.7254 	0 14.9626 	-13.8149 	0 14.1098 	-13.5612 	0 13.7144 	-13.4445 	0 13.0556 	-13.714 	0 12.5263 	-13.8057 	0 12.1191 	-13.7302 	0 11.7098 	-13.6585 	0 11.1832 	-13.5719 	0 10.9382 	-13.5514 	0 10.6919 	-13.5327 	0 10.4442 	-13.5156 	0 10.2277 	-13.4725 	0 10.0905 	-13.3805 	0 9.60968 	-13.2448 	0 8.93684 	-13.0354 	0 8.2477 	-12.833 	0 7.70182 	-12.5135 	0 7.28909 	-12.2041 	0 6.9033 	-11.9458 	0 6.51142 	-11.6911 	0 6.09399 	-11.3302 	0 5.55683 	-10.8605 	0 5.0525 	-10.4334 	0 4.8289 	-10.047 	0 4.60768 	-9.65968 	0 4.39137 	-9.27066 	0 4.07086 	-8.85305 	0 3.49196 	-8.37157 	0 3.48688 	-7.95225 	0 3.40942 	-7.46048 	0 3.33971 	-6.96791 	0 3.2792 	-6.47455 	0 3.07143 	-5.87726 	0 3.24115 	-5.65363 	0 3.38537 	-5.45784 	0 3.53544 	-5.2637 	0 3.69145 	-5.07155 	0 3.76594 	-4.98426 	0 3.99213 	-4.61656 	0 4.22973 	-4.25532 	0 4.47822 	-3.90257 	0 4.7367 	-3.56035 	0 5.32778 	-3.36086 	0 6.49555 	-3.08841 	0 7.5819 	-2.84083 	0 8.61545 	-2.60032 	0 10.2799 	-1.78788 	0 15.2257 	0.537405 	0 15.2799 	-0.316129 	0 16.1088 	-0.186099 	0 16.885 	-0.101592 	0 17.6291 	-0.0446754 	0 18.8679 	0.779978 	0 18.7337 	-0.301535 	0 19.2697 	-0.212537 	0 19.7801 	-0.149473 	0 20.2729 	-0.10419 	0 21.1861 	0.874331 	0 20.9548 	-0.389893 	0 21.3497 	-0.297447 	0 21.7233 	-0.229546 	0 22.0814 	-0.179319 	0 22.7948 	0.911681 	0 22.5319 	-0.445258 	0 22.8464 	-0.351541 	0 23.1424 	-0.281076 	0 23.4246 	-0.227846 	0 24.012 	0.916504 	0 23.7365 	-0.457276 	0 23.9959 	-0.368501 	0 24.2397 	-0.30042 	0 24.4715 	-0.248032 	0 24.98 	0.902869 	0 24.6959 	-0.444066 	0 24.914 	-0.363212 	0 25.1189 	-0.300093 	0 25.3136 	-0.250692 	0 25.7717 	0.880588 	0 25.4801 	-0.419453 	0 25.6643 	-0.348465 	0 25.8376 	-0.292137 	0 26.0023 	-0.247353 	0 26.4246 	0.850553 	0 26.1281 	-0.396169 	0 26.2949 	-0.332018 	0 26.4523 	-0.280385 	0 26.6022 	-0.238759 	0 27.0097 	0.82317 	0 26.7106 	-0.365451 	0 26.8631 	-0.316133 	0 27.0087 	-0.275885 	0 27.1485 	-0.243003 	0 27.5472 	0.770023 	0 27.2464 	-0.383343 	0 27.4262 	-0.343584 	0 27.6002 	-0.310924 	0 27.7695 	-0.284077 	0 28.1949 	0.667969 	0 27.8493 	-0.41866 	-8.13304e-21 28.0678 	-0.362667 	-2.77887e-20 28.2775 	-0.31632 	-4.73581e-20 28.4799 	-0.277898 	-6.68564e-20 28.974 	0.621864 	-7.42791e-20 28.6359 	-0.26666 	-1.90191e-19 28.8089 	-0.228885 	-1.59747e-19 28.9776 	-0.195144 	-1.29786e-19 29.1425 	-0.164973 	-1.00254e-19 29.6179 	0.584396 	1.91732e-20 29.3302 	-0.126081 	6.15518e-21 29.4908 	-0.0911009 	8.99231e-21 29.6473 	-0.0595207 	1.17342e-20 29.8001 	-0.0309805 	1.43911e-20 30.2458 	0.606119 	2.00311e-20 30.0502 	0.107224 	6.60654e-21 30.2364 	0.191847 	-3.21038e-20 30.4127 	0.269398 	-7.07168e-20 30.5802 	0.340549 	-1.09242e-19 31.0415 	0.967244 	-1.45035e-19 30.9084 	0.627464 	-1.16969e-19 31.0884 	0.758644 	-9.20586e-20 31.2543 	0.88113 	-6.69221e-20 31.4071 	0.995584 	-4.15774e-20 31.8972 	1.70735 	-7.43298e-20 31.7679 	1.41852 	-1.55629e-19 31.872 	1.56286 	-1.53402e-19 31.9628 	1.70018 	-1.52684e-19 32.0409 	1.83083 	-1.53397e-19 32.4813 	2.63276 	1.3692e-21 32.4752 	2.37589 	2.51327e-20 32.4576 	2.50632 	2.93519e-20 32.4303 	2.63235 	3.34401e-20 32.4304 	2.8677 	4.31776e-20 32.5566 	3.54012 	7.53062e-20 32.8197 	3.48202 	2.24918e-19 32.9145 	3.49374 	3.14913e-19 32.7808 	3.59585 	3.26657e-19 32.517 	3.93149 	1.83604e-19 32.2036 	4.32293 	1.76993e-21 32.6773 	4.37864 	-3.52999e-20 33.1515 	4.43442 	-7.23693e-20 33.0869 	4.5613 	-6.51455e-20 32.4436 	4.75313 	-1.45735e-20 31.7907 	4.94399 	3.62232e-20 32.4322 	5.02932 	2.7756e-20 32.8192 	5.12281 	1.66315e-20 32.7568 	5.23037 	8.79329e-22 32.5594 	5.33066 	-1.02835e-20 31.7032 	5.39602 	1.60624e-21 32.2624 	5.442 	7.39594e-20 32.1863 	5.47773 	6.35208e-20 32.1084 	5.5134 	5.28803e-20 32.0288 	5.54901 	4.20362e-20 31.949 	5.58392 	3.11868e-20 31.9312 	5.59814 	3.1642e-20 31.9133 	5.61237 	3.20879e-20 31.8952 	5.62661 	3.25244e-20 31.8769 	5.64085 	3.29517e-20 31.8255 	5.59722 	5.37261e-20 31.8544 	5.67534 	3.32954e-20 31.775 	5.68512 	2.16424e-20 31.6949 	5.69498 	9.98107e-21 31.573 	5.66742 	2.49088e-21 31.2081 	5.41767 	1.97393e-20 31.5073 	5.57755 	8.86927e-21 31.7383 	5.70273 	0 31.647 	5.65386 	0 31.2051 	5.37439 	0 30.7685 	5.09475 	0 31.0992 	5.21115 	0 31.4278 	5.32728 	0 31.3371 	5.21157 	-1.70563e-20 30.9579 	4.95071 	-3.6043e-20 30.4968 	4.6468 	-5.54127e-20 30.824 	4.72786 	-1.07379e-19 30.7896 	4.61977 	-1.17551e-19 30.6839 	4.47301 	-1.19079e-19 30.5842 	4.32761 	-1.2079e-19 30.2894 	4.08109 	-9.94466e-20 30.3851 	4.07484 	-5.06046e-20 30.3199 	3.98204 	-5.62891e-20 30.2566 	3.88967 	-6.16809e-20 30.1953 	3.79771 	-6.67791e-20 30.1259 	3.69057 	-7.24015e-20 30.0882 	3.6233 	-7.51622e-20 30.0516 	3.55622 	-7.77664e-20 30.016 	3.48934 	-8.0214e-20 29.9814 	3.42266 	-8.25046e-20 29.9261 	3.39218 	-8.31029e-20 29.8512 	3.18887 	-1.35336e-19 29.7405 	3.01234 	-1.56309e-19 29.6357 	2.83678 	-1.75597e-19 29.5368 	2.66222 	-1.93191e-19 29.3683 	2.60366 	-2.42265e-20 29.3628 	2.34146 	-6.16572e-21 29.234 	2.15479 	-3.97023e-21 29.1112 	1.96886 	-1.78985e-21 28.9769 	1.80839 	1.36542e-20 28.7661 	1.76586 	9.15259e-20 28.747 	1.509 	2.22898e-20 28.6415 	1.29963 	2.99899e-21 28.4976 	1.11296 	7.44013e-21 28.3223 	0.975806 	4.19402e-20 28.099 	0.909008 	1.18808e-19 28.0567 	0.675334 	6.07535e-19 27.9528 	0.470549 	8.92463e-19 27.7924 	0.292156 	9.91527e-19 27.6014 	0.15579 	8.02227e-19 27.3756 	0.0652891 	3.01577e-19 27.3182 	-0.138172 	2.44178e-19 27.1965 	-0.318215 	1.77437e-19 27.0268 	-0.480573 	1.03784e-19 26.8405 	-0.62266 	2.95917e-20 26.6182 	-0.726295 	-4.66659e-20 26.5565 	-0.894049 	-5.40938e-19 26.404 	-1.03965 	-6.91934e-19 26.231 	-1.18 	-7.50431e-19 26.0623 	-1.32106 	-8.04886e-19 25.8453 	-1.42602 	-2.92767e-19 25.7653 	-1.55323 	-2.33429e-19 25.5862 	-1.66773 	-1.67618e-19 25.4105 	-1.78304 	-1.02308e-19 25.2383 	-1.89915 	-3.75087e-20 25.0497 	-2.0076 	0 24.9843 	-2.06011 	-3.81033e-20 24.8785 	-2.11211 	-1.26634e-19 24.7737 	-2.16437 	-2.15404e-19 24.6698 	-2.21691 	-3.04416e-19 24.5902 	-2.25774 	-3.73404e-19 24.5115 	-2.30228 	-4.25978e-19 24.4334 	-2.34706 	-4.78353e-19 24.356 	-2.39208 	-5.3053e-19 24.2793 	-2.43733 	-5.82504e-19 24.1828 	-2.48742 	-6.07754e-19 23.9961 	-2.56164 	-1.11298e-18 23.814 	-2.63767 	-1.25477e-18 23.6344 	-2.71474 	-1.40118e-18 23.4547 	-2.79306 	-1.48724e-18 23.2319 	-2.87614 	-4.18399e-19 23.0366 	-2.93079 	-3.14135e-19 22.8491 	-2.98633 	-3.02819e-19 22.671 	-3.04278 	-4.13641e-19 22.4705 	-3.09075 	-6.73275e-19 22.2676 	-3.13858 	-9.51717e-19 22.0835 	-3.1703 	-1.62747e-18 21.9007 	-3.2027 	-2.30167e-18 21.7049 	-3.22203 	-2.22051e-18 21.52 	-3.23851 	-1.2821e-18 21.3355 	-3.25555 	-3.40026e-19 21.1745 	-3.26037 	9.95933e-19 20.993 	-3.25816 	1.10489e-18 20.8045 	-3.25361 	7.77434e-19 20.6165 	-3.24934 	4.48108e-19 20.4331 	-3.24724 	-1.73568e-19 20.393 	-3.24272 	3.01694e-20 20.3374 	-3.24034 	-5.03462e-20 20.2818 	-3.23798 	-1.31006e-19 20.2263 	-3.23564 	-2.1181e-19 20.1716 	-3.23335 	-2.91714e-19 20.0364 	-3.22834 	-5.49385e-19 19.9014 	-3.22348 	-8.08258e-19 19.7666 	-3.21876 	-1.06836e-18 19.6299 	-3.21485 	-1.27906e-18 19.4465 	-3.22527 	-3.96377e-19 19.2437 	-3.21228 	-2.03617e-19 19.0404 	-3.21143 	-9.24991e-20 18.8374 	-3.21585 	-1.47806e-20 18.581 	-3.24484 	0 18.3122 	-3.28062 	0 18.0908 	-3.29184 	0 17.8701 	-3.30381 	0 17.6057 	-3.33884 	2.73546e-20 17.3393 	-3.38785 	5.71628e-20 17.0727 	-3.44307 	8.73467e-20 16.9048 	-3.47121 	7.60743e-20 16.7238 	-3.50572 	8.22216e-20 16.5396 	-3.54265 	9.3421e-20 16.3559 	-3.58049 	1.04845e-19 16.2048 	-3.61246 	1.1446e-19 16.1283 	-3.62867 	1.29555e-19 16.0519 	-3.64504 	1.44779e-19 15.9756 	-3.66158 	1.60133e-19 15.9019 	-3.6757 	1.51784e-19 15.8326 	-3.68561 	1.02686e-19 15.5862 	-3.7399 	7.34342e-20 15.3572 	-3.79451 	8.35267e-20 15.1288 	-3.85089 	9.25209e-20 14.9647 	-3.86682 	8.80166e-20 14.812 	-3.87489 	8.01898e-20 14.6164 	-3.91819 	-2.73519e-19 14.4625 	-3.93806 	-4.75459e-19 14.3871 	-3.91119 	-3.84259e-19 14.3116 	-3.88426 	-2.93194e-19 14.2415 	-3.85558 	-1.53312e-19 14.2332 	-3.85638 	-1.59189e-19 14.2294 	-3.85447 	-1.61757e-19 14.2309 	-3.84931 	-1.60329e-19 14.2325 	-3.84414 	-1.58898e-19 14.234 	-3.83897 	-1.57464e-19 14.2267 	-3.78224 	-1.10438e-19 14.2186 	-3.72512 	-6.35661e-20 14.2095 	-3.66762 	-1.68513e-20 14.2573 	-3.57477 	-9.30665e-21 14.3436 	-3.45753 	-2.96191e-20 14.4111 	-3.34904 	-1.48773e-19 14.4754 	-3.24019 	-2.67902e-19 14.6023 	-3.08685 	-2.59874e-19 14.7327 	-2.93108 	-2.20207e-19 14.8607 	-2.77846 	-1.56235e-19 14.9353 	-2.6905 	-1.19527e-19 15.0232 	-2.5878 	-1.10956e-19 15.1131 	-2.48123 	-1.09856e-19 15.2008 	-2.37491 	-1.08355e-19 15.3259 	-2.21959 	-1.05575e-19 15.3674 	-2.1629 	-1.06586e-19 15.4085 	-2.10624 	-1.07418e-19 15.4489 	-2.04964 	-1.08074e-19 15.4889 	-1.99307 	-1.08555e-19 15.53 	-1.93245 	-6.27901e-20 15.6717 	-1.74888 	-5.40395e-20 15.808 	-1.56986 	-3.52962e-20 15.9393 	-1.39172 	-1.68504e-20 16.0639 	-1.21491 	0 16.1605 	-1.04693 	0 16.2913 	-0.86418 	0 16.4122 	-0.690655 	2.00547e-20 16.526 	-0.522331 	5.06263e-20 16.6153 	-0.363354 	8.2307e-20 16.6796 	-0.214656 	1.1489e-19 16.7908 	-0.0468447 	1.65945e-19 16.8923 	0.11298 	1.95185e-19 16.9824 	0.262431 	1.95082e-19 17.0428 	0.398844 	1.67405e-19 17.0786 	0.524482 	1.17082e-19 17.1694 	0.671435 	8.49792e-20 17.2466 	0.806356 	5.38443e-20 17.3138 	0.932658 	2.34875e-20 17.368 	1.05311 	0 17.3817 	1.15497 	0 17.4547 	1.27813 	0 17.5044 	1.38057 	0 17.5525 	1.48248 	0 17.5992 	1.58386 	0 17.6204 	1.67378 	0 17.649 	1.72442 	0 17.6683 	1.76724 	0 17.6874 	1.80996 	0 17.7062 	1.85258 	0 17.7204 	1.88515 	0 17.7375 	1.92467 	0 17.7545 	1.96414 	0 17.7712 	2.00357 	0 17.7877 	2.04296 	0 17.7933 	2.07383 	0 17.8462 	2.14609 	-1.31691e-21 17.874 	2.2068 	-4.37585e-21 17.9013 	2.26742 	-7.41215e-21 17.9215 	2.32273 	-1.0431e-20 17.9203 	2.36171 	-1.34576e-20 17.9812 	2.41944 	-8.72559e-21 18.0405 	2.47649 	-3.81368e-21 18.0592 	2.514 	5.39422e-21 18.0558 	2.53474 	1.0557e-20 18.0522 	2.5555 	1.57215e-20 18.1068 	2.59217 	6.98499e-20 18.1579 	2.62627 	1.11964e-19 18.1877 	2.64472 	7.91297e-20 18.2034 	2.65704 	3.08523e-20 18.2015 	2.66174 	-3.68118e-20 18.2466 	2.67699 	-2.55464e-21 18.2719 	2.67801 	-3.24731e-20 18.2973 	2.67903 	-6.23718e-20 18.3227 	2.68006 	-9.22508e-20 18.3479 	2.6811 	-1.21902e-19 18.3517 	2.68179 	-1.26927e-19 18.3555 	2.68249 	-1.31952e-19 18.3593 	2.68319 	-1.36978e-19 18.3631 	2.68389 	-1.42003e-19 18.3639 	2.68248 	-1.26226e-19 18.3999 	2.6741 	-1.36304e-19 18.4307 	2.66335 	-1.35394e-19 18.4616 	2.65262 	-1.34407e-19 18.491 	2.64088 	-1.27893e-19 18.4985 	2.61437 	-4.31513e-20 18.5542 	2.59902 	-2.88641e-20 18.6025 	2.58033 	-1.45683e-20 18.6341 	2.5541 	-2.28695e-22 18.6438 	2.5143 	0 18.6532 	2.47446 	0 18.7062 	2.44303 	0 18.7593 	2.41169 	0 18.7943 	2.37045 	0 18.8057 	2.31819 	0 18.8163 	2.26571 	0 18.866 	2.21935 	0 18.9015 	2.16659 	0 18.9307 	2.11091 	0 18.9602 	2.05538 	0 18.9736 	1.99266 	0 19.0052 	1.94105 	0 19.0253 	1.8851 	0 19.0457 	1.82925 	0 19.0663 	1.77351 	0 19.0944 	1.69861 	0 19.0976 	1.69098 	0 19.1007 	1.68335 	0 19.1039 	1.67572 	0 19.107 	1.66809 	0 19.1085 	1.65993 	-1.75043e-21 19.1302 	1.58366 	0 19.1501 	1.50663 	0 19.1702 	1.42967 	0 19.1908 	1.35276 	0 19.1977 	1.27284 	-3.18258e-20 19.2262 	1.19206 	0 19.2386 	1.1054 	0 19.2513 	1.01877 	0 19.2643 	0.932175 	0 19.2563 	0.842483 	-5.80513e-20 19.2831 	0.755702 	-5.08e-21 19.29 	0.66258 	-1.72398e-20 19.2951 	0.568799 	-3.6452e-20 19.2963 	0.474837 	-5.50295e-20 19.2821 	0.380315 	-7.07769e-20 19.302 	0.288065 	-2.15452e-19 19.3045 	0.191207 	-2.54372e-19 19.301 	0.0926977 	-2.54941e-19 19.2924 	-0.00572312 	-2.07764e-19 19.2693 	-0.103816 	-3.28861e-20 19.2791 	-0.20024 	-4.83085e-20 19.2709 	-0.299834 	-3.64913e-20 19.2576 	-0.40036 	-1.70402e-20 19.2425 	-0.500615 	-4.67231e-21 19.2112 	-0.598649 	-4.4576e-20 19.212 	-0.695533 	-1.93637e-22 19.1893 	-0.79481 	-1.99029e-20 19.1668 	-0.894156 	-3.97634e-20 19.1446 	-0.99357 	-5.9775e-20 19.1099 	-1.09037 	-7.7238e-20 19.0922 	-1.18573 	-9.91196e-20 19.0603 	-1.28195 	-1.69732e-19 19.0286 	-1.37827 	-2.41126e-19 18.9972 	-1.4747 	-3.13303e-19 18.9651 	-1.57134 	-3.85396e-19 18.9637 	-1.57658 	-4.00517e-19 18.9614 	-1.58185 	-3.9533e-19 18.9591 	-1.58713 	-3.90133e-19 18.9568 	-1.5924 	-3.84927e-19 18.9545 	-1.59752 	-3.79873e-19 18.9176 	-1.68595 	-3.26821e-19 18.8809 	-1.77455 	-2.72878e-19 18.8445 	-1.86333 	-2.18044e-19 18.8084 	-1.95227 	-1.62314e-19 18.7588 	-2.04181 	-1.99428e-19 18.7228 	-2.13626 	-2.51514e-19 18.6773 	-2.22841 	-2.14298e-19 18.632 	-2.32077 	-1.77708e-19 18.5765 	-2.41359 	-1.08342e-19 18.5114 	-2.50742 	-8.32878e-21 18.4685 	-2.60022 	-4.38502e-21 18.4257 	-2.69324 	-9.71418e-22 18.3707 	-2.78786 	0 18.303 	-2.88416 	0 18.235 	-2.98143 	0 18.1885 	-3.0767 	0 18.1323 	-3.17478 	0 18.0689 	-3.27505 	0 18.0056 	-3.37559 	0 17.9396 	-3.47866 	0 17.9307 	-3.4976 	0 17.9196 	-3.51734 	0 17.9077 	-3.53737 	0 17.8958 	-3.5574 	0 17.8845 	-3.57629 	0 17.8314 	-3.66259 	0 17.7783 	-3.74902 	0 17.725 	-3.8356 	0 17.6681 	-3.92389 	0 17.6034 	-4.01631 	0 17.5392 	-4.1264 	0 17.4749 	-4.23674 	0 17.4023 	-4.35118 	3.19725e-21 17.3223 	-4.47003 	8.92392e-21 17.2408 	-4.59109 	1.48046e-20 17.2039 	-4.65654 	-9.44708e-20 17.1637 	-4.72251 	-1.28303e-19 17.1187 	-4.78921 	-5.00331e-20 17.0735 	-4.85599 	2.91923e-20 17.0349 	-4.91301 	9.75815e-20 16.9964 	-4.96887 	1.56739e-19 16.9578 	-5.02477 	2.16461e-19 16.9191 	-5.08072 	2.7675e-19 16.8774 	-5.13794 	2.2411e-19 16.8338 	-5.19632 	1.25389e-19 16.7486 	-5.31917 	3.01172e-19 16.6628 	-5.44226 	4.76014e-19 16.5699 	-5.56455 	5.09831e-19 16.4708 	-5.68588 	3.7565e-19 16.3685 	-5.81069 	2.39268e-19 16.3437 	-5.84342 	1.73261e-19 16.3186 	-5.87604 	1.14855e-19 16.2904 	-5.90651 	1.72806e-19 16.262 	-5.93699 	2.31117e-19 16.2354 	-5.96559 	2.86147e-19 16.16 	-6.05467 	5.42921e-19 16.0844 	-6.14393 	8.04189e-19 16.0083 	-6.23338 	1.06997e-18 15.9224 	-6.31878 	7.73961e-19 15.8332 	-6.40605 	4.22729e-19 15.7486 	-6.49593 	4.87873e-19 15.6636 	-6.58599 	5.53468e-19 15.566 	-6.66597 	4.46974e-19 15.4678 	-6.74593 	3.37798e-19 15.3846 	-6.81338 	2.45472e-19 15.3543 	-6.84218 	1.98859e-19 15.324 	-6.87101 	1.5214e-19 15.2934 	-6.89971 	1.07827e-19 15.2591 	-6.92556 	1.098e-19 15.2244 	-6.9517 	1.11763e-19 15.0979 	-7.05464 	6.53633e-20 14.9705 	-7.15796 	1.86943e-20 14.8327 	-7.25078 	0 14.6862 	-7.33454 	4.14558e-21 14.5321 	-7.42133 	9.89539e-21 14.5188 	-7.42933 	5.45531e-21 14.5056 	-7.43734 	1.01307e-21 14.4913 	-7.44371 	0 14.4765 	-7.4496 	0 14.462 	-7.4554 	0 14.3287 	-7.53018 	0 14.1948 	-7.60555 	0 14.0579 	-7.67823 	-3.06269e-20 13.909 	-7.73492 	-2.14779e-19 13.753 	-7.79453 	-4.07524e-19 13.6997 	-7.81651 	-4.01183e-19 13.6462 	-7.83857 	-3.95076e-19 13.5891 	-7.85473 	-3.89094e-19 13.5304 	-7.86869 	-3.83291e-19 13.4746 	-7.882 	-3.77982e-19 13.3657 	-7.92379 	-2.41625e-19 13.2565 	-7.96597 	-1.04906e-19 13.1449 	-8.00473 	3.11057e-20 13.0259 	-8.03143 	1.63977e-19 12.9023 	-8.05941 	3.01863e-19 12.813 	-8.08168 	2.93948e-19 12.7235 	-8.10416 	2.86553e-19 12.6291 	-8.11794 	2.16033e-19 12.5323 	-8.12786 	1.17059e-19 12.442 	-8.13726 	2.51941e-20 12.3557 	-8.15714 	-8.0394e-20 12.2691 	-8.17726 	-1.85749e-19 12.1807 	-8.19409 	-2.62715e-19 12.088 	-8.20235 	-2.68905e-19 11.9925 	-8.21105 	-2.74903e-19 11.8728 	-8.2242 	-1.57673e-19 11.7527 	-8.23772 	-4.02263e-20 11.6276 	-8.24132 	3.39824e-21 11.4997 	-8.2399 	8.57062e-21 11.3815 	-8.2389 	1.33462e-20 11.3151 	-8.24519 	1.35372e-20 11.2486 	-8.25161 	1.37193e-20 11.1809 	-8.25533 	-2.55476e-21 11.1108 	-8.25323 	-5.31274e-20 11.039 	-8.25121 	-1.04907e-19 10.8951 	-8.2498 	-6.36959e-19 10.7508 	-8.24896 	-1.16727e-18 10.602 	-8.23811 	-1.21212e-18 10.4504 	-8.22167 	-9.7402e-19 10.311 	-8.20706 	-7.52964e-19 10.2616 	-8.20579 	-8.79832e-19 10.2123 	-8.20459 	-1.00695e-18 10.1622 	-8.20135 	-1.0411e-18 10.111 	-8.19434 	-9.0576e-19 10.0588 	-8.18727 	-7.68122e-19 9.89759 	-8.16886 	-4.78726e-19 9.73571 	-8.1512 	-1.89888e-19 9.57045 	-8.12437 	-1.52546e-19 9.40282 	-8.09197 	-2.75041e-19 9.24864 	-8.06295 	-3.88237e-19 9.21336 	-8.05819 	-4.6429e-19 9.17804 	-8.05346 	-5.40489e-19 9.14241 	-8.04728 	-5.37363e-19 9.10627 	-8.03867 	-4.04399e-19 9.0696 	-8.02999 	-2.69692e-19 8.89799 	-7.99459 	-1.