# vtk DataFile Version 2.0
track0
ASCII
DATASET POLYDATA
POINTS 10635 double
-0.0205 0.001 1e-05
-0.0204991 0.00100536 1e-05
-0.0204976 0.00101063 1e-05
-0.0204947 0.00101518 1e-05
-0.0204905 0.00101864 1e-05
-0.0204746 0.00102682 1e-05
-0.0201831 0.00105563 1e-05
-0.0203616 0.00128794 1e-05
-0.0204488 0.00141936 1e-05
-0.0201625 0.0014444 1e-05
-0.0201519 0.00173163 1e-05
-0.0202219 0.00184007 1e-05
-0.0200496 0.00193025 1e-05
-0.0200808 0.00212222 1e-05
-0.0201294 0.00229098 1e-05
-0.0200088 0.00238763 1e-05
-0.0199911 0.00254123 1e-05
-0.0200041 0.00269529 1e-05
-0.0199827 0.00277425 1e-05
-0.019869 0.00287784 1e-05
-0.0198179 0.00302292 1e-05
-0.0198054 0.00317623 1e-05
-0.01976 0.00329221 1e-05
-0.0196347 0.00340323 1e-05
-0.0195486 0.00354672 1e-05
-0.0194777 0.0036983 1e-05
-0.019391 0.00384149 1e-05
-0.0193842 0.00384734 1e-05
-0.0193108 0.00390808 1e-05
-0.0192439 0.00397593 1e-05
-0.0191791 0.00404574 1e-05
-0.0191113 0.00411269 1e-05
-0.0190172 0.00419787 1e-05
-0.0189564 0.00424676 1e-05
-0.0188939 0.00429336 1e-05
-0.0188297 0.00433765 1e-05
-0.018764 0.00437963 1e-05
-0.0186585 0.00444232 1e-05
-0.0184263 0.00456527 1e-05
-0.0181852 0.00466953 1e-05
-0.017937 0.00475574 1e-05
-0.0176828 0.0048221 1e-05
-0.0174976 0.00485365 1e-05
-0.0172058 0.00488437 1e-05
-0.0169124 0.00488612 1e-05
-0.0166199 0.00486377 1e-05
-0.0163297 0.00482057 1e-05
-0.0160387 0.00475648 1e-05
-0.0158291 0.00469365 1e-05
-0.0156233 0.00461972 1e-05
-0.0154215 0.00453506 1e-05
-0.0152227 0.00444392 1e-05
-0.0152195 0.00444232 1e-05
-0.0151032 0.00438407 1e-05
-0.0149897 0.00432057 1e-05
-0.0148794 0.00425174 1e-05
-0.0147713 0.00417932 1e-05
-0.0146381 0.00408412 1e-05
-0.0145771 0.00403676 1e-05
-0.014517 0.00398831 1e-05
-0.0144579 0.00393874 1e-05
-0.0143997 0.00388805 1e-05
-0.0143537 0.00384734 1e-05
-0.0142296 0.00373631 1e-05
-0.014112 0.00361838 1e-05
-0.014002 0.00349339 1e-05
-0.0138979 0.0033634 1e-05
-0.0138434 0.00329221 1e-05
-0.0137663 0.00318862 1e-05
-0.0136966 0.00307983 1e-05
-0.0136333 0.00296725 1e-05
-0.0135738 0.00285261 1e-05
-0.0135366 0.00277425 1e-05
-0.0134935 0.0026776 1e-05
-0.0134576 0.00257807 1e-05
-0.0134256 0.00247719 1e-05
-0.0133983 0.00237497 1e-05
-0.0133802 0.00229098 1e-05
-0.0133651 0.0022008 1e-05
-0.013356 0.00210982 1e-05
-0.0133523 0.00201846 1e-05
-0.0133545 0.00192705 1e-05
-0.013363 0.00184007 1e-05
-0.0133777 0.00175593 1e-05
-0.0134001 0.0016735 1e-05
-0.0134294 0.00159325 1e-05
-0.0134657 0.00151592 1e-05
-0.0135221 0.00141936 1e-05
-0.0135795 0.00134085 1e-05
-0.0136477 0.00127163 1e-05
-0.0137218 0.00120862 1e-05
-0.0138003 0.00115136 1e-05
-0.0139938 0.00102682 1e-05
-0.0141227 0.000957191 1e-05
-0.0142583 0.000901994 1e-05
-0.0143973 0.000855679 1e-05
-0.0145369 0.000811417 1e-05
-0.0146381 0.000781025 1e-05
-0.0147216 0.000756933 1e-05
-0.0148055 0.000734169 1e-05
-0.0148898 0.000712529 1e-05
-0.0149745 0.000692895 1e-05
-0.015147 0.000660566 1e-05
-0.0153253 0.000637919 1e-05
-0.0155041 0.000618716 1e-05
-0.0156831 0.000602191 1e-05
-0.0158623 0.000587669 1e-05
-0.0160387 0.000567923 1e-05
-0.0162822 0.000518107 1e-05
-0.0165296 0.000493348 1e-05
-0.016778 0.000482268 1e-05
-0.0170265 0.000475497 1e-05
-0.0174976 0.000406565 1e-05
-0.0174976 0.000406565 1e-05
-0.0174976 0.000406565 1e-05
-0.0174976 0.000406565 1e-05
-0.0174976 0.000406565 1e-05
-0.0174976 0.000406565 1e-05
-0.0174952 0.00038902 1e-05
-0.0174898 0.000372152 1e-05
-0.0174821 0.000356206 1e-05
-0.0174727 0.000341211 1e-05
-0.0174557 0.000318841 1e-05
-0.0173838 0.000255072 1e-05
-0.0172967 0.000214401 1e-05
-0.0172047 0.000186608 1e-05
-0.0171105 0.000167067 1e-05
-0.0160387 4.48975e-06 1e-05
-0.0160287 3.5918e-06 1e-05
-0.0160186 3.13285e-06 1e-05
-0.0160086 2.71603e-06 1e-05
-0.0159986 2.29921e-06 1e-05
-0.0159432 0 1e-05
-0.0205 0.00367778 1e-05
-0.0203955 0.00371169 1e-05
-0.0203045 0.00377319 1e-05
-0.0202171 0.00383976 1e-05
-0.020198 0.00384734 1e-05
-0.0199618 0.00393431 1e-05
-0.019766 0.00409243 1e-05
-0.0196202 0.00429752 1e-05
-0.0194753 0.00444232 1e-05
-0.0193837 0.00449615 1e-05
-0.0192963 0.00455665 1e-05
-0.0192132 0.00462289 1e-05
-0.0191277 0.00468601 1e-05
-0.0190172 0.0047615 1e-05
-0.0189141 0.0048252 1e-05
-0.0188083 0.00488438 1e-05
-0.0187002 0.00493909 1e-05
-0.01859 0.00498947 1e-05
-0.0183687 0.00508 1e-05
-0.0181945 0.00513504 1e-05
-0.0180182 0.00518311 1e-05
-0.0178402 0.00522436 1e-05
-0.0176607 0.00525868 1e-05
-0.0174976 0.00528168 1e-05
-0.0172058 0.00530959 1e-05
-0.0169127 0.00531444 1e-05
-0.0166201 0.00529745 1e-05
-0.0163294 0.00526026 1e-05
-0.0160387 0.00520529 1e-05
-0.0159403 0.00518023 1e-05
-0.0158425 0.00515318 1e-05
-0.0157452 0.00512422 1e-05
-0.0156483 0.00509404 1e-05
-0.0156051 0.00508 1e-05
-0.0154117 0.00501582 1e-05
-0.0152217 0.0049422 1e-05
-0.0150358 0.0048588 1e-05
-0.0148542 0.00476636 1e-05
-0.0146381 0.00464665 1e-05
-0.0145718 0.00460578 1e-05
-0.014506 0.00456403 1e-05
-0.0144408 0.00452138 1e-05
-0.0143762 0.00447794 1e-05
-0.0143237 0.00444232 1e-05
-0.0141502 0.00432332 1e-05
-0.0139832 0.00419531 1e-05
-0.0138239 0.00405778 1e-05
-0.0136693 0.00391504 1e-05
-0.0135989 0.00384734 1e-05
-0.0135378 0.00378746 1e-05
-0.0134788 0.0037255 1e-05
-0.0134213 0.00366214 1e-05
-0.0133647 0.00359801 1e-05
-0.0132934 0.00351487 1e-05
-0.0132568 0.00347034 1e-05
-0.0132205 0.00342544 1e-05
-0.0131847 0.00338016 1e-05
-0.0131495 0.0033345 1e-05
-0.0131173 0.00329221 1e-05
-0.0130392 0.00318862 1e-05
-0.012963 0.0030836 1e-05
-0.0128897 0.00297659 1e-05
-0.0128195 0.00286744 1e-05
-0.0127622 0.00277425 1e-05
-0.0127044 0.0026776 1e-05
-0.0126481 0.00258012 1e-05
-0.0125933 0.00248176 1e-05
-0.01254 0.00238261 1e-05
-0.0124931 0.00229098 1e-05
-0.0124494 0.0022008 1e-05
-0.012406 0.00211049 1e-05
-0.0123629 0.00202005 1e-05
-0.01232 0.00192949 1e-05
-0.0122789 0.00184007 1e-05
-0.0122438 0.00175593 1e-05
-0.0122072 0.00167243 1e-05
-0.0121693 0.00158951 1e-05
-0.0121299 0.0015073 1e-05
-0.0120853 0.00141936 1e-05
-0.0120688 0.00138767 1e-05
-0.012051 0.00135665 1e-05
-0.0120321 0.00132627 1e-05
-0.0120122 0.00129659 1e-05
-0.0120025 0.00128329 1e-05
-0.0119638 0.001232 1e-05
-0.0119217 0.00118337 1e-05
-0.0118764 0.00113777 1e-05
-0.0118279 0.00109553 1e-05
-0.0117365 0.00102682 1e-05
-0.0116204 0.000953567 1e-05
-0.0114964 0.000894613 1e-05
-0.0113678 0.000846442 1e-05
-0.0112364 0.000806772 1e-05
-0.0107632 0.000724471 1e-05
-0.0105252 0.00073287 1e-05
-0.0102872 0.000727945 1e-05
-0.0100491 0.000725194 1e-05
-0.00981096 0.000723762 1e-05
-0.00957337 0.00072316 1e-05
-0.00934491 0.000732604 1e-05
-0.00911629 0.000728924 1e-05
-0.00888765 0.000726402 1e-05
-0.008659 0.000724674 1e-05
-0.00843108 0.000723503 1e-05
-0.00821175 0.000732554 1e-05
-0.00799227 0.000728471 1e-05
-0.00777278 0.000725413 1e-05
-0.00755327 0.000723093 1e-05
-0.00733443 0.000721316 1e-05
-0.00712387 0.000729738 1e-05
-0.00691317 0.000725574 1e-05
-0.00670246 0.000722332 1e-05
-0.00649174 0.000719773 1e-05
-0.0062816 0.000717729 1e-05
-0.00607944 0.000725445 1e-05
-0.00587718 0.000721548 1e-05
-0.0056749 0.000718442 1e-05
-0.00547262 0.000715935 1e-05
-0.00527083 0.000713889 1e-05
-0.00507675 0.000720904 1e-05
-0.00488258 0.000717413 1e-05
-0.0046884 0.000714582 1e-05
-0.00449421 0.000712262 1e-05
-0.00430044 0.000710343 1e-05
-0.00411412 0.000716709 1e-05
-0.00392771 0.000713641 1e-05
-0.0037413 0.000711109 1e-05
-0.00355488 0.000709002 1e-05
-0.00336883 0.000707232 1e-05
-0.00318995 0.00071299 1e-05
-0.003011 0.000710276 1e-05
-0.00283204 0.000708017 1e-05
-0.00265308 0.00070612 1e-05
-0.00247443 0.000704516 1e-05
-0.0023027 0.00070975 1e-05
-0.00213091 0.0007074 1e-05
-0.00195911 0.000705378 1e-05
-0.0017873 0.000703623 1e-05
-0.00161577 0.000702088 1e-05
-0.0014509 0.000706696 1e-05
-0.00128598 0.000704376 1e-05
-0.00112106 0.00070231 1e-05
-0.000956136 0.000700452 1e-05
-0.000791418 0.000698767 1e-05
-0.000633135 0.000702517 1e-05
-0.000474825 0.000700137 1e-05
-0.00031651 0.000698091 1e-05
-0.000158191 0.00069632 1e-05
0 0.000694777 1e-05
0.000105677 0.000697045 1e-05
0.000211375 0.000696061 1e-05
0.000317073 0.000695221 1e-05
0.000422773 0.000694509 1e-05
0.000528387 0.000693911 1e-05
0.000634886 0.000696012 1e-05
0.000741405 0.000695555 1e-05
0.000847924 0.000695226 1e-05
0.000954444 0.000695012 1e-05
0.00106088 0.000694901 1e-05
0.00116821 0.000697052 1e-05
0.00127556 0.000697435 1e-05
0.0013829 0.000698116 1e-05
0.00149025 0.000699067 1e-05
0.00159752 0.000700261 1e-05
0.00170568 0.000703632 1e-05
0.00181387 0.000705828 1e-05
0.00192205 0.000708468 1e-05
0.00203022 0.000711518 1e-05
0.00213833 0.000714944 1e-05
0.00224733 0.000720779 1e-05
0.00235638 0.000725648 1e-05
0.00246541 0.000730994 1e-05
0.00257441 0.000736793 1e-05
0.00268334 0.000743017 1e-05
0.00279319 0.000751921 1e-05
0.0029031 0.000759962 1e-05
0.00301299 0.000768447 1e-05
0.00312284 0.000777364 1e-05
0.00323259 0.000787068 1e-05
0.00334329 0.000799106 1e-05
0.00345403 0.000810855 1e-05
0.00356476 0.000822609 1e-05
0.00367545 0.000834751 1e-05
0.00378611 0.00084813 1e-05
0.00389767 0.000863106 1e-05
0.00400924 0.000878055 1e-05
0.00412081 0.00089298 1e-05
0.00423232 0.000908352 1e-05
0.00434393 0.000924703 1e-05
0.00445636 0.000942188 1e-05
0.0045688 0.000959625 1e-05
0.00468122 0.000977173 1e-05
0.00479358 0.000995114 1e-05
0.00490609 0.00101353 1e-05
0.00499363 0.00102843 1e-05
0.0050812 0.0010432 1e-05
0.00516874 0.0010581 1e-05
0.00525626 0.00107313 1e-05
0.00534217 0.00108801 1e-05
0.00536826 0.00109257 1e-05
0.00539435 0.00109715 1e-05
0.00542043 0.00110174 1e-05
0.00544652 0.00110634 1e-05
0.00547262 0.00111096 1e-05
0.00558681 0.00113104 1e-05
0.00570095 0.00115137 1e-05
0.00581508 0.00117179 1e-05
0.00592919 0.0011923 1e-05
0.00604356 0.00121283 1e-05
0.00615863 0.0012328 1e-05
0.00627364 0.00125316 1e-05
0.00638859 0.00127382 1e-05
0.00650357 0.00129436 1e-05
0.00661893 0.00131423 1e-05
0.0067349 0.00133343 1e-05
0.00685083 0.00135286 1e-05
0.00696673 0.0013725 1e-05
0.00708268 0.00139179 1e-05
[...]
POINT_DATA 10635
 FIELD attributes 2
p 1 10635 float
129.959 145.196 149.543 152.142 152.856 150.717 139.904 777.551 756.168 593.243 662.526 302.077 287.837 264.111 -43.1895 17.5506 110.109 -30.3023 -141.556 -50.5943 121.791 -23.6368 -164.632 -98.2288 -39.3027 -64.9208 -206.41 -213.058 -194.927 -189.991 -205.891 -223.545 -249.372 -266.889 -285.55 -305.308 -304.915 -278.579 -324.271 -371.75 -384.698 -386.595 -392.668 -396.233 -399.54 -403.609 -386.324 -364.287 -347.704 -333.054 -311.841 -291.946 -291.644 -279.027 -267.406 -252.943 -237.891 -219.675 -211.839 -204.222 -196.832 -196.197 -196.731 -162.746 -130.87 -121.399 -129.702 -134.639 -99.6974 -75.8179 -67.5599 -66.4799 -76.2656 -47.1885 -39.8554 -32.7869 -26.0282 -29.1583 -14.4587 -8.84219 -3.61735 1.14813 -1.86109 8.89405 11.3063 13.1528 14.3905 -9.32473 13.2268 12.2571 8.87286 -3.82785 -82.5876 -79.3088 -90.976 -131.635 -172.394 -201.865 -223.943 -246.06 -272.233 -306.576 -373.989 -429.775 -486.114 -542.866 -606.726 -676.552 -789.29 -901.043 -1014.04 -1155.49 -1426.55 -1426.55 -1426.55 -1426.55 -1426.55 -1426.55 -1425.04 -1421.8 -1417.24 -1411.7 -1405.13 -1356.19 -1304.38 -1252.5 -1201.11 -698.55 -693.951 -689.94 -686.457 -682.975 -663.766
113.72 113.615 88.9258 10.8426 -0.450867 -8.73011 37.2448 -30.4507 -129.969 -126.166 -119.682 -133.541 -148.417 -168.408 -186.178 -205.171 -225.304 -221.782 -214.563 -234.029 -254.209 -272.844 -279.233 -286.775 -293.256 -304.668 -301.095 -291.225 -283.062 -279.3 -275.475 -268.359 -261.407 -258.375 -245.9 -234.896 -223.245 -205.618 -185.258 -179.01 -172.893 -167.815 -166.592 -165.65 -135.515 -105.13 -93.5978 -96.334 -98.009 -80.4436 -69.4462 -64.5284 -59.6614 -53.5008 -50.4735 -47.471 -44.4942 -42.5888 -42.8796 -28.6371 -19.9344 -11.3822 -9.91545 -11.2318 4.23228 19.7423 26.0857 23.7763 21.5359 36.9984 48.2097 52.3268 54.3856 51.2367 65.0717 67.6842 70.278 72.8488 72.6742 76.1622 76.2933 76.4138 76.5231 76.568 77.0741 77.5713 78.0568 78.5278 74.8483 75.7857 76.125 75.9178 70.1955 51.5989 47.4245 41.2772 35.2442 29.2806 22.1259 19.0241 14.6451 10.3169 6.02358 0.938578 0.035106 -2.63457 -5.2544 -7.83831 -11.6489 -11.3913 -13.1203 -14.8031 -16.4516 -19.5101 -18.753 -19.9085 -21.0257 -22.1137 -24.5754 -23.5055 -24.2239 -24.9114 -25.575 -27.5509 -26.2704 -26.6943 -27.0938 -27.474 -29.1338 -27.773 -27.9787 -28.1647 -28.3349 -29.7099 -28.2618 -28.3048 -28.3337 -28.3514 -29.5461 -28.0332 -27.7428 -27.4429 -27.1353 -27.8413 -26.1468 -25.7146 -25.2698 -24.8148 -25.4067 -23.994 -23.8529 -23.7061 -23.5541 -24.4181 -23.462 -23.2884 -23.111 -22.9302 -23.4441 -22.7039 -22.326 -21.9436 -21.5569 -21.6314 -21.0048 -20.4776 -19.9495 -19.4207 -19.1844 -18.5879 -17.8853 -17.1867 -16.4921 -15.9247 -15.4949 -14.784 -14.0798 -13.3735 -12.6447 -12.3575 -11.9962 -11.5433 -11.0387 -10.5394 -10.4513 -10.3629 -10.3029 -10.2849 -10.2811 -10.4866 -10.7167 -10.9929 -11.3164 -11.8564 -12.263 -12.7461 -13.2307 -13.7169 -14.1958 -14.3191 -14.4425 -14.566 -14.6895 -14.7517 -15.5398 -16.3515 -17.1634 -17.942 -18.5234 -19.3798 -20.2619 -21.2475 -22.0547 -22.8669 -23.7853 -24.7026 -25.4523 -26.3362 -27.2688 -28.1913 -28.9805 -29.7457 -30.516 -31.3946 -31.8513 -32.2571 -32.6655 -33.0765 -33.5605 -33.8845 -34.2098 -34.5365 -34.8646 -35.17 -35.8108 -36.5097 -37.2187 -37.938 -38.6132 -39.1045 -39.7297 -40.3675 -41.0127 -41.6402 -42.0544 -42.5552 -43.1037 -43.6665 -44.2374 -44.5653 -44.9502 -45.3864 -45.8551 -46.3537 -46.5789 -46.856 -47.1747 -47.5361 -47.9636 -48.0811 -48.2547 -48.4523 -48.6631 -49.0081 -49.026 -49.0869 -49.1586 -49.2416 -49.3957 -49.3476 -49.3153 -49.286 -49.2596 -49.2416 -49.2398 -49.2404 -49.2433 -49.2485 -49.259 -49.0492 -48.9162 -48.792 -48.6715 -48.4665 -48.0832 -47.7672 -47.5374 -47.2037 -46.8601 -46.4433 -46.0311 -45.5035 -45.0441 -44.5859 -44.1171 -43.567 -42.9891 -42.4126 -41.8799 -41.7352 -41.5854 -41.4358 -41.2863 -41.1388 -40.7552 -40.3722 -39.9898 -39.6117 -39.3143 -38.7239 -38.2397 -37.8001 -37.4871 -37.2063 -36.7719 -36.3403 -36.0337 -35.8268 -35.658 -35.4602 -35.3093 -35.1736 -35.0411 -34.9344 -34.874 -34.8142 -34.7549 -34.6947 -34.6326 -34.4558 -34.3331 -34.2148 -34.075 -33.9298 -33.8486 -33.7466 -33.5998 -33.4528 -33.3118 -33.3091 -33.3038 -33.2955 -33.2872 -33.2788 -33.1424 -33.005 -32.8667 -32.6765 -32.4506 -32.3164 -32.1809 -31.9683 -31.7559 -31.5521 -31.4972 -31.405 -31.3028 -31.201 -31.0526 -30.9924 -30.9325 -30.8729 -30.8135 -30.7264 -30.6263 -30.5168 -30.4107 -30.3028 -30.1364 -30.1558 -30.1532 -30.1409 -30.107 -30.051 -30.1746 -30.283 -30.3693 -30.4444 -30.5106 -30.738 -30.9461 -31.1413 -31.3391 -31.5417 -31.8906 -32.186 -32.4825 -32.7801 -33.0851 -33.3172 -33.5333 -33.7495 -33.9658 -34.1316 -34.3133 -34.495 -34.6765 -34.858 -35.0274 -35.4782 -35.9454 -36.4119 -36.8652 -37.2797 -37.7743 -38.2694 -38.7966 -39.2855 -39.7755 -40.3325 -40.88 -41.3718 -41.8797 -42.4089 -42.9217 -43.3736 -43.8256 -44.2776 -44.7266 -44.789 -44.8515 -44.9139 -44.9764 -45.0331 -45.5452 -46.0647 -46.5849 -47.1019 -47.5612 -48.0398 -48.5286 -49.0385 -49.4836 -49.9292 -50.3883 -50.8498 -51.2544 -51.674 -52.0972 -52.5302 -52.9107 -53.2689 -53.6317 -54.003 -54.2956 -54.543 -54.7943 -55.0495 -55.3983 -55.4374 -55.4765 -55.5156 -55.5549 -55.5894 -55.8301 -56.0751 -56.3261 -56.5832 -56.7976 -56.9652 -57.1192 -57.2803 -57.4483 -57.5528 -57.6477 -57.7143 -57.7848 -57.8496 -57.8723 -57.8873 -57.8788 -57.8673 -57.8516 -57.8105 -57.7619 -57.6932 -57.6249 -57.5624 -57.487 -57.4039 -57.2933 -57.1912 -57.0978 -57.0039 -56.881 -56.7414 -56.6102 -56.4874 -56.3724 -56.364 -56.354 -56.3439 -56.3339 -56.3243 -56.1735 -56.0307 -55.896 -55.7694 -55.6084 -55.4239 -55.2413 -55.0676 -54.8643 -54.6331 -54.4092 -54.1939 -53.9448 -53.66 -53.3821 -53.1156 -52.8079 -52.4717 -52.1444 -51.8225 -51.7656 -51.6959 -51.6221 -51.5486 -51.4797 -51.1859 -50.8989 -50.6186 -50.317 -49.9658 -49.5567 -49.1577 -48.712 -48.2303 -47.7511 -47.501 -47.2326 -46.9355 -46.6416 -46.3936 -46.1648 -45.9385 -45.7145 -45.465 -45.204 -44.6391 -44.0852 -43.4972 -42.8945 -42.2868 -42.127 -41.9669 -41.7897 -41.6131 -41.4482 -40.9616 -40.4808 -40.0057 -39.5005 -38.9858 -38.4306 -37.8819 -37.3052 -36.7343 -36.2588 -36.0752 -35.8922 -35.7094 -35.517 -35.3234 -34.5211 -33.7293 -32.9315 -32.1428 -31.3352 -31.2589 -31.1827 -31.1058 -31.0289 -30.9533 -30.1748 -29.4036 -28.6395 -27.8809 -27.0975 -26.8016 -26.5069 -26.2166 -25.9286 -25.656 -25.0534 -24.4546 -23.8615 -23.2781 -22.6781 -22.2042 -21.7327 -21.2734 -20.8209 -20.4017 -19.9419 -19.4841 -19.0323 -18.5923 -18.1416 -17.5291 -16.9203 -16.3335 -15.7596 -15.234 -14.892 -14.551 -14.2156 -13.8909 -13.5597 -12.8499 -12.1446 -11.4683 -10.8107 -10.2115 -9.9645 -9.71797 -9.47642 -9.24355 -9.00695 -8.23739 -7.47292 -6.74269 -6.03599 -5.39314 -5.2206 -5.04829 -4.87981 -4.71743 -4.55301 -3.75818 -2.96864 -2.21671 -1.49219 -0.832561 -0.714856 -0.597255 -0.482356 -0.37144 -0.259452 0.528509 1.31143 2.05647 2.77236 3.42671 3.50728 3.5878 3.66647 3.74259 3.81928 4.57594 5.32834 6.04557 6.73434 7.369 7.42654 7.48406 7.54008 7.59413 7.64848 8.36114 9.07071 9.74767 10.3977 11.0059 11.0487 11.0915 11.1318 11.1705 11.2094 11.8084 12.4061 12.9769 13.5071 14.0149 14.1281 14.2413 14.3461 14.4467 14.5479 14.9955 15.4428 15.8736 16.2692 16.6572 16.8524 17.0476 17.2258 17.3968 17.5679 17.8717 18.1755 18.4696 18.7391 19.0094 19.2633 19.5172 19.7396 19.9489 20.1527 20.3402 20.5275 20.6981 20.8319 20.9679 21.2144 21.4604 21.6445 21.797 21.9434 22.0283 22.1131 22.1841 22.2309 22.2782 22.4277 22.5769 22.689 22.779 22.8667 22.8954 22.9241 22.9526 22.9807 23.0089 23.1021 23.1939 23.2937 23.3965 23.4862 23.5047 23.523 23.542 23.5614 23.5811 23.6676 23.749 23.8289 23.9073 23.9646 23.9837 24.0019 24.0202 24.0375 24.0555 24.0781 24.0975 24.1134 24.1142 24.1118 24.115 24.1102 24.0805 24.0445 24.0076 24.0016 23.9924 23.9797 23.9668 23.9527 23.9056 23.8554 23.8024 23.7499 23.7019 23.5977 23.4892 23.3809 23.2729 23.1679 23.0233 22.8764 22.7274 22.576 22.4286 22.3529 22.2773 22.2012 22.1248 22.0339 21.9371 21.8396 21.7415 21.6427 21.5222 21.3401 21.1427 20.9437 20.7314 20.4898 20.2925 20.091 19.8776 19.6254 19.3723 19.1635 18.9541 18.7203 18.4644 18.2088 17.9991 17.7869 17.5429 17.2914 17.0382 16.8324 16.6114 16.3755 16.1367 15.8927 15.695 15.4753 15.252 15.0285 14.7985 14.6078 14.4009 14.1938 13.9865 13.7764 13.5971 13.409 13.2208 13.0324 12.8427 12.6799 12.5128 12.3457 12.1785 12.0107 11.8688 11.725 11.5812 11.4374 11.2931 11.1746 11.0553 10.9359 10.8165 10.6967 10.6019 10.5066 10.4112 10.3158 10.2198 10.1472 10.0739 10.0005 9.92713 9.8525 9.79935 9.74487 9.69036 9.63581 9.57882 9.54253 9.50355 9.46453 9.42547 9.38192 9.36058 9.33425 9.30789 9.28149 9.24769 9.24029 9.22463 9.20894 9.19323 9.16637 9.17266 9.16623 9.15977 9.1533 9.131 9.15094 9.15297 9.15499 9.15502 9.138 9.16731 9.18236 9.19304 9.19678 9.18871 9.22679 9.25654 9.27594 9.28278 9.28329 9.32896 9.37305 9.4002 9.40844 9.41638 9.4682 9.52005 9.55246 9.56606 9.57956 9.63573 9.69194 9.72892 9.74599 9.76297 9.82133 9.87749 9.91514 9.93851 9.95767 10.017 10.0653 10.1036 10.1371 10.1567 10.2149 10.2535 10.2915 10.3295 10.355 10.4025 10.4397 10.4769 10.514 10.5497 10.5555 10.5602 10.5648 10.5695 10.5741 10.6053 10.6364 10.6675 10.6986 10.7321 10.7657 10.799 10.8323 10.8656 10.9016 10.9336 10.9643 10.9946 11.0257 11.0573 11.0862 11.1152 11.1426 11.1711 11.1996 11.2237 11.2478 11.2737 11.3002 11.3267 11.3452 11.3654 11.388 11.4112 11.4366 11.4513 11.4715 11.4917 11.5119 11.5333 11.5362 11.5401 11.544 11.5478 11.5516 11.5656 11.5795 11.5935 11.6075 11.6176 11.6341 11.6509 11.6676 11.6845 11.7016 11.7199 11.7382 11.7559 11.7727 11.7896 11.8073 11.8249 11.8425 11.8602 11.878 11.8937 11.9092 11.9245 11.9399 11.9531 11.9569 11.9607 11.9644 11.9682 11.9721 11.9894 12.0066 12.0237 12.0402 12.0556 12.0685 12.0813 12.0963 12.1134 12.1306 12.144 12.1583 12.173 12.1878 12.203 12.2047 12.2064 12.2081 12.2099 12.2116 12.2225 12.2335 12.2445 12.2561 12.27 12.279 12.288 12.3011 12.3187 12.3363 12.3468 12.3594 12.3743 12.3893 12.4055 12.4082 12.4121 12.4162 12.4203 12.4245 12.4354 12.4463 12.4573 12.4687 12.4831 12.4957 12.5096 12.5248 12.5448 12.5649 12.5784 12.5921 12.6095 12.6279 12.6469 12.6586 12.6744 12.6903 12.7061 12.7247 12.7253 12.7259 12.7265 12.727 12.7278 12.7447 12.7617 12.7788 12.7958 12.8191 12.8338 12.8502 12.8681 12.8918 12.9168 12.9329 12.949 12.9695 12.994 13.0184 13.0341 13.0512 13.0706 13.0906 13.1118 13.125 13.1423 13.1595 13.1766 13.1948 13.2032 13.2132 13.2233 13.2333 13.2452 13.2516 13.2581 13.2646 13.271 13.2785 13.2938 13.3095 13.3251 13.3406 13.3581 13.3692 13.3816 13.3939 13.4065 13.4214 13.4295 13.4397 13.4511 13.4648 13.4806 13.4901 13.5002 13.5124 13.5275 13.5431 13.553 13.5629 13.5746 13.5885 13.6024 13.6112 13.6199 13.6309 13.644 13.6571 13.6654 13.6735 13.684 13.6966 13.7091 13.717 13.7249 13.7349 13.747 13.7591 13.7669 13.7747 13.7846 13.7967 13.8087 13.8168 13.8247 13.835 13.8474 13.8598 13.8683 13.8768 13.8879 13.9016 13.9153 13.9253 13.9352 13.948 13.9636 13.9793 13.9916 14.004 14.0193 14.0372 14.0552 14.0707 14.0865 14.1048 14.1244 14.1442 14.1626 14.1816 14.2018 14.2222 14.2428 14.2626 14.2832 14.3042 14.325 14.3451 14.3652 14.3865 14.4077 14.4289 14.4492 14.4699 14.4914 14.513 14.5346 14.5556 14.5697 14.5845 14.5993 14.6141 14.6281 14.6364 14.6447 14.653 14.6613 14.6699 14.6947 14.7192 14.7437 14.7682 14.7934 14.8195 14.8442 14.8689 14.8937 14.9188 14.945 14.9694 14.9932 15.0169 15.0404 15.0649 15.089 15.1114 15.1331 15.1549 15.1775 15.2 15.2214 15.242 15.2626 15.284 15.3053 15.3264 15.3465 15.3666 15.3875 15.4083 15.429 15.4489 15.4682 15.4884 15.5086 15.5287 15.5486 15.5673 15.5868 15.6056 15.6244 15.6432 15.6602 15.6768 15.6931 15.7094 15.7256 15.741 15.7524 15.7637 15.775 15.7862 15.8015 15.8024 15.8034 15.8043 15.8053 15.8062 15.8165 15.8266 15.8367 15.8468 15.8568 15.8624 15.8662 15.87 15.8737 15.8754 15.8757 15.8751 15.8744 15.8735 15.8721 15.87 15.8652 15.8553 15.8359 15.8154 15.794 15.7725 15.7428 15.7056 15.6683 15.6295 15.5895 15.5472 15.5044 15.461 15.4155 15.3694 15.3232 15.277 15.2311 15.1983 15.1649 15.1314 15.0979 15.0564 15.0419 15.0274 15.0128 14.9983 14.9834 14.9294 14.8751 14.8207 14.7663 14.7101 14.6511 14.5902 14.5292 14.4677 14.403 14.3365 14.2685 14.1997 14.1291 14.0568 13.9824 13.9075 13.83 13.7487 13.667 13.5828 13.4985 13.4121 13.3233 13.2344 13.1426 13.0508 12.9553 12.8563 12.7572 12.6547 12.5522 12.4477 12.3413 12.2349 12.1247 12.0144 11.9023 11.789 11.6756 11.558 11.4393 11.3185 11.1964 11.0733 10.9456 10.8154 10.6835 10.5506 10.4153 10.2748 10.1305 9.98528 9.83991 9.69056 9.53526 9.37439 9.21353 9.05267 8.88763 8.71352 8.53435 8.35519 8.17603 7.99328 7.79756 7.59767 7.39779 7.19792 6.99536 6.77463 6.55035 6.32608 6.10181 5.87563 5.62775 5.37838 5.12902 4.87966 4.62989 4.51856 4.40606 4.29356 4.18106 4.05417 3.88323 3.71229 3.54134 3.37038 3.19784 2.90514 2.61479 2.32447 2.03415 1.7496 1.41815 1.07032 0.722479 0.374625 0