# vtk DataFile Version 2.0
track0
ASCII
DATASET POLYDATA
POINTS 10895 double
-0.0205 0.001 1e-05
-0.0202034 0.00100003 1e-05
-0.0199069 0.00100026 1e-05
-0.0196103 0.00100071 1e-05
-0.0193137 0.00100137 1e-05
-0.0190172 0.00100225 1e-05
-0.0187132 0.00100354 1e-05
-0.0184093 0.0010045 1e-05
-0.0181054 0.00100547 1e-05
-0.0178015 0.00100644 1e-05
-0.0174976 0.00100741 1e-05
-0.0172058 0.00100863 1e-05
-0.016914 0.00100939 1e-05
-0.0166222 0.0010101 1e-05
-0.0163305 0.00101076 1e-05
-0.0160387 0.00101135 1e-05
-0.0157586 0.0010122 1e-05
-0.0154784 0.0010126 1e-05
-0.0151983 0.00101297 1e-05
-0.0149182 0.00101329 1e-05
-0.0146381 0.00101356 1e-05
-0.0143692 0.00101411 1e-05
-0.0141002 0.00101426 1e-05
-0.0138313 0.00101436 1e-05
-0.0135624 0.00101444 1e-05
-0.0132934 0.00101447 1e-05
-0.0130353 0.00101482 1e-05
-0.0127771 0.00101476 1e-05
-0.0125189 0.00101468 1e-05
-0.0122607 0.00101457 1e-05
-0.0120025 0.00101442 1e-05
-0.0117547 0.00101463 1e-05
-0.0115068 0.00101443 1e-05
-0.0112589 0.0010142 1e-05
-0.0110111 0.00101394 1e-05
-0.0107632 0.00101367 1e-05
-0.0105252 0.00101379 1e-05
-0.0102873 0.00101347 1e-05
-0.0100493 0.00101313 1e-05
-0.00981133 0.00101276 1e-05
-0.00957337 0.00101238 1e-05
-0.00934491 0.00101245 1e-05
-0.00911645 0.00101203 1e-05
-0.008888 0.0010116 1e-05
-0.00865954 0.00101114 1e-05
-0.00843108 0.00101067 1e-05
-0.00821175 0.0010107 1e-05
-0.00799242 0.0010102 1e-05
-0.00777309 0.00100968 1e-05
-0.00755376 0.00100914 1e-05
-0.00733443 0.00100858 1e-05
-0.00712387 0.0010086 1e-05
-0.0069133 0.00100802 1e-05
-0.00670273 0.00100742 1e-05
-0.00649217 0.0010068 1e-05
-0.0062816 0.00100615 1e-05
-0.00607944 0.00100616 1e-05
-0.00587729 0.0010055 1e-05
-0.00567514 0.00100483 1e-05
-0.00547299 0.00100413 1e-05
-0.00527083 0.00100341 1e-05
-0.00507675 0.00100341 1e-05
-0.00488268 0.00100268 1e-05
-0.0046886 0.00100193 1e-05
-0.00449452 0.00100115 1e-05
-0.00430044 0.00100035 1e-05
-0.00411412 0.00100035 1e-05
-0.0039278 0.000999539 1e-05
-0.00374148 0.000998706 1e-05
-0.00355516 0.000997847 1e-05
-0.00336883 0.000996962 1e-05
-0.00318995 0.000996946 1e-05
-0.00301107 0.000996052 1e-05
-0.0028322 0.000995129 1e-05
-0.00265332 0.000994177 1e-05
-0.00247443 0.000993194 1e-05
-0.0023027 0.000993158 1e-05
-0.00213097 0.000992161 1e-05
-0.00195924 0.000991131 1e-05
-0.00178751 0.000990066 1e-05
-0.00161577 0.000988965 1e-05
-0.0014509 0.000988896 1e-05
-0.00128603 0.000987776 1e-05
-0.00112117 0.00098661 1e-05
-0.000956302 0.000985396 1e-05
-0.000791418 0.000984133 1e-05
-0.000633135 0.000983982 1e-05
-0.000474856 0.000982663 1e-05
-0.000316579 0.00098129 1e-05
-0.000158301 0.000979863 1e-05
0 0.00097838 1e-05
0.000105677 0.000978208 1e-05
0.00021135 0.000977154 1e-05
0.000317022 0.000976066 1e-05
0.000422693 0.000974943 1e-05
0.000528387 0.000973783 1e-05
0.000634886 0.000973607 1e-05
0.000741379 0.000972416 1e-05
0.000847871 0.000971199 1e-05
0.000954363 0.000969956 1e-05
0.00106088 0.000968685 1e-05
0.00116821 0.000968538 1e-05
0.00127553 0.000967268 1e-05
0.00138285 0.000965974 1e-05
0.00149017 0.000964656 1e-05
0.00159752 0.000963388 1e-05
0.00170568 0.000963272 1e-05
0.00181383 0.000962087 1e-05
0.00192199 0.000960758 1e-05
0.00203014 0.000959407 1e-05
0.00213833 0.000958258 1e-05
0.00224733 0.000958175 1e-05
0.00235633 0.000957118 1e-05
0.00246532 0.000955789 1e-05
0.00257431 0.000954438 1e-05
0.00268334 0.000953407 1e-05
0.00279319 0.00095335 1e-05
0.00290303 0.000952408 1e-05
0.00301288 0.000951092 1e-05
0.00312272 0.000949755 1e-05
0.00323259 0.000948825 1e-05
0.00334329 0.000948781 1e-05
0.00345399 0.000947932 1e-05
0.00356469 0.000946636 1e-05
0.00367538 0.000945317 1e-05
0.00378611 0.000944471 1e-05
0.00389767 0.000944427 1e-05
0.00400923 0.000943653 1e-05
0.00412079 0.000942377 1e-05
0.00423235 0.000941078 1e-05
0.00434393 0.000940299 1e-05
0.00445636 0.000940244 1e-05
0.00456879 0.000939527 1e-05
0.00468122 0.000938268 1e-05
0.00479364 0.000936986 1e-05
0.00490609 0.000936257 1e-05
0.0050194 0.000936182 1e-05
0.0051327 0.000935504 1e-05
0.005246 0.000934258 1e-05
0.0053593 0.000932988 1e-05
0.00547262 0.000932291 1e-05
0.00558681 0.000932188 1e-05
0.00570099 0.000931534 1e-05
0.00581517 0.000930333 1e-05
0.00592936 0.000929123 1e-05
0.00604356 0.000928446 1e-05
0.00615863 0.000928307 1e-05
0.0062737 0.000927664 1e-05
0.00638877 0.000926522 1e-05
0.00650384 0.000925369 1e-05
0.00661893 0.0009247 1e-05
0.0067349 0.000924519 1e-05
0.00685087 0.000923878 1e-05
0.00696683 0.000922779 1e-05
0.0070828 0.000921669 1e-05
0.00719878 0.000920999 1e-05
0.00731565 0.000920773 1e-05
0.00743252 0.000920125 1e-05
0.00754939 0.000919057 1e-05
0.00766625 0.000917978 1e-05
0.00778313 0.000917299 1e-05
0.00790091 0.000917023 1e-05
0.00801869 0.00091636 1e-05
0.00813647 0.000915313 1e-05
0.00825424 0.000914253 1e-05
0.00837203 0.000913558 1e-05
0.00849073 0.000913229 1e-05
0.00860942 0.000912545 1e-05
0.00872811 0.000911509 1e-05
0.00884681 0.000910459 1e-05
0.00896551 0.000909742 1e-05
0.00908513 0.000909358 1e-05
0.00920475 0.000908648 1e-05
0.00932436 0.000907614 1e-05
0.00944398 0.000906567 1e-05
0.0095636 0.000905822 1e-05
0.00968415 0.000905381 1e-05
0.0098047 0.000904639 1e-05
0.00992524 0.0009036 1e-05
0.0100458 0.000902548 1e-05
0.0101663 0.000901771 1e-05
0.0102878 0.000901271 1e-05
0.0104093 0.000900494 1e-05
0.0105308 0.000899452 1e-05
0.0106523 0.000898404 1e-05
0.0107738 0.000897591 1e-05
0.0108962 0.000897029 1e-05
0.0110186 0.000896213 1e-05
0.0111411 0.000895181 1e-05
0.0112635 0.000894144 1e-05
0.0113859 0.000893292 1e-05
0.0115093 0.000892666 1e-05
0.0116327 0.000891807 1e-05
0.0117561 0.000890777 1e-05
0.0118794 0.00088974 1e-05
0.0120028 0.000888844 1e-05
0.0121272 0.000888154 1e-05
0.0122515 0.000887249 1e-05
0.0123759 0.000886212 1e-05
0.0125002 0.000885166 1e-05
0.0126245 0.000884224 1e-05
0.0127498 0.000883469 1e-05
0.0128752 0.000882515 1e-05
0.0130005 0.000881461 1e-05
0.0131258 0.0008804 1e-05
0.0132511 0.000879409 1e-05
0.0133774 0.000878586 1e-05
0.0135036 0.000877581 1e-05
0.0136299 0.000876505 1e-05
0.0137562 0.00087542 1e-05
0.0138825 0.000874378 1e-05
0.0140098 0.000873487 1e-05
0.014137 0.000872428 1e-05
0.0142643 0.000871323 1e-05
0.0143915 0.000870209 1e-05
0.0145188 0.000869114 1e-05
0.0146471 0.000868154 1e-05
0.0147753 0.000867039 1e-05
0.0149036 0.000865899 1e-05
0.0150318 0.000864751 1e-05
0.0151601 0.000863599 1e-05
0.0152893 0.000862569 1e-05
0.0154186 0.000861399 1e-05
0.0155478 0.000860219 1e-05
0.0156771 0.000859031 1e-05
0.0158063 0.000857833 1e-05
0.0159366 0.000856733 1e-05
0.0160668 0.000855519 1e-05
0.0161971 0.000854295 1e-05
0.0163273 0.000853062 1e-05
0.0164576 0.00085182 1e-05
0.0165889 0.000850648 1e-05
0.0167201 0.000849385 1e-05
0.0168514 0.000848114 1e-05
0.0169827 0.000846832 1e-05
0.0171139 0.000845541 1e-05
0.0172462 0.000844298 1e-05
0.0173785 0.000842984 1e-05
0.0175108 0.00084166 1e-05
0.0176431 0.000840327 1e-05
0.0177754 0.000838984 1e-05
0.0179087 0.000837668 1e-05
0.018042 0.000836299 1e-05
0.0181753 0.00083492 1e-05
0.0183087 0.000833532 1e-05
0.018442 0.000832134 1e-05
0.0185763 0.000830745 1e-05
0.0187107 0.000829318 1e-05
0.018845 0.000827882 1e-05
0.0189794 0.000826436 1e-05
0.0191137 0.00082498 1e-05
0.0192491 0.000823518 1e-05
0.0193845 0.000822031 1e-05
0.0195199 0.000820535 1e-05
0.0196553 0.000819028 1e-05
0.0197907 0.000817512 1e-05
0.0198276 0.000817097 1e-05
0.0198644 0.000816681 1e-05
0.0199012 0.000816265 1e-05
0.019938 0.000815847 1e-05
0.0199743 0.000815435 1e-05
0.0200741 0.000814301 1e-05
0.0201738 0.000813161 1e-05
0.0202735 0.000812016 1e-05
0.0203733 0.000810865 1e-05
0.020473 0.000809709 1e-05
0.0206105 0.0008081 1e-05
0.020748 0.000806488 1e-05
0.0208855 0.000804864 1e-05
0.021023 0.000803231 1e-05
0.0211606 0.000801587 1e-05
0.0212991 0.000799906 1e-05
0.0214377 0.000798227 1e-05
0.0215763 0.000796538 1e-05
0.0217149 0.000794838 1e-05
0.0218535 0.000793127 1e-05
0.0219931 0.000791375 1e-05
0.0221328 0.000789628 1e-05
0.0222724 0.000787871 1e-05
0.0224121 0.000786103 1e-05
0.0225517 0.000784324 1e-05
0.0226925 0.000782499 1e-05
0.0228332 0.000780683 1e-05
0.022974 0.000778856 1e-05
0.0231147 0.000777017 1e-05
0.0232555 0.000775168 1e-05
0.0233973 0.000773268 1e-05
0.0235391 0.000771378 1e-05
0.023681 0.000769478 1e-05
0.0238228 0.000767566 1e-05
0.0239647 0.000765642 1e-05
0.0241076 0.000763667 1e-05
0.0242505 0.000761704 1e-05
0.0243935 0.00075973 1e-05
0.0245364 0.000757745 1e-05
0.0246794 0.000755748 1e-05
0.0248234 0.0007537 1e-05
0.0249675 0.000751662 1e-05
0.0251115 0.000749617 1e-05
0.0252556 0.000747559 1e-05
0.0253996 0.000745486 1e-05
0.0255448 0.000743363 1e-05
0.02569 0.000741247 1e-05
0.0258351 0.000739124 1e-05
0.0259803 0.000736989 1e-05
0.0261255 0.000734835 1e-05
0.0262718 0.000732634 1e-05
0.0264181 0.000730436 1e-05
0.0265644 0.000728232 1e-05
0.0267107 0.000726016 1e-05
0.026857 0.000723779 1e-05
0.0270044 0.000721499 1e-05
0.0271519 0.000719218 1e-05
0.0272993 0.000716933 1e-05
0.0274468 0.000714635 1e-05
0.0275942 0.000712316 1e-05
0.0277428 0.000709957 1e-05
0.0278914 0.000707595 1e-05
0.0280399 0.000705227 1e-05
0.0281885 0.000702848 1e-05
0.0283371 0.000700449 1e-05
0.0284869 0.000698011 1e-05
0.0286366 0.000695568 1e-05
0.0287863 0.00069312 1e-05
0.0289361 0.000690658 1e-05
0.0290858 0.00068818 1e-05
0.0292367 0.000685666 1e-05
0.0293876 0.000683143 1e-05
0.0295385 0.000680613 1e-05
0.0296894 0.000678071 1e-05
0.0298403 0.000675515 1e-05
0.0299924 0.000672923 1e-05
0.0301445 0.000670323 1e-05
0.0302966 0.000667712 1e-05
0.0304486 0.00066509 1e-05
0.0306007 0.000662455 1e-05
0.030754 0.000659788 1e-05
0.0309072 0.000657108 1e-05
0.0310605 0.000654417 1e-05
0.0312138 0.000651715 1e-05
0.031367 0.000649003 1e-05
0.0315215 0.000646258 1e-05
0.0316759 0.0006435 1e-05
0.0318304 0.000640729 1e-05
0.0319848 0.000637947 1e-05
0.0321393 0.000635156 1e-05
0.0322949 0.000632334 1e-05
0.0324506 0.000629497 1e-05
0.0326062 0.000626645 1e-05
0.0327619 0.000623783 1e-05
0.0329175 0.000620913 1e-05
[...]
POINT_DATA 10895
 FIELD attributes 1
U 3 10895 float
10.0021 	0.000980277 	0 10.0076 	0.00792801 	0 10.013 	0.0151173 	0 10.0184 	0.0223198 	0 10.0239 	0.0295355 	0 10.0305 	0.0425858 	0 10.0339 	0.0319188 	0 10.0371 	0.0319382 	0 10.0403 	0.0319576 	0 10.0434 	0.0319771 	0 10.0462 	0.0419931 	0 10.0442 	0.026441 	0 10.0432 	0.024486 	0 10.0422 	0.022505 	0 10.0412 	0.0204976 	0 10.0402 	0.0301714 	0 10.0367 	0.0146312 	0 10.0344 	0.0130465 	0 10.0321 	0.0114342 	0 10.0298 	0.00979395 	0 10.0279 	0.0206462 	0 10.0245 	0.00526014 	0 10.0222 	0.00398652 	0 10.0199 	0.00268674 	0 10.0175 	0.00136023 	0 10.0155 	0.0135562 	0 10.0123 	-0.00221149 	0 10.0099 	-0.00328313 	0 10.0074 	-0.00437934 	0 10.005 	-0.0055007 	0 10.0027 	0.00847154 	0 9.99967 	-0.00836257 	0 9.99715 	-0.00927086 	0 9.99464 	-0.0102014 	0 9.99212 	-0.0111548 	0 9.98963 	0.00515294 	0 9.98681 	-0.0135233 	0 9.98431 	-0.0143553 	0 9.98182 	-0.0152085 	0 9.97931 	-0.0160835 	0 9.97662 	0.00304698 	0 9.97412 	-0.0181863 	0 9.97167 	-0.019023 	0 9.96923 	-0.0198813 	0 9.96677 	-0.020762 	0 9.96383 	0.00165804 	0 9.9617 	-0.022752 	0 9.9593 	-0.0236304 	0 9.9569 	-0.0245319 	0 9.95449 	-0.0254569 	0 9.95122 	0.000752072 	0 9.94955 	-0.0273924 	0 9.94722 	-0.0283283 	0 9.94488 	-0.0292886 	0 9.94254 	-0.0302739 	0 9.93887 	0.000219118 	0 9.93778 	-0.0321997 	0 9.93554 	-0.033217 	0 9.9333 	-0.0342606 	0 9.93104 	-0.0353311 	0 9.92689 	-8.46765e-05 	0 9.92648 	-0.0373134 	0 9.92436 	-0.0384601 	0 9.92223 	-0.0396359 	0 9.9201 	-0.0408415 	0 9.9154 	-0.000403511 	0 9.91581 	-0.0430036 	0 9.9138 	-0.0443233 	0 9.91178 	-0.0456757 	0 9.90975 	-0.0470618 	0 9.90435 	-0.00092759 	0 9.90566 	-0.0494952 	0 9.90376 	-0.0510891 	0 9.90186 	-0.0527215 	0 9.89994 	-0.0543935 	0 9.89374 	-0.00208794 	0 9.89616 	-0.0574259 	0 9.89438 	-0.0593632 	0 9.89258 	-0.0613462 	0 9.89077 	-0.0633761 	0 9.88356 	-0.00415794 	0 9.887 	-0.0671464 	0 9.88496 	-0.0699301 	0 9.88289 	-0.0727774 	0 9.8808 	-0.0756898 	0 9.87175 	-0.00940042 	0 9.8751 	-0.0823219 	1.11619e-21 9.87275 	-0.0856168 	3.75584e-21 9.87038 	-0.0889866 	6.39353e-21 9.86798 	-0.092433 	9.02922e-21 9.85806 	-0.016098 	1.05858e-20 9.86212 	-0.0983082 	-1.49676e-20 9.85978 	-0.101525 	-1.94325e-20 9.85742 	-0.104791 	-2.39149e-20 9.85504 	-0.108107 	-2.8415e-20 9.8434 	-0.016322 	5.67129e-22 9.85114 	-0.110128 	-2.04602e-21 9.84906 	-0.112537 	-4.50494e-21 9.84698 	-0.114983 	-6.96223e-21 9.84488 	-0.117465 	-9.41785e-21 9.82908 	-0.0134446 	-1.05568e-20 9.8427 	-0.116516 	-9.85197e-21 9.8407 	-0.118658 	-6.49744e-21 9.83868 	-0.120831 	-3.14189e-21 9.8354 	-0.11614 	-3.79861e-22 9.81378 	-0.010497 	-6.31632e-21 9.83217 	-0.107784 	-6.58251e-22 9.83234 	-0.120827 	-9.28966e-21 9.83011 	-0.122781 	-1.98019e-20 9.82276 	-0.104354 	-3.00487e-20 9.79588 	-0.00742727 	-3.93228e-20 9.81828 	-0.0952044 	-6.3088e-20 9.82234 	-0.1198 	-6.49566e-20 9.81987 	-0.121681 	-5.89641e-20 9.80717 	-0.0927418 	-4.34169e-20 9.77527 	-0.0050453 	-9.69091e-21 9.80158 	-0.0840953 	-9.43551e-21 9.81059 	-0.117506 	-3.67627e-21 9.80786 	-0.119437 	5.85305e-21 9.78864 	-0.0827972 	1.62244e-20 9.75177 	-0.00394592 	2.7516e-20 9.78156 	-0.0749483 	8.46718e-20 9.79626 	-0.114734 	1.14511e-19 9.79316 	-0.116696 	1.11255e-19 9.76641 	-0.0745759 	7.2004e-20 9.72483 	-0.00390584 	9.41438e-21 9.75768 	-0.0676532 	-6.50605e-20 9.77871 	-0.111872 	-1.1826e-19 9.77518 	-0.113842 	-1.25552e-19 9.74022 	-0.0679919 	-8.30512e-20 9.69437 	-0.00473075 	-2.24623e-20 9.7299 	-0.0620449 	-1.40688e-20 9.75774 	-0.109231 	-9.37227e-21 9.75378 	-0.111213 	-2.12046e-20 9.71015 	-0.0629924 	-4.19239e-20 9.66051 	-0.00636703 	-6.42232e-20 9.69834 	-0.0580202 	-7.64069e-20 9.73336 	-0.10708 	-8.75108e-20 9.72894 	-0.109069 	-8.10065e-20 9.67637 	-0.059473 	-5.90035e-20 9.6234 	-0.00872254 	-3.67324e-20 9.66317 	-0.0553633 	-2.36524e-20 9.70232 	-0.102038 	-1.05058e-20 9.69565 	-0.102693 	-3.04674e-22 9.6392 	-0.057168 	-3.38357e-21 9.58337 	-0.0115992 	-6.44256e-21 9.62471 	-0.0537663 	-3.50542e-21 9.66543 	-0.0959669 	-5.87676e-22 9.65774 	-0.0967374 	-6.67799e-22 9.59893 	-0.0558099 	-3.74599e-21 9.54072 	-0.0148416 	-6.80617e-21 9.58325 	-0.0530014 	-3.86915e-21 9.6252 	-0.0911932 	-9.49809e-22 9.61657 	-0.0920384 	-7.08102e-21 9.55587 	-0.0552182 	-1.70482e-20 9.49573 	-0.0183605 	-2.70871e-20 9.53913 	-0.0529277 	-5.26636e-20 9.58196 	-0.0875252 	-7.81722e-20 9.57249 	-0.0884185 	-8.30289e-20 9.51034 	-0.0552756 	-6.78083e-20 9.44873 	-0.0220985 	-5.26142e-20 9.49267 	-0.053434 	-1.02299e-19 9.53608 	-0.084798 	-1.51955e-19 9.52589 	-0.085717 	-1.43221e-19 9.46268 	-0.0558705 	-7.32857e-20 9.39999 	-0.0259927 	-3.29069e-21 9.44418 	-0.0544149 	-2.76385e-21 9.48787 	-0.0828635 	-2.28636e-21 9.47705 	-0.0837905 	2.09986e-21 9.41317 	-0.0569014 	8.95347e-21 9.34976 	-0.029984 	1.5837e-20 9.39393 	-0.0557771 	8.66916e-21 9.43762 	-0.0815945 	1.47267e-21 9.4263 	-0.0825186 	-2.4319e-21 9.36207 	-0.0582895 	-5.49177e-21 9.29829 	-0.0340348 	-8.54077e-21 9.3422 	-0.0574557 	-5.62688e-21 9.38564 	-0.080899 	-2.72415e-21 9.37392 	-0.0818137 	-4.23194e-22 9.30966 	-0.0599803 	-7.33075e-21 9.24581 	-0.0381237 	-1.42632e-20 9.28923 	-0.0594015 	-7.02797e-21 9.33044 	-0.0800326 	-2.57557e-22 9.31707 	-0.0803542 	-8.36192e-21 9.25622 	-0.0619243 	-2.88162e-20 9.19257 	-0.0422303 	-5.01085e-20 9.23533 	-0.0615688 	-1.36799e-19 9.26936 	-0.078066 	-2.10105e-19 9.25615 	-0.0784305 	-2.07929e-19 9.20203 	-0.0640757 	-1.30995e-19 9.13883 	-0.0463329 	-3.6921e-20 9.18075 	-0.0639162 	-2.2697e-20 9.20764 	-0.0768719 	-1.02125e-20 9.1946 	-0.0772715 	-2.42512e-21 9.14729 	-0.0663994 	0 9.08473 	-0.0504175 	0 9.12569 	-0.066415 	0 9.14552 	-0.0763433 	0 9.13264 	-0.0767711 	0 9.09218 	-0.0688678 	0 9.03042 	-0.0544731 	0 9.0703 	-0.0690353 	0 9.0832 	-0.076379 	4.17758e-21 9.0705 	-0.0768286 	1.23413e-20 9.03682 	-0.0714504 	2.31357e-20 8.97601 	-0.0584875 	3.73499e-20 9.01473 	-0.0717498 	1.3096e-19 9.02089 	-0.0768927 	1.63768e-19 9.00835 	-0.0773593 	1.61575e-19 8.98137 	-0.0741215 	1.31451e-19 8.92161 	-0.0624504 	3.77675e-20 8.9591 	-0.0745345 	2.36658e-20 8.95873 	-0.0778097 	2.11437e-20 8.94635 	-0.0782901 	2.22949e-20 8.92592 	-0.0768604 	2.50683e-20 8.86732 	-0.0663568 	3.55406e-20 8.90352 	-0.0773751 	9.60043e-20 8.89686 	-0.0790729 	9.6375e-20 8.88465 	-0.0795647 	8.89682e-20 8.8706 	-0.0796549 	7.91206e-20 8.81324 	-0.0702058 	1.1384e-20 8.84747 	-0.0801314 	-6.08946e-20 8.83544 	-0.0806323 	-7.90193e-20 8.82338 	-0.0811327 	-9.71381e-20 8.81131 	-0.0816328 	-1.15251e-19 8.75946 	-0.0739918 	-7.53343e-20 8.78649 	-0.0819314 	-1.44832e-19 8.77462 	-0.0824379 	-1.36836e-19 8.76272 	-0.0829441 	-1.28832e-19 8.7508 	-0.08345 	-1.20819e-19 8.70608 	-0.077706 	-5.02497e-20 8.72622 	-0.0839333 	-3.5383e-20 8.71449 	-0.0844428 	-2.48931e-20 8.70274 	-0.0849522 	-1.44043e-20 8.69097 	-0.0854613 	-3.91678e-21 8.65317 	-0.0813422 	0 8.66672 	-0.0860963 	1.11647e-21 8.65514 	-0.086607 	3.85337e-21 8.64353 	-0.0871177 	6.59057e-21 8.6319 	-0.0876281 	9.32806e-21 8.60077 	-0.084897 	1.20707e-20 8.60804 	-0.0883866 	1.09715e-20 8.59659 	-0.088897 	1.11212e-20 8.58513 	-0.0894074 	1.12715e-20 8.57364 	-0.0899177 	1.14224e-20 8.54891 	-0.0883684 	1.24551e-20 8.55023 	-0.0907752 	1.53555e-20 8.53892 	-0.0912842 	2.08322e-20 8.52758 	-0.0917931 	2.631e-20 8.51623 	-0.092302 	3.1789e-20 8.49763 	-0.0917556 	3.88188e-20 8.49332 	-0.0932374 	5.30215e-20 8.48214 	-0.0937438 	5.05581e-20 8.47094 	-0.0942501 	4.80847e-20 8.45972 	-0.0947565 	4.56012e-20 8.44697 	-0.0950571 	3.9511e-20 8.44541 	-0.0953836 	3.78214e-20 8.44243 	-0.0955192 	3.64542e-20 8.43945 	-0.0956548 	3.50872e-20 8.43646 	-0.0957904 	3.37202e-20 8.43353 	-0.095924 	3.23736e-20 8.42525 	-0.0962921 	2.82071e-20 8.41696 	-0.0966602 	2.40399e-20 8.40866 	-0.0970283 	1.9872e-20 8.40034 	-0.0973965 	1.57035e-20 8.39068 	-0.0981312 	1.24078e-20 8.38111 	-0.0983006 	7.3771e-21 8.36992 	-0.0987999 	-7.21743e-22 8.3587 	-0.0992993 	-8.81761e-21 8.34746 	-0.0997988 	-1.69105e-20 8.33328 	-0.101055 	-3.12656e-20 8.32582 	-0.100868 	-4.20918e-20 8.31475 	-0.101364 	-4.64783e-20 8.30365 	-0.101859 	-5.08675e-20 8.29253 	-0.102355 	-5.52596e-20 8.27713 	-0.103885 	-5.17886e-20 8.27157 	-0.103446 	-7.15228e-20 8.26061 	-0.10394 	-6.4759e-20 8.24963 	-0.104434 	-5.80034e-20 8.23863 	-0.104928 	-5.12561e-20 8.22222 	-0.106637 	-1.02675e-20 8.21836 	-0.106039 	-5.27642e-21 8.20752 	-0.106551 	-8.90188e-21 8.19666 	-0.107063 	-1.25266e-20 8.18577 	-0.107575 	-1.61505e-20 8.16852 	-0.109417 	-2.01968e-20 8.16623 	-0.108775 	-4.88333e-20 8.15546 	-0.109281 	-5.66978e-20 8.14466 	-0.109788 	-6.45652e-20 8.13384 	-0.110295 	-7.24355e-20 8.11581 	-0.112136 	-3.96217e-20 8.11489 	-0.111445 	3.51988e-20 8.10414 	-0.111917 	5.09691e-20 8.09337 	-0.112388 	6.67502e-20 8.08207 	-0.112942 	7.72032e-20 8.06382 	-0.114641 	1.33161e-20 8.0627 	-0.114042 	3.54374e-21 8.05336 	-0.114371 	1.5502e-21 8.04263 	-0.114855 	8.41856e-22 8.03027 	-0.11559 	3.26126e-22 8.01258 	-0.117146 	4.40663e-22 8.01104 	-0.116791 	3.18437e-22 8.00334 	-0.117028 	-5.01256e-21 7.99269 	-0.117549 	-1.28232e-20 7.9794 	-0.118409 	-2.05971e-20 7.96222 	-0.119771 	-2.83169e-20 7.96036 	-0.119619 	-2.00663e-20 7.95421 	-0.119803 	-1.17999e-20 7.94363 	-0.120333 	-3.51674e-21 7.92954 	-0.121221 	0 7.91282 	-0.122373 	0 7.9107 	-0.122383 	0 7.90602 	-0.12255 	-1.32523e-21 7.89553 	-0.123072 	-5.64849e-21 7.88073 	-0.123917 	-9.69013e-21 7.86446 	-0.12487 	-1.36369e-20 7.86213 	-0.125014 	-4.51989e-20 7.85886 	-0.125201 	-7.37911e-20 7.84847 	-0.125708 	-7.98362e-20 7.83306 	-0.126463 	-6.3196e-20 7.81722 	-0.127237 	-4.47499e-20 7.81472 	-0.127497 	-1.31384e-19 7.8122 	-0.127757 	-2.18018e-19 7.80198 	-0.128245 	-2.15894e-19 7.78656 	-0.128865 	-1.34482e-19 7.7711 	-0.129485 	-5.30715e-20 7.76847 	-0.129847 	-9.88719e-20 7.76582 	-0.13021 	-1.44673e-19 7.7563 	-0.130661 	-1.39219e-19 7.74123 	-0.131148 	-8.0597e-20 7.72613 	-0.131636 	-2.19761e-20 7.72338 	-0.132091 	-1.31006e-20 7.72062 	-0.132545 	-4.2259e-21 7.7118 	-0.132964 	0 7.69704 	-0.13334 	0 7.68226 	-0.133717 	0 7.67943 	-0.134254 	0 7.67657 	-0.134791 	0 7.66844 	-0.135185 	0 7.65397 	-0.135467 	0 7.63947 	-0.13575 	0 7.63657 	-0.136361 	0 7.63364 	-0.136972 	0 7.62618 	-0.137346 	0 7.61196 	-0.137551 	0 7.59773 	-0.137757 	0 7.59476 	-0.138434 	0 7.59163 	-0.139102 	0 7.58443 	-0.139455 	0 7.57097 	-0.139613 	0 7.55697 	-0.139754 	0 7.55395 	-0.140492 	0 7.55 	-0.141145 	0 7.54285 	-0.141503 	0 7.53096 	-0.141669 	0 7.51716 	-0.141758 	0 7.5141 	-0.142551 	0 7.50935 	-0.143166 	0 7.50225 	-0.143531 	0 7.49186 	-0.143735 	0 7.47824 	-0.143782 	0 7.47515 	-0.144626 	0 7.46962 	-0.145183 	0 7.46256 	-0.145557 	0 7.45362 	-0.145826 	-1.9593e-21 7.44017 	-0.14584 	-8.64516e-21 7.43704 	-0.14673 	-1.37918e-21 7.43076 	-0.147211 	0 7.42374 	-0.147597 	0 7.41621 	-0.147951 	-5.27955e-22 7.40289 	-0.14794 	-7.25847e-21 7.3997 	-0.148868 	0 7.39272 	-0.149266 	0 7.38572 	-0.149664 	0 7.3787 	-0.150062 	0 7.36637 	-0.150091 	0 7.36239 	-0.150945 	4.47981e-23 7.35543 	-0.151357 	2.58428e-22 7.34845 	-0.151769 	4.72084e-22 7.34145 	-0.152181 	6.85766e-22 7.33055 	-0.152301 	-1.41758e-21 7.3258 	-0.153069 	-1.63996e-20 7.31886 	-0.153495 	-1.51323e-20 7.31189 	-0.153922 	-1.3861e-20 7.3049 	-0.154349 	-1.25857e-20 7.2954 	-0.154576 	-5.96826e-21 7.28988 	-0.155247 	-4.00131e-21 7.28294 	-0.15569 	-1.18214e-20 7.27598 	-0.156132 	-1.96424e-20 7.269 	-0.156575 	-2.74645e-20 7.26086 	-0.156922 	-3.71437e-20 7.25559 	-0.157422 	-3.86143e-20 7.24966 	-0.157814 	-3.81463e-20 7.24372 	-0.158207 	-3.76769e-20 7.23777 	-0.158599 	-3.72061e-20 7.23197 	-0.15898 	-3.6748e-20 7.23088 	-0.159049 	-3.68623e-20 7.22979 	-0.159119 	-3.69766e-20 7.2287 	-0.159188 	-3.7091e-20 7.2276 	-0.159257 	-3.72055e-20 7.22647 	-0.159294 	-3.67913e-20 7.21946 	-0.159802 	-2.88319e-20 7.21229 	-0.160279 	-2.11411e-20 7.2051 	-0.160757 	-1.34491e-20 7.19788 	-0.161234 	-5.75594e-21 7.19043 	-0.161472 	0 7.18419 	-0.162193 	0 7.17701 	-0.162688 	0 7.16981 	-0.163184 	0 7.16258 	-0.16368 	0 7.15504 	-0.163743 	0 7.14946 	-0.164665 	0 7.14226 	-0.165179 	0 7.13504 	-0.165694 	0 7.1278 	-0.166209 	0 7.12026 	-0.166109 	0 7.11522 	-0.167224 	-3.15499e-23 7.108 	-0.167758 	-1.64641e-22 7.10076 	-0.168292 	-2.97707e-22 7.09349 	-0.168826 	-4.30749e-22 7.08603 	-0.168574 	-3.59585e-22 7.08141 	-0.169865 	-2.86988e-20 7.07419 	-0.170428 	-3.03869e-20 7.06692 	-0.170982 	-3.17615e-20 7.05962 	-0.171413 	-2.81058e-20 7.05229 	-0.171142 	4.19514e-21 7.04745 	-0.17243 	6.24031e-22 7.0408 	-0.173194 	4.30592e-21 7.0335 	-0.173769 	1.0589e-20 7.02622 	-0.17404 	1.68621e-20 7.01902 	-0.173814 	2.31203e-20 7.01396 	-0.175103 	1.62737e-20 7.0078 	-0.176059 	1.24142e-20 7.00045 	-0.176654 	1.17892e-20 6.99326 	-0.176774 	1.07308e-20 6.98616 	-0.176592 	9.39829e-21 6.9809 	-0.177883 	9.40998e-21 6.97514 	-0.179025 	9.21842e-21 6.96775 	-0.179642 	8.32147e-21 6.96068 	-0.179619 	1.00789e-20 6.95366 	-0.179479 	1.23155e-20 6.94822 	-0.180774 	9.11683e-21 6.94272 	-0.182068 	5.91456e-21 6.93541 	-0.182673 	5.42946e-21 6.92845 	-0.182574 	7.83644e-21 6.9215 	-0.182476 	1.02433e-20 6.91588 	-0.183776 	6.86423e-21 6.91021 	-0.185077 	3.48152e-21 6.90346 	-0.185702 	-1.18132e-21 6.89655 	-0.185643 	-4.8148e-21 6.88963 	-0.185584 	-8.44856e-21 6.88384 	-0.186891 	-5.17633e-21 6.87801 	-0.188198 	-1.90543e-21 6.87182 	-0.188845 	0 6.86492 	-0.188826 	0 6.85802 	-0.188806 	0 6.85208 	-0.190121 	0 6.84609 	-0.191435 	0 6.84043 	-0.192105 	-2.8031e-21 6.83354 	-0.192125 	-6.24517e-21 6.82665 	-0.192145 	-9.6876e-21 6.82056 	-0.193468 	-6.60143e-21 6.81447 	-0.194746 	-3.73999e-21 6.80907 	-0.195403 	-3.90744e-21 6.80237 	-0.195542 	-2.05496e-21 6.79547 	-0.195601 	1.10126e-22 6.78923 	-0.196935 	-2.73971e-20 6.78322 	-0.198058 	-4.56075e-20 6.77773 	-0.19874 	-4.43547e-20 6.77139 	-0.199081 	-2.5007e-20 6.76446 	-0.199178 	7.3044e-21 6.75809 	-0.200523 	-2.61063e-20 6.75217 	-0.201497 	-3.9648e-20 6.74658 	-0.202205 	-3.88694e-20 6.74057 	-0.202743 	-3.05936e-20 6.7336 	-0.202878 	-4.34564e-21 6.72709 	-0.204236 	-7.55801e-21 6.72129 	-0.205066 	-2.97091e-21 6.7156 	-0.205799 	3.07377e-21 6.70987 	-0.206531 	9.12001e-21 6.70285 	-0.206703 	1.75842e-20 6.69631 	-0.208008 	1.01444e-20 6.69054 	-0.208766 	1.3484e-20 6.68474 	-0.209524 	1.68258e-20 6.67891 	-0.210282 	2.01699e-20 6.67219 	-0.210656 	2.92834e-20 6.66578 	-0.211815 	3.48483e-20 6.6599 	-0.212599 	3.10119e-20 6.65399 	-0.213383 	2.71719e-20 6.64804 	-0.214167 	2.33283e-20 6.6416 	-0.214738 	1.31842e-20 6.63532 	-0.215756 	1.04901e-20 6.62933 	-0.216566 	7.80921e-21 6.6233 	-0.217376 	5.12906e-21 6.61724 	-0.218186 	2.4497e-21 6.61105 	-0.218951 	0 6.60933 	-0.219222 	5.84681e-22 6.60769 	-0.219448 	1.39587e-21 6.60603 	-0.219675 	2.20712e-21 6.60438 	-0.219902 	3.01842e-21 6.60275 	-0.220125 	3.81873e-21 6.59808 	-0.220734 	5.75367e-21 6.59338 	-0.221342 	7.68814e-21 6.58867 	-0.221951 	9.62217e-21 6.58394 	-0.222559 	1.15557e-20 6.57938 	-0.223045 	1.60965e-20 6.57313 	-0.224031 	2.10319e-20 6.5666 	-0.224891 	2.47209e-20 6.56004 	-0.225751 	2.84141e-20 6.55344 	-0.226611 	3.21118e-20 6.54726 	-0.227183 	2.81388e-20 6.54118 	-0.228365 	3.46988e-20 6.53451 	-0.229252 	3.53162e-20 6.5278 	-0.230138 	3.59371e-20 6.52105 	-0.231025 	3.65616e-20 6.51503 	-0.231458 	2.75286e-20 6.50907 	-0.232836 	3.70703e-20 6.50225 	-0.23375 	3.04774e-20 6.49539 	-0.234663 	2.38907e-20 6.48862 	-0.235506 	1.5849e-20 6.48264 	-0.23587 	-2.26688e-21 6.47656 	-0.237303 	-4.90149e-21 6.46983 	-0.238385 	-1.05577e-20 6.46281 	-0.239324 	-1.74291e-20 6.45619 	-0.240023 	-2.54153e-20 6.45008 	-0.240418 	-3.4811e-20 6.44381 	-0.241872 	-2.40764e-20 6.4372 	-0.243158 	-1.56718e-20 6.43003 	-0.244124 	-1.16738e-20 6.42358 	-0.244676 	-2.00603e-20 6.41733 	-0.245101 	-3.22833e-20 6.41086 	-0.246578 	7.29493e-22 6.40434 	-0.248054 	3.3743e-20 6.39712 	-0.249012 	3.84979e-20 6.39075 	-0.249466 	1.03347e-20 6.38435 	-0.24992 	-1.78316e-20 6.37769 	-0.251419 	-1.06167e-20 6.37097 	-0.252917 	-3.4033e-21 6.36421 	-0.253908 	0 6.35768 	-0.254391 	0 6.35112 	-0.254873 	0 6.34427 	-0.256395 	0 6.33736 	-0.257917 	0 6.33104 	-0.258941 	0 6.32434 	-0.25945 	0 6.31762 	-0.259959 	0 6.31058 	-0.261506 	0 6.3036 	-0.26299 	5.06236e-24 6.29745 	-0.264003 	4.86818e-23 6.29073 	-0.264643 	-1.44169e-21 6.28383 	-0.265178 	-3.35999e-21 6.2766 	-0.266749 	1.77811e-20 6.26977 	-0.268068 	2.59312e-20 6.26343 	-0.269105 	1.95431e-20 6.25681 	-0.269968 	6.06407e-21 6.24972 	-0.270529 	-1.9759e-20 6.2423 	-0.272124 	-1.32617e-20 6.23564 	-0.273273 	-8.7932e-21 6.2291 	-0.274333 	-4.72749e-21 6.22252 	-0.275393 	-6.63756e-22 6.21528 	-0.276008 	3.1684e-21 6.20786 	-0.277518 	5.96301e-22 6.20117 	-0.278601 	5.64864e-21 6.19443 	-0.279684 	1.07028e-20 6.18764 	-0.280767 	1.57589e-20 6.18049 	-0.281614 	2.37319e-20 6.17324 	-0.282945 	2.04716e-20 6.16634 	-0.284051 	1.02424e-20 6.15939 	-0.285156 	5.53986e-24 6.1524 	-0.28626 	-1.02389e-20 6.14533 	-0.287345 	-2.08116e-20 6.1447 	-0.28746 	-2.03824e-20 6.14409 	-0.287556 	-2.05753e-20 6.14349 	-0.287652 	-2.07684e-20 6.14288 	-0.287749 	-2.09615e-20 6.14228 	-0.287844 	-2.11538e-20 6.13614 	-0.288879 	-2.44184e-20 6.12996 	-0.289912 	-2.76985e-20 6.12373 	-0.290945 	-3.09944e-20 6.11747 	-0.291978 	-3.43059e-20 6.11101 	-0.292913 	-2.39352e-20 6.10483 	-0.29417 	-1.29857e-20 6.09788 	-0.295321 	-4.56988e-21 6.09088 	-0.296471 	3.84594e-21 6.08383 	-0.297621 	1.22617e-20 6.07636 	-0.298577 	1.73096e-20 6.0708 	-0.299959 	4.22636e-20 6.06363 	-0.30113 	4.44288e-20 6.05641 	-0.3023 	4.66054e-20 6.04908 	-0.303439 	4.49426e-20 6.04121 	-0.304357 	1.56367e-20 6.03569 	-0.30578 	1.11482e-20 6.02891 	-0.307048 	6.65094e-21 6.02148 	-0.308237 	2.1483e-21 6.01368 	-0.3093 	-4.50164e-21 6.00555 	-0.31025 	-1.31122e-20 5.99983 	-0.311681 	-5.90824e-21 5.99372 	-0.313071 	0 5.98606 	-0.314278 	0 5.97776 	-0.315273 	-8.10491e-21 5.96936 	-0.316252 	-1.68053e-20 5.96343 	-0.317691 	-9.56581e-21 5.95743 	-0.319129 	-2.33085e-21 5.9499 	-0.320346 	5.17659e-21 5.94128 	-0.321353 	1.68209e-20 5.93262 	-0.322358 	2.84687e-20 5.92647 	-0.323807 	4.75345e-20 5.92026 	-0.325255 	6.66021e-20 5.91314 	-0.326506 	6.85924e-20 5.90424 	-0.327536 	5.22374e-20 5.8953 	-0.328566 	3.58828e-20 5.88893 	-0.330027 	3.77706e-20 5.88234 	-0.331443 	3.75548e-20 5.8751 	-0.332696 	2.96303e-20 5.86662 	-0.333821 	1.67832e-20 5.85739 	-0.334872 	1.0611e-21 5.8508 	-0.336345 	-2.50938e-20 5.84362 	-0.337683 	-3.82238e-20 5.83611 	-0.338952 	-4.4666e-20 5.82839 	-0.340204 	-4.88439e-20 5.81887 	-0.341274 	-2.80887e-20 5.81195 	-0.342739 	1.51189e-21 5.80423 	-0.344027 	-2.82244e-21 5.79645 	-0.345314 	-7.18034e-21 5.78861 	-0.346599 	-1.15619e-20 5.77972 	-0.347784 	-3.35589e-20 5.77302 	-0.349031 	-4.29176e-20 5.7659 	-0.350187 	-2.57807e-20 5.75873 	-0.351343 	-8.61919e-21 5.75151 	-0.352498 	8.56694e-21 5.74461 	-0.353595 	2.49181e-20 5.74369 	-0.353748 	2.71783e-20 5.74277 	-0.353901 	2.9439e-20 5.74185 	-0.354054 	3.17001e-20 5.74093 	-0.354207 	3.39616e-20 5.74001 	-0.354324 	3.297e-20 5.73224 	-0.355668 	4.21206e-20 5.72434 	-0.356972 	4.9117e-20 5.71639 	-0.358274 	5.61342e-20 5.70838 	-0.359576 	6.31722e-20 5.7003 	-0.360532 	4.33918e-20 5.69292 	-0.362205 	3.55723e-20 5.68474 	-0.363513 	3.31218e-20 5.6765 	-0.364819 	3.06601e-20 5.6682 	-0.366125 	2.81872e-20 5.65977 	-0.366788 	3.66456e-20 5.65255 	-0.368637 	7.63663e-20 5.64437 	-0.370088 	9.04586e-20 5.63586 	-0.371414 	9.65599e-20 5.62723 	-0.372444 	7.4134e-20 5.61849 	-0.373162 	2.15154e-20 5.61103 	-0.37501 	1.90485e-20 5.60331 	-0.376785 	1.60956e-20 5.59453 	-0.378134 	1.03801e-20 5.58552 	-0.378905 	-2.0842e-21 5.57646 	-0.379666 	-1.46772e-20 5.56877 	-0.38153 	-5.54248e-20 5.561 	-0.383392 	-9.61926e-20 5.55242 	-0.38471 	-1.04346e-19 5.54305 	-0.385482 	-7.94307e-20 5.53363 	-0.386253 	-5.45157e-20 5.52573 	-0.388114 	-8.18134e-20 5.51774 	-0.389967 	-1.08707e-19 5.50935 	-0.391253 	-1.00949e-19 5.49978 	-0.392114 	