# vtk DataFile Version 2.0
track0
ASCII
DATASET POLYDATA
POINTS 10895 double
-0.0205 0.001 1e-05
-0.0202034 0.00100003 1e-05
-0.0199069 0.00100026 1e-05
-0.0196103 0.00100071 1e-05
-0.0193137 0.00100137 1e-05
-0.0190172 0.00100225 1e-05
-0.0187132 0.00100354 1e-05
-0.0184093 0.0010045 1e-05
-0.0181054 0.00100547 1e-05
-0.0178015 0.00100644 1e-05
-0.0174976 0.00100741 1e-05
-0.0172058 0.00100863 1e-05
-0.016914 0.00100939 1e-05
-0.0166222 0.0010101 1e-05
-0.0163305 0.00101076 1e-05
-0.0160387 0.00101135 1e-05
-0.0157586 0.0010122 1e-05
-0.0154784 0.0010126 1e-05
-0.0151983 0.00101297 1e-05
-0.0149182 0.00101329 1e-05
-0.0146381 0.00101356 1e-05
-0.0143692 0.00101411 1e-05
-0.0141002 0.00101426 1e-05
-0.0138313 0.00101436 1e-05
-0.0135624 0.00101444 1e-05
-0.0132934 0.00101447 1e-05
-0.0130353 0.00101482 1e-05
-0.0127771 0.00101476 1e-05
-0.0125189 0.00101468 1e-05
-0.0122607 0.00101457 1e-05
-0.0120025 0.00101442 1e-05
-0.0117547 0.00101463 1e-05
-0.0115068 0.00101443 1e-05
-0.0112589 0.0010142 1e-05
-0.0110111 0.00101394 1e-05
-0.0107632 0.00101367 1e-05
-0.0105252 0.00101379 1e-05
-0.0102873 0.00101347 1e-05
-0.0100493 0.00101313 1e-05
-0.00981133 0.00101276 1e-05
-0.00957337 0.00101238 1e-05
-0.00934491 0.00101245 1e-05
-0.00911645 0.00101203 1e-05
-0.008888 0.0010116 1e-05
-0.00865954 0.00101114 1e-05
-0.00843108 0.00101067 1e-05
-0.00821175 0.0010107 1e-05
-0.00799242 0.0010102 1e-05
-0.00777309 0.00100968 1e-05
-0.00755376 0.00100914 1e-05
-0.00733443 0.00100858 1e-05
-0.00712387 0.0010086 1e-05
-0.0069133 0.00100802 1e-05
-0.00670273 0.00100742 1e-05
-0.00649217 0.0010068 1e-05
-0.0062816 0.00100615 1e-05
-0.00607944 0.00100616 1e-05
-0.00587729 0.0010055 1e-05
-0.00567514 0.00100483 1e-05
-0.00547299 0.00100413 1e-05
-0.00527083 0.00100341 1e-05
-0.00507675 0.00100341 1e-05
-0.00488268 0.00100268 1e-05
-0.0046886 0.00100193 1e-05
-0.00449452 0.00100115 1e-05
-0.00430044 0.00100035 1e-05
-0.00411412 0.00100035 1e-05
-0.0039278 0.000999539 1e-05
-0.00374148 0.000998706 1e-05
-0.00355516 0.000997847 1e-05
-0.00336883 0.000996962 1e-05
-0.00318995 0.000996946 1e-05
-0.00301107 0.000996052 1e-05
-0.0028322 0.000995129 1e-05
-0.00265332 0.000994177 1e-05
-0.00247443 0.000993194 1e-05
-0.0023027 0.000993158 1e-05
-0.00213097 0.000992161 1e-05
-0.00195924 0.000991131 1e-05
-0.00178751 0.000990066 1e-05
-0.00161577 0.000988965 1e-05
-0.0014509 0.000988896 1e-05
-0.00128603 0.000987776 1e-05
-0.00112117 0.00098661 1e-05
-0.000956302 0.000985396 1e-05
-0.000791418 0.000984133 1e-05
-0.000633135 0.000983982 1e-05
-0.000474856 0.000982663 1e-05
-0.000316579 0.00098129 1e-05
-0.000158301 0.000979863 1e-05
0 0.00097838 1e-05
0.000105677 0.000978208 1e-05
0.00021135 0.000977154 1e-05
0.000317022 0.000976066 1e-05
0.000422693 0.000974943 1e-05
0.000528387 0.000973783 1e-05
0.000634886 0.000973607 1e-05
0.000741379 0.000972416 1e-05
0.000847871 0.000971199 1e-05
0.000954363 0.000969956 1e-05
0.00106088 0.000968685 1e-05
0.00116821 0.000968538 1e-05
0.00127553 0.000967268 1e-05
0.00138285 0.000965974 1e-05
0.00149017 0.000964656 1e-05
0.00159752 0.000963388 1e-05
0.00170568 0.000963272 1e-05
0.00181383 0.000962087 1e-05
0.00192199 0.000960758 1e-05
0.00203014 0.000959407 1e-05
0.00213833 0.000958258 1e-05
0.00224733 0.000958175 1e-05
0.00235633 0.000957118 1e-05
0.00246532 0.000955789 1e-05
0.00257431 0.000954438 1e-05
0.00268334 0.000953407 1e-05
0.00279319 0.00095335 1e-05
0.00290303 0.000952408 1e-05
0.00301288 0.000951092 1e-05
0.00312272 0.000949755 1e-05
0.00323259 0.000948825 1e-05
0.00334329 0.000948781 1e-05
0.00345399 0.000947932 1e-05
0.00356469 0.000946636 1e-05
0.00367538 0.000945317 1e-05
0.00378611 0.000944471 1e-05
0.00389767 0.000944427 1e-05
0.00400923 0.000943653 1e-05
0.00412079 0.000942377 1e-05
0.00423235 0.000941078 1e-05
0.00434393 0.000940299 1e-05
0.00445636 0.000940244 1e-05
0.00456879 0.000939527 1e-05
0.00468122 0.000938268 1e-05
0.00479364 0.000936986 1e-05
0.00490609 0.000936257 1e-05
0.0050194 0.000936182 1e-05
0.0051327 0.000935504 1e-05
0.005246 0.000934258 1e-05
0.0053593 0.000932988 1e-05
0.00547262 0.000932291 1e-05
0.00558681 0.000932188 1e-05
0.00570099 0.000931534 1e-05
0.00581517 0.000930333 1e-05
0.00592936 0.000929123 1e-05
0.00604356 0.000928446 1e-05
0.00615863 0.000928307 1e-05
0.0062737 0.000927664 1e-05
0.00638877 0.000926522 1e-05
0.00650384 0.000925369 1e-05
0.00661893 0.0009247 1e-05
0.0067349 0.000924519 1e-05
0.00685087 0.000923878 1e-05
0.00696683 0.000922779 1e-05
0.0070828 0.000921669 1e-05
0.00719878 0.000920999 1e-05
0.00731565 0.000920773 1e-05
0.00743252 0.000920125 1e-05
0.00754939 0.000919057 1e-05
0.00766625 0.000917978 1e-05
0.00778313 0.000917299 1e-05
0.00790091 0.000917023 1e-05
0.00801869 0.00091636 1e-05
0.00813647 0.000915313 1e-05
0.00825424 0.000914253 1e-05
0.00837203 0.000913558 1e-05
0.00849073 0.000913229 1e-05
0.00860942 0.000912545 1e-05
0.00872811 0.000911509 1e-05
0.00884681 0.000910459 1e-05
0.00896551 0.000909742 1e-05
0.00908513 0.000909358 1e-05
0.00920475 0.000908648 1e-05
0.00932436 0.000907614 1e-05
0.00944398 0.000906567 1e-05
0.0095636 0.000905822 1e-05
0.00968415 0.000905381 1e-05
0.0098047 0.000904639 1e-05
0.00992524 0.0009036 1e-05
0.0100458 0.000902548 1e-05
0.0101663 0.000901771 1e-05
0.0102878 0.000901271 1e-05
0.0104093 0.000900494 1e-05
0.0105308 0.000899452 1e-05
0.0106523 0.000898404 1e-05
0.0107738 0.000897591 1e-05
0.0108962 0.000897029 1e-05
0.0110186 0.000896213 1e-05
0.0111411 0.000895181 1e-05
0.0112635 0.000894144 1e-05
0.0113859 0.000893292 1e-05
0.0115093 0.000892666 1e-05
0.0116327 0.000891807 1e-05
0.0117561 0.000890777 1e-05
0.0118794 0.00088974 1e-05
0.0120028 0.000888844 1e-05
0.0121272 0.000888154 1e-05
0.0122515 0.000887249 1e-05
0.0123759 0.000886212 1e-05
0.0125002 0.000885166 1e-05
0.0126245 0.000884224 1e-05
0.0127498 0.000883469 1e-05
0.0128752 0.000882515 1e-05
0.0130005 0.000881461 1e-05
0.0131258 0.0008804 1e-05
0.0132511 0.000879409 1e-05
0.0133774 0.000878586 1e-05
0.0135036 0.000877581 1e-05
0.0136299 0.000876505 1e-05
0.0137562 0.00087542 1e-05
0.0138825 0.000874378 1e-05
0.0140098 0.000873487 1e-05
0.014137 0.000872428 1e-05
0.0142643 0.000871323 1e-05
0.0143915 0.000870209 1e-05
0.0145188 0.000869114 1e-05
0.0146471 0.000868154 1e-05
0.0147753 0.000867039 1e-05
0.0149036 0.000865899 1e-05
0.0150318 0.000864751 1e-05
0.0151601 0.000863599 1e-05
0.0152893 0.000862569 1e-05
0.0154186 0.000861399 1e-05
0.0155478 0.000860219 1e-05
0.0156771 0.000859031 1e-05
0.0158063 0.000857833 1e-05
0.0159366 0.000856733 1e-05
0.0160668 0.000855519 1e-05
0.0161971 0.000854295 1e-05
0.0163273 0.000853062 1e-05
0.0164576 0.00085182 1e-05
0.0165889 0.000850648 1e-05
0.0167201 0.000849385 1e-05
0.0168514 0.000848114 1e-05
0.0169827 0.000846832 1e-05
0.0171139 0.000845541 1e-05
0.0172462 0.000844298 1e-05
0.0173785 0.000842984 1e-05
0.0175108 0.00084166 1e-05
0.0176431 0.000840327 1e-05
0.0177754 0.000838984 1e-05
0.0179087 0.000837668 1e-05
0.018042 0.000836299 1e-05
0.0181753 0.00083492 1e-05
0.0183087 0.000833532 1e-05
0.018442 0.000832134 1e-05
0.0185763 0.000830745 1e-05
0.0187107 0.000829318 1e-05
0.018845 0.000827882 1e-05
0.0189794 0.000826436 1e-05
0.0191137 0.00082498 1e-05
0.0192491 0.000823518 1e-05
0.0193845 0.000822031 1e-05
0.0195199 0.000820535 1e-05
0.0196553 0.000819028 1e-05
0.0197907 0.000817512 1e-05
0.0198276 0.000817097 1e-05
0.0198644 0.000816681 1e-05
0.0199012 0.000816265 1e-05
0.019938 0.000815847 1e-05
0.0199743 0.000815435 1e-05
0.0200741 0.000814301 1e-05
0.0201738 0.000813161 1e-05
0.0202735 0.000812016 1e-05
0.0203733 0.000810865 1e-05
0.020473 0.000809709 1e-05
0.0206105 0.0008081 1e-05
0.020748 0.000806488 1e-05
0.0208855 0.000804864 1e-05
0.021023 0.000803231 1e-05
0.0211606 0.000801587 1e-05
0.0212991 0.000799906 1e-05
0.0214377 0.000798227 1e-05
0.0215763 0.000796538 1e-05
0.0217149 0.000794838 1e-05
0.0218535 0.000793127 1e-05
0.0219931 0.000791375 1e-05
0.0221328 0.000789628 1e-05
0.0222724 0.000787871 1e-05
0.0224121 0.000786103 1e-05
0.0225517 0.000784324 1e-05
0.0226925 0.000782499 1e-05
0.0228332 0.000780683 1e-05
0.022974 0.000778856 1e-05
0.0231147 0.000777017 1e-05
0.0232555 0.000775168 1e-05
0.0233973 0.000773268 1e-05
0.0235391 0.000771378 1e-05
0.023681 0.000769478 1e-05
0.0238228 0.000767566 1e-05
0.0239647 0.000765642 1e-05
0.0241076 0.000763667 1e-05
0.0242505 0.000761704 1e-05
0.0243935 0.00075973 1e-05
0.0245364 0.000757745 1e-05
0.0246794 0.000755748 1e-05
0.0248234 0.0007537 1e-05
0.0249675 0.000751662 1e-05
0.0251115 0.000749617 1e-05
0.0252556 0.000747559 1e-05
0.0253996 0.000745486 1e-05
0.0255448 0.000743363 1e-05
0.02569 0.000741247 1e-05
0.0258351 0.000739124 1e-05
0.0259803 0.000736989 1e-05
0.0261255 0.000734835 1e-05
0.0262718 0.000732634 1e-05
0.0264181 0.000730436 1e-05
0.0265644 0.000728232 1e-05
0.0267107 0.000726016 1e-05
0.026857 0.000723779 1e-05
0.0270044 0.000721499 1e-05
0.0271519 0.000719218 1e-05
0.0272993 0.000716933 1e-05
0.0274468 0.000714635 1e-05
0.0275942 0.000712316 1e-05
0.0277428 0.000709957 1e-05
0.0278914 0.000707595 1e-05
0.0280399 0.000705227 1e-05
0.0281885 0.000702848 1e-05
0.0283371 0.000700449 1e-05
0.0284869 0.000698011 1e-05
0.0286366 0.000695568 1e-05
0.0287863 0.00069312 1e-05
0.0289361 0.000690658 1e-05
0.0290858 0.00068818 1e-05
0.0292367 0.000685666 1e-05
0.0293876 0.000683143 1e-05
0.0295385 0.000680613 1e-05
0.0296894 0.000678071 1e-05
0.0298403 0.000675515 1e-05
0.0299924 0.000672923 1e-05
0.0301445 0.000670323 1e-05
0.0302966 0.000667712 1e-05
0.0304486 0.00066509 1e-05
0.0306007 0.000662455 1e-05
0.030754 0.000659788 1e-05
0.0309072 0.000657108 1e-05
0.0310605 0.000654417 1e-05
0.0312138 0.000651715 1e-05
0.031367 0.000649003 1e-05
0.0315215 0.000646258 1e-05
0.0316759 0.0006435 1e-05
0.0318304 0.000640729 1e-05
0.0319848 0.000637947 1e-05
0.0321393 0.000635156 1e-05
0.0322949 0.000632334 1e-05
0.0324506 0.000629497 1e-05
0.0326062 0.000626645 1e-05
0.0327619 0.000623783 1e-05
0.0329175 0.000620913 1e-05
[...]
POINT_DATA 10895
 FIELD attributes 2
p 1 10895 float
-4.73209 -4.78218 -4.84223 -4.90284 -4.96401 -5.08931 -5.16254 -5.24248 -5.32242 -5.40236 -5.4875 -5.49165 -5.51214 -5.53256 -5.55294 -5.58503 -5.57433 -5.58338 -5.59237 -5.60128 -5.62649 -5.62247 -5.63562 -5.64871 -5.66175 -5.69088 -5.68625 -5.69792 -5.70955 -5.72112 -5.74943 -5.74211 -5.75174 -5.76132 -5.77087 -5.79896 -5.79001 -5.79936 -5.80866 -5.81793 -5.84807 -5.83723 -5.84663 -5.85599 -5.86532 -5.89826 -5.88468 -5.89393 -5.90314 -5.91232 -5.94842 -5.93158 -5.94078 -5.94994 -5.95906 -5.99898 -5.97868 -5.98819 -5.99765 -6.00708 -6.05177 -6.02778 -6.0378 -6.04779 -6.05773 -6.10786 -6.07963 -6.09026 -6.10084 -6.11138 -6.16773 -6.13482 -6.14604 -6.15721 -6.16832 -6.23147 -6.19287 -6.20451 -6.21609 -6.22761 -6.29857 -6.25315 -6.26449 -6.27575 -6.28692 -6.3664 -6.30474 -6.30754 -6.31024 -6.31285 -6.39198 -6.28145 -6.27315 -6.26477 -6.25632 -6.36764 -6.24387 -6.23791 -6.23188 -6.2258 -6.3536 -6.24517 -6.24413 -6.24303 -6.24943 -6.36612 -6.28054 -6.27041 -6.27022 -6.28922 -6.38229 -6.31628 -6.29957 -6.30061 -6.32845 -6.40751 -6.35879 -6.34096 -6.34452 -6.37884 -6.44693 -6.40969 -6.39159 -6.39681 -6.43493 -6.49442 -6.46469 -6.44636 -6.45283 -6.49397 -6.54775 -6.5235 -6.50509 -6.51282 -6.55672 -6.60663 -6.58628 -6.56748 -6.57623 -6.62246 -6.66942 -6.65173 -6.63411 -6.64498 -6.68965 -6.73421 -6.71838 -6.70265 -6.71449 -6.75723 -6.79984 -6.7854 -6.77108 -6.78358 -6.82465 -6.86556 -6.85222 -6.83902 -6.85192 -6.89145 -6.93083 -6.9184 -6.90613 -6.91926 -6.95739 -6.99536 -6.98375 -6.9723 -6.98551 -7.02232 -7.05896 -7.04815 -7.03749 -7.05067 -7.08613 -7.12145 -7.11143 -7.10156 -7.11459 -7.14869 -7.18265 -7.1734 -7.16502 -7.17832 -7.20985 -7.24246 -7.23399 -7.22884 -7.24166 -7.26959 -7.30087 -7.2932 -7.29102 -7.30339 -7.32795 -7.35793 -7.35107 -7.3516 -7.36356 -7.38498 -7.41369 -7.40762 -7.41061 -7.42219 -7.44068 -7.46813 -7.46283 -7.46803 -7.47925 -7.49506 -7.5213 -7.51675 -7.52392 -7.53481 -7.54817 -7.57324 -7.56943 -7.57835 -7.58893 -7.60004 -7.62396 -7.62107 -7.63135 -7.64163 -7.65191 -7.67352 -7.67294 -7.68295 -7.69297 -7.70299 -7.72199 -7.72348 -7.73325 -7.74304 -7.75283 -7.76945 -7.77278 -7.78234 -7.79191 -7.80148 -7.81597 -7.82091 -7.83028 -7.83965 -7.84904 -7.8616 -7.86797 -7.87717 -7.88637 -7.89558 -7.90646 -7.91405 -7.9231 -7.93215 -7.94122 -7.95061 -7.95274 -7.95514 -7.95755 -7.95996 -7.96233 -7.96892 -7.97551 -7.98211 -7.98871 -7.99503 -8.00406 -8.01296 -8.02187 -8.03079 -8.03893 -8.0482 -8.05702 -8.06585 -8.07469 -8.08215 -8.09178 -8.10054 -8.1093 -8.11807 -8.12478 -8.13489 -8.14358 -8.15228 -8.16099 -8.16685 -8.17745 -8.18603 -8.19461 -8.2032 -8.20812 -8.21935 -8.22767 -8.23599 -8.24401 -8.24784 -8.25887 -8.26735 -8.27542 -8.28238 -8.28572 -8.29654 -8.30528 -8.31304 -8.31873 -8.32136 -8.33188 -8.34079 -8.34804 -8.35225 -8.35422 -8.36441 -8.37357 -8.38038 -8.38326 -8.38483 -8.39484 -8.40445 -8.411 -8.41272 -8.41407 -8.424 -8.43394 -8.44005 -8.44126 -8.44248 -8.45236 -8.46225 -8.46804 -8.46917 -8.47031 -8.48015 -8.49001 -8.49554 -8.49663 -8.49773 -8.50756 -8.51739 -8.5227 -8.52378 -8.52485 -8.53466 -8.54448 -8.54961 -8.55068 -8.55175 -8.56154 -8.57117 -8.576 -8.57737 -8.57844 -8.58819 -8.59685 -8.60169 -8.60385 -8.60493 -8.61464 -8.62232 -8.62717 -8.63012 -8.6312 -8.64086 -8.64757 -8.65241 -8.65616 -8.65725 -8.66684 -8.67258 -8.67741 -8.68195 -8.68304 -8.69251 -8.69732 -8.70213 -8.70694 -8.70854 -8.71699 -8.72176 -8.72653 -8.73131 -8.73371 -8.74114 -8.74586 -8.75058 -8.75532 -8.75851 -8.76491 -8.76957 -8.77424 -8.77891 -8.78288 -8.7876 -8.79152 -8.79545 -8.79938 -8.8032 -8.8039 -8.80461 -8.80531 -8.80601 -8.80651 -8.81127 -8.81583 -8.82041 -8.82499 -8.82804 -8.83393 -8.83841 -8.84289 -8.84738 -8.84906 -8.85604 -8.86042 -8.8648 -8.86918 -8.86952 -8.87755 -8.88181 -8.88607 -8.89034 -8.88935 -8.89834 -8.90253 -8.90666 -8.90996 -8.9085 -8.91726 -8.92251 -8.9265 -8.92841 -8.9269 -8.93542 -8.94169 -8.94552 -8.94604 -8.94447 -8.95274 -8.95999 -8.96365 -8.96281 -8.96115 -8.96915 -8.97717 -8.98039 -8.97863 -8.97686 -8.98459 -8.99234 -8.99532 -8.99342 -8.99153 -8.99898 -9.00644 -9.00916 -9.00712 -9.00507 -9.01222 -9.01939 -9.02185 -9.01963 -9.01742 -9.02426 -9.03077 -9.0327 -9.03088 -9.02847 -9.03499 -9.03994 -9.0416 -9.04077 -9.03815 -9.04433 -9.04771 -9.04908 -9.04921 -9.04636 -9.05218 -9.05399 -9.05504 -9.05611 -9.053 -9.05793 -9.05865 -9.05937 -9.06011 -9.05795 -9.06123 -9.06159 -9.06196 -9.06234 -9.0611 -9.06271 -9.0627 -9.06269 -9.06269 -9.06234 -9.06258 -9.06246 -9.06235 -9.06223 -9.06212 -9.06188 -9.06164 -9.0614 -9.06117 -9.06006 -9.06018 -9.05942 -9.05867 -9.05793 -9.0551 -9.05598 -9.05478 -9.05358 -9.0524 -9.04792 -9.04954 -9.04786 -9.04619 -9.04403 -9.0384 -9.0397 -9.03853 -9.03637 -9.03247 -9.02639 -9.02712 -9.02667 -9.02398 -9.01833 -9.01176 -9.01189 -9.01203 -9.00855 -9.00147 -8.99439 -8.99389 -8.9934 -8.98936 -8.98175 -8.97413 -8.97298 -8.97184 -8.96721 -8.95903 -8.95086 -8.94902 -8.94677 -8.94124 -8.93318 -8.92441 -8.92188 -8.91761 -8.91141 -8.90405 -8.89466 -8.8914 -8.88509 -8.87819 -8.8713 -8.86146 -8.8567 -8.84906 -8.84144 -8.83382 -8.82467 -8.81777 -8.80938 -8.801 -8.79263 -8.78415 -8.78348 -8.7827 -8.78191 -8.78113 -8.78035 -8.77195 -8.76356 -8.75518 -8.74681 -8.73717 -8.72849 -8.71851 -8.70854 -8.69858 -8.68594 -8.67787 -8.66706 -8.65625 -8.64501 -8.63056 -8.62203 -8.61141 -8.59975 -8.5862 -8.57091 -8.56145 -8.55144 -8.5389 -8.52299 -8.50684 -8.49643 -8.48603 -8.47231 -8.45526 -8.43823 -8.42684 -8.41546 -8.40084 -8.38289 -8.36495 -8.35256 -8.33942 -8.32352 -8.30574 -8.28688 -8.27345 -8.25773 -8.24083 -8.2237 -8.20388 -8.18901 -8.17108 -8.15316 -8.13525 -8.11586 -8.10039 -8.0835 -8.06662 -8.04975 -8.03373 -8.03151 -8.02929 -8.02707 -8.02484 -8.02247 -8.00268 -7.98273 -7.9628 -7.94288 -7.92144 -7.90199 -7.88096 -7.85993 -7.83892 -7.81498 -7.79524 -7.77368 -7.75155 -7.72804 -7.70304 -7.68219 -7.66101 -7.6378 -7.61172 -7.5856 -7.56357 -7.54156 -7.51696 -7.48976 -7.46255 -7.43939 -7.41621 -7.39022 -7.36225 -7.33392 -7.30965 -7.28379 -7.2566 -7.22901 -7.19947 -7.17372 -7.14533 -7.11696 -7.08859 -7.05915 -7.04109 -7.022 -7.00292 -6.98384 -6.96546 -6.95489 -6.94432 -6.93375 -6.92318 -6.91191 -6.88193 -6.85124 -6.82056 -6.78989 -6.75658 -6.72735 -6.69546 -6.66358 -6.63062 -6.59535 -6.56496 -6.53383 -6.50078 -6.46469 -6.42828 -6.39663 -6.365 -6.33039 -6.29279 -6.25519 -6.22225 -6.18898 -6.15282 -6.11488 -6.07618 -6.04201 -6.00553 -5.96818 -5.93083 -5.89133 -5.8548 -5.81623 -5.77768 -5.73914 -5.70058 -5.70051 -5.70043 -5.70036 -5.70028 -5.7002 -5.66064 -5.62109 -5.58155 -5.54202 -5.5007 -5.46178 -5.421 -5.38022 -5.33866 -5.29508 -5.25526 -5.21493 -5.173 -5.12844 -5.08374 -5.04276 -5.00179 -4.95843 -4.91263 -4.86681 -4.82468 -4.78166 -4.73681 -4.69123 -4.64429 -4.6009 -4.55491 -4.50892 -4.46294 -4.41625 -4.40131 -4.38572 -4.37013 -4.35454 -4.33924 -4.30775 -4.27626 -4.24478 -4.2133 -4.18032 -4.13378 -4.0857 -4.03763 -3.98892 -3.93778 -3.89085 -3.84333 -3.79418 -3.74216 -3.68999 -3.64196 -3.59393 -3.54339 -3.49022 -3.43703 -3.38789 -3.33728 -3.28524 -3.23316 -3.17897 -3.13555 -3.09015 -3.04475 -2.99937 -2.95631 -2.94818 -2.94005 -2.93191 -2.92378 -2.91533 -2.8617 -2.80773 -2.75377 -2.69983 -2.64346 -2.59034 -2.53612 -2.48116 -2.42426 -2.36672 -2.31259 -2.25847 -2.20221 -2.14373 -2.08521 -2.03008 -1.97372 -1.91607 -1.85843 -1.79902 -1.76078 -1.721 -1.68122 -1.64144 -1.60345 -1.5843 -1.56515 -1.546 -1.52685 -1.50683 -1.44833 -1.38891 -1.3295 -1.2695 -1.20711 -1.14873 -1.0902 -1.02945 -0.966223 -0.902917 -0.843571 -0.783941 -0.721729 -0.658545 -0.594338 -0.539069 -0.481186 -0.42331 -0.365439 -0.311302 -0.30529 -0.299277 -0.293265 -0.287253 -0.281018 -0.21737 -0.153485 -0.08961 -0.0254991 0.0408243 0.104092 0.167527 0.232628 0.299753 0.367 0.431184 0.495854 0.562405 0.629312 0.697456 0.738417 0.780715 0.823174 0.865631 0.906063 0.931422 0.95678 0.982136 1.00761 1.03417 1.10097 1.16912 1.23727 1.30708 1.37847 1.44576 1.51303 1.58267 1.65472 1.72695 1.79025 1.85581 1.92193 1.98805 2.04955 2.05558 2.0616 2.06762 2.07368 2.0799 2.15147 2.22327 2.29507 2.36761 2.44189 2.5133 2.58471 2.65778 2.73254 2.80755 2.86999 2.93374 2.99805 3.06237 3.12249 3.13337 3.14424 3.15512 3.16614 3.17749 3.25166 3.32643 3.40121 3.4776 3.55579 3.62967 3.70356 3.78013 3.85796 3.93657 3.97479 4.01388 4.0536 4.09333 4.13163 4.16963 4.20764 4.24565 4.28379 4.32216 4.3997 4.4773 4.55512 4.63328 4.71179 4.77747 4.84324 4.9091 4.97496 5.03714 5.05006 5.06297 5.07589 5.08905 5.10242 5.17977 5.2578 5.33585 5.41602 5.49692 5.57142 5.64684 5.7237 5.80058 5.87382 5.87692 5.88002 5.88312 5.88617 5.88919 5.96842 6.04753 6.12666 6.20406 6.28107 6.35592 6.42997 6.50226 6.57454 6.64384 6.64859 6.65335 6.6581 6.66299 6.66793 6.74347 6.81935 6.89525 6.9736 7.05259 7.11329 7.1746 7.2377 7.30081 7.36335 7.37684 7.39032 7.40381 7.41643 7.42877 7.50634 7.58208 7.65727 7.72594 7.7947 7.84414 7.89248 7.9371 7.9817 8.02605 8.05011 8.07416 8.0982 8.1237 8.14963 8.21478 8.27987 8.34866 8.42101 8.49296 8.52432 8.55633 8.59045 8.62456 8.65991 8.69395 8.72798 8.76201 8.7912 8.81864 8.88877 8.95893 9.02025 9.07277 9.12507 9.15303 9.17914 9.20135 9.22355 9.24626 9.27784 9.30941 9.34096 9.37675 9.4147 9.46137 9.50782 9.56213 9.62439 9.68588 9.71055 9.73812 9.76946 9.80078 9.83608 9.85843 9.88076 9.90309 9.92097 9.93455 9.99471 10.0507 10.1003 10.1302 10.1597 10.216 10.261 10.2961 10.3312 10.3638 10.3689 10.3725 10.3755 10.3786 10.3817 10.4112 10.4408 10.4703 10.504 10.5522 10.5695 10.5864 10.6202 10.6709 10.7212 10.735 10.7538 10.7877 10.8251 10.8717 10.8786 10.9027 10.927 10.9512 10.9843 10.9901 10.9958 11.0015 11.0073 11.0082 11.0429 11.0725 11.102 11.1286 11.1267 11.1719 11.2111 11.2389 11.2412 11.2418 11.2905 11.3396 11.3597 11.3494 11.3383 11.3769 11.4069 11.4218 11.4291 11.4227 11.4663 11.4651 11.4634 11.4621 11.4604 11.4605 11.4604 11.4603 11.4602 11.4601 11.4467 11.4333 11.42 11.4068 11.4235 11.3829 11.3679 11.3556 11.3593 11.3848 11.3463 11.3097 11.2952 11.3117 11.3294 11.2838 11.2372 11.2191 11.2299 11.2416 11.1901 11.1376 11.114 11.1198 11.1265 11.0695 11.0215 10.9942 10.9825 10.9829 10.9188 10.8756 10.8419 10.8118 10.8053 10.735 10.6948 10.6546 10.6145 10.593 10.5284 10.4827 10.4371 10.3916 10.3512 10.3296 10.3138 10.2979 10.282 10.2621 10.2301 10.1981 10.1661 10.1342 10.0911 10.0524 10.0035 9.95476 9.9061 9.82809 9.80914 9.76281 9.71668 9.65885 9.57319 9.55887 9.53265 9.49086 9.41578 9.33168 9.32065 9.31206 9.26548 9.18043 9.09349 9.08009 9.06931 9.02127 8.93401 8.84481 8.8282 8.80205 8.73752 8.65253 8.54732 8.51218 8.45102 8.37506 8.29631 8.18389 8.13942 8.03433 7.92954 7.82501 7.68008 7.57795 7.45428 7.3306 7.20691 7.06825 6.9369 6.75633 6.57622 6.3965 6.18456 5.99017 5.80426 5.61822 5.43208 5.25151 4.9987 4.67949 4.3615 4.04452 3.68027 3.38908 3.16269 2.9375 2.71334 2.53776 2.14171 1.6087 1.07255 0.533795 0.0967485 0.0785968 0.0604481 0.0423026 0.0241601 0