# vtk DataFile Version 2.0
track0
ASCII
DATASET POLYDATA
POINTS 10620 double
-0.0205 0.001 1e-05
-0.0204991 0.00100536 1e-05
-0.0204976 0.00101063 1e-05
-0.0204947 0.00101518 1e-05
-0.0204905 0.00101864 1e-05
-0.0204746 0.00102682 1e-05
-0.0201831 0.00105563 1e-05
-0.0203616 0.00128793 1e-05
-0.0204488 0.00141936 1e-05
-0.0201625 0.0014444 1e-05
-0.0201519 0.00173163 1e-05
-0.0202219 0.00184007 1e-05
-0.0200496 0.00193025 1e-05
-0.0200809 0.00212221 1e-05
-0.0201294 0.00229098 1e-05
-0.0200088 0.00238763 1e-05
-0.0199911 0.00254122 1e-05
-0.0200041 0.00269528 1e-05
-0.0199827 0.00277425 1e-05
-0.019869 0.00287784 1e-05
-0.0198179 0.00302292 1e-05
-0.0198054 0.00317623 1e-05
-0.01976 0.00329221 1e-05
-0.0196348 0.00340323 1e-05
-0.0195486 0.00354672 1e-05
-0.0194777 0.0036983 1e-05
-0.0193911 0.00384149 1e-05
-0.0193842 0.00384734 1e-05
-0.0193108 0.00390809 1e-05
-0.0192439 0.00397596 1e-05
-0.0191791 0.0040458 1e-05
-0.0191113 0.00411276 1e-05
-0.0190172 0.00419797 1e-05
-0.0189565 0.00424684 1e-05
-0.018894 0.00429342 1e-05
-0.0188298 0.0043377 1e-05
-0.0187642 0.00437966 1e-05
-0.0186587 0.00444232 1e-05
-0.0184265 0.00456534 1e-05
-0.0181853 0.00466965 1e-05
-0.0179371 0.00475591 1e-05
-0.0176828 0.00482231 1e-05
-0.0174976 0.00485388 1e-05
-0.0172058 0.00488463 1e-05
-0.0169124 0.00488639 1e-05
-0.0166199 0.00486407 1e-05
-0.0163297 0.0048209 1e-05
-0.0160387 0.00475684 1e-05
-0.0158288 0.00469394 1e-05
-0.0156227 0.0046199 1e-05
-0.0154207 0.00453511 1e-05
-0.0152216 0.00444381 1e-05
-0.0152186 0.00444232 1e-05
-0.0151025 0.00438413 1e-05
-0.0149892 0.0043207 1e-05
-0.014879 0.00425196 1e-05
-0.0147711 0.00417963 1e-05
-0.0146381 0.00408457 1e-05
-0.014577 0.00403713 1e-05
-0.0145168 0.00398858 1e-05
-0.0144575 0.00393891 1e-05
-0.0143992 0.00388811 1e-05
-0.0143532 0.00384734 1e-05
-0.0142292 0.00373631 1e-05
-0.0141117 0.00361837 1e-05
-0.0140017 0.00349338 1e-05
-0.0138977 0.0033634 1e-05
-0.0138432 0.00329221 1e-05
-0.0137661 0.00318862 1e-05
-0.0136966 0.00307984 1e-05
-0.0136333 0.00296725 1e-05
-0.0135739 0.00285261 1e-05
-0.0135367 0.00277425 1e-05
-0.0134937 0.0026776 1e-05
-0.0134579 0.00257807 1e-05
-0.0134261 0.00247719 1e-05
-0.0133988 0.00237498 1e-05
-0.0133808 0.00229098 1e-05
-0.0133658 0.0022008 1e-05
-0.0133568 0.00210982 1e-05
-0.0133532 0.00201847 1e-05
-0.0133556 0.00192709 1e-05
-0.0133642 0.00184007 1e-05
-0.013379 0.00175593 1e-05
-0.0134016 0.00167352 1e-05
-0.013431 0.00159331 1e-05
-0.0134675 0.00151602 1e-05
-0.0135242 0.00141936 1e-05
-0.0135818 0.00134085 1e-05
-0.0136502 0.00127164 1e-05
-0.0137244 0.00120868 1e-05
-0.0138032 0.00115146 1e-05
-0.0139973 0.00102682 1e-05
-0.0141254 0.000957714 1e-05
-0.0142603 0.000902816 1e-05
-0.0143984 0.000856695 1e-05
-0.0145372 0.000812595 1e-05
-0.0146381 0.000782194 1e-05
-0.0147222 0.000757868 1e-05
-0.0148066 0.000734892 1e-05
-0.0148914 0.000713058 1e-05
-0.0149766 0.000693243 1e-05
-0.0151507 0.000660566 1e-05
-0.0153283 0.000638025 1e-05
-0.0155063 0.000618885 1e-05
-0.0156845 0.000602395 1e-05
-0.015863 0.000587893 1e-05
-0.0160387 0.000568206 1e-05
-0.0162831 0.000518333 1e-05
-0.0165313 0.000493588 1e-05
-0.0167805 0.000482533 1e-05
-0.0170299 0.000475706 1e-05
-0.0174976 0.000406224 1e-05
-0.0174976 0.000406224 1e-05
-0.0174976 0.000406224 1e-05
-0.0174976 0.000406224 1e-05
-0.0174976 0.000406224 1e-05
-0.0174976 0.000406224 1e-05
-0.0174951 0.000388747 1e-05
-0.0174897 0.000371949 1e-05
-0.017482 0.000356068 1e-05
-0.0174727 0.000341132 1e-05
-0.0174557 0.000318841 1e-05
-0.0173838 0.000255072 1e-05
-0.0172967 0.000214397 1e-05
-0.0172047 0.000186601 1e-05
-0.0171106 0.000167057 1e-05
-0.0160387 4.42328e-06 1e-05
-0.0160288 3.53862e-06 1e-05
-0.016019 3.08631e-06 1e-05
-0.0160091 2.67559e-06 1e-05
-0.0159992 2.26486e-06 1e-05
-0.0159447 0 1e-05
-0.0205 0.00367778 1e-05
-0.0203955 0.00371169 1e-05
-0.0203045 0.00377319 1e-05
-0.0202171 0.00383976 1e-05
-0.020198 0.00384734 1e-05
-0.0199618 0.00393432 1e-05
-0.019766 0.00409245 1e-05
-0.0196202 0.00429755 1e-05
-0.0194754 0.00444232 1e-05
-0.0193837 0.00449616 1e-05
-0.0192963 0.00455668 1e-05
-0.0192132 0.00462293 1e-05
-0.0191277 0.00468607 1e-05
-0.0190172 0.00476159 1e-05
-0.0189141 0.00482527 1e-05
-0.0188084 0.00488443 1e-05
-0.0187003 0.00493913 1e-05
-0.0185902 0.0049895 1e-05
-0.018369 0.00508 1e-05
-0.0181947 0.00513509 1e-05
-0.0180184 0.0051832 1e-05
-0.0178403 0.0052245 1e-05
-0.0176608 0.00525885 1e-05
-0.0174976 0.00528188 1e-05
-0.0172058 0.00530981 1e-05
-0.0169127 0.00531468 1e-05
-0.0166201 0.00529771 1e-05
-0.0163294 0.00526053 1e-05
-0.0160387 0.00520559 1e-05
-0.01594 0.00518047 1e-05
-0.0158419 0.00515335 1e-05
-0.0157444 0.00512431 1e-05
-0.0156472 0.00509404 1e-05
-0.0156041 0.00508 1e-05
-0.0154109 0.00501586 1e-05
-0.0152211 0.0049423 1e-05
-0.0150353 0.00485897 1e-05
-0.0148539 0.00476662 1e-05
-0.0146381 0.00464703 1e-05
-0.0145716 0.00460609 1e-05
-0.0145058 0.00456426 1e-05
-0.0144405 0.00452152 1e-05
-0.0143757 0.004478 1e-05
-0.0143232 0.00444232 1e-05
-0.0141497 0.00432332 1e-05
-0.0139827 0.00419531 1e-05
-0.0138235 0.00405777 1e-05
-0.013669 0.00391502 1e-05
-0.0135986 0.00384734 1e-05
-0.0135376 0.00378747 1e-05
-0.0134787 0.00372552 1e-05
-0.0134212 0.00366218 1e-05
-0.0133647 0.00359806 1e-05
-0.0132934 0.00351491 1e-05
-0.0132568 0.00347037 1e-05
-0.0132206 0.00342546 1e-05
-0.0131848 0.00338017 1e-05
-0.0131496 0.00333451 1e-05
-0.0131175 0.00329221 1e-05
-0.0130394 0.00318862 1e-05
-0.0129633 0.0030836 1e-05
-0.0128901 0.00297658 1e-05
-0.01282 0.00286742 1e-05
-0.0127628 0.00277425 1e-05
-0.0127052 0.0026776 1e-05
-0.012649 0.00258012 1e-05
-0.0125943 0.00248176 1e-05
-0.0125411 0.00238259 1e-05
-0.0124944 0.00229098 1e-05
-0.0124509 0.0022008 1e-05
-0.0124077 0.00211048 1e-05
-0.0123648 0.00202003 1e-05
-0.0123221 0.00192946 1e-05
-0.0122813 0.00184007 1e-05
-0.0122465 0.00175593 1e-05
-0.0122102 0.00167242 1e-05
-0.0121727 0.00158946 1e-05
-0.0121337 0.00150719 1e-05
-0.0120897 0.00141936 1e-05
-0.0120723 0.00138545 1e-05
-0.0120535 0.00135229 1e-05
-0.0120334 0.00131986 1e-05
-0.0120121 0.00128822 1e-05
-0.0120025 0.00127512 1e-05
-0.0119647 0.00122546 1e-05
-0.0119238 0.00117833 1e-05
-0.0118798 0.00113409 1e-05
-0.0118328 0.00109302 1e-05
-0.0117454 0.00102682 1e-05
-0.0116308 0.000953567 1e-05
-0.0115083 0.000894534 1e-05
-0.0113812 0.000846249 1e-05
-0.0112512 0.000806405 1e-05
-0.0107632 0.000718407 1e-05
-0.0105252 0.000727683 1e-05
-0.0102871 0.000724464 1e-05
-0.010049 0.000722789 1e-05
-0.00981082 0.000722061 1e-05
-0.00957337 0.000721933 1e-05
-0.00934491 0.000731496 1e-05
-0.00911628 0.000728114 1e-05
-0.00888763 0.000725802 1e-05
-0.00865898 0.000724224 1e-05
-0.00843108 0.000723162 1e-05
-0.00821175 0.000732246 1e-05
-0.00799227 0.000728231 1e-05
-0.00777277 0.000725225 1e-05
-0.00755327 0.000722946 1e-05
-0.00733443 0.000721199 1e-05
-0.00712387 0.00072964 1e-05
-0.00691317 0.000725494 1e-05
-0.00670246 0.000722267 1e-05
-0.00649174 0.000719722 1e-05
-0.0062816 0.000717691 1e-05
-0.00607944 0.000725429 1e-05
-0.00587718 0.000721539 1e-05
-0.0056749 0.000718441 1e-05
-0.00547262 0.000715943 1e-05
-0.00527083 0.000713907 1e-05
-0.00507675 0.000720953 1e-05
-0.00488258 0.000717464 1e-05
-0.00468839 0.000714637 1e-05
-0.0044942 0.000712322 1e-05
-0.00430044 0.00071041 1e-05
-0.00411412 0.000716818 1e-05
-0.00392771 0.000713751 1e-05
-0.0037413 0.000711232 1e-05
-0.00355487 0.000709143 1e-05
-0.00336883 0.000707398 1e-05
-0.00318995 0.000713244 1e-05
-0.00301099 0.000710561 1e-05
-0.00283203 0.00070835 1e-05
-0.00265307 0.000706515 1e-05
-0.00247443 0.000704985 1e-05
-0.0023027 0.000710417 1e-05
-0.0021309 0.000708179 1e-05
-0.00195909 0.000706357 1e-05
-0.00178728 0.000704873 1e-05
-0.00161577 0.000703665 1e-05
-0.0014509 0.000708921 1e-05
-0.00128595 0.000707317 1e-05
-0.001121 0.000706386 1e-05
-0.000956049 0.000706005 1e-05
-0.000791418 0.000706072 1e-05
-0.000633135 0.000712717 1e-05
-0.000474713 0.000713345 1e-05
-0.000316296 0.000714788 1e-05
-0.000157887 0.000716908 1e-05
0 0.000719586 1e-05
0.000105677 0.000726508 1e-05
0.000211547 0.000729199 1e-05
0.000317413 0.000732037 1e-05
0.000423275 0.000735008 1e-05
0.000528387 0.000738076 1e-05
0.000634886 0.000746322 1e-05
0.000741638 0.000750089 1e-05
0.000848409 0.000753248 1e-05
0.000955183 0.000756284 1e-05
0.00106088 0.000760144 1e-05
0.00116821 0.000768744 1e-05
0.00127578 0.000773447 1e-05
0.0013834 0.000776695 1e-05
0.00149102 0.000779984 1e-05
0.00159752 0.000785232 1e-05
0.00170568 0.00079488 1e-05
0.00181409 0.000801068 1e-05
0.00192262 0.000804851 1e-05
0.00203114 0.000808776 1e-05
0.00213833 0.000815785 1e-05
0.00224733 0.000826926 1e-05
0.00235659 0.0008351 1e-05
0.00246605 0.000840189 1e-05
0.00257548 0.000845667 1e-05
0.00268334 0.000854762 1e-05
0.00279319 0.000867614 1e-05
0.00290328 0.000878223 1e-05
0.00301356 0.000886532 1e-05
0.00312382 0.000895205 1e-05
0.00323259 0.000906756 1e-05
0.00334329 0.000921458 1e-05
0.00345417 0.000934764 1e-05
0.00356516 0.000947122 1e-05
0.00367609 0.00096005 1e-05
0.00378611 0.00097424 1e-05
0.00389767 0.000990737 1e-05
0.00400935 0.00100642 1e-05
0.00412098 0.00102248 1e-05
0.00423255 0.00103898 1e-05
0.00434393 0.00105591 1e-05
0.00437199 0.00106037 1e-05
0.00440005 0.00106479 1e-05
0.00442811 0.00106923 1e-05
0.00445617 0.00107368 1e-05
0.00448449 0.00107819 1e-05
0.00456881 0.00109166 1e-05
0.0046531 0.00110528 1e-05
0.00473738 0.00111905 1e-05
0.00482162 0.00113298 1e-05
0.00490609 0.00114709 1e-05
0.0050194 0.00116552 1e-05
0.00513259 0.00118461 1e-05
0.00524578 0.00120377 1e-05
0.00535895 0.00122298 1e-05
0.00547262 0.00124185 1e-05
0.00558681 0.00125993 1e-05
0.00570092 0.00127846 1e-05
0.00581496 0.00129746 1e-05
0.00592904 0.0013162 1e-05
0.00604356 0.00133406 1e-05
0.00615863 0.00135102 1e-05
0.00627366 0.00136827 1e-05
0.00638868 0.00138566 1e-05
0.00650375 0.0014026 1e-05
0.00661893 0.00141882 1e-05
0.0067349 0.00143405 1e-05
0.00685085 0.00144947 1e-05
0.00696686 0.00146437 1e-05
[...]
POINT_DATA 10620
 FIELD attributes 1
U 3 10620 float
1.13292 	6.39887 	0 1.5918 	5.97928 	0 3.06057 	4.65991 	0 4.29063 	3.52874 	0 5.18149 	2.68002 	0 7.15393 	0.707083 	0 -4.2255 	5.50164 	0 -5.18556 	7.81061 	0 7.56537 	0.661772 	0 0.17145 	4.66633 	0 -9.04898 	14.0259 	0 5.93236 	3.1046 	0 -2.52843 	15.5169 	0 -6.41993 	22.2976 	0 7.16714 	5.74107 	0 1.97802 	17.2216 	0 -2.24872 	26.6779 	0 4.29259 	15.8511 	0 9.07732 	8.27003 	0 6.2244 	17.6662 	0 2.39061 	29.3765 	0 7.48895 	19.1152 	0 11.9515 	10.5968 	0 10.9778 	18.286 	0 10.8635 	23.2159 	0 12.8636 	21.2666 	0 16.0826 	13.704 	0 16.2312 	13.4319 	0 16.3916 	16.6312 	0 16.809 	18.1032 	0 17.5787 	17.3629 	0 18.3611 	16.6208 	0 19.4183 	15.6317 	0 20.1838 	15.0484 	0 20.9578 	14.4677 	0 21.7392 	13.8904 	0 22.0844 	13.1272 	0 22.0681 	11.6896 	0 24.2714 	10.4966 	0 26.3547 	9.15765 	0 27.075 	7.06969 	0 27.2294 	4.64169 	0 27.356 	2.88245 	0 28.0751 	0.168737 	0 28.3287 	-2.16119 	0 28.2556 	-4.20296 	0 27.2026 	-5.9891 	0 25.8084 	-7.73687 	0 25.1978 	-9.04808 	0 24.5557 	-10.3091 	0 23.3446 	-10.7033 	0 22.1233 	-11.0733 	0 22.1046 	-11.0785 	0 21.478 	-12.0215 	0 20.8546 	-13.0103 	0 20.0174 	-13.4235 	0 19.1096 	-13.6544 	0 17.9649 	-13.958 	0 17.5264 	-14.136 	0 17.0866 	-14.3171 	0 16.6456 	-14.5015 	0 16.3121 	-14.4503 	0 16.0625 	-14.3755 	0 14.8069 	-14.862 	0 13.5094 	-15.355 	0 12.3206 	-15.3956 	0 11.4479 	-14.9735 	0 10.9739 	-14.7461 	0 9.64665 	-15.0819 	0 8.53597 	-15.1944 	0 7.76205 	-14.9732 	0 6.94874 	-14.6556 	0 6.35644 	-14.2898 	0 5.14661 	-14.2847 	0 4.4018 	-13.9481 	0 3.63496 	-13.6217 	0 2.84492 	-13.3073 	0 2.15524 	-12.9679 	0 1.24572 	-12.6086 	0 0.485035 	-12.1986 	0 -0.306215 	-11.8027 	0 -1.1284 	-11.4242 	0 -1.94986 	-11.041 	0 -2.88753 	-10.5441 	0 -3.70103 	-10.081 	0 -4.54945 	-9.64731 	0 -5.42803 	-9.2477 	0 -6.43885 	-8.78546 	0 -8.02418 	-8.11444 	0 -9.00249 	-7.63614 	0 -9.95357 	-7.23151 	0 -10.7404 	-6.89765 	0 -11.6496 	-6.28131 	0 -13.1588 	-5.35677 	0 -14.0476 	-4.69126 	0 -13.189 	-4.19145 	0 -12.3723 	-3.72721 	0 -11.8126 	-3.41785 	0 -12.4141 	-3.37737 	0 -13.0483 	-3.36142 	0 -13.8659 	-3.22311 	0 -15.0534 	-2.8258 	0 -17.5496 	-2.22736 	0 -18.2552 	-1.96295 	0 -19.2909 	-1.7845 	0 -20.5832 	-1.67293 	0 -19.9204 	-2.23205 	0 -16.3607 	-3.33843 	0 -24.5297 	-2.4453 	0 -37.1589 	-1.64847 	0 -49.5583 	-1.35682 	0 -35.331 	-5.24895 	0 1.81977 	-13.0851 	0 1.81977 	-13.0851 	0 1.81977 	-13.0851 	0 1.81977 	-13.0851 	0 1.81977 	-13.0851 	0 1.81977 	-13.0851 	0 4.21884 	-13.1224 	0 6.34749 	-13.1089 	0 8.21047 	-13.0545 	0 9.83758 	-12.9686 	0 14.8286 	-13.1465 	0 23.079 	-10.7784 	0 30.0047 	-9.06383 	0 38.0131 	-7.89342 	0 46.6088 	-7.0717 	0 0.351667 	-0.031596 	0 1.17991 	-0.0540406 	0 1.48263 	-0.0616511 	0 1.28532 	-0.0534465 	0 1.08801 	-0.045242 	0 0 	0 	0
9.83284 	3.19144 	0 9.65818 	6.52602 	0 10.0776 	7.67627 	0 11.8155 	4.68146 	0 12.0606 	4.44171 	0 12.9619 	10.4698 	0 13.4035 	18.8492 	0 15.34 	15.3329 	0 17.3386 	10.1879 	0 17.8514 	12.3639 	0 18.3285 	14.6101 	0 18.9067 	13.9609 	0 19.5023 	13.3215 	0 20.2736 	12.5294 	0 21.1485 	11.836 	0 22.0471 	11.1596 	0 22.9668 	10.5008 	0 23.0544 	9.43394 	0 23.1815 	7.32722 	0 24.2086 	6.60516 	0 25.2159 	5.84808 	0 26.0655 	4.98716 	0 26.0971 	3.68163 	0 26.1663 	2.50502 	0 26.7766 	0.444829 	0 27.5042 	-1.59537 	0 27.2085 	-3.47882 	0 26.2638 	-4.96439 	0 25.3034 	-6.44367 	0 25.139 	-6.95046 	0 24.955 	-7.42882 	0 24.533 	-7.64133 	0 24.1128 	-7.85098 	0 23.9265 	-7.94309 	0 23.2875 	-9.02469 	0 22.6931 	-10.1815 	0 22.0062 	-11.2018 	0 20.8921 	-11.5756 	0 19.5633 	-12.0557 	0 19.2544 	-12.2257 	0 18.9477 	-12.3989 	0 18.6545 	-12.5352 	0 18.4092 	-12.5103 	0 18.2106 	-12.4904 	0 17.0518 	-13.0755 	0 15.8854 	-13.7241 	0 14.9539 	-13.8137 	0 14.1006 	-13.5601 	0 13.705 	-13.4435 	0 13.0462 	-13.7131 	0 12.5171 	-13.8048 	0 12.1098 	-13.7295 	0 11.7004 	-13.658 	0 11.1735 	-13.5716 	0 10.9284 	-13.5513 	0 10.6819 	-13.5326 	0 10.434 	-13.5157 	0 10.2172 	-13.4728 	0 10.0798 	-13.3808 	0 9.5986 	-13.2456 	0 8.92531 	-13.0365 	0 8.2357 	-12.8345 	0 7.68888 	-12.5154 	0 7.27562 	-12.2063 	0 6.8895 	-11.9486 	0 6.49727 	-11.6945 	0 6.07752 	-11.3339 	0 5.53933 	-10.8645 	0 5.03419 	-10.4379 	0 4.80999 	-10.0522 	0 4.58795 	-9.66555 	0 4.37065 	-9.27715 	0 4.04528 	-8.85909 	0 3.46481 	-8.37842 	0 3.45907 	-7.96074 	0 3.37999 	-7.46972 	0 3.30844 	-6.97789 	0 3.24583 	-6.48525 	0 3.02742 	-5.88659 	0 3.20682 	-5.64821 	0 3.35982 	-5.43919 	0 3.5195 	-5.23204 	0 3.68594 	-5.02714 	0 3.75978 	-4.94096 	0 3.97987 	-4.58428 	0 4.21075 	-4.23378 	0 4.45191 	-3.89135 	0 4.70252 	-3.55888 	0 5.26945 	-3.36942 	0 6.4291 	-3.09845 	0 7.50831 	-2.8521 	0 8.53103 	-2.61458 	0 10.1592 	-1.83191 	0 15.3162 	0.59706 	0 15.3896 	-0.208093 	0 16.1768 	-0.113742 	0 16.9263 	-0.0517444 	0 17.6528 	-0.0095599 	0 18.87 	0.789949 	0 18.7381 	-0.277229 	0 19.267 	-0.194836 	0 19.7722 	-0.136418 	0 20.2612 	-0.0944518 	0 21.1702 	0.876816 	0 20.9375 	-0.382967 	0 21.3303 	-0.292106 	0 21.702 	-0.225387 	0 22.0586 	-0.176051 	0 22.7706 	0.912811 	0 22.5045 	-0.442857 	0 22.8179 	-0.349412 	0 23.1128 	-0.279177 	0 23.3939 	-0.226141 	0 23.9811 	0.918 	0 23.7017 	-0.455844 	0 23.9599 	-0.366994 	0 24.2023 	-0.298879 	0 24.4327 	-0.246484 	0 24.9407 	0.905509 	0 24.6501 	-0.443007 	0 24.8661 	-0.362006 	0 25.0689 	-0.298795 	0 25.2613 	-0.24934 	0 25.7187 	0.884505 	0 25.4181 	-0.418143 	0 25.601 	-0.345978 	0 25.7726 	-0.288737 	0 25.9355 	-0.243244 	0 26.359 	0.861337 	0 26.0485 	-0.390493 	0 26.2088 	-0.323857 	0 26.3593 	-0.270224 	0 26.5018 	-0.226983 	0 26.9053 	0.851035 	0 26.5758 	-0.346233 	0 26.7219 	-0.283356 	0 26.8589 	-0.232011 	0 26.9886 	-0.190017 	0 27.3886 	0.873104 	0 27.0359 	-0.262932 	0 27.241 	-0.153689 	0 27.4297 	-0.0634509 	0 27.6048 	0.0112933 	0 28.1043 	1.17981 	0 27.639 	0.10968 	4.52643e-21 27.8942 	0.254063 	2.01198e-20 28.1257 	0.376443 	3.5538e-20 28.3374 	0.480515 	5.081e-20 29.0876 	1.9054 	7.7064e-20 28.4417 	0.72301 	1.14683e-19 28.6134 	0.76699 	1.12906e-19 28.7804 	0.807529 	1.11216e-19 28.9433 	0.844953 	1.09605e-19 29.8582 	2.31183 	7.36393e-20 29.1158 	1.0274 	8.22424e-20 29.0916 	0.860851 	7.78454e-20 29.1551 	0.828989 	7.1877e-20 29.3707 	1.0724 	6.16537e-20 30.168 	2.41727 	3.4466e-20 29.4748 	1.28889 	1.94178e-20 29.2306 	0.882179 	2.00859e-20 29.2308 	0.893266 	2.99327e-20 29.5335 	1.45519 	4.26029e-20 30.1701 	2.69122 	5.82159e-20 29.5384 	1.68606 	3.96288e-20 29.1336 	1.01545 	2.22105e-20 29.1161 	1.05315 	6.24037e-21 29.5442 	1.93199 	1.52029e-20 30.0553 	3.07193 	3.29026e-20 29.5306 	2.20903 	1.09829e-19 29.0625 	1.35122 	1.86388e-19 29.0821 	1.45576 	1.78878e-19 29.5544 	2.49226 	9.19595e-20 29.9507 	3.50406 	7.18728e-21 29.6242 	2.85494 	5.74997e-21 29.3394 	2.21041 	3.75933e-21 29.3716 	2.31031 	-1.20661e-20 29.6483 	3.14862 	-3.70756e-20 29.8684 	3.96677 	-6.16008e-20 29.8332 	3.57997 	-1.62121e-19 29.8366 	3.32205 	-2.32855e-19 29.902 	3.48519 	-2.03473e-19 29.9079 	3.85743 	-1.30156e-19 29.8469 	4.41321 	-1.75091e-20 30.1195 	4.22926 	1.13033e-19 30.154 	4.33806 	1.0532e-19 30.1682 	4.46231 	8.98146e-20 30.174 	4.5867 	7.3709e-20 30.0411 	4.77013 	2.85698e-20 30.159 	4.75421 	2.63203e-20 30.1518 	4.76898 	2.39471e-20 30.1443 	4.78374 	2.15744e-20 30.1365 	4.79848 	1.92022e-20 30.1284 	4.81335 	1.68083e-20 30.1225 	4.86723 	6.36345e-21 30.1141 	4.92108 	-4.11556e-21 30.103 	4.9749 	-1.4629e-20 30.0894 	5.02868 	-2.5177e-20 30.1697 	4.90538 	-8.57873e-23 30.1568 	5.08797 	-6.30446e-20 30.1126 	5.09625 	-7.06974e-20 30.0676 	5.10452 	-7.83823e-20 30.0326 	4.98595 	-3.77228e-20 30.0138 	4.75118 	4.75054e-20 30.0948 	4.88826 	2.66942e-20 30.1688 	5.02403 	6.07173e-21 30.1088 	4.94765 	7.37366e-21 29.9447 	4.66944 	2.65471e-20 29.7931 	4.39217 	4.56101e-20 29.9426 	4.49048 	3.27096e-20 30.046 	4.54159 	1.9857e-20 29.9879 	4.41535 	6.9834e-21 29.8418 	4.20245 	0 29.594 	3.88705 	0 29.7785 	3.95951 	0 29.7111 	3.81486 	-3.25885e-20 29.6435 	3.66488 	-6.61059e-20 29.5843 	3.51694 	-9.94511e-20 29.4128 	3.27146 	-1.57443e-19 29.4579 	3.25008 	-2.18832e-19 29.4034 	3.14401 	-1.86854e-19 29.3525 	3.03875 	-1.55617e-19 29.3053 	2.93429 	-1.25121e-19 29.2495 	2.80174 	-8.70648e-20 29.233 	2.74733 	-7.72984e-20 29.2173 	2.69312 	-6.76155e-20 29.2027 	2.63911 	-5.80158e-20 29.189 	2.58531 	-4.84995e-20 29.1868 	2.56153 	-5.32447e-20 29.0953 	2.35737 	-1.2732e-19 29.0148 	2.18035 	-1.36316e-19 28.9431 	2.00506 	-1.42699e-19 28.8801 	1.83151 	-1.46467e-19 28.8481 	1.77095 	-9.38103e-20 28.7491 	1.49982 	-3.00325e-19 28.6521 	1.31949 	-3.43475e-19 28.5639 	1.1407 	-3.82417e-19 28.4845 	0.963445 	-4.17148e-19 28.4318 	0.950222 	-7.95794e-20 28.3261 	0.666471 	-2.75594e-20 28.2087 	0.492608 	-1.88659e-20 28.0995 	0.319752 	-1.02401e-20 27.9987 	0.147912 	-1.68265e-21 27.921 	0.128908 	8.47046e-20 27.8025 	-0.122295 	2.26395e-21 27.6643 	-0.28516 	1.25385e-20 27.5338 	-0.447643 	2.28911e-20 27.4111 	-0.609737 	3.3322e-20 27.3085 	-0.674651 	9.62684e-20 27.1677 	-0.872105 	4.6356e-19 27.0108 	-1.0209 	5.32134e-19 26.861 	-1.16989 	5.96551e-19 26.7184 	-1.31907 	6.56764e-19 26.5899 	-1.43802 	5.22925e-19 26.4966 	-1.52894 	4.86153e-19 26.3966 	-1.60689 	4.47336e-19 26.2988 	-1.68505 	4.08886e-19 26.2032 	-1.76344 	3.70806e-19 26.1477 	-1.81007 	3.48439e-19 26.0791 	-1.87405 	3.4805e-19 26.012 	-1.93823 	3.48813e-19 25.9464 	-2.0026 	3.50736e-19 25.8825 	-2.06716 	3.53825e-19 25.785 	-2.1504 	1.3802e-19 25.6318 	-2.26663 	7.60328e-20 25.4715 	-2.38813 	-2.08038e-20 25.3176 	-2.51085 	-1.17309e-19 25.17 	-2.63478 	-2.13476e-19 24.9248 	-2.79475 	-2.75465e-19 24.7853 	-2.88954 	-1.93032e-19 24.6384 	-2.99125 	-1.10061e-19 24.4917 	-3.09665 	-2.65999e-20 24.2864 	-3.21709 	0 24.056 	-3.34633 	0 23.9198 	-3.42521 	0 23.7876 	-3.50526 	0 23.6126 	-3.59189 	2.26277e-21 23.4045 	-3.68593 	-1.76426e-20 23.2 	-3.78206 	-3.6534e-20 23.0718 	-3.83942 	-7.42819e-19 22.915 	-3.89429 	-9.38628e-19 22.735 	-3.94728 	-7.08742e-19 22.5582 	-4.00129 	-4.74325e-19 22.3874 	-4.06183 	1.5081e-19 22.3463 	-4.07451 	1.86287e-19 22.2939 	-4.07934 	1.74274e-19 22.2407 	-4.08349 	1.57866e-19 22.1877 	-4.0877 	1.41472e-19 22.1368 	-4.09181 	1.25691e-19 22.0441 	-4.10814 	8.46703e-20 21.9522 	-4.12477 	4.36084e-20 21.861 	-4.1417 	2.50494e-21 21.7608 	-4.15572 	-2.23573e-20 21.6078 	-4.15253 	4.10627e-20 21.5208 	-4.12622 	6.53402e-19 21.4201 	-4.10315 	1.01872e-18 21.3113 	-4.08209 	1.23266e-18 21.1141 	-4.03782 	6.87953e-19 20.9077 	-3.99111 	6.54688e-20 20.8504 	-3.91428 	-5.78748e-19 20.783 	-3.83611 	-1.17736e-18 20.6119 	-3.75083 	-1.20975e-18 20.4299 	-3.67012 	-1.04281e-18 20.2359 	-3.59572 	-6.30397e-19 20.2021 	-3.51442 	-1.1957e-18 20.0889 	-3.44053 	-1.09935e-18 19.9657 	-3.3671 	-9.26761e-19 19.8418 	-3.29321 	-7.56052e-19 19.6957 	-3.20602 	-5.58176e-19 19.6518 	-3.18091 	-5.18063e-19 19.6079 	-3.15574 	-4.78088e-19 19.5639 	-3.13051 	-4.3825e-19 19.518 	-3.10529 	-4.0438e-19 19.4485 	-3.08084 	-4.44812e-19 19.2826 	-2.97087 	-3.33173e-19 19.1074 	-2.86699 	-2.09251e-19 18.931 	-2.76216 	-8.58937e-20 18.7279 	-2.65972 	0 18.4663 	-2.56473 	0 18.3022 	-2.45058 	0 18.1373 	-2.33519 	0 17.9433 	-2.23856 	9.91498e-21 17.6964 	-2.15405 	2.13095e-20 17.4507 	-2.06935 	3.27057e-20 17.2823 	-1.9692 	1.26311e-19 17.109 	-1.86929 	2.10021e-19 16.8905 	-1.78189 	1.89851e-19 16.6654 	-1.70602 	1.18767e-19 16.4378 	-1.6366 	2.02082e-20 16.2698 	-1.55653 	3.64757e-21 16.0739 	-1.48574 	-1.87136e-20 15.8728 	-1.41614 	-4.20945e-20 15.6716 	-1.34581 	-6.53799e-20 15.4667 	-1.28707 	-6.32892e-20 15.3316 	-1.24263 	-1.54033e-19 15.1873 	-1.20121 	-1.40858e-19 15.0431 	-1.15949 	-1.27986e-19 14.8988 	-1.11744 	-1.15427e-19 14.7171 	-1.06407 	-1.00012e-19 14.6874 	-1.05508 	-9.91857e-20 14.6578 	-1.04609 	-9.83643e-20 14.6281 	-1.03708 	-9.75481e-20 14.5984 	-1.02806 	-9.6737e-20 14.5695 	-1.01923 	-9.80124e-20 14.4069 	-0.978427 	-7.54081e-20 14.2454 	-0.938746 	-5.28525e-20 14.084 	-0.898756 	-3.03627e-20 13.9228 	-0.858448 	-7.94105e-21 13.7716 	-0.816165 	-4.02114e-21 13.627 	-0.780153 	-4.2454e-20 13.4905 	-0.751002 	-5.90376e-20 13.354 	-0.721643 	-7.55207e-20 13.2197 	-0.691367 	-8.7362e-20 13.1043 	-0.654682 	-5.89655e-20 12.9836 	-0.626106 	-3.67673e-20 12.87 	-0.60202 	-4.23674e-20 12.7598 	-0.580023 	-6.13655e-20 12.6623 	-0.552831 	-8.9227e-20 12.577 	-0.520638 	-1.25581e-19 12.4834 	-0.499008 	-8.4305e-20 12.3923 	-0.478471 	-4.88402e-20 12.309 	-0.461758 	-3.19234e-20 12.2497 	-0.434474 	-4.81568e-20 12.1942 	-0.405367 	-6.985e-20 12.1276 	-0.389165 	-4.53084e-20 12.0609 	-0.372889 	-2.0812e-20 12.0086 	-0.357006 	1.69628e-21 11.9838 	-0.328668 	1.24183e-20 11.9588 	-0.300264 	2.30973e-20 11.9218 	-0.286245 	8.24418e-20 11.8847 	-0.272189 	1.41769e-19 11.8666 	-0.251704 	1.5532e-19 11.8727 	-0.220257 	1.17486e-19 11.8785 	-0.188816 	7.97145e-20 11.8726 	-0.17326 	4.76098e-20 11.8666 	-0.157703 	1.55306e-20 11.8854 	-0.127071 	9.43418e-21 11.9267 	-0.0834223 	3.07018e-20 11.9675 	-0.0399133 	5.21032e-20 11.9977 	-0.0132991 	3.02145e-20 12.0275 	0.0132357 	8.40935e-21 12.0836 	0.0595012 	0 12.1599 	0.120261 	0 12.2354 	0.180649 	0 12.304 	0.225576 	0 12.372 	0.27023 	0 12.4599 	0.331993 	0 12.5662 	0.409538 	0 12.6712 	0.486467 	0 12.7751 	0.550786 	0 12.878 	0.614557 	0 12.9881 	0.686341 	4.92118e-23 13.1148 	0.775219 	2.71773e-22 13.2401 	0.863364 	4.92124e-22 13.3708 	0.942785 	2.2181e-22 13.5 	1.02155 	-4.65619e-23 13.6281 	1.10019 	-2.9894e-22 13.7613 	1.18486 	1.63661e-21 13.8978 	1.27327 	4.93524e-21 14.0463 	1.35743 	3.54679e-20 14.1875 	1.43904 	2.54245e-20 14.3258 	1.51936 	4.91993e-21 14.4627 	1.59886 	-1.59595e-20 14.5982 	1.67985 	-5.23887e-20 14.6821 	1.72458 	-4.15073e-20 14.7596 	1.76553 	-5.40001e-20 14.8368 	1.80625 	-6.66218e-20 14.9136 	1.84674 	-7.93701e-20 14.9759 	1.87958 	-8.98726e-20 15.0404 	1.91443 	-1.03257e-19 15.1045 	1.94913 	-1.16766e-19 15.1684 	1.98369 	-1.30398e-19 15.2321 	2.0181 	-1.44152e-19 15.2913 	2.04984 	-1.03476e-19 15.4348 	2.11814 	-1.34775e-19 15.5689 	2.18061 	-1.33179e-19 15.7022 	2.24261 	-1.31813e-19 15.8295 	2.30114 	-1.08601e-19 15.9444 	2.35247 	-3.38337e-20 16.0871 	2.41202 	-2.16209e-20 16.229 	2.47113 	-9.36944e-21 16.3475 	2.51362 	0 16.4479 	2.54408 	0 16.5483 	2.57449 	0 16.6797 	2.61578 	0 16.8047 	2.65328 	0 16.9119 	2.68007 	0 17.0133 	2.7028 	0 17.0968 	2.71271 	0 17.1823 	2.72875 	0 17.2493 	2.7347 	0 17.3164 	2.74061 	0 17.3835 	2.74655 	0 17.4511 	2.75257 	0 17.4774 	2.75643 	0 17.5037 	2.76028 	0 17.5299 	2.76413 	0 17.5562 	2.76799 	0 17.5762 	2.76838 	0 17.6692 	2.77182 	0 17.7504 	2.76753 	0 17.8319 	2.76334 	0 17.908 	2.75635 	-5.68564e-21 17.9638 	2.73902 	-3.1918e-20 18.0567 	2.73585 	-1.55104e-20 18.1482 	2.73174 	0 18.2081 	2.70829 	-7.41865e-21 18.2464 	2.67461 	-5.75077e-20 18.2853 	2.6412 	-1.07379e-19 18.3606 	2.6218 	-7.53771e-20 18.4352 	2.60212 	-4.52774e-20 18.488 	2.57285 	-5.87191e-20 18.5213 	2.53169 	-9.37418e-20 18.545 	2.48479 	-1.39375e-19 18.6043 	2.45119 	-1.09079e-19 18.6441 	2.41025 	-7.89867e-20 18.6822 	2.36862 	-4.8773e-20 18.721 	2.3272 	-1.83959e-20 18.7463 	2.2783 	-5.3233e-21 18.7626 	2.25832 	-1.98e-20 18.7724 	2.23616 	-5.61635e-21 18.7822 	2.21403 	8.49782e-21 18.7922 	2.19193 	2.25426e-20 18.8035 	2.16736 	3.81089e-20 18.8196 	2.13901 	6.65544e-20 18.836 	2.11069 	9.47301e-20 18.8525 	2.08241 	1.22636e-19 18.8691 	2.05416 	1.50274e-19 18.8776 	2.02294 	7.77132e-20 18.9071 	1.97143 	5.40464e-20 18.921 	1.91192 	1.56947e-20 18.9355 	1.85247 	-2.268e-20 18.9505 	1.79305 	-6.10071e-20 18.9461 	1.72739 	-7.92006e-20 18.9776 	1.67456 	-2.19939e-19 18.9876 	1.61158 	-2.56425e-19 18.9894 	1.54457 	-2.50833e-19 18.9815 	1.47465 	-1.46309e-19 18.9654 	1.40243 	4.38906e-20 18.9844 	1.34206 	2.01435e-19 18.9998 	1.28006 	3.41817e-19 18.9895 	1.20765 	3.7542e-19 18.9621 	1.13192 	2.74407e-19 18.9347 	1.05622 	1.68072e-19 18.9414 	0.990994 	3.15591e-19 18.9485 	0.92576 	4.62986e-19 18.9301 	0.853261 	4.55183e-19 18.893 	0.777455 	2.8247e-19 18.8565 	0.701721 	1.09977e-19 18.8527 	0.635275 	6.59475e-20 18.8492 	0.568775 	2.1858e-20 18.8254 	0.498356 	-6.87446e-21 18.7817 	0.424375 	-2.00362e-20 18.7384 	0.350379 	-3.32539e-20 18.7266 	0.284758 	-2.6257e-19 18.7151 	0.21905 	-4.91963e-19 18.6843 	0.150109 	-4.85721e-19 18.6332 	0.0775454 	-2.44657e-19 18.5825 	0.00488711 	-4.05907e-21 18.5621 	-0.0603217 	-3.54036e-21 18.542 	-0.125647 	-3.34814e-21 18.5029 	-0.193965 	-6.38491e-21 18.4459 	-0.264802 	-1.24653e-20 18.3891 	-0.335806 	-1.89192e-20 18.3619 	-0.400186 	-2.81359e-19 18.335 	-0.464705 	-5.44122e-19 18.2874 	-0.53221 	-5.4807e-19 18.2252 	-0.600724 	-2.8544e-19 18.1631 	-0.669467 	-2.30456e-20 18.1299 	-0.732547 	2.66897e-19 18.0943 	-0.796096 	5.25769e-19 18.0381 	-0.862375 	5.30726e-19 17.974 	-0.928719 	3.00429e-19 17.9076 	-0.995314 	6.11733e-23 17.8686 	-1.05734 	-3.03404e-19 17.8174 	-1.1209 	-4.17548e-19 17.7566 	-1.18572 	-3.81919e-19 17.6944 	-1.2507 	-3.05085e-19 17.6239 	-1.31578 	-5.63813e-21 17.5778 	-1.37743 	-2.17666e-21 17.5125 	-1.44083 	-2.67564e-20 17.4471 	-1.50444 	-5.1459e-20 17.3816 	-1.56826 	-7.62855e-20 17.3129 	-1.63223 	-8.50335e-20 17.2961 	-1.65083 	-9.8006e-20 17.2745 	-1.66964 	-1.00212e-19 17.253 	-1.68846 	-1.02443e-19 17.2314 	-1.7073 	-1.04699e-19 17.2121 	-1.72415 	-1.06736e-19 17.1631 	-1.76809 	-1.23135e-19 17.114 	-1.81216 	-1.39948e-19 17.0649 	-1.85636 	-1.57178e-19 17.0158 	-1.90068 	-1.74828e-19 16.9558 	-1.94539 	-9.21836e-20 16.8876 	-2.00735 	-6.8951e-20 16.8121 	-2.06777 	-5.8576e-20 16.7365 	-2.12847 	-4.79269e-20 16.6526 	-2.18915 	-4.82853e-20 16.5575 	-2.25001 	-6.29515e-20 16.4845 	-2.30994 	-1.96407e-19 16.4113 	-2.37016 	-3.29643e-19 16.3254 	-2.42911 	-3.25435e-19 16.2257 	-2.48723 	-1.81962e-19 16.1252 	-2.546 	-3.75711e-20 16.046 	-2.60419 	-1.25863e-20 15.9583 	-2.66264 	5.56129e-22 15.8611 	-2.72136 	3.10398e-22 15.7635 	-2.78042 	6.75485e-23 15.6597 	-2.83935 	0 15.6324 	-2.85798 	0 15.6006 	-2.8767 	0 15.5677 	-2.89548 	0 15.5347 	-2.91429 	0 15.5043 	-2.93169 	0 15.4338 	-2.97291 	0 15.3632 	-3.01432 	0 15.2924 	-3.05592 	0 15.2184 	-3.09764 	0 15.136 	-3.13966 	0 15.0328 	-3.2013 	0 14.9287 	-3.26324 	1.62761e-21 14.8158 	-3.32409 	1.80932e-20 14.6905 	-3.38435 	3.43989e-20 14.5632 	-3.4458 	5.05951e-20 14.4627 	-3.50181 	1.60073e-20 14.3546 	-3.55641 	9.48304e-21 14.2399 	-3.60985 	2.71502e-20 14.1247 	-3.66368 	4.49151e-20 14.0323 	-3.70692 	5.91658e-20 14.0152 	-3.71542 	6.01114e-20 13.9981 	-3.72394 	6.10538e-20 13.981 	-3.73246 	6.19929e-20 13.9629 	-3.7406 	6.19325e-20 13.9442 	-3.74853 	6.12396e-20 13.8132 	-3.80816 	1.50963e-21 13.6798 	-3.86681 	-3.49132e-20 13.5458 	-3.92609 	-7.25017e-20 13.4032 	-3.9789 	-2.29714e-20 13.256 	-4.03211 	4.10767e-20 13.1475 	-4.0752 	-3.3607e-20 13.0373 	-4.11653 	-8.54547e-20 12.9232 	-4.15172 	-6.73892e-20 12.8085 	-4.18723 	-4.90206e-20 12.7118 	-4.21731 	-3.33314e-20 12.6764 	-4.23003 	-3.18028e-20 12.641 	-4.24279 	-3.02644e-20 12.6056 	-4.25559 	-2.87164e-20 12.57 	-4.26587 	-1.85656e-20 12.5341 	-4.27596 	-7.36004e-21 12.3849 	-4.31958 	-7.52941e-21 12.2347 	-4.36381 	-7.01419e-21 12.0848 	-4.40186 	3.36492e-21 11.9354 	-4.43236 	8.36608e-21 11.7817 	-4.46416 	1.34113e-20 11.7384 	-4.47368 	2.52035e-20 11.695 	-4.48324 	3.69814e-20 11.6528 	-4.48917 	1.57184e-20 11.6107 	-4.49494 	-7.32564e-21 11.5705 	-4.50047 	-2.93152e-20 11.464 	-4.51949 	-1.13349e-19 11.357 	-4.53882 	-1.98118e-19 11.2497 	-4.55826 	-2.79463e-19 11.1444 	-4.56919 	-1.80749e-19 11.0369 	-4.58058 	-8.02855e-20 10.9345 	-4.59167 	-1.15336e-19 10.8317 	-4.60301 	-1.50217e-19 10.732 	-4.60728 	-1.18711e-19 10.6322 	-4.61106 	-8.07119e-20 10.5416 	-4.61467 	-4.60132e-20 10.4961 	-4.61811 	-2.24253e-20 10.4506 	-4.6216 	1.26962e-21 10.4051 	-4.62483 	2.19639e-20 10.3612 	-4.6247 	8.57603e-21 10.3168 	-4.62462 	-4.87177e-21 10.1787 	-4.62475 	-7.58227e-20 10.04 	-4.6253 	-1.46197e-19 9.90545 	-4.61879 	-1.28373e-19 9.77188 	-4.61032 	-8.26206e-20 9.63466 	-4.60187 	-2.18001e-20 9.63026 	-4.60162 	-2.