# vtk DataFile Version 2.0
track0
ASCII
DATASET POLYDATA
POINTS 10620 double
-0.0205 0.001 1e-05
-0.0204991 0.00100536 1e-05
-0.0204976 0.00101063 1e-05
-0.0204947 0.00101518 1e-05
-0.0204905 0.00101864 1e-05
-0.0204746 0.00102682 1e-05
-0.0201831 0.00105563 1e-05
-0.0203616 0.00128793 1e-05
-0.0204488 0.00141936 1e-05
-0.0201625 0.0014444 1e-05
-0.0201519 0.00173163 1e-05
-0.0202219 0.00184007 1e-05
-0.0200496 0.00193025 1e-05
-0.0200809 0.00212221 1e-05
-0.0201294 0.00229098 1e-05
-0.0200088 0.00238763 1e-05
-0.0199911 0.00254122 1e-05
-0.0200041 0.00269528 1e-05
-0.0199827 0.00277425 1e-05
-0.019869 0.00287784 1e-05
-0.0198179 0.00302292 1e-05
-0.0198054 0.00317623 1e-05
-0.01976 0.00329221 1e-05
-0.0196348 0.00340323 1e-05
-0.0195486 0.00354672 1e-05
-0.0194777 0.0036983 1e-05
-0.0193911 0.00384149 1e-05
-0.0193842 0.00384734 1e-05
-0.0193108 0.00390809 1e-05
-0.0192439 0.00397596 1e-05
-0.0191791 0.0040458 1e-05
-0.0191113 0.00411276 1e-05
-0.0190172 0.00419797 1e-05
-0.0189565 0.00424684 1e-05
-0.018894 0.00429342 1e-05
-0.0188298 0.0043377 1e-05
-0.0187642 0.00437966 1e-05
-0.0186587 0.00444232 1e-05
-0.0184265 0.00456534 1e-05
-0.0181853 0.00466965 1e-05
-0.0179371 0.00475591 1e-05
-0.0176828 0.00482231 1e-05
-0.0174976 0.00485388 1e-05
-0.0172058 0.00488463 1e-05
-0.0169124 0.00488639 1e-05
-0.0166199 0.00486407 1e-05
-0.0163297 0.0048209 1e-05
-0.0160387 0.00475684 1e-05
-0.0158288 0.00469394 1e-05
-0.0156227 0.0046199 1e-05
-0.0154207 0.00453511 1e-05
-0.0152216 0.00444381 1e-05
-0.0152186 0.00444232 1e-05
-0.0151025 0.00438413 1e-05
-0.0149892 0.0043207 1e-05
-0.014879 0.00425196 1e-05
-0.0147711 0.00417963 1e-05
-0.0146381 0.00408457 1e-05
-0.014577 0.00403713 1e-05
-0.0145168 0.00398858 1e-05
-0.0144575 0.00393891 1e-05
-0.0143992 0.00388811 1e-05
-0.0143532 0.00384734 1e-05
-0.0142292 0.00373631 1e-05
-0.0141117 0.00361837 1e-05
-0.0140017 0.00349338 1e-05
-0.0138977 0.0033634 1e-05
-0.0138432 0.00329221 1e-05
-0.0137661 0.00318862 1e-05
-0.0136966 0.00307984 1e-05
-0.0136333 0.00296725 1e-05
-0.0135739 0.00285261 1e-05
-0.0135367 0.00277425 1e-05
-0.0134937 0.0026776 1e-05
-0.0134579 0.00257807 1e-05
-0.0134261 0.00247719 1e-05
-0.0133988 0.00237498 1e-05
-0.0133808 0.00229098 1e-05
-0.0133658 0.0022008 1e-05
-0.0133568 0.00210982 1e-05
-0.0133532 0.00201847 1e-05
-0.0133556 0.00192709 1e-05
-0.0133642 0.00184007 1e-05
-0.013379 0.00175593 1e-05
-0.0134016 0.00167352 1e-05
-0.013431 0.00159331 1e-05
-0.0134675 0.00151602 1e-05
-0.0135242 0.00141936 1e-05
-0.0135818 0.00134085 1e-05
-0.0136502 0.00127164 1e-05
-0.0137244 0.00120868 1e-05
-0.0138032 0.00115146 1e-05
-0.0139973 0.00102682 1e-05
-0.0141254 0.000957714 1e-05
-0.0142603 0.000902816 1e-05
-0.0143984 0.000856695 1e-05
-0.0145372 0.000812595 1e-05
-0.0146381 0.000782194 1e-05
-0.0147222 0.000757868 1e-05
-0.0148066 0.000734892 1e-05
-0.0148914 0.000713058 1e-05
-0.0149766 0.000693243 1e-05
-0.0151507 0.000660566 1e-05
-0.0153283 0.000638025 1e-05
-0.0155063 0.000618885 1e-05
-0.0156845 0.000602395 1e-05
-0.015863 0.000587893 1e-05
-0.0160387 0.000568206 1e-05
-0.0162831 0.000518333 1e-05
-0.0165313 0.000493588 1e-05
-0.0167805 0.000482533 1e-05
-0.0170299 0.000475706 1e-05
-0.0174976 0.000406224 1e-05
-0.0174976 0.000406224 1e-05
-0.0174976 0.000406224 1e-05
-0.0174976 0.000406224 1e-05
-0.0174976 0.000406224 1e-05
-0.0174976 0.000406224 1e-05
-0.0174951 0.000388747 1e-05
-0.0174897 0.000371949 1e-05
-0.017482 0.000356068 1e-05
-0.0174727 0.000341132 1e-05
-0.0174557 0.000318841 1e-05
-0.0173838 0.000255072 1e-05
-0.0172967 0.000214397 1e-05
-0.0172047 0.000186601 1e-05
-0.0171106 0.000167057 1e-05
-0.0160387 4.42328e-06 1e-05
-0.0160288 3.53862e-06 1e-05
-0.016019 3.08631e-06 1e-05
-0.0160091 2.67559e-06 1e-05
-0.0159992 2.26486e-06 1e-05
-0.0159447 0 1e-05
-0.0205 0.00367778 1e-05
-0.0203955 0.00371169 1e-05
-0.0203045 0.00377319 1e-05
-0.0202171 0.00383976 1e-05
-0.020198 0.00384734 1e-05
-0.0199618 0.00393432 1e-05
-0.019766 0.00409245 1e-05
-0.0196202 0.00429755 1e-05
-0.0194754 0.00444232 1e-05
-0.0193837 0.00449616 1e-05
-0.0192963 0.00455668 1e-05
-0.0192132 0.00462293 1e-05
-0.0191277 0.00468607 1e-05
-0.0190172 0.00476159 1e-05
-0.0189141 0.00482527 1e-05
-0.0188084 0.00488443 1e-05
-0.0187003 0.00493913 1e-05
-0.0185902 0.0049895 1e-05
-0.018369 0.00508 1e-05
-0.0181947 0.00513509 1e-05
-0.0180184 0.0051832 1e-05
-0.0178403 0.0052245 1e-05
-0.0176608 0.00525885 1e-05
-0.0174976 0.00528188 1e-05
-0.0172058 0.00530981 1e-05
-0.0169127 0.00531468 1e-05
-0.0166201 0.00529771 1e-05
-0.0163294 0.00526053 1e-05
-0.0160387 0.00520559 1e-05
-0.01594 0.00518047 1e-05
-0.0158419 0.00515335 1e-05
-0.0157444 0.00512431 1e-05
-0.0156472 0.00509404 1e-05
-0.0156041 0.00508 1e-05
-0.0154109 0.00501586 1e-05
-0.0152211 0.0049423 1e-05
-0.0150353 0.00485897 1e-05
-0.0148539 0.00476662 1e-05
-0.0146381 0.00464703 1e-05
-0.0145716 0.00460609 1e-05
-0.0145058 0.00456426 1e-05
-0.0144405 0.00452152 1e-05
-0.0143757 0.004478 1e-05
-0.0143232 0.00444232 1e-05
-0.0141497 0.00432332 1e-05
-0.0139827 0.00419531 1e-05
-0.0138235 0.00405777 1e-05
-0.013669 0.00391502 1e-05
-0.0135986 0.00384734 1e-05
-0.0135376 0.00378747 1e-05
-0.0134787 0.00372552 1e-05
-0.0134212 0.00366218 1e-05
-0.0133647 0.00359806 1e-05
-0.0132934 0.00351491 1e-05
-0.0132568 0.00347037 1e-05
-0.0132206 0.00342546 1e-05
-0.0131848 0.00338017 1e-05
-0.0131496 0.00333451 1e-05
-0.0131175 0.00329221 1e-05
-0.0130394 0.00318862 1e-05
-0.0129633 0.0030836 1e-05
-0.0128901 0.00297658 1e-05
-0.01282 0.00286742 1e-05
-0.0127628 0.00277425 1e-05
-0.0127052 0.0026776 1e-05
-0.012649 0.00258012 1e-05
-0.0125943 0.00248176 1e-05
-0.0125411 0.00238259 1e-05
-0.0124944 0.00229098 1e-05
-0.0124509 0.0022008 1e-05
-0.0124077 0.00211048 1e-05
-0.0123648 0.00202003 1e-05
-0.0123221 0.00192946 1e-05
-0.0122813 0.00184007 1e-05
-0.0122465 0.00175593 1e-05
-0.0122102 0.00167242 1e-05
-0.0121727 0.00158946 1e-05
-0.0121337 0.00150719 1e-05
-0.0120897 0.00141936 1e-05
-0.0120723 0.00138545 1e-05
-0.0120535 0.00135229 1e-05
-0.0120334 0.00131986 1e-05
-0.0120121 0.00128822 1e-05
-0.0120025 0.00127512 1e-05
-0.0119647 0.00122546 1e-05
-0.0119238 0.00117833 1e-05
-0.0118798 0.00113409 1e-05
-0.0118328 0.00109302 1e-05
-0.0117454 0.00102682 1e-05
-0.0116308 0.000953567 1e-05
-0.0115083 0.000894534 1e-05
-0.0113812 0.000846249 1e-05
-0.0112512 0.000806405 1e-05
-0.0107632 0.000718407 1e-05
-0.0105252 0.000727683 1e-05
-0.0102871 0.000724464 1e-05
-0.010049 0.000722789 1e-05
-0.00981082 0.000722061 1e-05
-0.00957337 0.000721933 1e-05
-0.00934491 0.000731496 1e-05
-0.00911628 0.000728114 1e-05
-0.00888763 0.000725802 1e-05
-0.00865898 0.000724224 1e-05
-0.00843108 0.000723162 1e-05
-0.00821175 0.000732246 1e-05
-0.00799227 0.000728231 1e-05
-0.00777277 0.000725225 1e-05
-0.00755327 0.000722946 1e-05
-0.00733443 0.000721199 1e-05
-0.00712387 0.00072964 1e-05
-0.00691317 0.000725494 1e-05
-0.00670246 0.000722267 1e-05
-0.00649174 0.000719722 1e-05
-0.0062816 0.000717691 1e-05
-0.00607944 0.000725429 1e-05
-0.00587718 0.000721539 1e-05
-0.0056749 0.000718441 1e-05
-0.00547262 0.000715943 1e-05
-0.00527083 0.000713907 1e-05
-0.00507675 0.000720953 1e-05
-0.00488258 0.000717464 1e-05
-0.00468839 0.000714637 1e-05
-0.0044942 0.000712322 1e-05
-0.00430044 0.00071041 1e-05
-0.00411412 0.000716818 1e-05
-0.00392771 0.000713751 1e-05
-0.0037413 0.000711232 1e-05
-0.00355487 0.000709143 1e-05
-0.00336883 0.000707398 1e-05
-0.00318995 0.000713244 1e-05
-0.00301099 0.000710561 1e-05
-0.00283203 0.00070835 1e-05
-0.00265307 0.000706515 1e-05
-0.00247443 0.000704985 1e-05
-0.0023027 0.000710417 1e-05
-0.0021309 0.000708179 1e-05
-0.00195909 0.000706357 1e-05
-0.00178728 0.000704873 1e-05
-0.00161577 0.000703665 1e-05
-0.0014509 0.000708921 1e-05
-0.00128595 0.000707317 1e-05
-0.001121 0.000706386 1e-05
-0.000956049 0.000706005 1e-05
-0.000791418 0.000706072 1e-05
-0.000633135 0.000712717 1e-05
-0.000474713 0.000713345 1e-05
-0.000316296 0.000714788 1e-05
-0.000157887 0.000716908 1e-05
0 0.000719586 1e-05
0.000105677 0.000726508 1e-05
0.000211547 0.000729199 1e-05
0.000317413 0.000732037 1e-05
0.000423275 0.000735008 1e-05
0.000528387 0.000738076 1e-05
0.000634886 0.000746322 1e-05
0.000741638 0.000750089 1e-05
0.000848409 0.000753248 1e-05
0.000955183 0.000756284 1e-05
0.00106088 0.000760144 1e-05
0.00116821 0.000768744 1e-05
0.00127578 0.000773447 1e-05
0.0013834 0.000776695 1e-05
0.00149102 0.000779984 1e-05
0.00159752 0.000785232 1e-05
0.00170568 0.00079488 1e-05
0.00181409 0.000801068 1e-05
0.00192262 0.000804851 1e-05
0.00203114 0.000808776 1e-05
0.00213833 0.000815785 1e-05
0.00224733 0.000826926 1e-05
0.00235659 0.0008351 1e-05
0.00246605 0.000840189 1e-05
0.00257548 0.000845667 1e-05
0.00268334 0.000854762 1e-05
0.00279319 0.000867614 1e-05
0.00290328 0.000878223 1e-05
0.00301356 0.000886532 1e-05
0.00312382 0.000895205 1e-05
0.00323259 0.000906756 1e-05
0.00334329 0.000921458 1e-05
0.00345417 0.000934764 1e-05
0.00356516 0.000947122 1e-05
0.00367609 0.00096005 1e-05
0.00378611 0.00097424 1e-05
0.00389767 0.000990737 1e-05
0.00400935 0.00100642 1e-05
0.00412098 0.00102248 1e-05
0.00423255 0.00103898 1e-05
0.00434393 0.00105591 1e-05
0.00437199 0.00106037 1e-05
0.00440005 0.00106479 1e-05
0.00442811 0.00106923 1e-05
0.00445617 0.00107368 1e-05
0.00448449 0.00107819 1e-05
0.00456881 0.00109166 1e-05
0.0046531 0.00110528 1e-05
0.00473738 0.00111905 1e-05
0.00482162 0.00113298 1e-05
0.00490609 0.00114709 1e-05
0.0050194 0.00116552 1e-05
0.00513259 0.00118461 1e-05
0.00524578 0.00120377 1e-05
0.00535895 0.00122298 1e-05
0.00547262 0.00124185 1e-05
0.00558681 0.00125993 1e-05
0.00570092 0.00127846 1e-05
0.00581496 0.00129746 1e-05
0.00592904 0.0013162 1e-05
0.00604356 0.00133406 1e-05
0.00615863 0.00135102 1e-05
0.00627366 0.00136827 1e-05
0.00638868 0.00138566 1e-05
0.00650375 0.0014026 1e-05
0.00661893 0.00141882 1e-05
0.0067349 0.00143405 1e-05
0.00685085 0.00144947 1e-05
0.00696686 0.00146437 1e-05
[...]
POINT_DATA 10620
 FIELD attributes 2
p 1 10620 float
127.347 142.583 146.928 149.527 150.24 148.1 137.281 774.915 753.527 590.599 659.875 299.417 285.177 261.437 -45.877 14.862 107.408 -32.9973 -144.266 -53.3066 119.073 -26.3557 -167.36 -100.958 -42.0205 -67.6571 -209.149 -215.798 -197.662 -192.726 -208.629 -226.286 -252.121 -269.631 -288.283 -308.031 -307.637 -281.309 -327.014 -374.507 -387.426 -389.315 -395.384 -398.942 -402.205 -406.258 -389.033 -366.988 -350.377 -335.701 -314.453 -294.527 -294.245 -281.65 -270.049 -255.602 -240.567 -222.373 -214.52 -206.886 -199.48 -198.842 -199.376 -165.392 -133.489 -124.045 -132.349 -137.286 -102.354 -78.487 -70.2317 -69.1623 -78.9544 -49.8715 -42.5454 -35.4849 -28.7353 -31.929 -17.1807 -11.5764 -6.36522 -1.61468 -4.75765 6.11578 8.51011 10.3378 11.5563 -12.4059 10.0978 9.3795 5.97425 -7.02491 -85.9357 -82.7445 -94.2807 -134.705 -175.227 -204.627 -226.854 -249.12 -275.41 -309.991 -378.012 -433.576 -489.683 -546.199 -609.804 -679.341 -792.452 -904.57 -1018 -1160.22 -1429.28 -1429.28 -1429.28 -1429.28 -1429.28 -1429.28 -1427.74 -1424.49 -1419.93 -1414.4 -1407.87 -1358.93 -1307.14 -1255.27 -1203.89 -701.369 -696.842 -692.892 -689.464 -686.037 -667.134
110.973 110.866 86.18 8.09614 -3.20064 -11.4788 34.5038 -33.2267 -132.727 -128.922 -122.438 -136.298 -151.177 -171.172 -188.937 -207.923 -228.049 -224.527 -217.302 -236.775 -256.962 -275.591 -281.978 -289.518 -295.994 -307.4 -303.859 -293.955 -285.785 -282.01 -278.171 -271.032 -264.058 -261.027 -248.565 -237.572 -225.928 -208.311 -187.962 -181.699 -175.567 -170.477 -169.248 -168.302 -138.164 -107.777 -96.2321 -98.9648 -100.638 -83.079 -72.0923 -67.1742 -62.3069 -56.1443 -53.1158 -50.112 -47.1342 -45.2254 -45.5159 -31.2784 -22.5777 -14.0281 -12.5524 -13.8713 1.58974 17.0966 23.4356 21.1192 18.8724 34.3263 45.5926 49.7082 51.6908 48.531 62.4622 65.0737 67.6674 70.2391 69.9052 73.5812 73.7221 73.8511 73.9675 74.0114 74.5026 74.9856 75.4578 75.9167 72.3583 73.3228 73.6922 73.5583 68.0987 48.8519 44.6212 38.5816 32.6235 26.7153 19.6335 16.5418 12.1969 7.89904 3.63342 -1.41888 -2.30526 -4.94568 -7.53714 -10.0933 -13.8714 -13.5873 -15.2813 -16.9291 -18.5429 -21.5618 -20.765 -21.8716 -22.9399 -23.979 -26.3866 -25.2571 -25.9082 -26.5285 -27.125 -29.0298 -27.6639 -27.9789 -28.2692 -28.5401 -30.0785 -28.566 -28.5952 -28.6042 -28.5971 -29.7891 -28.0791 -27.7989 -27.5017 -27.1907 -28.0594 -25.9987 -25.0253 -24.0296 -23.0158 -23.1519 -20.3649 -18.7528 -17.1166 -15.4607 -15.6066 -12.5271 -11.4266 -10.3218 -9.21301 -10.7993 -8.72601 -7.87227 -7.16478 -6.80994 -7.89214 -6.63098 -5.84191 -5.33661 -5.32106 -5.94053 -5.51483 -5.1817 -5.11622 -5.40804 -5.85614 -5.96532 -6.03474 -6.19697 -6.48245 -6.81228 -7.16567 -7.49006 -7.82784 -8.21409 -8.63425 -9.17847 -9.72487 -10.3256 -11.0102 -11.7752 -12.5322 -13.4304 -14.3413 -15.2578 -16.2894 -16.5443 -16.8404 -17.1366 -17.433 -17.7322 -18.5668 -19.402 -20.2378 -21.0742 -21.5895 -22.8461 -24.1628 -25.4792 -26.5565 -27.4205 -28.6493 -29.875 -31.0536 -32.0368 -33.0349 -34.1077 -35.118 -35.9035 -36.827 -37.9179 -38.8273 -39.567 -40.3124 -41.0696 -41.9937 -42.4251 -42.8399 -43.2612 -43.689 -44.2444 -44.4942 -44.7457 -44.9989 -45.2538 -45.5489 -46.0614 -46.6827 -47.3225 -47.9806 -48.8188 -49.0787 -49.5884 -50.1181 -50.6677 -51.4561 -51.577 -51.9214 -52.2853 -52.6687 -53.2848 -53.3185 -53.4834 -53.6662 -53.8672 -54.2428 -54.1803 -54.1812 -54.1981 -54.2313 -54.3485 -54.2561 -54.1898 -54.1283 -54.0717 -54.041 -54.015 -53.9925 -53.9736 -53.9584 -54.0111 -53.7319 -53.5985 -53.4791 -53.374 -53.4965 -52.9731 -52.71 -52.5632 -52.5495 -52.6074 -52.1239 -51.6511 -51.3596 -51.3048 -51.261 -50.8276 -50.407 -49.9986 -49.5984 -49.3711 -49.2229 -49.0516 -48.8786 -48.7059 -48.5399 -48.253 -47.9679 -47.6844 -47.3915 -47.0391 -46.3343 -45.7494 -45.2383 -44.6454 -44.0442 -43.3513 -42.649 -41.8706 -41.1625 -40.5459 -40.066 -39.544 -39.0161 -38.4871 -37.8655 -37.6739 -37.4822 -37.2904 -37.0981 -36.9009 -36.1562 -35.4746 -34.7927 -34.1096 -33.4286 -32.7434 -32.0579 -31.4827 -30.9357 -30.3926 -29.8594 -29.3305 -28.8376 -28.407 -28.0128 -27.6423 -27.3047 -26.974 -26.6443 -26.3612 -26.1943 -26.0446 -25.8955 -25.7471 -25.561 -25.5282 -25.4955 -25.4628 -25.4301 -25.4008 -25.3202 -25.2447 -25.1706 -25.0979 -25.046 -25.0709 -25.1133 -25.1567 -25.2047 -25.2832 -25.4222 -25.5654 -25.7111 -25.873 -26.0507 -26.292 -26.532 -26.7658 -27.0251 -27.2895 -27.6031 -27.9174 -28.2378 -28.598 -28.9591 -29.3655 -29.7725 -30.1795 -30.5995 -31.0204 -31.4984 -31.9769 -32.4594 -32.9398 -33.421 -33.9547 -34.4889 -35.033 -35.57 -36.1078 -36.6865 -37.2658 -37.8562 -38.4527 -39.0497 -39.6747 -40.2996 -40.9045 -41.5359 -42.1676 -42.8154 -43.4542 -44.0567 -44.6881 -45.3392 -45.9932 -46.6095 -47.2147 -47.8179 -48.4557 -48.8085 -49.139 -49.4687 -49.7977 -50.0655 -50.3405 -50.6151 -50.889 -51.1625 -51.4241 -51.969 -52.5483 -53.1253 -53.6935 -54.2465 -54.752 -55.2555 -55.7939 -56.3142 -56.8351 -57.303 -57.7627 -58.2015 -58.6503 -59.1339 -59.4477 -59.7354 -60.0231 -60.3111 -60.6013 -60.7103 -60.8192 -60.9282 -61.0371 -61.1379 -61.4733 -61.8221 -62.1722 -62.5149 -62.8282 -63.0951 -63.3638 -63.6333 -63.853 -64.0753 -64.254 -64.4328 -64.565 -64.703 -64.8456 -64.9378 -64.993 -65.047 -65.1046 -65.1637 -65.1646 -65.1529 -65.1419 -65.1318 -65.1214 -65.1215 -65.1227 -65.1253 -65.129 -65.1175 -65.0403 -64.9581 -64.8803 -64.8067 -64.6918 -64.5521 -64.3964 -64.2374 -64.0598 -63.8674 -63.655 -63.4418 -63.1993 -62.9242 -62.6539 -62.3681 -62.0873 -61.7648 -61.41 -61.0615 -60.7031 -60.3498 -59.9576 -59.5281 -59.1044 -58.6759 -58.2523 -57.794 -57.2985 -56.8085 -56.317 -55.8303 -55.3092 -54.7587 -54.2132 -53.6681 -53.1277 -52.5439 -51.9475 -51.3554 -50.7631 -50.1688 -49.5251 -48.8908 -48.2615 -47.6303 -46.9707 -46.2899 -45.6158 -44.9586 -44.292 -43.5848 -42.8817 -42.1826 -41.4942 -41.2847 -41.0668 -40.8493 -40.6322 -40.4385 -39.9441 -39.4516 -38.961 -38.4724 -37.9575 -37.2223 -36.5274 -35.8359 -35.1333 -34.412 -33.6923 -32.976 -32.2844 -31.6 -30.9145 -30.229 -29.5407 -28.8488 -28.1602 -27.5025 -27.2959 -27.0881 -26.8801 -26.6724 -26.481 -26.0257 -25.5716 -25.1186 -24.6661 -24.2097 -23.5478 -22.8922 -22.2725 -21.6565 -21.0356 -20.479 -19.9275 -19.3807 -18.836 -18.4031 -18.3198 -18.2365 -18.1533 -18.0712 -17.9896 -17.3867 -16.8013 -16.2176 -15.6499 -15.076 -14.6292 -14.1867 -13.7555 -13.3256 -12.9654 -12.829 -12.6927 -12.5565 -12.4258 -12.295 -11.7426 -11.1919 -10.665 -10.1535 -9.6309 -9.48338 -9.33597 -9.19486 -9.05416 -8.92036 -8.54466 -8.16936 -7.79493 -7.4399 -7.07882 -6.7278 -6.37725 -6.04285 -5.71038 -5.41002 -5.25114 -5.09232 -4.93424 -4.78357 -4.63173 -4.15007 -3.66904 -3.20552 -2.74786 -2.28381 -2.26891 -2.25401 -2.23963 -2.22538 -2.21117 -1.76711 -1.32324 -0.88225 -0.460345 -0.0305097 0.124861 0.2802 0.429377 0.57719 0.721113 1.00615 1.29114 1.57425 1.84405 2.11667 2.40303 2.68932 2.96256 3.23342 3.49429 3.6274 3.76051 3.8929 4.0188 4.14519 4.53619 4.92714 5.30142 5.67097 6.04211 6.05718 6.07226 6.08656 6.10074 6.11489 6.4595 6.80412 7.14735 7.47015 7.79501 7.9458 8.0966 8.23878 8.38018 8.52032 8.70097 8.88162 9.06221 9.23137 9.40075 9.68489 9.96904 10.2333 10.4973 10.7601 10.7792 10.7983 10.8175 10.8353 10.853 11.1212 11.3878 11.6532 11.9004 12.1471 12.2719 12.3961 12.5104 12.6246 12.7394 12.852 12.9646 13.0772 13.1812 13.2832 13.4906 13.6979 13.891 14.0767 14.2597 14.3016 14.3428 14.3809 14.4189 14.4572 14.5884 14.7195 14.8504 14.9731 15.0917 15.2404 15.3882 15.5218 15.6552 15.7843 15.8016 15.8184 15.834 15.8497 15.8654 15.9652 16.0646 16.1637 16.2544 16.3377 16.4355 16.5329 16.6157 16.6948 16.7691 16.7987 16.8254 16.8494 16.8733 16.8986 16.9391 16.9793 17.0192 17.0548 17.0852 17.1384 17.1907 17.2339 17.2663 17.297 17.3306 17.3569 17.3788 17.4003 17.4201 17.4213 17.4222 17.423 17.4238 17.4246 17.4381 17.4512 17.4639 17.4769 17.4912 17.494 17.4965 17.5006 17.5061 17.5118 17.5032 17.4986 17.4976 17.497 17.4981 17.496 17.495 17.4943 17.4937 17.4931 17.4918 17.4913 17.4916 17.4951 17.505 17.498 17.493 17.4946 17.5033 17.5154 17.5119 17.5106 17.5127 17.516 17.5195 17.529 17.5395 17.5512 17.5662 17.5839 17.5987 17.6199 17.6475 17.6818 17.7152 17.7202 17.7253 17.7304 17.7355 17.7408 17.7928 17.8537 17.9251 18.0056 18.0696 18.0829 18.0962 18.1096 18.123 18.1369 18.2185 18.3041 18.3916 18.4754 18.5509 18.6104 18.6704 18.7189 18.7662 18.8147 18.8669 18.9193 18.9708 19.0085 19.0452 19.1371 19.2275 19.3021 19.3715 19.4311 19.4402 19.4492 19.4573 19.4622 19.467 19.5403 19.6056 19.6215 19.5952 19.5487 19.5486 19.5486 19.5486 19.5486 19.5486 19.493 19.4221 19.3447 19.2619 19.1867 19.1601 19.133 19.109 19.0849 19.0584 18.9615 18.8562 18.741 18.5242 18.3233 18.1805 18.0114 17.7747 17.532 17.1721 17.1692 17.1657 17.1618 17.1579 17.1539 16.8821 16.6046 16.3218 16.0661 15.8747 15.5407 15.1996 14.9223 14.7094 14.5029 14.168 13.86 13.6 13.3492 13.1462 12.8389 12.5972 12.3527 12.1054 11.8763 11.7769 11.6941 11.6108 11.5273 11.4158 11.2851 11.1537 11.0216 10.8887 10.7332 10.5678 10.3821 10.1947 10.0055 9.76974 9.66142 9.51544 9.36795 9.21899 9.01496 8.9548 8.85052 8.74499 8.63825 8.47666 8.45625 8.39298 8.3287 8.26344 8.15056 8.1622 8.13749 8.11201 8.08576 8.02495 8.06078 8.07095 8.08054 8.08956 8.08288 8.12136 8.14848 8.17542 8.20218 8.22361 8.23661 8.24955 8.26244 8.27526 8.29676 8.35421 8.41664 8.47874 8.54053 8.63497 8.69748 8.779 8.86034 8.94148 9.07775 9.14779 9.23778 9.33334 9.45257 9.59896 9.68129 9.76745 9.87271 10.0224 10.1739 10.2636 10.3533 10.4739 10.6264 10.779 10.8717 10.9643 11.0946 11.2433 11.3945 11.4873 11.5976 11.7252 11.8575 12.0051 12.096 12.2183 12.3406 12.4629 12.5969 12.6937 12.8048 12.9158 13.0269 13.1418 13.1455 13.1492 13.1529 13.1566 13.16 13.2691 13.3777 13.4864 13.595 13.6917 13.8042 13.9036 14.003 14.1025 14.1775 14.287 14.3801 14.4694 14.5479 14.6119 14.7103 14.8036 14.8826 14.9398 14.9938 15.0811 15.1685 15.2343 15.2775 15.3208 15.3965 15.4721 15.526 15.5593 15.5927 15.6572 15.7183 15.7597 15.7884 15.8125 15.8665 15.9083 15.9401 15.9676 15.9825 16.0266 16.0504 16.073 16.0955 16.1044 16.1323 16.1459 16.1595 16.1731 16.1801 16.1921 16.1972 16.2024 16.2076 16.2122 16.2126 16.2124 16.2122 16.212 16.2118 16.2103 16.2089 16.2074 16.206 16.2057 16.1972 16.1901 16.183 16.1759 16.1717 16.1575 16.1463 16.1352 16.1241 16.1177 16.0988 16.0841 16.0694 16.055 16.0463 16.0234 16.004 15.9853 15.9681 15.9545 15.927 15.9015 15.8779 15.8572 15.8384 15.8059 15.7741 15.7456 15.7217 15.6983 15.661 15.6237 15.5914 15.5642 15.537 15.4957 15.4543 15.4186 15.3887 15.3588 15.3143 15.2704 15.2332 15.201 15.1701 15.1242 15.0836 15.0467 15.0103 14.9808 14.9378 14.9036 14.8692 14.8349 14.8014 14.7974 14.7945 14.7916 14.7887 14.7859 14.7581 14.7302 14.7023 14.6742 14.6438 14.6189 14.5936 14.568 14.5405 14.5122 14.4931 14.4739 14.4527 14.4309 14.4084 14.4011 14.3929 14.3842 14.3754 14.3684 14.3595 14.3505 14.3414 14.3347 14.3304 14.3128 14.2952 14.2839 14.2794 14.2747 14.2675 14.2615 14.2596 14.2576 14.256 14.2528 14.2497 14.2465 14.2441 14.2419 14.2392 14.2363 14.2345 14.2332 14.232 14.2321 14.2323 14.2325 14.2328 14.233 14.2329 14.2328 14.2327 14.2382 14.244 14.2455 14.2474 14.2533 14.2593 14.266 14.2677 14.2694 14.2712 14.2737 14.2764 14.2851 14.2944 14.3048 14.3181 14.3314 14.3401 14.3497 14.3606 14.3716 14.3866 14.3888 14.391 14.3933 14.3957 14.3986 14.4127 14.4276 14.4426 14.4593 14.4775 14.4918 14.5062 14.5227 14.5412 14.5597 14.5745 14.5903 14.6075 14.625 14.6434 14.6585 14.6754 14.6924 14.7094 14.7269 14.7426 14.7591 14.7755 14.792 14.8088 14.8242 14.84 14.8557 14.8715 14.8875 14.9021 14.917 14.9319 14.9468 14.962 14.9755 14.9894 15.0032 15.0171 15.0314 15.0437 15.0563 15.0689 15.0815 15.0945 15.1054 15.1164 15.1275 15.1388 15.1501 15.1596 15.169 15.1784 15.1878 15.1972 15.2048 15.2125 15.2199 15.2269 15.234 15.2394 15.2447 15.2498 15.2546 15.2591 15.2621 15.2633 15.2641 15.2649 15.2642 15.2618 15.2603 15.2588 15.2573 15.2558 15.2557 15.2552 15.2547 15.2542 15.2537 15.2498 15.2459 15.2419 15.2376 15.2276 15.2161 15.2036 15.1895 15.1693 15.1491 15.128 15.1069 15.0841 15.0612 15.0382 15.0145 14.9903 14.966 14.9418 14.9176 14.9163 14.9147 14.9132 14.9117 14.9101 14.8841 14.858 14.832 14.8059 14.7771 14.7433 14.7082 14.6725 14.6336 14.5938 14.5509 14.5081 14.4642 14.4194 14.3745 14.3267 14.2787 14.2307 14.1826 14.1339 14.0817 14.0279 13.9741 13.9203 13.8664 13.8609 13.8551 13.8493 13.8436 13.8376 13.7817 13.7258 13.6699 13.6139 13.5544 13.4854 13.4131 13.3407 13.2668 13.1891 13.1099 13.0296 12.9464 12.8585 12.7701 12.6798 12.5895 12.4956 12.398 12.3005 12.2008 12.1008 11.9968 11.89 11.7824 11.6724 11.5594 11.4441 11.3281 11.2083 11.0854 10.9567 10.8281 10.6995 10.5677 10.4272 10.2834 10.1397 9.99598 9.85178 9.8258 9.79933 9.77286 9.74639 9.71897 9.58604 9.45309 9.32014 9.18717 9.05269 8.87648 8.69833 8.52016 8.34197 8.16001 7.96567 7.76684 7.56799 7.36854 7.1641 6.94852 6.7268 6.50224 6.2729 6.03838 5.79151 5.54435 5.29636 5.04741 4.79822 4.53608 4.27392 3.97482 3.64041 3.30589 2.9552 2.6045 2.31667 2.08914 1.86155 1.62186 1.36706 0.977637 0.502505 0