# vtk DataFile Version 2.0
track0
ASCII
DATASET POLYDATA
POINTS 11049 double
-0.0205 0.001 1e-05
-0.0202034 0.00100003 1e-05
-0.0199069 0.00100026 1e-05
-0.0196103 0.0010007 1e-05
-0.0193137 0.00100136 1e-05
-0.0190172 0.00100222 1e-05
-0.0187132 0.0010035 1e-05
-0.0184093 0.00100446 1e-05
-0.0181054 0.00100541 1e-05
-0.0178015 0.00100635 1e-05
-0.0174976 0.0010073 1e-05
-0.0172058 0.0010085 1e-05
-0.016914 0.00100924 1e-05
-0.0166222 0.00100992 1e-05
-0.0163305 0.00101054 1e-05
-0.0160387 0.0010111 1e-05
-0.0157586 0.00101191 1e-05
-0.0154784 0.00101227 1e-05
-0.0151983 0.00101259 1e-05
-0.0149182 0.00101286 1e-05
-0.0146381 0.00101308 1e-05
-0.0143692 0.00101358 1e-05
-0.0141002 0.00101366 1e-05
-0.0138313 0.0010137 1e-05
-0.0135624 0.0010137 1e-05
-0.0132934 0.00101365 1e-05
-0.0130353 0.00101395 1e-05
-0.0127771 0.0010138 1e-05
-0.0125189 0.00101362 1e-05
-0.0122607 0.0010134 1e-05
-0.0120025 0.00101315 1e-05
-0.0117547 0.00101329 1e-05
-0.0115068 0.00101296 1e-05
-0.0112589 0.0010126 1e-05
-0.0110111 0.00101221 1e-05
-0.0107632 0.00101179 1e-05
-0.0105252 0.00101182 1e-05
-0.0102873 0.00101134 1e-05
-0.0100493 0.00101082 1e-05
-0.00981133 0.00101028 1e-05
-0.00957337 0.0010097 1e-05
-0.00934491 0.00100966 1e-05
-0.00911645 0.00100904 1e-05
-0.008888 0.00100838 1e-05
-0.00865954 0.00100768 1e-05
-0.00843108 0.00100696 1e-05
-0.00821175 0.00100687 1e-05
-0.00799242 0.00100609 1e-05
-0.00777309 0.00100529 1e-05
-0.00755377 0.00100444 1e-05
-0.00733443 0.00100356 1e-05
-0.00712387 0.00100342 1e-05
-0.0069133 0.00100249 1e-05
-0.00670274 0.00100153 1e-05
-0.00649217 0.00100052 1e-05
-0.0062816 0.000999473 1e-05
-0.00607944 0.000999284 1e-05
-0.00587729 0.00099819 1e-05
-0.00567514 0.000997051 1e-05
-0.00547299 0.000995864 1e-05
-0.00527083 0.000994629 1e-05
-0.00507675 0.000994389 1e-05
-0.00488268 0.000993105 1e-05
-0.00468861 0.000991768 1e-05
-0.00449453 0.000990375 1e-05
-0.00430044 0.000988924 1e-05
-0.00411412 0.000988621 1e-05
-0.0039278 0.000987115 1e-05
-0.00374149 0.000985542 1e-05
-0.00355517 0.000983902 1e-05
-0.00336883 0.000982193 1e-05
-0.00318995 0.000981802 1e-05
-0.00301108 0.00098002 1e-05
-0.00283221 0.000978154 1e-05
-0.00265334 0.000976201 1e-05
-0.00247443 0.000974158 1e-05
-0.0023027 0.00097363 1e-05
-0.00213098 0.000971488 1e-05
-0.00195926 0.000969232 1e-05
-0.00178755 0.00096686 1e-05
-0.00161577 0.000964369 1e-05
-0.0014509 0.000963612 1e-05
-0.00128605 0.000960983 1e-05
-0.0011212 0.000958188 1e-05
-0.000956355 0.000955223 1e-05
-0.000791418 0.000952084 1e-05
-0.000633135 0.000950907 1e-05
-0.000474882 0.00094758 1e-05
-0.000316635 0.000943957 1e-05
-0.000158394 0.000940106 1e-05
0 0.000936371 1e-05
0.000105677 0.000935087 1e-05
0.000211329 0.000932411 1e-05
0.000316967 0.000929242 1e-05
0.0004226 0.000925923 1e-05
0.000528387 0.000922986 1e-05
0.000634886 0.0009212 1e-05
0.000741357 0.000918165 1e-05
0.000847804 0.000914378 1e-05
0.000954246 0.000910462 1e-05
0.00106088 0.000907213 1e-05
0.00116821 0.000905021 1e-05
0.00127551 0.000901762 1e-05
0.00138278 0.000897559 1e-05
0.00149004 0.000893257 1e-05
0.00159752 0.000889862 1e-05
0.00170568 0.000887424 1e-05
0.00181382 0.00088411 1e-05
0.00192193 0.000879923 1e-05
0.00203003 0.000875733 1e-05
0.00213833 0.000872405 1e-05
0.00224733 0.000869939 1e-05
0.00235631 0.000866765 1e-05
0.00246527 0.000862887 1e-05
0.00257424 0.000859035 1e-05
0.00268334 0.000855944 1e-05
0.00279319 0.000853611 1e-05
0.00290302 0.000850688 1e-05
0.00301284 0.000847177 1e-05
0.00312266 0.000843698 1e-05
0.00323259 0.000840864 1e-05
0.00334329 0.000838669 1e-05
0.00345398 0.000835955 1e-05
0.00356466 0.000832747 1e-05
0.00367534 0.000829576 1e-05
0.00378611 0.000826878 1e-05
0.00389767 0.000824694 1e-05
0.00400923 0.000822045 1e-05
0.00412077 0.000819058 1e-05
0.00423232 0.000816067 1e-05
0.00434393 0.000813336 1e-05
0.00445636 0.000811005 1e-05
0.00456878 0.000808261 1e-05
0.0046812 0.000805299 1e-05
0.00479362 0.000802304 1e-05
0.00490609 0.000799412 1e-05
0.0050194 0.000796825 1e-05
0.00513269 0.000793887 1e-05
0.00524599 0.000790832 1e-05
0.00535928 0.000787737 1e-05
0.00547262 0.000784637 1e-05
0.00558681 0.000781772 1e-05
0.00570099 0.000778625 1e-05
0.00581517 0.000775446 1e-05
0.00592934 0.000772239 1e-05
0.00604356 0.000769002 1e-05
0.00615863 0.000765912 1e-05
0.0062737 0.000762651 1e-05
0.00638877 0.000759375 1e-05
0.00650384 0.000756085 1e-05
0.00661893 0.000752781 1e-05
0.0067349 0.000749539 1e-05
0.00685087 0.000746203 1e-05
0.00696683 0.000742857 1e-05
0.0070828 0.000739502 1e-05
0.00719878 0.000736137 1e-05
0.00730692 0.000733025 1e-05
0.00741507 0.00072986 1e-05
0.00752321 0.000726675 1e-05
0.00763135 0.000723468 1e-05
0.00773064 0.000720505 1e-05
0.00774114 0.000720189 1e-05
0.00775164 0.000719874 1e-05
0.00776214 0.000719559 1e-05
0.00777264 0.000719243 1e-05
0.00778313 0.000718927 1e-05
0.00790091 0.000715377 1e-05
0.00801869 0.000711772 1e-05
0.00813647 0.000708109 1e-05
0.00825424 0.000704387 1e-05
0.00837203 0.000700606 1e-05
0.00849073 0.000696698 1e-05
0.00860942 0.000692723 1e-05
0.00872811 0.000688637 1e-05
0.0088468 0.000684442 1e-05
0.00896551 0.000680136 1e-05
0.00908513 0.000675613 1e-05
0.00920474 0.000670991 1e-05
0.00932435 0.000666205 1e-05
0.00944395 0.000661253 1e-05
0.0095636 0.000656135 1e-05
0.00968415 0.000650714 1e-05
0.00980469 0.000645138 1e-05
0.00992522 0.000639358 1e-05
0.0100457 0.000633366 1e-05
0.0101663 0.000627132 1e-05
0.0102878 0.000620562 1e-05
0.0104093 0.00061377 1e-05
0.0105308 0.000606749 1e-05
0.0106522 0.000599481 1e-05
0.0107738 0.000591924 1e-05
0.0108962 0.000584017 1e-05
0.0110186 0.000575842 1e-05
0.011141 0.000567401 1e-05
0.0112634 0.000558686 1e-05
0.0113859 0.000549665 1e-05
0.0115093 0.000540284 1e-05
0.0116327 0.000530605 1e-05
0.011756 0.000520631 1e-05
0.0118793 0.000510356 1e-05
0.0120028 0.000499762 1e-05
0.0121272 0.000488792 1e-05
0.0122515 0.0004775 1e-05
0.0123758 0.000465887 1e-05
0.0125 0.000453952 1e-05
0.0126245 0.000441665 1e-05
0.0127498 0.000428972 1e-05
0.0128751 0.000415927 1e-05
0.0130004 0.000402524 1e-05
0.0131255 0.000388763 1e-05
0.0132511 0.0003746 1e-05
0.0132572 0.000373894 1e-05
0.0132633 0.000373186 1e-05
0.0132694 0.000372478 1e-05
0.0132755 0.000371768 1e-05
0.0132815 0.000371067 1e-05
0.0134017 0.000357059 1e-05
0.0135219 0.000342687 1e-05
0.013642 0.000327951 1e-05
0.013762 0.000312847 1e-05
0.0138825 0.000297319 1e-05
0.0140098 0.000280473 1e-05
0.014137 0.000263179 1e-05
0.0142641 0.000245424 1e-05
0.0143912 0.000227198 1e-05
0.0145188 0.00020836 1e-05
0.0146471 0.000188872 1e-05
0.0147752 0.000168842 1e-05
0.0149033 0.000148267 1e-05
0.0150313 0.000127087 1e-05
0.0151601 0.000105106 1e-05
0.0152795 8.40848e-05 1e-05
0.0153988 6.248e-05 1e-05
0.015518 4.02525e-05 1e-05
0.0156371 1.73898e-05 1e-05
0.0157251 0 1e-05
0.0157413 -3.27994e-06 1e-05
0.0157576 -6.57164e-06 1e-05
0.0157738 -9.87513e-06 1e-05
0.0157901 -1.31904e-05 1e-05
0.0158063 -1.65227e-05 1e-05
0.0159366 -4.33116e-05 1e-05
0.0160667 -7.09559e-05 1e-05
0.0161966 -9.94553e-05 1e-05
0.0163263 -0.000128821 1e-05
0.0164576 -0.000159538 1e-05
0.0165889 -0.00019131 1e-05
0.0167199 -0.000224142 1e-05
0.0168506 -0.000258044 1e-05
0.016981 -0.000293268 1e-05
0.0171139 -0.000330764 1e-05
0.0171671 -0.000346445 1e-05
0.0172203 -0.000362381 1e-05
0.0172733 -0.000378575 1e-05
0.0173263 -0.000395028 1e-05
0.0173709 -0.000409143 1e-05
0.0174518 -0.000435087 1e-05
0.0175325 -0.000461661 1e-05
0.017613 -0.000488871 1e-05
0.0176932 -0.000516724 1e-05
0.0177754 -0.000546034 1e-05
0.0179087 -0.000595013 1e-05
0.0180412 -0.000646192 1e-05
0.0181728 -0.000699589 1e-05
0.0183035 -0.00075524 1e-05
0.018442 -0.000817088 1e-05
0.0184614 -0.000826227 1e-05
0.0184809 -0.000835422 1e-05
0.0185003 -0.000844674 1e-05
0.0185197 -0.000853993 1e-05
0.0185378 -0.000862775 1e-05
0.018653 -0.000919124 1e-05
0.018767 -0.000977763 1e-05
0.0188798 -0.00103874 1e-05
0.0189913 -0.0011021 1e-05
0.0191137 -0.00117555 1e-05
0.0191723 -0.00121288 1e-05
0.0192303 -0.00125104 1e-05
0.0192877 -0.00129003 1e-05
0.0193446 -0.00132975 1e-05
0.0193897 -0.00136208 1e-05
0.0194699 -0.00142075 1e-05
0.0195489 -0.00148112 1e-05
0.0196265 -0.00154318 1e-05
0.0197028 -0.00160679 1e-05
0.0197907 -0.00168277 1e-05
0.0198412 -0.00172826 1e-05
0.019891 -0.00177439 1e-05
0.0199402 -0.00182115 1e-05
0.019989 -0.00186847 1e-05
0.0200311 -0.00191013 1e-05
0.0201195 -0.00199874 1e-05
0.0202057 -0.00208946 1e-05
0.0202897 -0.00218227 1e-05
0.0203719 -0.00227662 1e-05
0.020473 -0.00239632 1e-05
0.0204917 -0.0024194 1e-05
0.0205103 -0.00244255 1e-05
0.0205289 -0.00246577 1e-05
0.0205473 -0.00248905 1e-05
0.0205651 -0.00251169 1e-05
0.0206688 -0.00264395 1e-05
0.0207698 -0.00277817 1e-05
0.0208682 -0.00291439 1e-05
0.0209642 -0.00305223 1e-05
0.0210456 -0.00317247 1e-05
0.0210686 -0.0032073 1e-05
0.0210914 -0.00324224 1e-05
0.0211141 -0.00327729 1e-05
0.0211366 -0.0033124 1e-05
0.0211606 -0.00334984 1e-05
0.0212303 -0.00345967 1e-05
0.021299 -0.00357008 1e-05
0.0213668 -0.00368108 1e-05
0.0214337 -0.00379269 1e-05
0.0214961 -0.00389877 1e-05
0.0215676 -0.00402209 1e-05
0.0216383 -0.00414584 1e-05
0.0217083 -0.00427002 1e-05
0.0217777 -0.00439451 1e-05
0.0218535 -0.00453196 1e-05
0.0218715 -0.00456515 1e-05
0.0218896 -0.00459836 1e-05
0.0219075 -0.0046316 1e-05
0.0219255 -0.00466486 1e-05
0.0219432 -0.00469789 1e-05
0.0220377 -0.00487391 1e-05
0.0221317 -0.00505016 1e-05
0.0222252 -0.00522663 1e-05
0.0223183 -0.00540337 1e-05
0.0224098 -0.00557792 1e-05
0.0224382 -0.00563233 1e-05
0.0224666 -0.00568672 1e-05
0.0224951 -0.00574108 1e-05
0.0225236 -0.00579543 1e-05
0.0225517 -0.00584899 1e-05
0.0226254 -0.00598877 1e-05
0.0226992 -0.00612845 1e-05
0.0227733 -0.00626802 1e-05
0.0228475 -0.00640748 1e-05
0.0229228 -0.00654792 1e-05
0.0229893 -0.00667144 1e-05
0.0230564 -0.00679468 1e-05
0.023124 -0.00691762 1e-05
0.0231922 -0.00704024 1e-05
0.0232555 -0.00715276 1e-05
0.0233084 -0.00724579 1e-05
0.0233616 -0.00733866 1e-05
0.0234152 -0.00743134 1e-05
[...]
POINT_DATA 11049
 FIELD attributes 1
U 3 11049 float
10.0021 	0.000963934 	0 10.0076 	0.00784403 	0 10.0131 	0.0149644 	0 10.0186 	0.0220978 	0 10.0241 	0.0292443 	0 10.0308 	0.0422288 	0 10.0343 	0.0314632 	0 10.0376 	0.031395 	0 10.041 	0.031326 	0 10.0443 	0.0312565 	0 10.0472 	0.0412432 	0 10.0454 	0.025502 	0 10.0447 	0.0234405 	0 10.044 	0.0213516 	0 10.0433 	0.0192347 	0 10.0425 	0.029004 	0 10.0394 	0.0130725 	0 10.0374 	0.0113472 	0 10.0355 	0.00959199 	0 10.0336 	0.00780624 	0 10.032 	0.018995 	0 10.0291 	0.00287014 	0 10.0273 	0.00141049 	0 10.0254 	-7.9223e-05 	0 10.0236 	-0.00159963 	0 10.022 	0.0113395 	0 10.0194 	-0.00570424 	0 10.0175 	-0.00702215 	0 10.0157 	-0.00837039 	0 10.0139 	-0.00974964 	0 10.0122 	0.00558515 	0 10.0098 	-0.0132999 	0 10.0081 	-0.0145334 	0 10.0063 	-0.0157972 	0 10.0045 	-0.0170922 	0 10.0026 	0.00145882 	0 10.0007 	-0.0203399 	0 9.99913 	-0.0215989 	0 9.99751 	-0.0228903 	0 9.99589 	-0.0242146 	0 9.99389 	-0.00163692 	0 9.99257 	-0.0274356 	0 9.99119 	-0.0288304 	0 9.9898 	-0.0302617 	0 9.9884 	-0.0317304 	0 9.98619 	-0.00425865 	0 9.98558 	-0.0351447 	0 9.98445 	-0.036754 	0 9.98331 	-0.0384056 	0 9.98215 	-0.0401007 	0 9.97958 	-0.00674071 	0 9.97988 	-0.0438612 	0 9.97905 	-0.0457548 	0 9.97822 	-0.0476981 	0 9.97737 	-0.0496925 	0 9.9743 	-0.00932834 	0 9.97579 	-0.053966 	0 9.97534 	-0.0562336 	0 9.97488 	-0.0585602 	0 9.9744 	-0.0609475 	0 9.97064 	-0.0123172 	0 9.97364 	-0.0659521 	0 9.97368 	-0.0687378 	0 9.9737 	-0.071595 	0 9.9737 	-0.0745255 	0 9.96909 	-0.0162102 	0 9.97411 	-0.0806536 	0 9.97474 	-0.0841843 	0 9.97534 	-0.0878041 	0 9.97591 	-0.0915151 	0 9.97003 	-0.0217918 	0 9.97756 	-0.0994022 	0 9.97894 	-0.104129 	0 9.98028 	-0.108972 	0 9.98158 	-0.113935 	0 9.97429 	-0.0307083 	0 9.98523 	-0.124558 	0 9.98742 	-0.131188 	0 9.98957 	-0.137977 	0 9.99166 	-0.144929 	0 9.98251 	-0.0457947 	0 9.99733 	-0.159456 	0 9.9998 	-0.169549 	0 10.0022 	-0.179874 	0 10.0045 	-0.190436 	0 9.99263 	-0.0743211 	0 10.0091 	-0.210417 	0 10.0108 	-0.229143 	1.24591e-21 10.0118 	-0.243675 	2.53559e-21 10.0102 	-0.236032 	3.5766e-21 9.99603 	-0.121446 	3.46158e-21 10.0097 	-0.253578 	-2.06373e-20 10.0118 	-0.300346 	-2.99406e-20 10.0094 	-0.314527 	-3.3593e-20 9.99954 	-0.277601 	-2.51878e-20 9.97927 	-0.167343 	5.11164e-22 9.99103 	-0.284774 	-1.23435e-21 9.99465 	-0.355546 	-2.7001e-21 9.98851 	-0.367549 	-3.84801e-21 9.9672 	-0.303672 	-4.08953e-21 9.93898 	-0.202926 	-3.93068e-21 9.95111 	-0.302288 	-3.30133e-21 9.96012 	-0.390216 	-2.41751e-21 9.95178 	-0.399131 	-1.03487e-22 9.91778 	-0.313306 	-3.61756e-21 9.88318 	-0.22283 	-7.3684e-21 9.89795 	-0.303319 	-4.00401e-21 9.91208 	-0.383825 	-6.81908e-22 9.90102 	-0.383759 	-3.79221e-21 9.86247 	-0.303112 	-8.31552e-21 9.82454 	-0.222275 	-1.29124e-20 9.84458 	-0.286657 	-2.35178e-20 9.86407 	-0.35107 	-3.40679e-20 9.85416 	-0.348433 	-3.14717e-20 9.81536 	-0.278074 	-1.55685e-20 9.77715 	-0.207591 	3.12083e-22 9.80463 	-0.260938 	6.79246e-22 9.83162 	-0.314304 	1.07944e-21 9.82492 	-0.311251 	2.56481e-21 9.78648 	-0.252312 	7.54725e-21 9.74857 	-0.193302 	1.25321e-20 9.78301 	-0.239835 	3.71161e-20 9.81554 	-0.28453 	6.07449e-20 9.80983 	-0.281059 	5.94428e-20 9.77385 	-0.238065 	3.51477e-20 9.73483 	-0.190552 	8.20808e-21 9.77351 	-0.23214 	-2.49325e-20 9.80009 	-0.262388 	-4.96602e-20 9.79552 	-0.262691 	-5.22093e-20 9.76702 	-0.238965 	-3.5973e-20 9.72523 	-0.20166 	-9.12656e-21 9.765 	-0.238331 	-5.08709e-21 9.78147 	-0.257709 	-3.70826e-21 9.77563 	-0.260402 	-4.89868e-21 9.75466 	-0.250912 	-9.89505e-21 9.70933 	-0.221679 	-2.10726e-20 9.74798 	-0.252748 	-2.77038e-20 9.75151 	-0.262956 	-2.76939e-20 9.74318 	-0.266118 	-2.54415e-20 9.73017 	-0.266214 	-2.2068e-20 9.68164 	-0.24285 	-1.01401e-20 9.71829 	-0.267909 	-3.1199e-21 9.70808 	-0.270226 	-4.12975e-21 9.69757 	-0.27241 	-5.18507e-21 9.68702 	-0.274587 	-6.2415e-21 9.64331 	-0.258949 	-8.12262e-21 9.66714 	-0.273969 	-6.79916e-21 9.65607 	-0.274854 	-7.00596e-21 9.64498 	-0.275738 	-7.21346e-21 9.63386 	-0.276619 	-7.42167e-21 9.60143 	-0.268419 	-8.6463e-21 9.61426 	-0.276578 	-6.40513e-21 9.60467 	-0.277085 	-3.75271e-21 9.59506 	-0.27759 	-1.10044e-21 9.58544 	-0.278095 	1.55169e-21 9.5658 	-0.275338 	1.8862e-21 9.57034 	-0.280043 	-5.53257e-21 9.5644 	-0.281732 	-9.98183e-21 9.55842 	-0.283418 	-1.44257e-20 9.55241 	-0.285101 	-1.88643e-20 9.54686 	-0.286644 	-2.29347e-20 9.54621 	-0.286792 	-2.32794e-20 9.54556 	-0.28694 	-2.3624e-20 9.54491 	-0.287088 	-2.39685e-20 9.54426 	-0.287235 	-2.43129e-20 9.54274 	-0.287616 	-2.53469e-20 9.54034 	-0.291995 	-2.33992e-20 9.53699 	-0.296645 	-2.1442e-20 9.53354 	-0.301283 	-1.94779e-20 9.52998 	-0.30591 	-1.75069e-20 9.51618 	-0.313307 	-1.73849e-20 9.52681 	-0.319065 	-6.31604e-21 9.52646 	-0.327902 	-1.26899e-21 9.52591 	-0.336716 	3.80949e-21 9.52517 	-0.345508 	8.91933e-21 9.50436 	-0.359387 	-2.05912e-22 9.52859 	-0.368161 	-1.40846e-20 9.52931 	-0.38136 	-1.74738e-20 9.52976 	-0.394527 	-2.08974e-20 9.52993 	-0.407662 	-2.43554e-20 9.49863 	-0.427149 	-8.55673e-21 9.53275 	-0.440957 	-6.50197e-21 9.53677 	-0.457348 	-4.08617e-21 9.53594 	-0.4741 	-1.61047e-21 9.52346 	-0.492289 	0 9.48955 	-0.513184 	0 9.52103 	-0.53234 	0 9.53948 	-0.55148 	-1.77406e-21 9.53569 	-0.570608 	-6.61466e-21 9.50665 	-0.590982 	-7.82919e-21 9.47062 	-0.611682 	-8.0743e-21 9.49706 	-0.634235 	2.74626e-20 9.52301 	-0.656762 	6.30279e-20 9.51486 	-0.677639 	6.43109e-20 9.47735 	-0.69767 	3.09371e-20 9.43929 	-0.71771 	-2.44456e-21 9.4597 	-0.742183 	1.18973e-22 9.47962 	-0.766632 	2.7193e-21 9.47501 	-0.789505 	0 9.4359 	-0.809251 	0 9.39626 	-0.829019 	0 9.41104 	-0.854854 	0 9.41259 	-0.879521 	0 9.40091 	-0.903018 	0 9.3852 	-0.926107 	0 9.34422 	-0.946499 	0 9.34959 	-0.973629 	-7.36037e-22 9.33495 	-0.999014 	-4.45189e-21 9.31973 	-1.02438 	-8.18125e-21 9.30393 	-1.04972 	-1.19242e-20 9.28597 	-1.07494 	-1.55045e-20 9.28603 	-1.07639 	-1.65504e-20 9.28516 	-1.07775 	-1.63734e-20 9.28429 	-1.07912 	-1.61962e-20 9.28342 	-1.08049 	-1.60187e-20 9.28256 	-1.08184 	-1.58433e-20 9.26494 	-1.1082 	-1.46213e-20 9.24677 	-1.13454 	-1.33683e-20 9.22805 	-1.16085 	-1.20841e-20 9.20878 	-1.18713 	-1.07687e-20 9.15155 	-1.21142 	-1.29645e-20 9.16809 	-1.24642 	-8.83294e-21 9.15715 	-1.27879 	-4.8286e-21 9.13274 	-1.30989 	-8.75487e-22 9.07664 	-1.33963 	2.52724e-21 9.01054 	-1.3691 	5.80195e-21 9.01596 	-1.40905 	3.88508e-21 9.02042 	-1.44896 	1.98872e-21 8.99533 	-1.48864 	-1.06316e-21 8.92958 	-1.52422 	-2.73968e-21 8.86058 	-1.55983 	-4.34086e-21 8.85439 	-1.60341 	-1.17178e-20 8.82075 	-1.64493 	-1.05075e-20 8.78119 	-1.68606 	-7.68793e-21 8.74048 	-1.72716 	-4.80657e-21 8.7095 	-1.75754 	-2.62867e-21 8.70452 	-1.76309 	-2.47811e-21 8.69952 	-1.76865 	-2.32734e-21 8.69451 	-1.7742 	-2.17635e-21 8.68815 	-1.77962 	-2.06737e-21 8.67715 	-1.78458 	-2.1047e-21 8.64139 	-1.8365 	-1.19683e-21 8.5906 	-1.88485 	-1.50971e-22 8.53886 	-1.9333 	8.90549e-22 8.46495 	-1.97953 	1.6751e-21 8.35956 	-2.02334 	2.11661e-21 8.32615 	-2.08667 	1.14978e-21 8.29103 	-2.15002 	1.75248e-22 8.22152 	-2.22105 	0 8.11927 	-2.28996 	0 8.00285 	-2.35902 	0 7.9793 	-2.39386 	0 7.9489 	-2.42677 	0 7.90827 	-2.45672 	0 7.86727 	-2.48669 	0 7.83232 	-2.51201 	0 7.78053 	-2.56242 	0 7.72812 	-2.61298 	0 7.6751 	-2.6637 	0 7.60689 	-2.71395 	0 7.52698 	-2.76533 	0 7.45845 	-2.88107 	0 7.38694 	-2.99708 	0 7.24949 	-3.08738 	0 7.07202 	-3.15812 	0 6.856 	-3.21776 	0 6.83174 	-3.23043 	0 6.80746 	-3.24316 	0 6.77537 	-3.25688 	0 6.7429 	-3.2707 	0 6.71248 	-3.28369 	0 6.58024 	-3.38355 	0 6.44928 	-3.48622 	0 6.31854 	-3.59128 	1.43549e-23 6.11693 	-3.66955 	9.25668e-22 5.89353 	-3.75985 	1.95073e-21 5.80141 	-3.81759 	1.9146e-21 5.70952 	-3.87613 	1.88614e-21 5.61989 	-3.92186 	1.86472e-21 5.53139 	-3.9622 	1.84995e-21 5.46082 	-3.99492 	1.84347e-21 5.35447 	-4.09511 	1.1415e-21 5.24941 	-4.19789 	4.35564e-22 5.13488 	-4.27915 	-4.44027e-22 5.0043 	-4.32417 	-1.59884e-21 4.85289 	-4.37896 	-2.95408e-21 4.77426 	-4.41875 	-3.00034e-21 4.6961 	-4.45934 	-3.05683e-21 4.6242 	-4.49136 	-3.41258e-21 4.56293 	-4.50753 	-4.28837e-21 4.50977 	-4.52207 	-5.05951e-21 4.37868 	-4.60773 	-9.59162e-21 4.24906 	-4.69728 	-1.42334e-20 4.12749 	-4.73557 	-1.22801e-20 4.01046 	-4.74865 	-6.99055e-21 3.86527 	-4.76805 	-4.51473e-22 3.83999 	-4.7735 	-1.10949e-22 3.81476 	-4.77909 	2.29697e-22 3.79014 	-4.78468 	5.24535e-22 3.77226 	-4.78875 	2.60263e-22 3.75496 	-4.79279 	4.01705e-24 3.61299 	-4.79907 	-1.756e-23 3.47201 	-4.80893 	-1.05282e-23 3.35181 	-4.80885 	3.7063e-22 3.25018 	-4.79969 	1.089e-21 3.16305 	-4.794 	1.73369e-21 3.13137 	-4.79575 	1.26863e-21 3.09975 	-4.79774 	8.0385e-22 3.07522 	-4.78789 	7.43601e-22 3.05111 	-4.77749 	7.06456e-22 3.02548 	-4.76657 	6.66806e-22 2.95559 	-4.74479 	1.09422e-21 2.88591 	-4.72426 	1.51339e-21 2.81642 	-4.70503 	1.92403e-21 2.7659 	-4.69705 	9.38882e-22 2.71836 	-4.69057 	-7.88601e-24 2.65244 	-4.64099 	-1.0409e-21 2.5866 	-4.59222 	-2.0776e-21 2.5384 	-4.55368 	-1.62523e-21 2.49033 	-4.51576 	-1.17025e-21 2.43744 	-4.47467 	-6.74835e-22 2.42526 	-4.46741 	-6.87134e-22 2.41309 	-4.4602 	-6.9952e-22 2.40091 	-4.45302 	-7.11992e-22 2.39199 	-4.44815 	-7.25415e-22 2.38342 	-4.44355 	-7.38874e-22 2.33285 	-4.37384 	-4.54645e-22 2.28222 	-4.30456 	-1.5945e-22 2.23593 	-4.24542 	4.02757e-22 2.19931 	-4.19517 	7.99905e-22 2.16313 	-4.14587 	1.19576e-21 2.15211 	-4.11828 	6.26629e-22 2.14108 	-4.09066 	5.73149e-23 2.13347 	-4.06724 	0 2.12625 	-4.04426 	0 2.11913 	-4.02156 	0 2.10059 	-3.97325 	0 2.08208 	-3.92485 	0 2.06433 	-3.87689 	2.52572e-24 2.05296 	-3.83352 	2.64984e-23 2.04154 	-3.78961 	5.06986e-23 2.03347 	-3.73659 	4.86924e-23 2.02549 	-3.68334 	4.67842e-23 2.02077 	-3.63377 	1.81486e-23 2.0172 	-3.58523 	-1.93163e-23 2.01401 	-3.54033 	-5.37697e-23 2.01167 	-3.50945 	-1.11463e-21 2.00939 	-3.47847 	-2.18142e-21 2.00784 	-3.44772 	-2.63032e-21 2.00784 	-3.41757 	-1.71273e-21 2.00791 	-3.3867 	-7.79742e-22 2.01067 	-3.33016 	-7.34731e-22 2.01364 	-3.27331 	-6.93634e-22 2.02053 	-3.21819 	-8.64582e-22 2.03107 	-3.1646 	-1.23073e-21 2.04043 	-3.11792 	-1.55346e-21 2.04475 	-3.08796 	-1.25224e-21 2.04915 	-3.05792 	-9.48895e-22 2.05602 	-3.02829 	-7.38884e-22 2.06458 	-2.99892 	-5.90087e-22 2.07358 	-2.9683 	-4.33289e-22 2.08617 	-2.92707 	-1.22349e-22 2.09894 	-2.88572 	1.91549e-22 2.11309 	-2.84507 	4.76767e-22 2.12924 	-2.80558 	7.16904e-22 2.14346 	-2.77111 	9.28262e-22 2.15817 	-2.7355 	1.51264e-21 2.17303 	-2.69984 	2.10378e-21 2.18967 	-2.66459 	1.76336e-21 2.20708 	-2.62947 	1.08232e-21 2.22612 	-2.59142 	3.48599e-22 2.23704 	-2.57042 	-1.66625e-22 2.24802 	-2.54942 	-6.79975e-22 2.25871 	-2.52868 	-1.0566e-21 2.26743 	-2.50951 	-6.50656e-22 2.27557 	-2.49171 	-2.70903e-22 2.3064 	-2.44293 	-2.02556e-22 2.33774 	-2.39419 	-1.29137e-22 2.36298 	-2.34861 	-6.70782e-23 2.38764 	-2.30357 	-3.00782e-24 2.40659 	-2.26535 	0 2.40974 	-2.26113 	0 2.41281 	-2.25694 	0 2.41511 	-2.25299 	0 2.41742 	-2.24904 	0 2.41977 	-2.24503 	0 2.44079 	-2.21029 	0 2.46203 	-2.17562 	0 2.48347 	-2.14103 	0 2.49315 	-2.10719 	0 2.50069 	-2.07699 	0 2.52432 	-2.04807 	0 2.54522 	-2.0193 	0 2.55636 	-1.99079 	0 2.56773 	-1.96237 	0 2.58095 	-1.93011 	0 2.58204 	-1.92764 	0 2.58313 	-1.92517 	0 2.58422 	-1.9227 	0 2.58457 	-1.92046 	4.6881e-24 2.58452 	-1.91836 	1.18674e-23 2.59877 	-1.88887 	-1.20241e-23 2.61137 	-1.85962 	-3.20942e-23 2.62423 	-1.83048 	-5.26911e-23 2.62608 	-1.80462 	-5.39026e-23 2.62504 	-1.78142 	-5.0198e-23 2.64221 	-1.75434 	-1.77428e-22 2.65525 	-1.72856 	-3.32329e-22 2.65916 	-1.70538 	-5.43812e-22 2.66332 	-1.68228 	-7.56225e-22 2.665 	-1.66076 	-9.01946e-22 2.66708 	-1.65772 	-8.92787e-22 2.6683 	-1.6549 	-9.045e-22 2.66874 	-1.65228 	-9.35353e-22 2.66918 	-1.64967 	-9.66179e-22 2.66962 	-1.64701 	-9.97486e-22 2.67317 	-1.62815 	-1.32216e-21 2.67688 	-1.60934 	-1.6445e-21 2.68078 	-1.59059 	-1.96446e-21 2.68038 	-1.57107 	-1.45849e-21 2.67522 	-1.55135 	-5.8376e-23 2.68392 	-1.53308 	1.3691e-21 2.6929 	-1.5149 	2.7978e-21 2.69441 	-1.49513 	2.544e-21 2.68849 	-1.47313 	1.09835e-21 2.68296 	-1.45196 	-2.99326e-22 2.68926 	-1.44003 	-2.18825e-22 2.69102 	-1.42711 	-5.20134e-22 2.69039 	-1.41366 	-1.02792e-21 2.68987 	-1.40024 	-1.53474e-21 2.68944 	-1.38579 	-2.0813e-21 2.68941 	-1.3806 	-2.56402e-21 2.68939 	-1.37542 	-3.04571e-21 2.68939 	-1.37025 	-3.52639e-21 2.68873 	-1.36544 	-3.50261e-21 2.68654 	-1.36151 	-2.32335e-21 2.6891 	-1.34247 	-1.68161e-21 2.68885 	-1.32454 	-9.65345e-22 2.68881 	-1.30668 	-2.49677e-22 2.68381 	-1.29167 	0 2.6764 	-1.27856 	0 2.68048 	-1.26012 	0 2.68486 	-1.24174 	0 2.68263 	-1.22716 	0 2.6764 	-1.21425 	1.6863e-22 2.66948 	-1.20205 	3.8366e-22 2.67293 	-1.18867 	6.38053e-23 2.6719 	-1.17786 	-3.45867e-22 2.66982 	-1.16771 	-7.77732e-22 2.66785 	-1.15759 	-1.20933e-21 2.66583 	-1.1466 	-1.6782e-21 2.66536 	-1.14366 	-1.7454e-21 2.6649 	-1.14072 	-1.8127e-21 2.66445 	-1.13779 	-1.88009e-21 2.66372 	-1.13467 	-1.88646e-21 2.66146 	-1.13062 	-1.56489e-21 2.66134 	-1.11953 	-1.81322e-21 2.65913 	-1.10686 	-1.94427e-21 2.6571 	-1.09423 	-2.08005e-21 2.65193 	-1.07954 	-2.38353e-21 2.64226 	-1.0621 	-2.92098e-21 2.64518 	-1.05356 	-6.38588e-21 2.64827 	-1.04507 	-9.85812e-21 2.64507 	-1.03226 	-9.83936e-21 2.63566 	-1.01517 	-6.32658e-21 2.62659 	-0.998353 	-2.85509e-21 2.63005 	-0.990586 	-1.72563e-21 2.62902 	-0.979753 	-1.01222e-21 2.62495 	-0.966813 	-5.86929e-22 2.62111 	-0.953935 	-1.59179e-22 2.61448 	-0.939056 	0 2.61588 	-0.936578 	0 2.61465 	-0.932277 	-5.90934e-23 2.61337 	-0.927925 	-1.20061e-22 2.61211 	-0.92358 	-1.81004e-22 2.61083 	-0.919093 	-2.44026e-22 2.60871 	-0.91118 	-3.09881e-22 2.60667 	-0.903294 	-3.75972e-22 2.60472 	-0.895433 	-4.42298e-22 2.6028 	-0.887647 	-5.20521e-22 2.59559 	-0.884729 	-1.7375e-21 2.59795 	-0.868811 	-7.47698e-21 2.59555 	-0.856805 	-9.42296e-21 2.59297 	-0.845167 	-1.10488e-20 2.58514 	-0.838446 	-8.38418e-21 2.57444 	-0.834594 	-3.33441e-21 2.57738 	-0.819074 	-2.05717e-21 2.5807 	-0.803613 	-7.71313e-22 2.57723 	-0.794378 	5.13478e-22 2.56682 	-0.791124 	1.21022e-21 2.55656 	-0.787919 	1.89671e-21 2.56006 	-0.772767 	9.68681e-21 2.55958 	-0.761654 	1.20673e-20 2.55512 	-0.754446 	9.19284e-21 2.55081 	-0.747253 	6.329e-21 2.54134 	-0.744371 	-1.86098e-21 2.54343 	-0.735091 	-1.34148e-21 2.54057 	-0.730577 	-2.22225e-21 2.53777 	-0.726068 	-3.10215e-21 2.53503 	-0.721565 	-3.9812e-21 2.53213 	-0.716706 	-4.93014e-21 2.53088 	-0.714496 	-5.84993e-21 2.52963 	-0.712288 	-6.7683e-21 2.52841 	-0.710081 	-7.68524e-21 2.52719 	-0.707876 	-8.60075e-21 2.52341 	-0.70262 	-5.95581e-21 2.52216 	-0.699476 	-4.38646e-21 2.51827 	-0.693033 	-2.62138e-21 2.51451 	-0.686602 	-8.57074e-22 2.50955 	-0.678578 	9.19555e-22 2.49702 	-0.661245 	2.76355e-21 2.49986 	-0.663055 	1.23864e-20 2.50091 	-0.662683 	1.99331e-20 2.49742 	-0.65663 	2.20568e-20 2.48515 	-0.639584 	1.19876e-20 2.47311 	-0.622443 	1.71792e-21 2.47647 	-0.624858 	1.05875e-21 2.47979 	-0.627265 	3.99787e-22 2.4755 	-0.620113 	-8.89313e-22 2.46356 	-0.60309 	-2.00072e-21 2.45201 	-0.586149 	-3.10783e-21 2.45589 	-0.58915 	-2.3469e-21 2.4544 	-0.585311 	-1.58705e-21 2.44937 	-0.576801 	-8.26126e-22 2.44457 	-0.56835 	-6.24914e-23 2.43405 	-0.552299 	0 2.43588 	-0.552848 	-2.9751e-22 2.43202 	-0.54592 	-1.48633e-21 2.42832 	-0.539035 	-2.67378e-21 2.42478 	-0.532192 	-3.85985e-21 2.42118 	-0.524947 	-5.12221e-21 2.42068 	-0.523886 	-5.25412e-21 2.42019 	-0.522826 	-5.38609e-21 2.4197 	-0.521767 	-5.51811e-21 2.41922 	-0.520709 	-5.6502e-21 2.4182 	-0.521246 	-5.40865e-21 2.41483 	-0.511938 	-1.92751e-21 2.41114 	-0.504265 	-2.29837e-22 2.40767 	-0.496649 	1.42315e-21 2.40441 	-0.489093 	3.03133e-21 2.39707 	-0.495023 	-8.22042e-21 2.39764 	-0.475801 	-7.76613e-21 2.39512 	-0.467214 	-6.37175e-21 2.39237 	-0.460033 	-4.86582e-21 2.38728 	-0.461123 	-5.33163e-21 2.37952 	-0.470716 	-7.8272e-21 2.38038 	-0.451556 	-2.16523e-20 2.38188 	-0.432448 	-3.55072e-20 2.37918 	-0.427915 	-3.33089e-20 2.3722 	-0.4381 	-1.67722e-20 2.36492 	-0.448127 	-4.20128e-22 2.36603 	-0.429015 	-9.07263e-21 2.3678 	-0.409955 	-1.7734e-20 2.36582 	-0.405987 	-1.57884e-20 2.35932 	-0.416602 	-4.46341e-21 2.3525 	-0.427058 	6.74669e-21 2.35383 	-0.407983 	4.53448e-21 2.35394 	-0.39584 	4.27194e-21 2.3516 	-0.394086 	6.95287e-21 2.34799 	-0.396463 	1.02521e-20 2.34159 	-0.407342 	1.48087e-20 2.34312 	-0.388322 	2.90488e-20 2.34072 	-0.386738 	2.59561e-20 2.33836 	-0.385153 	2.28684e-20 2.33605 	-0.383565 	1.97855e-20 2.33169 	-0.388839 	1.03804e-20 2.33165 	-0.380754 	8.63598e-21 2.33 	-0.379798 	6.72632e-21 2.32837 	-0.378842 	4.81634e-21 2.32676 	-0.377884 	2.90602e-21 2.32501 	-0.376834 	8.11033e-22 2.32428 	-0.376381 	-2.06856e-22 2.32355 	-0.375927 	-1.22471e-21 2.32283 	-0.375473 	-2.24254e-21 2.32211 	-0.375019 	-3.26033e-21 2.32123 	-0.369831 	-3.02721e-21 2.3192 	-0.373407 	1.92629e-21 2.31672 	-0.372127 	5.27429e-21 2.31428 	-0.370844 	8.61852e-21 2.31186 	-0.36956 	1.19589e-20 2.30878 	-0.348329 	4.37831e-21 2.30821 	-0.367628 	-2.21318e-20 2.30563 	-0.366497 	-2.50227e-20 2.30308 	-0.365364 	-2.79064e-20 2.30023 	-0.355135 	-2.18437e-20 2.29714 	-0.327834 	1.05591e-21 2.29705 	-0.347582 	1.92813e-21 2.29588 	-0.361886 	2.5817e-21 2.29319 	-0.360897 	2.68714e-21 2.28969 	-0.335793 	7.28047e-21 2.287 	-0.308409 	1.23233e-20 2.28736 	-0.328596 	4.61347e-20 2.28698 	-0.348632 	7.9908e-20 2.28468 	-0.344958 	8.12862e-20 2.28139 	-0.317566 	5.0176e-20 2.27908 	-0.290118 	1.87841e-20 2.27988 	-0.310739 	1.18272e-20 2.2799 	-0.331163 	4.90196e-21 2.27825 	-0.324762 	-3.17229e-23 2.27564 	-0.300464 	-9.27294e-23 2.27369 	-0.272946 	7.31044e-22 2.27488 	-0.293992 	1.28325e-20 2.27482 	-0.301007 	1.64299e-20 2.27407 	-0.295069 	1.21396e-20 2.27323 	-0.284527 	5.01731e-21 2.27163 	-0.256967 	-1.25461e-20 2.27319 	-0.278181 	-8.93744e-21 2.27308 	-0.272603 	-1.21992e-20 2.27318 	-0.267111 	-1.54437e-20 2.2735 	-0.261704 	-1.86712e-20 2.27307 	-0.242147 	-2.40971e-20 2.27457 	-0.251332 	-1.18391e-20 2.27529 	-0.246186 	-7.85421e-21 2.2762 	-0.241122 	-3.82954e-21 2.2773 	-0.236137 	2.34433e-22 2.27842 	-0.228501 	2.5114e-21 2.27885 	-0.230041 	5.222e-21 2.27918 	-0.228849 	5.61005e-21 2.27952 	-0.227662 	6.00095e-21 2.27988 	-0.22648 	6.39468e-21 2.28025 	-0.225295 	6.79367e-21 2.28141 	-0.221752 	9.21349e-21 2.28266 	-0.218252 	1.16387e-20 2.28403 	-0.214794 	1.40691e-20 2.28549 	-0.211379 	1.65049e-20 2.29331 	-0.219044 	1.92566e-20 2.28896 	-0.203431 	2.27007e-20 2.29116 	-0.199083 	2.03857e-20 2.29353 	-0.194807 	1.8044e-20 2.29606 	-0.190602 	1.56758e-20 2.31278 	-0.211257 	3.07446e-21 2.30119 	-0.182065 	1.35284e-21 2.30403 	-0.178086 	-2.20842e-21 2.30703 	-0.174173 	-5.77437e-21 2.31018 	-0.170326 	-9.34495e-21 2.33464 	-0.204012 	-1.15522e-20 2.31898 	-0.167077 	-4.82279e-20 2.31966 	-0.158585 	-5.62772e-20 2.32324 	-0.155014 	-5.9382e-20 2.33347 	-0.163065 	-4.96338e-20 2.35821 	-0.197232 	-1.09348e-20 2.34255 	-0.160097 	1.07236e-20 2.33715 	-0.140199 	2.24201e-20 2.34125 	-0.136953 	2.45253e-20 2.35824 	-0.156397 	1.12762e-20 2.38316 	-0.190871 	-1.21312e-20 2.36746 	-0.153525 	-2.84597e-20 2.35634 	-0.122862 	-4.11039e-20 2.36092 	-0.119925 	-3.82082e-20 2.38424 	-0.150112 	-2.36202e-20 2.40935 	-0.184901 	-7.46566e-21 2.39359 	-0.147337 	1.65255e-20 2.37881 	-0.10978 	4.05978e-20 2.38476 	-0.108771 	4.47047e-20 2.41115 	-0.144164 	3.19188e-20 2.43645 	-0.179279 	1.92186e-20 2.4206 	-0.141485 	5.2213e-20 2.40572 	-0.103697 	8.52402e-20 2.41199 	-0.102796 	8.29038e-20 2.43858 	-0.13851 	4.74838e-20 2.4641 	-0.17396 	1.23927e-20 2.44811 	-0.135926 	-1.29546e-20 2.43308 	-0.0978964 	-3.84382e-20 2.43966 	-0.0970962 	-3.76587e-20 2.46646 	-0.133135 	-9.01409e-21 2.49222 	-0.168924 	1.94595e-20 2.47605 	-0.130639 	3.26896e-20 2.46083 	-0.0923551 	4.59304e-20 2.4677 	-0.0916484 	4.5167e-20 2.49475 	-0.12802 	3.31758e-20 2.52077 	-0.164155 	2.12001e-20 2.50438 	-0.125608 	1.18123e-20 2.49008 	-0.0890992 	2.53801e-21 2.49771 	-0.0