# vtk DataFile Version 2.0
track0
ASCII
DATASET POLYDATA
POINTS 11049 double
-0.0205 0.001 1e-05
-0.0202034 0.00100003 1e-05
-0.0199069 0.00100026 1e-05
-0.0196103 0.0010007 1e-05
-0.0193137 0.00100136 1e-05
-0.0190172 0.00100222 1e-05
-0.0187132 0.0010035 1e-05
-0.0184093 0.00100446 1e-05
-0.0181054 0.00100541 1e-05
-0.0178015 0.00100635 1e-05
-0.0174976 0.0010073 1e-05
-0.0172058 0.0010085 1e-05
-0.016914 0.00100924 1e-05
-0.0166222 0.00100992 1e-05
-0.0163305 0.00101054 1e-05
-0.0160387 0.0010111 1e-05
-0.0157586 0.00101191 1e-05
-0.0154784 0.00101227 1e-05
-0.0151983 0.00101259 1e-05
-0.0149182 0.00101286 1e-05
-0.0146381 0.00101308 1e-05
-0.0143692 0.00101358 1e-05
-0.0141002 0.00101366 1e-05
-0.0138313 0.0010137 1e-05
-0.0135624 0.0010137 1e-05
-0.0132934 0.00101365 1e-05
-0.0130353 0.00101395 1e-05
-0.0127771 0.0010138 1e-05
-0.0125189 0.00101362 1e-05
-0.0122607 0.0010134 1e-05
-0.0120025 0.00101315 1e-05
-0.0117547 0.00101329 1e-05
-0.0115068 0.00101296 1e-05
-0.0112589 0.0010126 1e-05
-0.0110111 0.00101221 1e-05
-0.0107632 0.00101179 1e-05
-0.0105252 0.00101182 1e-05
-0.0102873 0.00101134 1e-05
-0.0100493 0.00101082 1e-05
-0.00981133 0.00101028 1e-05
-0.00957337 0.0010097 1e-05
-0.00934491 0.00100966 1e-05
-0.00911645 0.00100904 1e-05
-0.008888 0.00100838 1e-05
-0.00865954 0.00100768 1e-05
-0.00843108 0.00100696 1e-05
-0.00821175 0.00100687 1e-05
-0.00799242 0.00100609 1e-05
-0.00777309 0.00100529 1e-05
-0.00755377 0.00100444 1e-05
-0.00733443 0.00100356 1e-05
-0.00712387 0.00100342 1e-05
-0.0069133 0.00100249 1e-05
-0.00670274 0.00100153 1e-05
-0.00649217 0.00100052 1e-05
-0.0062816 0.000999473 1e-05
-0.00607944 0.000999284 1e-05
-0.00587729 0.00099819 1e-05
-0.00567514 0.000997051 1e-05
-0.00547299 0.000995864 1e-05
-0.00527083 0.000994629 1e-05
-0.00507675 0.000994389 1e-05
-0.00488268 0.000993105 1e-05
-0.00468861 0.000991768 1e-05
-0.00449453 0.000990375 1e-05
-0.00430044 0.000988924 1e-05
-0.00411412 0.000988621 1e-05
-0.0039278 0.000987115 1e-05
-0.00374149 0.000985542 1e-05
-0.00355517 0.000983902 1e-05
-0.00336883 0.000982193 1e-05
-0.00318995 0.000981802 1e-05
-0.00301108 0.00098002 1e-05
-0.00283221 0.000978154 1e-05
-0.00265334 0.000976201 1e-05
-0.00247443 0.000974158 1e-05
-0.0023027 0.00097363 1e-05
-0.00213098 0.000971488 1e-05
-0.00195926 0.000969232 1e-05
-0.00178755 0.00096686 1e-05
-0.00161577 0.000964369 1e-05
-0.0014509 0.000963612 1e-05
-0.00128605 0.000960983 1e-05
-0.0011212 0.000958188 1e-05
-0.000956355 0.000955223 1e-05
-0.000791418 0.000952084 1e-05
-0.000633135 0.000950907 1e-05
-0.000474882 0.00094758 1e-05
-0.000316635 0.000943957 1e-05
-0.000158394 0.000940106 1e-05
0 0.000936371 1e-05
0.000105677 0.000935087 1e-05
0.000211329 0.000932411 1e-05
0.000316967 0.000929242 1e-05
0.0004226 0.000925923 1e-05
0.000528387 0.000922986 1e-05
0.000634886 0.0009212 1e-05
0.000741357 0.000918165 1e-05
0.000847804 0.000914378 1e-05
0.000954246 0.000910462 1e-05
0.00106088 0.000907213 1e-05
0.00116821 0.000905021 1e-05
0.00127551 0.000901762 1e-05
0.00138278 0.000897559 1e-05
0.00149004 0.000893257 1e-05
0.00159752 0.000889862 1e-05
0.00170568 0.000887424 1e-05
0.00181382 0.00088411 1e-05
0.00192193 0.000879923 1e-05
0.00203003 0.000875733 1e-05
0.00213833 0.000872405 1e-05
0.00224733 0.000869939 1e-05
0.00235631 0.000866765 1e-05
0.00246527 0.000862887 1e-05
0.00257424 0.000859035 1e-05
0.00268334 0.000855944 1e-05
0.00279319 0.000853611 1e-05
0.00290302 0.000850688 1e-05
0.00301284 0.000847177 1e-05
0.00312266 0.000843698 1e-05
0.00323259 0.000840864 1e-05
0.00334329 0.000838669 1e-05
0.00345398 0.000835955 1e-05
0.00356466 0.000832747 1e-05
0.00367534 0.000829576 1e-05
0.00378611 0.000826878 1e-05
0.00389767 0.000824694 1e-05
0.00400923 0.000822045 1e-05
0.00412077 0.000819058 1e-05
0.00423232 0.000816067 1e-05
0.00434393 0.000813336 1e-05
0.00445636 0.000811005 1e-05
0.00456878 0.000808261 1e-05
0.0046812 0.000805299 1e-05
0.00479362 0.000802304 1e-05
0.00490609 0.000799412 1e-05
0.0050194 0.000796825 1e-05
0.00513269 0.000793887 1e-05
0.00524599 0.000790832 1e-05
0.00535928 0.000787737 1e-05
0.00547262 0.000784637 1e-05
0.00558681 0.000781772 1e-05
0.00570099 0.000778625 1e-05
0.00581517 0.000775446 1e-05
0.00592934 0.000772239 1e-05
0.00604356 0.000769002 1e-05
0.00615863 0.000765912 1e-05
0.0062737 0.000762651 1e-05
0.00638877 0.000759375 1e-05
0.00650384 0.000756085 1e-05
0.00661893 0.000752781 1e-05
0.0067349 0.000749539 1e-05
0.00685087 0.000746203 1e-05
0.00696683 0.000742857 1e-05
0.0070828 0.000739502 1e-05
0.00719878 0.000736137 1e-05
0.00730692 0.000733025 1e-05
0.00741507 0.00072986 1e-05
0.00752321 0.000726675 1e-05
0.00763135 0.000723468 1e-05
0.00773064 0.000720505 1e-05
0.00774114 0.000720189 1e-05
0.00775164 0.000719874 1e-05
0.00776214 0.000719559 1e-05
0.00777264 0.000719243 1e-05
0.00778313 0.000718927 1e-05
0.00790091 0.000715377 1e-05
0.00801869 0.000711772 1e-05
0.00813647 0.000708109 1e-05
0.00825424 0.000704387 1e-05
0.00837203 0.000700606 1e-05
0.00849073 0.000696698 1e-05
0.00860942 0.000692723 1e-05
0.00872811 0.000688637 1e-05
0.0088468 0.000684442 1e-05
0.00896551 0.000680136 1e-05
0.00908513 0.000675613 1e-05
0.00920474 0.000670991 1e-05
0.00932435 0.000666205 1e-05
0.00944395 0.000661253 1e-05
0.0095636 0.000656135 1e-05
0.00968415 0.000650714 1e-05
0.00980469 0.000645138 1e-05
0.00992522 0.000639358 1e-05
0.0100457 0.000633366 1e-05
0.0101663 0.000627132 1e-05
0.0102878 0.000620562 1e-05
0.0104093 0.00061377 1e-05
0.0105308 0.000606749 1e-05
0.0106522 0.000599481 1e-05
0.0107738 0.000591924 1e-05
0.0108962 0.000584017 1e-05
0.0110186 0.000575842 1e-05
0.011141 0.000567401 1e-05
0.0112634 0.000558686 1e-05
0.0113859 0.000549665 1e-05
0.0115093 0.000540284 1e-05
0.0116327 0.000530605 1e-05
0.011756 0.000520631 1e-05
0.0118793 0.000510356 1e-05
0.0120028 0.000499762 1e-05
0.0121272 0.000488792 1e-05
0.0122515 0.0004775 1e-05
0.0123758 0.000465887 1e-05
0.0125 0.000453952 1e-05
0.0126245 0.000441665 1e-05
0.0127498 0.000428972 1e-05
0.0128751 0.000415927 1e-05
0.0130004 0.000402524 1e-05
0.0131255 0.000388763 1e-05
0.0132511 0.0003746 1e-05
0.0132572 0.000373894 1e-05
0.0132633 0.000373186 1e-05
0.0132694 0.000372478 1e-05
0.0132755 0.000371768 1e-05
0.0132815 0.000371067 1e-05
0.0134017 0.000357059 1e-05
0.0135219 0.000342687 1e-05
0.013642 0.000327951 1e-05
0.013762 0.000312847 1e-05
0.0138825 0.000297319 1e-05
0.0140098 0.000280473 1e-05
0.014137 0.000263179 1e-05
0.0142641 0.000245424 1e-05
0.0143912 0.000227198 1e-05
0.0145188 0.00020836 1e-05
0.0146471 0.000188872 1e-05
0.0147752 0.000168842 1e-05
0.0149033 0.000148267 1e-05
0.0150313 0.000127087 1e-05
0.0151601 0.000105106 1e-05
0.0152795 8.40848e-05 1e-05
0.0153988 6.248e-05 1e-05
0.015518 4.02525e-05 1e-05
0.0156371 1.73898e-05 1e-05
0.0157251 0 1e-05
0.0157413 -3.27994e-06 1e-05
0.0157576 -6.57164e-06 1e-05
0.0157738 -9.87513e-06 1e-05
0.0157901 -1.31904e-05 1e-05
0.0158063 -1.65227e-05 1e-05
0.0159366 -4.33116e-05 1e-05
0.0160667 -7.09559e-05 1e-05
0.0161966 -9.94553e-05 1e-05
0.0163263 -0.000128821 1e-05
0.0164576 -0.000159538 1e-05
0.0165889 -0.00019131 1e-05
0.0167199 -0.000224142 1e-05
0.0168506 -0.000258044 1e-05
0.016981 -0.000293268 1e-05
0.0171139 -0.000330764 1e-05
0.0171671 -0.000346445 1e-05
0.0172203 -0.000362381 1e-05
0.0172733 -0.000378575 1e-05
0.0173263 -0.000395028 1e-05
0.0173709 -0.000409143 1e-05
0.0174518 -0.000435087 1e-05
0.0175325 -0.000461661 1e-05
0.017613 -0.000488871 1e-05
0.0176932 -0.000516724 1e-05
0.0177754 -0.000546034 1e-05
0.0179087 -0.000595013 1e-05
0.0180412 -0.000646192 1e-05
0.0181728 -0.000699589 1e-05
0.0183035 -0.00075524 1e-05
0.018442 -0.000817088 1e-05
0.0184614 -0.000826227 1e-05
0.0184809 -0.000835422 1e-05
0.0185003 -0.000844674 1e-05
0.0185197 -0.000853993 1e-05
0.0185378 -0.000862775 1e-05
0.018653 -0.000919124 1e-05
0.018767 -0.000977763 1e-05
0.0188798 -0.00103874 1e-05
0.0189913 -0.0011021 1e-05
0.0191137 -0.00117555 1e-05
0.0191723 -0.00121288 1e-05
0.0192303 -0.00125104 1e-05
0.0192877 -0.00129003 1e-05
0.0193446 -0.00132975 1e-05
0.0193897 -0.00136208 1e-05
0.0194699 -0.00142075 1e-05
0.0195489 -0.00148112 1e-05
0.0196265 -0.00154318 1e-05
0.0197028 -0.00160679 1e-05
0.0197907 -0.00168277 1e-05
0.0198412 -0.00172826 1e-05
0.019891 -0.00177439 1e-05
0.0199402 -0.00182115 1e-05
0.019989 -0.00186847 1e-05
0.0200311 -0.00191013 1e-05
0.0201195 -0.00199874 1e-05
0.0202057 -0.00208946 1e-05
0.0202897 -0.00218227 1e-05
0.0203719 -0.00227662 1e-05
0.020473 -0.00239632 1e-05
0.0204917 -0.0024194 1e-05
0.0205103 -0.00244255 1e-05
0.0205289 -0.00246577 1e-05
0.0205473 -0.00248905 1e-05
0.0205651 -0.00251169 1e-05
0.0206688 -0.00264395 1e-05
0.0207698 -0.00277817 1e-05
0.0208682 -0.00291439 1e-05
0.0209642 -0.00305223 1e-05
0.0210456 -0.00317247 1e-05
0.0210686 -0.0032073 1e-05
0.0210914 -0.00324224 1e-05
0.0211141 -0.00327729 1e-05
0.0211366 -0.0033124 1e-05
0.0211606 -0.00334984 1e-05
0.0212303 -0.00345967 1e-05
0.021299 -0.00357008 1e-05
0.0213668 -0.00368108 1e-05
0.0214337 -0.00379269 1e-05
0.0214961 -0.00389877 1e-05
0.0215676 -0.00402209 1e-05
0.0216383 -0.00414584 1e-05
0.0217083 -0.00427002 1e-05
0.0217777 -0.00439451 1e-05
0.0218535 -0.00453196 1e-05
0.0218715 -0.00456515 1e-05
0.0218896 -0.00459836 1e-05
0.0219075 -0.0046316 1e-05
0.0219255 -0.00466486 1e-05
0.0219432 -0.00469789 1e-05
0.0220377 -0.00487391 1e-05
0.0221317 -0.00505016 1e-05
0.0222252 -0.00522663 1e-05
0.0223183 -0.00540337 1e-05
0.0224098 -0.00557792 1e-05
0.0224382 -0.00563233 1e-05
0.0224666 -0.00568672 1e-05
0.0224951 -0.00574108 1e-05
0.0225236 -0.00579543 1e-05
0.0225517 -0.00584899 1e-05
0.0226254 -0.00598877 1e-05
0.0226992 -0.00612845 1e-05
0.0227733 -0.00626802 1e-05
0.0228475 -0.00640748 1e-05
0.0229228 -0.00654792 1e-05
0.0229893 -0.00667144 1e-05
0.0230564 -0.00679468 1e-05
0.023124 -0.00691762 1e-05
0.0231922 -0.00704024 1e-05
0.0232555 -0.00715276 1e-05
0.0233084 -0.00724579 1e-05
0.0233616 -0.00733866 1e-05
0.0234152 -0.00743134 1e-05
[...]
POINT_DATA 11049
 FIELD attributes 2
p 1 11049 float
-0.92645 -0.976894 -1.0373 -1.09827 -1.1598 -1.28559 -1.36012 -1.4416 -1.52308 -1.60455 -1.69143 -1.69817 -1.72148 -1.74474 -1.76793 -1.80316 -1.79594 -1.80892 -1.82184 -1.83468 -1.86451 -1.86484 -1.8831 -1.9013 -1.91944 -1.95485 -1.9554 -1.97347 -1.99149 -2.00945 -2.046 -2.04458 -2.06204 -2.07944 -2.09679 -2.13553 -2.13317 -2.15196 -2.17068 -2.18936 -2.23304 -2.22942 -2.2501 -2.27072 -2.29129 -2.34129 -2.33547 -2.35817 -2.3808 -2.40337 -2.46085 -2.4522 -2.47737 -2.50247 -2.52749 -2.59409 -2.58224 -2.61072 -2.63911 -2.66741 -2.74544 -2.73014 -2.7629 -2.79557 -2.82813 -2.92008 -2.90103 -2.93948 -2.9778 -3.016 -3.12565 -3.10288 -3.1484 -3.19376 -3.23897 -3.37044 -3.34258 -3.39623 -3.44968 -3.50291 -3.66358 -3.62958 -3.68854 -3.74722 -3.80564 -3.99801 -3.9447 -3.98424 -4.02708 -4.09219 -4.26447 -4.14 -4.10235 -4.09783 -4.14481 -4.26558 -4.10292 -3.9924 -3.94739 -3.97262 -4.03196 -3.88602 -3.75082 -3.69005 -3.70326 -3.72023 -3.59785 -3.47524 -3.41431 -3.40778 -3.40166 -3.30325 -3.20451 -3.15687 -3.16146 -3.16648 -3.10518 -3.04357 -3.03075 -3.06289 -3.09536 -3.07263 -3.05148 -3.07761 -3.13118 -3.18803 -3.19429 -3.21239 -3.26198 -3.32673 -3.40008 -3.42568 -3.47015 -3.53283 -3.60279 -3.68457 -3.72163 -3.78188 -3.84996 -3.91989 -4.00391 -4.04636 -4.11575 -4.18531 -4.25489 -4.33662 -4.38795 -4.45853 -4.52913 -4.59974 -4.6782 -4.73851 -4.81145 -4.8844 -4.95735 -5.03399 -5.09852 -5.16918 -5.23987 -5.31058 -5.37552 -5.38239 -5.38927 -5.39614 -5.40302 -5.41093 -5.48961 -5.56908 -5.64862 -5.72822 -5.81868 -5.89236 -5.97228 -6.05234 -6.13256 -6.22988 -6.29842 -6.37428 -6.45039 -6.52676 -6.62256 -6.68404 -6.75016 -6.81729 -6.88953 -6.97103 -7.02243 -7.07475 -7.12839 -7.18871 -7.25127 -7.28795 -7.32515 -7.36244 -7.40184 -7.44188 -7.4603 -7.47931 -7.49691 -7.50984 -7.52342 -7.51968 -7.51303 -7.50346 -7.4935 -7.47674 -7.44394 -7.40189 -7.36058 -7.32001 -7.27936 -7.27614 -7.27222 -7.26831 -7.2644 -7.26054 -7.19398 -7.12845 -7.06394 -7.00046 -6.92622 -6.82979 -6.72344 -6.61309 -6.48978 -6.36324 -6.21802 -6.07437 -5.91014 -5.72253 -5.53446 -5.34021 -5.12209 -4.9011 -4.68192 -4.52113 -4.49468 -4.46829 -4.44194 -4.41475 -4.38449 -4.09311 -3.79541 -3.50142 -3.19556 -2.86772 -2.49772 -2.13221 -1.72566 -1.28985 -0.840348 -0.632387 -0.421259 -0.204666 0.010638 0.19135 0.478472 0.761457 1.04023 1.33551 1.64705 2.23079 2.79963 3.34237 3.86605 4.40853 4.50227 4.59557 4.65807 4.71863 4.7747 5.21474 5.63751 6.04014 6.29057 6.54453 6.7039 6.85546 6.86757 6.8135 6.76411 6.89447 7.01257 7.0514 6.97164 6.86549 6.82259 6.77407 6.66853 6.4672 6.28807 6.22983 6.15922 5.95088 5.66936 5.30701 5.24206 5.17664 5.1078 5.00278 4.90057 4.66791 4.42752 4.03825 3.51364 3.05169 3.00512 2.95798 2.87031 2.78005 2.68365 2.39218 2.09797 1.80097 1.46052 1.13594 0.897065 0.656707 0.391273 0.124681 -0.17008 -0.245412 -0.320821 -0.396306 -0.467356 -0.537515 -0.82736 -1.11803 -1.40092 -1.65933 -1.91486 -1.97425 -2.03359 -2.07687 -2.11827 -2.15901 -2.30495 -2.45067 -2.59041 -2.68109 -2.77208 -2.83199 -2.89124 -2.91601 -2.92878 -2.93969 -2.97446 -3.00892 -3.0333 -3.03587 -3.03807 -3.02825 -3.01712 -2.97969 -2.91791 -2.86283 -2.84991 -2.83657 -2.80602 -2.76384 -2.7194 -2.65944 -2.59848 -2.53269 -2.46006 -2.39591 -2.33133 -2.26585 -2.19457 -2.12055 -2.03939 -1.9933 -1.94689 -1.8981 -1.83717 -1.78031 -1.66688 -1.55205 -1.40584 -1.25381 -1.11972 -1.1088 -1.09757 -1.08349 -1.0694 -1.05507 -0.929363 -0.802991 -0.675968 -0.564326 -0.465572 -0.345327 -0.22847 -0.124369 -0.0197901 0.0998707 0.109261 0.118655 0.128052 0.138687 0.149924 0.259062 0.371919 0.485212 0.617723 0.746419 0.843547 0.948331 1.06906 1.18988 1.30801 1.31914 1.33171 1.3456 1.35949 1.37362 1.47475 1.57591 1.67708 1.7639 1.83189 1.95625 2.0808 2.18042 2.25589 2.32869 2.41332 2.48271 2.54387 2.6051 2.67133 2.69544 2.71955 2.74368 2.77045 2.80308 2.87514 2.95884 3.04264 3.14686 3.25892 3.32321 3.38743 3.47873 3.58593 3.69408 3.74027 3.80481 3.87388 3.94291 4.0179 4.03809 4.05829 4.07848 4.09707 4.10705 4.20627 4.29396 4.38155 4.45073 4.49246 4.60082 4.70922 4.78309 4.82273 4.86176 4.96692 5.04643 5.10814 5.16993 5.21558 5.25166 5.27306 5.294 5.31495 5.33663 5.37516 5.41371 5.45229 5.49118 5.55808 5.58828 5.64393 5.70166 5.78771 5.88852 5.91613 5.94362 6.00745 6.1073 6.20569 6.2308 6.27814 6.34712 6.41601 6.51052 6.52856 6.57276 6.61692 6.66104 6.70868 6.73036 6.75203 6.77369 6.79534 6.80041 6.88151 6.94621 7.01082 7.06685 7.07304 7.17364 7.26368 7.32611 7.3316 7.33599 7.43476 7.53353 7.58417 7.58696 7.58964 7.68668 7.74994 7.78999 7.83012 7.83434 7.90374 7.93692 7.97014 8.00343 8.03895 8.04421 8.04947 8.05474 8.06 8.07159 8.10313 8.14115 8.17923 8.21739 8.30779 8.29711 8.32875 8.36585 8.4348 8.53608 8.52402 8.51171 8.55639 8.65722 8.75707 8.74372 8.73013 8.77322 8.87276 8.97138 8.95684 8.96767 9.01689 9.08202 9.17957 9.16404 9.21216 9.26025 9.3083 9.38213 9.38799 9.4196 9.4512 9.48278 9.5174 9.53224 9.54708 9.56191 9.57674 9.57769 9.63756 9.68377 9.72995 9.7761 9.76467 9.86658 9.91187 9.95714 9.97652 9.94732 10.048 10.1342 10.1786 10.1555 10.1257 10.2252 10.3247 10.3599 10.33 10.2997 10.398 10.4963 10.5222 10.5004 10.4697 10.5668 10.627 10.6528 10.6665 10.6354 10.7308 10.7564 10.7821 10.8079 10.7971 10.8594 10.8848 10.9104 10.936 10.9548 10.968 10.9743 10.9806 10.9869 10.9933 11.0123 11.0315 11.0506 11.0698 11.1137 11.1141 11.1393 11.1647 11.1901 11.2699 11.2402 11.2653 11.2905 11.3157 11.4221 11.3757 11.3902 11.4152 11.465 11.5705 11.5241 11.5138 11.5387 11.6113 11.7156 11.6692 11.6361 11.6609 11.7542 11.8575 11.811 11.7639 11.7918 11.8942 11.9963 11.9498 11.9028 11.93 12.0313 12.1325 12.086 12.0389 12.0656 12.1659 12.2661 12.2196 12.1726 12.1986 12.298 12.3972 12.3507 12.3077 12.3354 12.4277 12.526 12.4796 12.4521 12.4795 12.5553 12.6527 12.6063 12.5939 12.621 12.6808 12.7774 12.731 12.7332 12.7601 12.8043 12.9001 12.8536 12.8703 12.8969 12.9258 13.0208 12.9787 13.0051 13.0315 13.058 13.1397 13.1122 13.1384 13.1646 13.1909 13.257 13.2443 13.2703 13.2964 13.3224 13.3727 13.3751 13.4009 13.4268 13.4527 13.4868 13.4914 13.5039 13.5165 13.529 13.543 13.5559 13.5689 13.5818 13.5948 13.5998 13.633 13.6587 13.6844 13.7101 13.7116 13.7604 13.7859 13.8115 13.8372 13.8219 13.8866 13.9121 13.9376 13.9632 13.9307 14.0119 14.0373 14.0628 14.0821 14.0381 14.1236 14.1611 14.1865 14.1878 14.1437 14.2285 14.2828 14.3082 14.2918 14.2476 14.3316 14.4026 14.428 14.3939 14.3496 14.4329 14.5168 14.5377 14.4942 14.4498 14.5323 14.6156 14.6359 14.5924 14.5478 14.6297 14.7122 14.7321 14.6884 14.6437 14.7249 14.8068 14.8262 14.7824 14.7376 14.8181 14.8962 14.911 14.8741 14.8293 14.9091 14.9727 14.9874 14.9636 14.9186 14.9978 15.0483 15.0629 15.0507 15.0056 15.0841 15.1227 15.1372 15.1356 15.0904 15.1683 15.196 15.2103 15.2183 15.173 15.2502 15.2681 15.2822 15.2963 15.2533 15.3251 15.339 15.3529 15.3668 15.3315 15.3951 15.4088 15.4225 15.4362 15.4073 15.464 15.4774 15.4909 15.5044 15.4811 15.5315 15.5447 15.558 15.5712 15.5527 15.5978 15.6108 15.6237 15.6367 15.6222 15.6627 15.6754 15.6881 15.7008 15.6896 15.7262 15.7386 15.751 15.7634 15.7551 15.7882 15.8003 15.8124 15.8246 15.8186 15.8487 15.8605 15.8724 15.8842 15.8801 15.9078 15.9193 15.9308 15.9423 15.9398 15.9652 15.9764 15.9876 15.9988 15.9975 16.0211 16.032 16.0429 16.0538 16.0534 16.0754 16.086 16.0965 16.1071 16.1075 16.1281 16.1383 16.1486 16.1588 16.1597 16.1792 16.1891 16.199 16.2089 16.2101 16.2286 16.2382 16.2478 16.2574 16.2587 16.2764 16.2857 16.295 16.3043 16.3056 16.3226 16.3316 16.3406 16.3495 16.3507 16.3673 16.3759 16.3846 16.3932 16.3942 16.4104 16.4187 16.4271 16.4354 16.4361 16.452 16.46 16.4681 16.4761 16.4765 16.4921 16.4999 16.5077 16.5155 16.5153 16.5309 16.5384 16.5459 16.5534 16.5528 16.5683 16.5756 16.5828 16.5901 16.589 16.6045 16.6115 16.6185 16.6255 16.6238 16.6394 16.6461 16.6529 16.6596 16.6573 16.673 16.6795 16.686 16.6925 16.6896 16.7055 16.7117 16.718 16.7243 16.7206 16.7367 16.7427 16.7488 16.7548 16.7505 16.7668 16.7726 16.7784 16.7841 16.7791 16.7957 16.8012 16.8068 16.8124 16.8066 16.8234 16.8288 16.8341 16.8394 16.8329 16.8501 16.8552 16.8603 16.8654 16.8582 16.8756 16.8805 16.8854 16.8903 16.8823 16.9001 16.9048 16.9095 16.9142 16.9055 16.9236 16.9281 16.9326 16.9371 16.9277 16.9462 16.9505 16.9548 16.9591 16.9489 16.9678 16.9719 16.976 16.9801 16.9692 16.9885 16.9924 16.9964 17.0003 16.9887 17.0084 17.0121 17.0159 17.0197 17.0073 17.0274 17.0311 17.0347 17.0383 17.0251 17.0458 17.0492 17.0527 17.0562 17.0423 17.0634 17.0668 17.0701 17.0735 17.0589 17.0805 17.0837 17.087 17.0902 17.0749 17.0971 17.1002 17.1034 17.1066 17.0905 17.1133 17.1164 17.1195 17.1226 17.1059 17.1293 17.1324 17.1355 17.1386 17.1211 17.1453 17.1484 17.1515 17.1546 17.1365 17.1614 17.1646 17.1677 17.1709 17.1523 17.178 17.1814 17.1848 17.1881 17.169 17.1957 17.1993 17.203 17.2066 17.187 17.215 17.219 17.223 17.2271 17.207 17.2364 17.241 17.2456 17.2502 17.2298 17.2609 17.2663 17.2717 17.277 17.2565 17.2896 17.296 17.3025 17.309 17.2886 17.3241 17.3321 17.3401 17.3481 17.328 17.3667 17.3769 17.387 17.3972 17.378 17.421 17.4341 17.4472 17.4604 17.4422 17.4909 17.5088 17.5267 17.5446 17.5294 17.5867 17.6104 17.6341 17.6579 17.644 17.7119 17.7478 17.7837 17.8196 17.8153 17.9031 17.9492 17.9954 18.0416 18.0281 18.1169 18.1806 18.2441 18.3034 18.3085 18.4239 18.3856 18.3424 18.3004 18.1681 18.0704 17.934 17.7976 17.6611 17.5121 17.4363 17.3485 17.2607 17.1728 17.0789 17.0354 16.9773 16.9193 16.8613 16.793 16.7335 16.664 16.5944 16.5249 16.4477 16.3785 16.3024 16.2264 16.1503 16.068 15.9996 15.9245 15.8494 15.7744 15.692 15.6228 15.5457 15.4687 15.3916 15.3053 15.2334 15.152 15.0705 14.989 14.8959 14.8219 14.736 14.65 14.5641 14.4639 14.3879 14.2969 14.206 14.1151 14.0069 13.9283 13.8315 13.7347 13.6379 13.5208 13.4391 13.3353 13.2315 13.1278 12.9999 12.914 12.8028 12.6916 12.5804 12.4422 12.3516 12.2307 12.1099 11.9892 11.837 11.7376 11.6074 11.4772 11.347 11.1852 11.0793 10.935 10.7907 10.6465 10.464 10.3402 10.1847 10.0292 9.87374 9.68665 9.55724 9.37715 9.19715 9.01723 8.78949 8.62037 8.43168 8.24299 8.05428 7.84607 7.68889 7.45064 7.21275 6.97515 6.66666 6.41552 6.1943 5.97295 5.75149 5.554 5.38517 5.03189 4.68032 4.33019 3.83158 3.40175 3.16992 2.93942 2.71002 2.64986 2.54287 1.96495 1.38622 0.806833 0