/*--------------------------------*- C++ -*----------------------------------*\
| =========                 |                                                 |
| \\      /  F ield         | OpenFOAM: The Open Source CFD Toolbox           |
|  \\    /   O peration     | Version:  v1906                                 |
|   \\  /    A nd           | Web:      www.OpenFOAM.com                      |
|    \\/     M anipulation  |                                                 |
\*---------------------------------------------------------------------------*/
FoamFile
{
    version     2.0;
    format      ascii;
    class       volScalarField;
    location    "500";
    object      epsilon;
}
// * * * * * * * * * * * * * * * * * * * * * * * * * * * * * * * * * * * * * //

dimensions      [0 2 -3 0 0 0 0];


internalField   nonuniform List<scalar> 
12225
(
8534.02
8352.93
7991.3
7604.9
7243.9
6921.76
6638.07
6392.12
6173.02
5986.42
5812.27
5673.02
5561.32
5471.34
5389.09
5330.65
5260.34
5235.69
612.841
1496.64
1698.59
1689.13
1643.11
1565.13
1507.25
1461.29
1423.1
1390.63
1363.29
1339.23
1320.78
1304.64
1290.88
1280.11
1264.26
1255.77
136.092
458.86
618.714
686.95
717.332
720.726
717.639
710.318
700.389
689.851
679.859
669.884
660.838
652.375
644.325
637.738
629.329
625.305
58.4941
196.184
292.436
349.182
383.824
402.661
413.008
418.21
419.666
419.127
417.603
414.861
411.687
408.286
404.665
401.434
397.053
395.263
35.9831
104.798
162.957
203.269
231.277
250.105
262.846
271.486
277.12
280.665
282.849
283.939
284.157
283.941
283.344
282.533
281.003
280.926
26.8378
65.6346
102.218
130.428
151.693
167.453
179.152
187.887
194.373
199.164
202.715
205.301
207.109
208.358
209.167
209.658
209.771
210.321
22.3045
46.1299
70.088
90.0267
105.972
118.529
128.402
136.193
142.348
147.213
151.073
154.136
156.549
158.447
159.933
161.093
161.93
162.979
19.7659
35.3031
51.5635
65.8864
77.8856
87.7593
95.8473
102.481
107.93
112.416
116.121
119.189
121.729
123.835
125.582
127.034
128.224
129.483
18.2253
28.7922
40.1568
50.6122
59.7096
67.4581
74.0096
79.5431
84.2212
88.1832
91.5479
94.413
96.8573
98.9466
100.737
102.274
103.602
104.905
17.2356
24.6384
32.7708
40.5157
47.4735
53.5724
58.8655
63.4448
67.4056
70.8349
73.81
76.3968
78.6506
80.6184
82.3406
83.8526
85.194
86.4652
16.5721
21.869
27.7969
33.6073
38.9736
43.7961
48.0768
51.8571
55.19
58.1288
60.7229
63.0165
65.048
66.8507
68.4541
69.885
71.1746
72.3791
16.1502
20.1186
24.6293
29.1509
33.4203
37.3352
40.8743
44.0518
46.8966
49.4413
51.7183
53.7576
55.5864
57.2291
58.7075
60.0422
61.257
62.3861
15.8384
18.8313
22.2857
25.8223
29.2327
32.421
35.3537
38.0288
40.4583
42.6607
44.6559
46.4639
48.1033
49.5915
50.9446
52.1783
53.3098
54.3612
15.5801
17.7736
20.349
23.0469
25.7084
28.2497
30.632
32.8423
34.8811
36.7553
38.4755
40.053
41.4997
42.8271
44.0461
45.168
46.2045
47.1697
15.3748
16.9405
18.8149
20.8283
22.8649
24.8551
26.76
28.5605
30.249
31.8246
33.2903
34.6513
35.9138
37.0844
38.1703
39.1785
40.1169
40.9939
15.2203
16.3206
17.6669
19.1533
20.6988
22.2475
23.7638
25.2257
26.621
27.9435
29.1909
30.3638
31.4642
32.4952
33.4605
34.3644
35.2114
36.0064
15.1155
15.9036
16.8904
18.011
19.2088
20.44
21.6727
22.8847
24.0611
25.1928
26.2742
27.3027
28.2777
29.1996
30.0701
30.8912
31.6655
32.3951
15.0629
15.6956
16.5009
17.4336
18.4501
19.5134
20.5945
21.6716
22.7291
23.7565
24.7468
25.6959
26.6015
27.463
28.2808
29.0559
29.7903
30.4862
15.079
15.7585
16.6173
17.6042
18.6723
19.7829
20.9067
22.022
23.1137
24.1717
25.1895
26.1633
27.0913
27.973
28.8089
29.5999
30.3474
31.0525
15.1988
16.2329
17.5006
18.9057
20.3737
21.8525
23.3076
24.7176
26.0696
27.357
28.5766
29.7282
30.8128
31.8328
32.7907
33.6892
34.5308
35.3167
15.4071
17.0664
19.041
21.1509
23.2768
25.3485
27.3278
29.1967
30.9485
32.5833
34.1049
35.5189
36.832
38.0511
39.1828
40.233
41.2061
42.1029
15.767
18.5246
21.7117
24.9928
28.1785
31.1787
33.9593
36.5143
38.8518
40.9858
42.9329
44.7098
46.3324
47.8158
49.1738
50.4179
51.5567
52.5891
16.3866
21.0656
26.3177
31.5127
36.3611
40.7661
44.7202
48.2505
51.3964
54.1998
56.7006
58.9349
60.9351
62.7296
64.3442
65.8003
67.1157
68.2823
17.4986
25.6598
34.53
42.8931
50.3462
56.8478
62.4781
67.3406
71.5412
75.1767
78.3305
81.0737
83.4662
85.5588
87.3968
89.017
90.4575
91.6964
19.6473
34.5749
50.1041
63.8314
75.3813
84.9695
92.9143
99.4843
104.93
109.459
113.236
116.395
119.044
121.268
123.148
124.737
126.123
127.251
24.2996
53.9029
82.4101
105.377
123.262
137.143
147.953
156.298
162.776
167.825
171.752
174.803
177.161
178.962
180.357
181.392
182.247
182.786
36.4921
103.324
158.509
197.267
224.148
242.89
255.943
264.538
270.322
274.122
276.429
277.692
278.164
278.061
277.705
276.951
276.195
275.15
81.6125
262.524
372.073
433.102
466.519
484.587
492.823
493.439
492.2
489.258
485.023
480.358
475.588
470.68
466.076
461.304
457.332
452.966
390.157
975.256
1160.14
1205.45
1197.59
1173.99
1134.7
1094.8
1063.33
1037.4
1015.33
996.18
979.511
964.676
951.778
939.994
930.058
920.612
6457.22
6260.44
5992.35
5735.89
5500.58
5289.96
5101.95
4934.72
4786.15
4653.8
4535.46
4429.09
4333.32
4246.37
4167.86
4095.6
4030.55
3969.36
16.4903
15.6766
28.5674
38.6266
47.1155
53.6778
58.6339
61.9526
63.8545
64.2593
63.9054
62.7335
60.3486
56.7667
52.2407
46.8358
40.5263
33.7788
26.9278
19.9808
16.0478
14.5038
14.5951
15.2613
15.5909
15.286
14.7463
15.5178
18.8826
25.2506
35.91
53.337
71.4124
90.1699
109.419
129.077
148.679
168.25
187.798
207.374
227.047
246.878
266.921
287.221
307.804
328.682
349.848
371.285
392.957
414.824
436.83
458.926
481.055
503.186
525.303
547.477
569.608
591.604
613.433
635.329
657.309
679.272
701.054
722.388
742.917
762.229
779.825
795.187
807.229
814.285
817.662
816.932
811.47
800.69
784.063
760.76
729.272
697.488
666.473
636.787
608.833
582.925
559.284
537.92
518.874
502.043
487.134
473.049
461.244
453.011
446.586
440.783
435.597
431.059
427.147
423.835
421.068
418.767
416.847
415.226
413.83
412.598
411.477
410.428
409.417
408.421
407.423
406.411
405.378
404.32
403.237
402.13
401.003
399.86
398.705
397.544
396.381
395.223
394.073
392.937
391.818
390.72
389.648
388.603
387.589
386.607
385.66
384.749
383.875
383.04
382.244
381.489
380.774
380.101
379.469
378.879
378.33
377.824
377.359
376.936
376.554
376.213
375.912
375.651
375.428
375.243
375.099
374.993
374.926
374.897
374.903
374.949
375.036
375.164
375.313
375.503
375.712
375.973
376.26
376.605
376.946
377.354
377.726
378.324
378.994
379.525
380.224
380.709
381.324
381.953
382.633
383.255
383.938
384.399
384.961
384.946
384.888
383.007
377.374
343.703
56.5111
41.8066
39.8394
37.1489
36.8691
37.2647
37.9025
38.4852
38.7692
38.6728
38.2676
37.5192
36.6684
35.8973
35.4406
36.0796
37.6986
39.3333
40.9448
43.4173
47.2847
52.8068
59.8126
67.5414
74.615
79.7232
82.7069
84.6452
86.8086
89.8291
93.9319
99.0436
104.713
110.796
117.22
123.911
130.427
136.956
143.476
149.948
156.327
162.535
168.549
174.361
179.969
185.382
190.613
195.683
200.625
205.482
210.318
215.225
220.343
225.889
232.207
239.11
246.257
253.787
261.999
270.82
279.493
287.852
295.742
303.021
309.553
315.201
319.798
323.238
325.038
325.528
324.433
321.752
317.522
311.309
303.162
293.359
282.454
271.663
261.113
251.051
241.641
232.994
225.156
218.133
211.899
206.403
201.554
197.274
193.546
190.09
186.869
184.03
181.539
179.333
177.374
175.622
174.044
172.613
171.301
170.089
168.955
167.885
166.864
165.881
164.926
163.992
163.073
162.166
161.268
160.376
159.489
158.607
157.73
156.859
155.994
155.137
154.287
153.448
152.618
151.8
150.995
150.203
149.425
148.663
147.917
147.186
146.473
145.777
145.099
144.438
143.796
143.172
142.566
141.978
141.409
140.858
140.324
139.809
139.312
138.831
138.368
137.922
137.493
137.082
136.687
136.308
135.945
135.597
135.263
134.944
134.639
134.345
134.054
133.799
133.531
133.325
133.073
132.894
132.66
132.494
132.311
132.171
132.022
131.89
131.769
131.645
131.536
131.421
131.316
131.213
131.113
131.009
130.898
130.767
130.615
130.424
130.235
130.552
131.78
132.53
115.681
66.1262
56.8529
50.7836
48.6388
47.2211
46.4215
45.9336
45.3395
44.6448
43.9587
43.5349
43.6213
44.5159
46.6195
50.1228
55.2177
62.0553
70.2545
79.1109
88.194
96.7714
103.554
107.155
107.888
106.673
104.769
103.46
103.122
104.157
106.604
110.202
114.649
119.645
124.903
130.161
135.336
140.207
144.647
148.565
152.02
155.073
157.774
160.187
162.384
164.433
166.402
168.351
170.339
172.42
174.645
177.063
179.717
182.631
185.794
189.136
192.593
196.145
199.745
203.295
206.689
209.868
212.734
215.246
217.349
218.989
219.95
220.292
220.076
219.207
217.37
214.459
210.437
205.188
198.849
191.716
184.179
176.633
169.269
162.305
155.884
150.089
144.943
140.43
136.506
133.118
130.205
127.725
125.632
123.847
122.312
120.969
119.77
118.684
117.69
116.772
115.918
115.118
114.364
113.647
112.96
112.298
111.656
111.03
110.417
109.813
109.218
108.63
108.047
107.47
106.898
106.33
105.767
105.21
104.658
104.113
103.573
103.041
102.516
101.999
101.491
100.991
100.499
100.018
99.5456
99.0832
98.6308
98.1886
97.7565
97.3347
96.9232
96.522
96.1312
95.7506
95.3802
95.0199
94.6695
94.329
93.9982
93.6769
93.3648
93.062
92.7683
92.4837
92.2078
91.9404
91.6812
91.4301
91.1866
90.9506
90.7217
90.4992
90.2829
90.0755
89.875
89.6835
89.496
89.3162
89.1398
88.9725
88.8126
88.66
88.5107
88.3668
88.2283
88.0924
87.9622
87.8349
87.7118
87.5921
87.4764
87.3635
87.2555
87.1501
87.059
87.0091
87.0402
87.2175
87.7373
89.0578
166.186
88.2806
72.9053
66.0545
62.0444
60.3199
58.9073
58.1707
57.4904
57.1873
57.2708
58.0359
59.7737
62.1905
65.2738
69.2011
74.1673
80.1077
86.629
93.0551
98.5426
102.443
104.428
104.951
104.366
103.633
103.425
104.172
106.115
109.289
113.466
118.301
123.443
128.566
133.401
137.752
141.508
144.63
147.14
149.124
150.648
151.832
152.773
153.562
154.274
154.975
155.714
156.532
157.461
158.524
159.739
161.121
162.686
164.455
166.463
168.658
170.785
172.757
174.514
176.022
177.244
178.153
178.668
178.845
178.7
178.204
177.361
176.239
174.915
173.544
171.629
168.965
165.494
161.177
156.099
150.453
144.48
138.435
132.541
126.997
121.938
117.434
113.499
110.11
107.22
104.777
102.736
101.071
99.7417
98.6241
97.6528
96.7863
95.9994
95.2755
94.6018
93.969
93.3707
92.8018
92.2579
91.7351
91.2299
90.7395
90.2615
89.7938
89.3349
88.8833
88.4379
87.998
87.5629
87.1323
86.7057
86.2831
85.8645
85.4499
85.0393
84.633
84.2311
83.8339
83.4416
83.0544
82.6725
82.2961
81.9255
81.5608
81.2022
80.8498
80.5038
80.1642
79.8312
79.5047
79.1848
78.8716
78.565
78.2652
77.9719
77.6853
77.4052
77.1315
76.8642
76.6031
76.3482
76.0993
75.8564
75.6195
75.3882
75.1625
74.9423
74.7273
74.5173
74.3123
74.1119
73.9161
73.7248
73.5386
73.3571
73.1801
73.007
72.8378
72.6725
72.5119
72.3557
72.2034
72.0538
71.9076
71.7646
71.6244
71.4877
71.3542
71.2241
71.0974
70.9744
70.8561
70.7428
70.639
70.5538
70.5209
70.5309
70.6304
70.949
71.9208
228.941
114.987
91.4579
81.0442
75.998
73.1085
71.6282
70.8207
70.5663
70.6232
71.1588
72.1822
73.6885
75.5814
77.8472
80.5349
83.6562
87.0699
90.492
93.5905
96.124
97.9599
99.2377
100.273
101.643
103.571
106.127
109.441
113.472
118.141
123.13
128.106
132.796
136.998
140.596
143.549
145.879
147.651
148.955
149.89
150.557
151.028
151.391
151.714
152.041
152.407
152.837
153.342
153.93
154.597
155.339
156.144
156.996
157.875
158.744
159.555
160.261
160.816
161.123
161.212
161.066
160.676
160.058
159.243
158.234
157.043
155.698
154.238
152.692
151.05
149.055
146.54
143.414
139.622
135.187
130.217
124.894
119.447
114.121
109.133
104.629
100.682
97.3006
94.4495
92.0718
90.104
88.4847
87.1535
86.0448
85.0954
84.2643
83.5234
82.8531
82.2387
81.6696
81.1377
80.637
80.1623
79.7096
79.275
78.8556
78.4488
78.0523
77.6644
77.2837
76.9089
76.5393
76.174
75.8126
75.4547
75.1002
74.7489
74.4008
74.0561
73.7147
73.377
73.0429
72.7127
72.3866
72.0648
71.7474
71.4346
71.1266
70.8235
70.5254
70.2324
69.9447
69.6621
69.3849
69.1129
68.8462
68.5849
68.3289
68.0782
67.8327
67.5924
67.3573
67.1272
66.902
66.6816
66.4659
66.2549
66.0484
65.8462
65.6484
65.4547
65.265
65.0792
64.8971
64.7186
64.5435
64.3718
64.2034
64.0384
63.8767
63.7179
63.562
63.4089
63.2585
63.1112
62.9667
62.8246
62.6849
62.5475
62.4128
62.2807
62.1517
62.0261
61.9045
61.7874
61.6762
61.5723
61.4796
61.4029
61.3659
61.3727
61.4255
61.5703
61.9394
62.7616
290.333
142.799
110.168
95.9663
90.2104
86.6495
84.9046
83.7305
83.058
82.6223
82.4426
82.485
82.8449
83.5134
84.4956
85.7888
87.3717
89.1989
91.2293
93.3629
95.5824
98.0199
100.531
103.195
106.167
109.511
113.291
117.445
122.042
126.75
131.295
135.471
139.144
142.249
144.775
146.755
148.25
149.338
150.101
150.623
150.964
151.19
151.35
151.492
151.65
151.846
152.088
152.378
152.71
153.07
153.442
153.805
154.137
154.419
154.64
154.803
154.913
154.864
154.553
153.958
153.069
151.9
150.48
148.844
146.99
144.943
142.758
140.505
138.275
136.285
134.207
131.823
129.003
125.63
121.64
117.067
112.047
106.816
101.663
96.8475
92.5482
88.8472
85.7472
83.1989
81.1278
79.4525
78.0947
76.983
76.0558
75.2654
74.5781
73.9701
73.4238
72.9266
72.4689
72.0434
71.6445
71.2676
70.9088
70.5652
70.234
69.913
69.6004
69.2947
68.9946
68.6992
68.4077
68.1194
67.8341
67.5513
67.2709
66.9928
66.717
66.4435
66.1723
65.9036
65.6375
65.3741
65.1135
64.856
64.6015
64.3503
64.1025
63.8581
63.6173
63.3801
63.1466
62.9167
62.6905
62.4681
62.2494
62.0345
61.8233
61.6158
61.4121
61.212
61.0155
60.8224
60.6328
60.4465
60.2634
60.0835
59.9066
59.7327
59.5617
59.3934
59.2278
59.0647
58.9041
58.7459
58.5898
58.436
58.2843
58.1347
57.9871
57.8413
57.6973
57.555
57.4145
57.2758
57.1388
57.0034
56.8695
56.7375
56.6074
56.4796
56.3546
56.2329
56.1154
56.0031
55.898
55.8022
55.721
55.6609
55.6453
55.6657
55.7396
55.907
56.2747
56.922
345.853
166.693
126.195
108.921
101.856
97.3155
94.7157
92.8059
91.4625
90.4109
89.6441
89.1342
88.9036
88.9158
89.2525
89.9454
91.0241
92.525
94.4932
96.9602
99.7605
102.792
106.008
109.379
112.916
116.726
120.91
125.304
129.678
133.839
137.65
141.022
143.911
146.309
148.235
149.729
150.846
151.645
152.192
152.551
152.793
152.981
153.161
153.365
153.617
153.93
154.305
154.733
155.195
155.665
156.108
156.49
156.758
156.878
156.839
156.578
156.048
155.201
154.018
152.519
150.732
148.702
146.496
144.199
141.714
139.044
136.264
133.482
130.733
128.128
125.593
123.04
120.276
117.072
113.265
108.788
103.731
98.3386
92.9767
87.9833
83.5856
79.879
76.8545
74.44
72.5357
71.0388
69.8555
68.9073
68.1322
67.4846
66.9314
66.4493
66.0216
65.6364
65.2847
64.96
64.6572
64.3724
64.1023
63.8443
63.5963
63.3563
63.1231
62.8953
62.672
62.4523
62.2357
62.0216
61.8097
61.5996
61.3912
61.1844
60.9791
60.7752
60.5728
60.3719
60.1725
59.9748
59.7787
59.5844
59.392
59.2014
59.0128
58.8263
58.6417
58.4593
58.279
58.1008
57.9247
57.7507
57.5788
57.4091
57.2416
57.0763
56.913
56.7519
56.5927
56.4354
56.28
56.1264
55.9745
55.8242
55.6756
55.5286
55.383
55.2388
55.096
54.9543
54.8139
54.6745
54.5362
54.3988
54.2624
54.1268
53.992
53.8579
53.7244
53.5917
53.4596
53.3281
53.1973
53.0672
52.9378
52.8094
52.6824
52.557
52.434
52.314
52.1982
52.088
51.9858
51.8944
51.8194
51.7686
51.7611
51.7873
51.8699
52.0426
52.3868
52.9107
373.987
181.484
135.327
116.254
108.174
103.005
99.9336
97.6783
96.0734
94.8382
93.9542
93.3786
93.1227
93.1638
93.5855
94.4152
95.692
97.4485
99.7119
102.428
105.436
108.661
112.085
115.732
119.664
123.796
127.988
132.102
136.022
139.653
142.932
145.816
148.285
150.342
152.003
153.303
154.29
155.02
155.561
155.98
156.345
156.715
157.142
157.661
158.291
159.033
159.87
160.771
161.693
162.582
163.379
164.024
164.433
164.589
164.453
163.947
163.046
161.742
160.038
157.938
155.463
152.646
149.526
146.148
142.564
138.872
135.218
131.762
128.364
124.95
121.564
118.423
115.385
112.088
108.242
103.626
98.2441
92.39
86.506
81.0522
76.3256
72.4354
69.3509
66.9656
65.1463
63.7639
62.7073
61.8879
61.2391
60.7128
60.275
59.902
59.5773
59.2894
59.0299
58.7928
58.5738
58.3693
58.1767
57.9939
57.819
57.6507
57.4878
57.3294
57.1747
57.023
56.8739
56.7268
56.5815
56.4376
56.2949
56.1534
56.0128
55.8732
55.7344
55.5964
55.4591
55.3227
55.187
55.0521
54.918
54.7846
54.652
54.5202
54.3891
54.2588
54.1292
54.0002
53.8719
53.7442
53.6172
53.491
53.3655
53.2407
53.1165
52.9928
52.8696
52.7468
52.6243
52.5023
52.3805
52.259
52.1378
52.0167
51.8958
51.7749
51.6541
51.5333
51.4124
51.2913
51.1701
51.0486
50.9269
50.8049
50.6826
50.5598
50.4367
50.3131
50.1891
50.0648
49.9401
49.8152
49.6903
49.5655
49.4414
49.3183
49.197
49.0784
48.9638
48.8549
48.7542
48.6649
48.5928
48.5453
48.537
48.5616
48.6413
48.8047
49.1057
49.5192
394.708
188.577
138.811
118.586
109.918
104.478
101.316
99.1238
97.7086
96.7657
96.2583
96.0905
96.2572
96.7871
97.6982
99.0027
100.711
102.823
105.329
108.193
111.371
114.826
118.515
122.391
126.385
130.412
134.386
138.224
141.855
145.216
148.26
150.95
153.268
155.212
156.8
158.07
159.079
159.899
160.608
161.29
162.021
162.865
163.864
165.041
166.391
167.887
169.48
171.103
172.682
174.132
175.375
176.331
176.913
177.12
176.901
176.189
174.982
173.285
171.103
168.451
165.359
161.862
158.005
153.831
149.399
144.779
140.052
135.285
130.532
125.927
121.62
117.739
114.12
110.48
106.428
101.521
95.5189
88.7779
82.0169
75.8046
70.5256
66.2958
63.0449
60.6143
58.8254
57.5157
56.5524
55.8341
55.287
54.8594
54.5156
54.2312
53.9899
53.7806
53.5953
53.4288
53.277
53.137
53.0067
52.8842
52.7684
52.658
52.5522
52.4503
52.3516
52.2556
52.162
52.0704
51.9805
51.8919
51.8045
51.718
51.6324
51.5474
51.463
51.3791
51.2956
51.2125
51.1295
51.0467
50.964
50.8813
50.7985
50.7157
50.6326
50.5493
50.4657
50.3816
50.297
50.2119
50.1263
50.0404
49.9541
49.8672
49.7796
49.6912
49.602
49.512
49.4211
49.3293
49.2366
49.1429
49.0483
48.9527
48.8561
48.7584
48.6596
48.5597
48.4586
48.3562
48.2526
48.1477
48.0415
47.9339
47.8249
47.7145
47.6028
47.4896
47.375
47.2592
47.1422
47.0241
46.9052
46.7859
46.6665
46.5477
46.4302
46.3151
46.2038
46.0981
46.0007
45.9148
45.846
45.8009
45.7906
45.8124
45.8861
46.0347
46.2902
46.6211
404.362
188.844
138.045
117.339
108.565
103.184
100.237
98.3761
97.4126
97.0091
97.0715
97.5315
98.3736
99.5718
101.123
103.017
105.249
107.807
110.671
113.81
117.202
120.815
124.606
128.52
132.496
136.471
140.378
144.148
147.717
151.023
154.016
156.656
158.926
160.832
162.405
163.703
164.806
165.806
166.799
167.877
169.112
170.55
172.208
174.069
176.087
178.188
180.283
182.269
184.044
185.513
186.598
187.207
187.364
187.023
186.155
184.777
182.927
180.639
177.955
174.921
171.584
167.983
164.144
160.101
155.877
151.452
146.78
141.832
136.64
131.309
125.999
120.918
116.203
111.786
107.289
101.979
95.2302
87.3502
79.2409
71.9537
65.905
61.2023
57.7068
55.1832
53.3923
52.1299
51.2374
50.5988
50.1324
49.7827
49.5124
49.2968
49.1198
48.9705
48.8416
48.7283
48.6271
48.5355
48.4517
48.3744
48.3025
48.2354
48.1724
48.1128
48.0562
48.0021
47.9505
47.9009
47.8532
47.8068
47.7617
47.7176
47.6744
47.6319
47.59
47.5485
47.5073
47.4662
47.4252
47.3841
47.3427
47.301
47.2587
47.2159
47.1722
47.1277
47.0821
47.0353
46.9871
46.9376
46.8871
46.8354
46.7824
46.7278
46.6715
46.6134
46.5536
46.492
46.4286
46.3633
46.2962
46.2272
46.1564
46.0838
46.0092
45.9326
45.8541
45.7735
45.6908
45.606
45.519
45.4299
45.3386
45.245
45.1492
45.0512
44.9509
44.8485
44.7441
44.6376
44.5292
44.4193
44.308
44.1957
44.0829
43.9703
43.8587
43.7492
43.6433
43.5428
43.4503
43.369
43.3039
43.2605
43.2472
43.2646
43.329
43.4587
43.6717
43.9351
402.72
185.407
135.022
114.643
105.728
100.493
97.8896
96.5157
96.1106
96.2833
96.992
98.1246
99.6428
101.497
103.669
106.132
108.872
111.865
115.095
118.545
122.197
126.026
129.995
134.06
138.169
142.263
146.271
150.122
153.744
157.068
160.04
162.625
164.818
166.643
168.158
169.447
170.612
171.758
172.985
174.368
175.951
177.743
179.713
181.797
183.903
185.925
187.749
189.267
190.389
191.026
191.177
190.816
189.95
188.605
186.824
184.664
182.188
179.438
176.475
173.359
170.144
166.878
163.596
160.328
157.085
153.832
150.497
146.959
143.05
138.592
133.479
127.835
122.034
116.462
111.187
105.327
97.62
88.1139
78.2207
69.4372
62.3739
57.0695
53.2672
50.6207
48.8105
47.582
46.7472
46.1745
45.7743
45.4876
45.2758
45.1142
44.9867
44.8831
44.7965
44.7227
44.6586
44.6022
44.552
44.507
44.4665
44.4302
44.3974
44.3677
44.3407
44.3162
44.2939
44.2741
44.2563
44.2401
44.2251
44.2112
44.1985
44.1866
44.1754
44.1648
44.1546
44.1446
44.1347
44.1246
44.1143
44.1035
44.0921
44.0798
44.0665
44.0519
44.0359
44.0181
43.9983
43.9768
43.9542
43.9298
43.9035
43.8747
43.8434
43.8098
43.7738
43.7355
43.6947
43.6514
43.6057
43.5577
43.5072
43.4542
43.3987
43.3406
43.2799
43.2165
43.1504
43.0814
43.0097
42.9352
42.8578
42.7776
42.6946
42.6088
42.5202
42.4289
42.3351
42.2388
42.1402
42.0396
41.9373
41.8337
41.7293
41.6248
41.521
41.419
41.3202
41.2265
41.1402
41.0644
41.0034
40.9617
40.9452
40.9577
41.0114
41.121
41.2948
41.5066
394.714
179.233
130.513
111.169
102.199
97.2112
95.0141
94.105
94.2133
94.9702
96.3054
98.0527
100.184
102.631
105.368
108.359
111.586
115.028
118.673
122.51
126.526
130.689
134.963
139.307
143.667
147.974
152.15
156.109
159.768
163.055
165.922
168.348
170.349
171.977
173.315
174.471
175.558
176.681
177.922
179.329
180.91
182.635
184.438
186.232
187.913
189.375
190.525
191.28
191.595
191.454
190.853
189.817
188.379
186.585
184.489
182.145
179.606
176.927
174.15
171.311
168.44
165.576
162.755
160.001
157.342
154.798
152.382
150.063
147.723
145.12
141.839
137.419
131.722
125.182
118.765
111.917
102.851
91.1635
78.8533
68.0882
59.7566
53.7365
49.5858
46.804
44.9705
43.7719
42.9889
42.4741
42.1307
41.8967
41.7329
41.6145
41.526
41.4577
41.4034
41.3591
41.3224
41.2916
41.2654
41.2431
41.2243
41.2091
41.1972
41.1878
41.1806
41.1756
41.1725
41.172
41.1745
41.1781
41.1828
41.1888
41.196
41.2043
41.2134
41.2232
41.2336
41.2444
41.2554
41.2665
41.2774
41.2879
41.2977
41.3068
41.3146
41.3211
41.3258
41.3285
41.3285
41.3272
41.3251
41.3205
41.3135
41.3032
41.2899
41.2744
41.2562
41.2352
41.2115
41.1851
41.156
41.1242
41.0898
41.0525
41.0124
40.9693
40.9232
40.8741
40.8218
40.7663
40.7077
40.6459
40.581
40.5128
40.4415
40.367
40.2896
40.2091
40.1258
40.0398
39.9513
39.8606
39.7679
39.6737
39.5785
39.4829
39.3878
39.2941
39.2033
39.1169
39.0372
38.9669
38.9097
38.8691
38.8493
38.856
38.8977
38.9865
39.1267
39.296
379.159
170.432
124.715
106.911
98.2862
93.7718
91.9854
91.4929
92.0972
93.3764
95.2579
97.5667
100.253
103.244
106.514
110.023
113.755
117.689
121.819
126.131
130.603
135.2
139.881
144.591
149.258
153.801
158.131
162.147
165.764
168.916
171.567
173.72
175.415
176.73
177.776
178.675
179.547
180.49
181.566
182.799
184.178
185.656
187.163
188.614
189.921
190.999
191.782
192.22
192.285
191.98
191.325
190.363
189.132
187.672
186.028
184.238
182.333
180.339
178.273
176.143
173.958
171.725
169.457
167.177
164.91
162.683
160.528
158.482
156.545
154.649
152.537
149.7
145.494
139.25
131.937
122.903
111.493
96.676
81.0758
67.7624
57.8869
51.0584
46.5445
43.6351
41.7878
40.6245
39.8943
39.4349
39.1437
38.9568
38.8346
38.7529
38.6971
38.6579
38.6295
38.6086
38.5934
38.5824
38.5744
38.5689
38.5655
38.5652
38.5686
38.5735
38.58
38.5884
38.5989
38.6114
38.6257
38.6415
38.6587
38.6772
38.6969
38.7177
38.7395
38.7621
38.7853
38.8091
38.8332
38.8574
38.8817
38.9057
38.9293
38.952
38.9737
38.9939
39.0124
39.0289
39.0432
39.0558
39.0665
39.0748
39.0802
39.0816
39.0803
39.0775
39.0713
39.0625
39.0509
39.0365
39.0195
38.9998
38.9774
38.952
38.9235
38.8918
38.857
38.8188
38.7774
38.7326
38.6844
38.6329
38.5781
38.5199
38.4584
38.3937
38.3258
38.2548
38.1809
38.1042
38.0248
37.9431
37.8594
37.774
37.6875
37.6003
37.5134
37.4276
37.3441
37.2646
37.1909
37.1253
37.0711
37.031
37.0082
37.0086
37.038
37.1071
37.218
37.3547
360.857
160.653
118.379
102.305
94.3304
90.4777
89.0003
88.8856
89.9454
91.7089
94.1039
96.9435
100.181
103.713
107.532
111.594
115.885
120.382
125.076
129.944
134.957
140.069
145.224
150.348
155.355
160.144
164.601
168.625
172.139
175.09
177.46
179.274
180.602
181.551
182.257
182.856
183.471
184.193
185.077
186.138
187.358
188.691
190.072
191.42
192.652
193.692
194.475
194.967
195.164
195.084
194.754
194.197
193.442
192.514
191.441
190.245
188.948
187.567
186.122
184.639
183.149
181.683
180.277
178.973
177.8
176.756
175.806
174.866
173.809
172.559
171.02
168.908
165.785
160.462
152.771
140.995
124.447
104.727
84.5954
68.1319
56.5026
48.8446
43.998
40.9957
39.1591
38.045
37.3733
36.9702
36.7291
36.5856
36.5008
36.4515
36.4238
36.4095
36.4031
36.4012
36.4035
36.4092
36.4158
36.4238
36.4335
36.4452
36.4586
36.4733
36.4896
36.5075
36.527
36.548
36.5706
36.5944
36.6196
36.6459
36.6734
36.7018
36.7311
36.7611
36.7917
36.8228
36.8543
36.886
36.9178
36.9495
36.9809
37.0116
37.0414
37.0698
37.0965
37.1211
37.1437
37.1643
37.1826
37.1985
37.2114
37.221
37.2275
37.2299
37.2289
37.2269
37.2228
37.216
37.2068
37.195
37.1804
37.1628
37.1419
37.1178
37.0904
37.0597
37.0255
36.9881
36.9472
36.9029
36.8553
36.8044
36.7501
36.6925
36.6318
36.568
36.5013
36.4318
36.3596
36.2851
36.2085
36.1302
36.0507
35.9704
35.89
35.8105
35.7329
35.6586
35.5893
35.5269
35.4741
35.4333
35.4077
35.4006
35.4174
35.4668
35.5524
35.6607
341.493
150.355
111.749
97.437
90.2981
87.1573
86.0889
86.4502
87.9888
90.2679
93.2081
96.6181
100.441
104.579
109.023
113.725
118.674
123.835
129.194
134.715
140.364
146.073
151.774
157.372
162.759
167.816
172.42
176.466
179.883
182.632
184.72
186.203
187.178
187.781
188.17
188.497
188.894
189.456
190.234
191.241
192.453
193.819
195.265
196.709
198.064
199.252
200.227
200.961
201.45
201.698
201.715
201.531
201.151
200.608
199.927
199.133
198.252
197.307
196.325
195.336
194.381
193.522
192.833
192.404
192.337
192.683
193.546
194.891
196.525
198.082
198.919
198.48
196.776
192.207
184.161
168.568
142.475
115.008
88.8184
68.7028
55.3014
46.8983
41.8151
38.7899
37.007
35.9653
35.3631
35.02
34.8289
34.7268
34.6763
34.6559
34.653
34.6606
34.6739
34.689
34.7058
34.7234
34.7415
34.7603
34.7801
34.8008
34.8225
34.8452
34.8691
34.8942
34.9205
34.9481
34.9767
35.0065
35.0374
35.0692
35.102
35.1355
35.1697
35.2044
35.2395
35.2749
35.3106
35.3465
35.3824
35.4182
35.4538
35.4891
35.5236
35.5568
35.5882
35.6176
35.6448
35.6697
35.6921
35.7119
35.7287
35.7423
35.7525
35.7585
35.7595
35.7586
35.7576
35.7544
35.75
35.7428
35.7324
35.7189
35.702
35.6818
35.6583
35.6314
35.6012
35.5677
35.5308
35.4905
35.447
35.4001
35.35
35.2966
35.2402
35.1807
35.1183
35.0532
34.9855
34.9155
34.8434
34.7696
34.6944
34.6184
34.5422
34.4666
34.3926
34.3212
34.2541
34.1928
34.1396
34.0967
34.0665
34.0512
34.0562
34.0869
34.1493
34.2329
318.376
139.54
104.856
92.3608
86.209
83.8765
83.3903
84.3976
86.5271
89.4439
93.0797
97.1727
101.737
106.648
111.918
117.454
123.259
129.27
135.479
141.825
148.269
154.725
161.108
167.3
173.178
178.604
183.45
187.612
191.019
193.642
195.513
196.712
197.368
197.654
197.763
197.871
198.119
198.6
199.359
200.39
201.66
203.111
204.667
206.239
207.737
209.091
210.256
211.207
211.936
212.447
212.756
212.884
212.858
212.711
212.456
212.122
211.736
211.321
210.912
210.556
210.32
210.287
210.51
211.118
212.211
213.878
216.227
219.367
223.373
228.168
233.188
237.413
239.994
237.498
228.696
206.568
165.116
126.199
92.4323
68.8056
53.8173
44.9336
39.8093
36.8824
35.2218
34.289
33.7744
33.4992
33.3607
33.2997
33.2819
33.289
33.3102
33.3361
33.3638
33.3917
33.4193
33.4466
33.4735
33.5003
33.5273
33.5547
33.5826
33.6112
33.6407
33.671
33.7024
33.7346
33.7679
33.8021
33.8372
33.8732
33.9099
33.9472
33.985
34.0231
34.0614
34.0998
34.1381
34.1764
34.2146
34.2525
34.2903
34.3281
34.3651
34.4006
34.4343
34.4659
34.4955
34.5228
34.5476
34.5696
34.5887
34.6045
34.6169
34.625
34.6275
34.6272
34.6271
34.6259
34.6236
34.619
34.6103
34.5981
34.5824
34.5634
34.541
34.5153
34.4862
34.4537
34.418
34.379
34.3366
34.2911
34.2423
34.1904
34.1355
34.0776
34.0168
33.9534
33.8875
33.8193
33.7491
33.6771
33.6038
33.5296
33.4551
33.3809
33.308
33.2373
33.1701
33.1079
33.0525
33.0057
32.9696
32.9464
32.9391
32.9522
32.9918
33.0531
292.583
129.637
98.5386
87.6426
82.588
81.1431
81.5054
83.3638
86.3503
90.0947
94.655
99.7203
105.35
111.347
117.751
124.428
131.386
138.54
145.875
153.317
160.812
168.259
175.555
182.563
189.143
195.142
200.426
204.884
208.446
211.091
212.857
213.842
214.219
214.228
214.109
214.033
214.135
214.514
215.2
216.183
217.43
218.882
220.455
222.052
223.59
225.007
226.261
227.332
228.214
228.918
229.461
229.869
230.167
230.382
230.54
230.671
230.81
230.996
231.271
231.69
232.325
233.27
234.648
236.615
239.338
242.979
247.643
253.331
259.965
267.301
274.584
281.945
290.701
291.021
281.436
248.374
186.308
133.611
93.5443
67.1244
51.4699
42.7295
37.9209
35.2814
33.8394
33.0626
32.6573
32.4591
32.3757
32.3551
32.3691
32.4015
32.4395
32.4785
32.5165
32.5526
32.5868
32.6193
32.6505
32.6809
32.7108
32.7408
32.771
32.8017
32.833
32.8651
32.8979
32.9317
32.9663
33.0019
33.0383
33.0757
33.1138
33.1526
33.1919
33.2314
33.2709
33.3102
33.3492
33.3879
33.4262
33.4639
33.5009
33.537
33.5717
33.6049
33.6362
33.6656
33.6931
33.7188
33.742
33.7625
33.7801
33.7944
33.8052
33.8118
33.813
33.8126
33.8119
33.8092
33.8057
33.7987
33.7881
33.7741
33.7566
33.7358
33.7116
33.6841
33.6532
33.6191
33.5817
33.541
33.4971
33.4501
33.3999
33.3467
33.2904
33.2313
33.1695
33.105
33.0381
32.9689
32.8978
32.8249
32.7507
32.6756
32.6002
32.5249
32.4507
32.3783
32.309
32.244
32.1847
32.1331
32.0906
32.0595
32.0413
32.0402
32.0598
32.1011
263.434
121.177
93.0124
83.5616
79.7798
79.4637
80.9742
83.9194
88.0302
92.9842
98.8694
105.31
112.372
119.833
127.709
135.869
144.319
152.967
161.778
170.663
179.548
188.316
196.844
204.978
212.557
219.416
225.405
230.403
234.33
237.16
238.941
239.805
239.974
239.756
239.357
238.975
238.779
238.87
239.295
240.052
241.107
242.395
243.822
245.305
246.764
248.14
249.39
250.494
251.455
252.288
253.014
253.661
254.261
254.847
255.456
256.125
256.894
257.801
258.896
260.251
261.975
264.201
267.088
270.81
275.541
281.435
288.582
297.021
306.848
317.672
327.377
335.927
346.372
345.903
332.69
277.811
197.527
135.908
91.277
63.7311
48.6107
40.6042
36.3691
34.122
32.9385
32.3327
32.0401
31.9175
31.8862
31.904
31.9467