/*--------------------------------*- C++ -*----------------------------------*\
| =========                 |                                                 |
| \\      /  F ield         | OpenFOAM: The Open Source CFD Toolbox           |
|  \\    /   O peration     | Version:  v1906                                 |
|   \\  /    A nd           | Web:      www.OpenFOAM.com                      |
|    \\/     M anipulation  |                                                 |
\*---------------------------------------------------------------------------*/
FoamFile
{
    version     2.0;
    format      ascii;
    class       volScalarField;
    location    "500";
    object      k;
}
// * * * * * * * * * * * * * * * * * * * * * * * * * * * * * * * * * * * * * //

dimensions      [0 2 -2 0 0 0 0];


internalField   nonuniform List<scalar> 
12225
(
2.25874
2.22667
2.16193
2.09167
2.02494
1.96445
1.91041
1.86292
1.82011
1.78324
1.74849
1.72045
1.6978
1.67944
1.66257
1.65053
1.63599
1.63087
2.25029
2.13779
1.98564
1.87241
1.78123
1.71366
1.66064
1.6169
1.58108
1.55018
1.52528
1.50208
1.48543
1.46743
1.4571
1.4422
1.4359
1.42175
2.25785
2.21888
2.1436
2.07155
2.00394
1.94412
1.8918
1.84553
1.805
1.76883
1.73724
1.70836
1.68363
1.66026
1.64103
1.62163
1.60714
1.5913
2.25839
2.23538
2.18791
2.13577
2.08419
2.03588
1.99183
1.95173
1.9155
1.88259
1.85293
1.82576
1.80139
1.77883
1.75876
1.73978
1.72353
1.7066
2.25891
2.24457
2.21502
2.18007
2.14383
2.10825
2.07436
2.04245
2.01266
1.98492
1.95924
1.93535
1.91331
1.89277
1.8739
1.85622
1.84037
1.82468
2.25905
2.24839
2.22761
2.202
2.17443
2.14649
2.11913
2.0928
2.06774
2.04403
2.02173
2.00074
1.98108
1.96264
1.94541
1.92926
1.91427
1.89963
2.25918
2.25078
2.23561
2.21659
2.19562
2.17392
2.15224
2.13098
2.1104
2.09063
2.07177
2.05382
2.03679
2.02066
2.00543
1.99106
1.97761
1.96461
2.25923
2.25211
2.24034
2.22549
2.20886
2.19135
2.17357
2.15589
2.13855
2.12171
2.10546
2.08985
2.07492
2.06067
2.0471
2.03422
2.02199
2.01022
2.25927
2.25311
2.24366
2.2318
2.21843
2.2042
2.18959
2.1749
2.16035
2.14609
2.1322
2.11875
2.10579
2.09334
2.08141
2.07002
2.05918
2.04875
2.25929
2.25377
2.24587
2.23609
2.22503
2.21317
2.20087
2.18841
2.17596
2.16365
2.15158
2.13982
2.12841
2.11739
2.10678
2.0966
2.08683
2.07745
2.25932
2.25431
2.24754
2.23931
2.23001
2.22001
2.20958
2.19894
2.18824
2.1776
2.1671
2.15682
2.1468
2.13707
2.12767
2.11861
2.10991
2.10155
2.25934
2.25467
2.24865
2.24146
2.23336
2.22464
2.21552
2.20616
2.19671
2.18726
2.1779
2.16869
2.15968
2.15091
2.1424
2.13418
2.12627
2.11867
2.25937
2.25499
2.24956
2.24318
2.23605
2.22838
2.22033
2.21204
2.20364
2.19522
2.18684
2.17857
2.17045
2.16252
2.15481
2.14736
2.14018
2.13328
2.2594
2.25526
2.25034
2.24467
2.23838
2.23162
2.22453
2.2172
2.20975
2.20225
2.19476
2.18734
2.18004
2.17289
2.16593
2.15919
2.15269
2.14645
2.25943
2.25553
2.25104
2.24597
2.24041
2.23445
2.22819
2.22171
2.21511
2.20844
2.20177
2.19514
2.18859
2.18218
2.17592
2.16985
2.16401
2.1584
2.25946
2.25575
2.25159
2.247
2.24201
2.23668
2.2311
2.22531
2.2194
2.21342
2.20742
2.20145
2.19554
2.18974
2.18408
2.1786
2.17332
2.16828
2.25949
2.25593
2.25202
2.24777
2.2432
2.23834
2.23325
2.22798
2.22258
2.21711
2.21161
2.20613
2.20071
2.19538
2.19017
2.18513
2.18029
2.17569
2.25951
2.25604
2.25227
2.24821
2.24386
2.23926
2.23445
2.22947
2.22437
2.2192
2.214
2.20881
2.20367
2.19862
2.19369
2.18891
2.18433
2.17995
2.2595
2.256
2.2522
2.24809
2.24368
2.23901
2.23412
2.22906
2.22388
2.21861
2.21332
2.20803
2.2028
2.19764
2.19261
2.18774
2.18306
2.17862
2.25949
2.25586
2.25181
2.24735
2.24252
2.23737
2.23197
2.22638
2.22067
2.21488
2.20906
2.20327
2.19753
2.19188
2.18636
2.18099
2.1758
2.1708
2.25943
2.25553
2.25103
2.24594
2.24034
2.23434
2.22803
2.2215
2.21483
2.20808
2.20133
2.1946
2.18796
2.18142
2.17503
2.16882
2.16282
2.15709
2.25941
2.25519
2.25003
2.24401
2.23729
2.23007
2.22249
2.21467
2.20674
2.19875
2.1908
2.18292
2.17516
2.16757
2.16016
2.15297
2.14601
2.13925
2.25935
2.25457
2.24827
2.24068
2.23211
2.22287
2.21321
2.2033
2.19329
2.1833
2.17339
2.16365
2.1541
2.1448
2.13575
2.12698
2.11852
2.11045
2.25935
2.25385
2.24585
2.23595
2.22477
2.21281
2.20042
2.18787
2.17532
2.16292
2.15075
2.13887
2.12733
2.11617
2.10541
2.09507
2.08519
2.07566
2.25927
2.25242
2.24124
2.22718
2.2114
2.19472
2.17768
2.16065
2.14388
2.12752
2.11168
2.09643
2.08177
2.06774
2.05431
2.04146
2.02913
2.0175
2.25925
2.25041
2.23397
2.21363
2.19148
2.16868
2.14593
2.12365
2.10209
2.0814
2.06166
2.04288
2.02506
2.00818
1.99223
1.97717
1.96308
1.94992
2.25889
2.24472
2.21618
2.1822
2.14679
2.11177
2.07808
2.04627
2.01652
1.98882
1.96308
1.93919
1.91699
1.89639
1.8772
1.85938
1.84241
1.82668
2.25872
2.23437
2.18569
2.13368
2.083
2.03498
1.99032
1.94965
1.91269
1.87909
1.84851
1.82068
1.79521
1.77196
1.75056
1.731
1.71293
1.69747
2.25333
2.17275
2.05405
1.9532
1.87049
1.80147
1.74475
1.69883
1.66022
1.62719
1.59848
1.57355
1.55145
1.53216
1.51473
1.49959
1.4855
1.47231
2.25474
2.20869
2.14518
2.08353
2.02614
1.97409
1.92703
1.88469
1.84667
1.81246
1.78161
1.75364
1.72827
1.70507
1.68398
1.66446
1.64679
1.63008
0.0487931
0.0785899
0.117313
0.143435
0.16371
0.178551
0.189361
0.196433
0.200433
0.201334
0.200596
0.198194
0.193246
0.185716
0.175835
0.163729
0.148997
0.132246
0.114129
0.0937954
0.0804767
0.0745373
0.074593
0.076748
0.0781946
0.0773617
0.0753372
0.0768473
0.086537
0.104122
0.131047
0.170721
0.208692
0.244714
0.279113
0.312186
0.343541
0.373437
0.402108
0.429793
0.456701
0.483008
0.508855
0.534349
0.559565
0.584552
0.609328
0.633898
0.658245
0.682344
0.706158
0.729651
0.752785
0.775543
0.797931
0.820028
0.841774
0.863089
0.883954
0.904569
0.925012
0.945206
0.965021
0.98424
1.00257
1.01968
1.03516
1.04856
1.05937
1.0655
1.06828
1.06803
1.06318
1.0539
1.03951
1.01913
0.991463
0.961672
0.932488
0.903994
0.876702
0.850971
0.827099
0.805184
0.785346
0.76756
0.751641
0.736781
0.723447
0.713895
0.706569
0.699954
0.693963
0.688645
0.683985
0.679959
0.676518
0.67358
0.671057
0.668861
0.666912
0.665141
0.663492
0.661919
0.660388
0.65887
0.657347
0.655806
0.654239
0.652642
0.651013
0.649354
0.647669
0.645962
0.644239
0.642504
0.640764
0.639024
0.63729
0.635566
0.633857
0.632166
0.630499
0.628859
0.627248
0.625668
0.624123
0.622612
0.621138
0.619702
0.618305
0.616948
0.615632
0.614356
0.613121
0.611928
0.610776
0.609665
0.608596
0.607567
0.606578
0.60563
0.604721
0.60385
0.603016
0.602217
0.601458
0.600735
0.600049
0.599398
0.598781
0.598199
0.59766
0.597149
0.596675
0.596213
0.595794
0.595392
0.595041
0.594721
0.594413
0.594154
0.593849
0.593775
0.593771
0.593619
0.593638
0.593398
0.593296
0.593215
0.593181
0.593078
0.593031
0.592746
0.592556
0.591766
0.590924
0.588214
0.581647
0.545774
0.110987
0.169076
0.25462
0.297361
0.327509
0.346862
0.35965
0.366658
0.369541
0.369397
0.367401
0.363195
0.357744
0.352958
0.352178
0.356752
0.369798
0.390736
0.416027
0.443015
0.470787
0.500944
0.533996
0.568404
0.60022
0.62519
0.642432
0.655288
0.668154
0.683267
0.701203
0.720988
0.74395
0.770562
0.800334
0.832329
0.865515
0.898976
0.932034
0.964218
0.995231
1.02494
1.05331
1.08042
1.10637
1.13129
1.15532
1.17858
1.2012
1.22328
1.2449
1.26617
1.28718
1.30807
1.32898
1.35019
1.37187
1.39409
1.41668
1.43972
1.46352
1.4881
1.51346
1.53935
1.56542
1.59117
1.61601
1.63918
1.65993
1.6776
1.69108
1.6981
1.70009
1.69686
1.68758
1.67225
1.65173
1.6275
1.60055
1.57198
1.54288
1.51417
1.48657
1.46054
1.43638
1.41421
1.3941
1.37638
1.36201
1.3515
1.3433
1.33589
1.32905
1.3228
1.31712
1.31196
1.30729
1.30303
1.2991
1.29541
1.29188
1.28847
1.28511
1.28177
1.27843
1.27505
1.27164
1.26818
1.26467
1.26111
1.25751
1.25388
1.25022
1.24654
1.24285
1.23915
1.23546
1.23178
1.22812
1.22449
1.22089
1.21732
1.21378
1.21029
1.20684
1.20344
1.20009
1.19678
1.19352
1.1903
1.18713
1.18401
1.18094
1.17791
1.17492
1.17197
1.16907
1.16621
1.16338
1.16059
1.15783
1.15511
1.15242
1.14976
1.14712
1.14451
1.14193
1.13937
1.13683
1.13431
1.1318
1.12932
1.12686
1.1244
1.12197
1.11953
1.11711
1.1147
1.11231
1.10992
1.10754
1.10517
1.1028
1.10048
1.09817
1.09587
1.09359
1.09131
1.08906
1.0868
1.08458
1.08234
1.08015
1.07789
1.07578
1.0734
1.07113
1.06671
1.0581
1.03337
0.179191
0.263057
0.370519
0.41901
0.457909
0.482419
0.501379
0.514878
0.52554
0.534107
0.542029
0.550619
0.56159
0.576422
0.596104
0.621191
0.651868
0.687761
0.728118
0.771888
0.817735
0.863131
0.903539
0.934294
0.953897
0.964916
0.972234
0.980864
0.994447
1.01473
1.04198
1.07549
1.11399
1.15586
1.19928
1.24255
1.28424
1.32333
1.35921
1.39162
1.4206
1.44642
1.46948
1.49024
1.50918
1.52674
1.54334
1.55934
1.57504
1.5907
1.60655
1.62278
1.63957
1.65708
1.67543
1.69476
1.7152
1.73688
1.75993
1.78438
1.81016
1.8371
1.86496
1.89342
1.9221
1.95054
1.97818
2.00432
2.02818
2.04886
2.06557
2.07665
2.08126
2.08021
2.07242
2.05797
2.03765
2.01263
1.98413
1.95356
1.92225
1.89133
1.86166
1.83381
1.80812
1.78476
1.76378
1.74517
1.72887
1.71468
1.70219
1.69099
1.68087
1.67172
1.66344
1.65592
1.64904
1.6427
1.63678
1.6312
1.62588
1.62074
1.61573
1.61081
1.60595
1.60111
1.59628
1.59146
1.58663
1.58179
1.57694
1.57209
1.56724
1.56239
1.55756
1.55275
1.54796
1.5432
1.53848
1.5338
1.52916
1.52457
1.52003
1.51554
1.51111
1.50673
1.50241
1.49814
1.49392
1.48976
1.48565
1.4816
1.47759
1.47364
1.46973
1.46587
1.46205
1.45827
1.45453
1.45082
1.44716
1.44352
1.43992
1.43635
1.4328
1.42928
1.42578
1.4223
1.41884
1.41539
1.41196
1.40855
1.40515
1.40176
1.39838
1.39501
1.39164
1.38829
1.38494
1.3816
1.37827
1.37495
1.37163
1.36833
1.36505
1.36178
1.35852
1.35528
1.35205
1.34884
1.34566
1.3425
1.33939
1.33629
1.33332
1.33023
1.32732
1.32324
1.31668
1.30151
0.228142
0.360659
0.482467
0.53992
0.590092
0.6249
0.655623
0.679959
0.701864
0.721222
0.740374
0.760115
0.780798
0.801781
0.823707
0.848225
0.877109
0.91092
0.948755
0.988401
1.02675
1.06062
1.08811
1.10975
1.12815
1.14676
1.16872
1.1961
1.22979
1.26957
1.31438
1.36256
1.41215
1.46116
1.50788
1.55102
1.58977
1.62384
1.65331
1.67859
1.70023
1.7189
1.73526
1.74991
1.76341
1.77623
1.78874
1.80124
1.81397
1.82708
1.84071
1.85495
1.86987
1.88553
1.90198
1.91926
1.93744
1.95659
1.97671
1.99783
2.01994
2.04299
2.0669
2.09151
2.11664
2.14201
2.16719
2.19167
2.21477
2.23563
2.25323
2.2665
2.2735
2.27489
2.26954
2.25719
2.2383
2.21391
2.18545
2.15455
2.12277
2.09141
2.06141
2.03338
2.00765
1.98435
1.96346
1.94486
1.92831
1.91355
1.90035
1.88849
1.87782
1.86817
1.85943
1.85146
1.84414
1.83734
1.83097
1.82494
1.81916
1.81358
1.80813
1.80278
1.79749
1.79224
1.78701
1.78179
1.77658
1.77136
1.76613
1.76091
1.75569
1.75048
1.74528
1.7401
1.73494
1.72981
1.72471
1.71965
1.71462
1.70963
1.70469
1.6998
1.69495
1.69015
1.68539
1.68068
1.67602
1.67141
1.66684
1.66232
1.65784
1.6534
1.64901
1.64465
1.64033
1.63604
1.63179
1.62757
1.62338
1.61922
1.61508
1.61097
1.60688
1.60281
1.59876
1.59472
1.5907
1.58669
1.58269
1.5787
1.57473
1.57076
1.5668
1.56284
1.55889
1.55495
1.55101
1.54708
1.54316
1.53925
1.53534
1.53145
1.52757
1.52371
1.51988
1.51606
1.51227
1.50852
1.50482
1.50116
1.4976
1.49411
1.49078
1.48747
1.48438
1.48053
1.47532
1.46503
0.282452
0.468788
0.610509
0.681977
0.742606
0.788076
0.82787
0.860761
0.88925
0.913621
0.935704
0.956399
0.976421
0.995978
1.01576
1.03688
1.06032
1.08623
1.11392
1.14226
1.17029
1.19779
1.22545
1.25461
1.28677
1.32317
1.36439
1.41027
1.46
1.51226
1.5654
1.61766
1.66745
1.71352
1.75507
1.79177
1.82367
1.85111
1.87462
1.89482
1.91236
1.92788
1.94194
1.95502
1.96754
1.97981
1.99206
2.00448
2.01716
2.03017
2.04352
2.05721
2.07123
2.08556
2.10019
2.11509
2.1303
2.14583
2.16177
2.17816
2.19505
2.21249
2.23055
2.24933
2.26886
2.28906
2.30975
2.33061
2.35114
2.37057
2.38794
2.40212
2.41129
2.41478
2.41171
2.40126
2.38358
2.35962
2.331
2.29967
2.26743
2.23579
2.20574
2.17792
2.15258
2.12978
2.10941
2.09128
2.07516
2.06079
2.04796
2.03646
2.02611
2.01676
2.00825
2.00045
1.99324
1.98651
1.98017
1.97414
1.96834
1.96272
1.95723
1.95183
1.94649
1.94119
1.93591
1.93063
1.92536
1.92009
1.91482
1.90954
1.90426
1.89899
1.89372
1.88846
1.88321
1.87798
1.87278
1.86759
1.86243
1.8573
1.8522
1.84713
1.84209
1.83709
1.83212
1.82719
1.82228
1.81741
1.81258
1.80777
1.803
1.79825
1.79354
1.78885
1.78419
1.77955
1.77494
1.77035
1.76578
1.76123
1.7567
1.75218
1.74768
1.74318
1.73871
1.73424
1.72977
1.72532
1.72087
1.71643
1.71199
1.70756
1.70312
1.6987
1.69427
1.68985
1.68543
1.68102
1.67661
1.67221
1.66782
1.66344
1.65908
1.65474
1.65042
1.64614
1.64189
1.6377
1.63358
1.62954
1.62563
1.62185
1.61827
1.6148
1.61155
1.60776
1.60317
1.59513
0.331001
0.561006
0.728152
0.812954
0.882957
0.936046
0.981576
1.01888
1.05046
1.07672
1.09909
1.11858
1.13641
1.15346
1.17061
1.18866
1.20823
1.2297
1.25332
1.27939
1.30837
1.34084
1.37739
1.41833
1.46362
1.5128
1.56501
1.61908
1.6737
1.72751
1.77919
1.82766
1.87213
1.91218
1.94769
1.97881
2.00589
2.02938
2.04981
2.06773
2.08368
2.09815
2.11157
2.12432
2.13671
2.14895
2.16122
2.1736
2.18612
2.19877
2.21151
2.22425
2.23693
2.24945
2.26174
2.27374
2.28542
2.29678
2.30789
2.31885
2.3298
2.34089
2.3523
2.36421
2.37687
2.39046
2.40511
2.42081
2.43734
2.4542
2.47057
2.48526
2.49674
2.50293
2.50296
2.49521
2.47931
2.45607
2.42736
2.39553
2.3628
2.33092
2.30102
2.27368
2.2491
2.22723
2.20786
2.19074
2.17559
2.16215
2.15019
2.1395
2.1299
2.12122
2.11331
2.10605
2.09933
2.09303
2.08707
2.08139
2.07591
2.07059
2.06538
2.06024
2.05516
2.05011
2.04508
2.04004
2.03501
2.02997
2.02492
2.01987
2.0148
2.00973
2.00466
1.99959
1.99451
1.98945
1.98438
1.97933
1.97429
1.96926
1.96424
1.95923
1.95425
1.94927
1.94432
1.93938
1.93445
1.92954
1.92465
1.91977
1.9149
1.91005
1.90521
1.90038
1.89557
1.89076
1.88596
1.88118
1.87639
1.87162
1.86685
1.86208
1.85732
1.85255
1.84779
1.84302
1.83826
1.83349
1.82871
1.82394
1.81916
1.81437
1.80958
1.80479
1.8
1.7952
1.7904
1.7856
1.78081
1.77601
1.77123
1.76646
1.7617
1.75697
1.75226
1.7476
1.74299
1.73845
1.73401
1.72968
1.72551
1.72153
1.7178
1.71426
1.71096
1.70728
1.70304
1.69585
0.372215
0.635879
0.824611
0.919734
0.996144
1.05387
1.10247
1.14211
1.17551
1.20341
1.22735
1.24836
1.2676
1.28603
1.30464
1.32427
1.34576
1.36984
1.39718
1.42841
1.46401
1.50416
1.5487
1.59708
1.64846
1.70176
1.75586
1.80965
1.86207
1.91218
1.95923
2.0027
2.04229
2.07792
2.10966
2.13774
2.16249
2.18428
2.20358
2.22084
2.23652
2.25108
2.26491
2.27835
2.29168
2.30509
2.31866
2.33243
2.34633
2.36024
2.374
2.38742
2.40032
2.41248
2.42375
2.43397
2.44304
2.45088
2.45749
2.46299
2.46744
2.47103
2.47407
2.47697
2.48019
2.48424
2.48961
2.49679
2.50599
2.51722
2.53002
2.54336
2.55568
2.56437
2.56742
2.56255
2.5484
2.52546
2.4959
2.46271
2.42872
2.39603
2.36587
2.33881
2.31492
2.29401
2.27576
2.25982
2.24586
2.23359
2.22275
2.2131
2.20447
2.19668
2.18959
2.18307
2.17702
2.17134
2.16596
2.16081
2.15584
2.15099
2.14624
2.14156
2.13691
2.13229
2.12768
2.12308
2.11846
2.11384
2.10921
2.10457
2.09991
2.09524
2.09056
2.08586
2.08116
2.07645
2.07174
2.06701
2.06228
2.05755
2.05282
2.04808
2.04333
2.03859
2.03384
2.02908
2.02432
2.01956
2.0148
2.01002
2.00525
2.00047
1.99568
1.99088
1.98608
1.98127
1.97645
1.97162
1.96678
1.96193
1.95706
1.95219
1.9473
1.9424
1.93748
1.93254
1.92759
1.92263
1.91765
1.91265
1.90764
1.90261
1.89756
1.89251
1.88744
1.88235
1.87726
1.87216
1.86705
1.86194
1.85684
1.85174
1.84665
1.84159
1.83655
1.83157
1.82664
1.82181
1.81708
1.8125
1.80812
1.80397
1.80012
1.7965
1.79315
1.78948
1.78537
1.77882
0.392236
0.680885
0.887231
0.990854
1.07241
1.13409
1.18592
1.22861
1.26517
1.2966
1.32452
1.34996
1.37413
1.39797
1.42239
1.44822
1.47625
1.50715
1.54149
1.57958
1.62147
1.66689
1.7153
1.76594
1.81794
1.87041
1.92248
1.97333
2.02227
2.06869
2.11216
2.15237
2.18913
2.22239
2.25223
2.27883
2.30247
2.32354
2.34247
2.35976
2.3759
2.39139
2.40663
2.42196
2.43761
2.45367
2.47012
2.48684
2.50359
2.5201
2.53603
2.55104
2.56481
2.57702
2.58744
2.59583
2.60208
2.60605
2.60776
2.60742
2.60503
2.60086
2.59525
2.58859
2.58142
2.57443
2.56841
2.56445
2.56308
2.56514
2.57102
2.58026
2.59152
2.60211
2.60842
2.60718
2.59533
2.57261
2.54158
2.5062
2.47015
2.43603
2.40522
2.37819
2.35484
2.33481
2.31765
2.30289
2.29014
2.27906
2.26934
2.26077
2.25312
2.24624
2.23999
2.23424
2.2289
2.22388
2.21911
2.21454
2.21011
2.2058
2.20156
2.19738
2.19324
2.18912
2.18501
2.1809
2.17678
2.17266
2.16853
2.16438
2.16022
2.15604
2.15185
2.14764
2.14341
2.13917
2.13491
2.13063
2.12633
2.12202
2.11768
2.11333
2.10895
2.10456
2.10014
2.0957
2.09124
2.08675
2.08224
2.0777
2.07314
2.06855
2.06394
2.0593
2.05463
2.04993
2.04521
2.04046
2.03567
2.03086
2.02602
2.02115
2.01624
2.0113
2.00634
2.00134
1.9963
1.99124
1.98614
1.98102
1.97586
1.97067
1.96546
1.96022
1.95496
1.94967
1.94436
1.93903
1.93369
1.92833
1.92297
1.91761
1.91226
1.90692
1.90162
1.89637
1.89118
1.88609
1.88113
1.87633
1.87176
1.86744
1.86344
1.85968
1.85618
1.85241
1.84823
1.84189
0.406727
0.709926
0.922767
1.03023
1.11499
1.17999
1.23553
1.2825
1.32405
1.36118
1.39547
1.42788
1.45946
1.49104
1.52341
1.55726
1.5931
1.63133
1.67221
1.7158
1.7619
1.81017
1.8601
1.91111
1.96256
2.0138
2.06421
2.11322
2.16028
2.20495
2.24682
2.28561
2.32113
2.35329
2.38219
2.40801
2.43113
2.45201
2.4712
2.4893
2.50688
2.52447
2.54245
2.56107
2.58041
2.60038
2.62072
2.64108
2.66099
2.67999
2.69759
2.71335
2.72689
2.73789
2.74616
2.75146
2.75376
2.75328
2.7499
2.74375
2.73501
2.72396
2.71094
2.69629
2.68047
2.66403
2.64768
2.63233
2.61905
2.60941
2.60486
2.60607
2.61292
2.62357
2.63364
2.63741
2.62906
2.6069
2.5739
2.53546
2.49655
2.46041
2.42856
2.40132
2.37837
2.35912
2.34295
2.32928
2.31765
2.30765
2.29897
2.29135
2.28459
2.27853
2.27302
2.26795
2.26322
2.25878
2.25454
2.25048
2.24653
2.24269
2.23891
2.23518
2.23149
2.22782
2.22416
2.22052
2.21687
2.21322
2.20957
2.2059
2.20223
2.19854
2.19483
2.19111
2.18738
2.18362
2.17983
2.17603
2.17219
2.16833
2.16444
2.16052
2.15657
2.15258
2.14855
2.14449
2.14039
2.13625
2.13207
2.12785
2.12358
2.11928
2.11492
2.11052
2.10608
2.10159
2.09706
2.09247
2.08784
2.08316
2.07843
2.07365
2.06883
2.06395
2.05903
2.05405
2.04903
2.04396
2.03885
2.03368
2.02848
2.02323
2.01794
2.01261
2.00724
2.00183
1.99639
1.99092
1.98543
1.97991
1.97438
1.96885
1.96331
1.9578
1.95231
1.94687
1.9415
1.93624
1.93111
1.92617
1.92145
1.917
1.91288
1.909
1.90535
1.90146
1.89717
1.8911
0.413482
0.724206
0.936297
1.04488
1.13222
1.20047
1.2602
1.31216
1.35959
1.40333
1.44491
1.48507
1.52472
1.56447
1.60491
1.64646
1.68947
1.73413
1.78047
1.82839
1.87775
1.92833
1.97978
2.03169
2.08358
2.13496
2.18534
2.23418
2.28098
2.32526
2.36662
2.40472
2.43938
2.47058
2.49849
2.52345
2.54599
2.56672
2.58634
2.60552
2.62483
2.64469
2.66532
2.68672
2.70865
2.73073
2.7524
2.77305
2.79208
2.8089
2.82302
2.83411
2.84194
2.84628
2.84739
2.84534
2.84028
2.83252
2.82238
2.81021
2.79637
2.78123
2.76502
2.74806
2.73057
2.71267
2.69444
2.67605
2.658
2.64138
2.62796
2.62048
2.62063
2.62903
2.64264
2.65354
2.65177
2.63169
2.59682
2.55477
2.51241
2.47388
2.4408
2.41326
2.39064
2.37209
2.35681
2.34411
2.33345
2.32438
2.31657
2.30975
2.30371
2.29829
2.29336
2.28881
2.28455
2.28053
2.27669
2.27298
2.26938
2.26587
2.26242
2.25902
2.25565
2.25231
2.249
2.2457
2.24241
2.23912
2.23584
2.23256
2.22927
2.22598
2.22267
2.21936
2.21602
2.21267
2.2093
2.2059
2.20247
2.19901
2.19552
2.19199
2.18842
2.18481
2.18115
2.17745
2.1737
2.16989
2.16604
2.16213
2.15817
2.15415
2.15007
2.14593
2.14173
2.13747
2.13315
2.12876
2.12432
2.11981
2.11523
2.11059
2.10589
2.10112
2.09629
2.0914
2.08644
2.08142
2.07635
2.07121
2.06601
2.06076
2.05545
2.0501
2.04469
2.03923
2.03374
2.0282
2.02263
2.01703
2.01141
2.00578
2.00014
1.99452
1.98893
1.98339
1.97792
1.97256
1.96734
1.9623
1.95749
1.95295
1.94871
1.94471
1.9409
1.9369
1.93254
1.92675
0.412417
0.723692
0.933307
1.04275
1.13275
1.20443
1.26862
1.32576
1.37918
1.42949
1.47813
1.52562
1.57275
1.61988
1.66747
1.71573
1.76487
1.81495
1.86599
1.91794
1.97069
2.02408
2.07786
2.13169
2.1852
2.23791
2.2893
2.3388
2.38587
2.42997
2.47066
2.50766
2.54087
2.57038
2.59655
2.61992
2.64117
2.66105
2.68028
2.69945
2.71897
2.739
2.75943
2.77994
2.79999
2.81893
2.83606
2.85073
2.86239
2.87063
2.87511
2.876
2.8733
2.86725
2.85821
2.84658
2.83285
2.81738
2.80061
2.783
2.76503
2.74717
2.72987
2.71355
2.69859
2.6852
2.67333
2.66264
2.65239
2.64175
2.63052
2.62038
2.6151
2.61925
2.63527
2.65616
2.66534
2.65059
2.61475
2.56882
2.52262
2.48149
2.44716
2.41938
2.39713
2.37929
2.36488
2.35309
2.3433
2.33505
2.32798
2.32182
2.31636
2.31144
2.30694
2.30275
2.29882
2.29507
2.29147
2.28798
2.28458
2.28126
2.27799
2.27477
2.27159
2.26844
2.26532
2.26223
2.25915
2.25609
2.25304
2.25001
2.24697
2.24394
2.24091
2.23787
2.23483
2.23177
2.22869
2.22559
2.22246
2.21931
2.21612
2.21289
2.20962
2.20631
2.20296
2.19955
2.19608
2.19257
2.18899
2.18535
2.18164
2.17788
2.17404
2.17014
2.16616
2.16212
2.158
2.15381
2.14955
2.14521
2.1408
2.13631
2.13175
2.12711
2.1224
2.11761
2.11275
2.10782
2.10281
2.09774
2.0926
2.08739
2.08212
2.07679
2.07141
2.06596
2.06047
2.05493
2.04935
2.04374
2.03811
2.03245
2.0268
2.02115
2.01553
2.00996
2.00446
1.99906
1.99381
1.98873
1.98387
1.97926
1.97493
1.97081
1.96685
1.96274
1.95832
1.95284
0.407041
0.714755
0.920807
1.03106
1.12365
1.19842
1.26667
1.32857
1.38749
1.4437
1.4986
1.55251
1.6061
1.65956
1.71324
1.76724
1.82171
1.87668
1.93218
1.98821
2.04469
2.10142
2.15811
2.21446
2.27005
2.32437
2.37682
2.42677
2.47359
2.51673
2.5558
2.59061
2.6212
2.64787
2.67115
2.69176
2.71048
2.72806
2.74513
2.76212
2.77917
2.79619
2.81282
2.82854
2.84273
2.85476
2.864
2.87003
2.87261
2.87167
2.86731
2.85954
2.8486
2.83491
2.81889
2.80097
2.78154
2.76107
2.73993
2.71849
2.69709
2.67613
2.65605
2.6373
2.62043
2.60607
2.59491
2.58752
2.58404
2.58399
2.58565
2.58674
2.58699
2.59085
2.60817
2.64149
2.66829
2.66417
2.62939
2.57968
2.52945
2.48573
2.45029
2.42244
2.4007
2.38366
2.37013
2.35922
2.35025
2.34274
2.33632
2.33072
2.32573
2.32119
2.317
2.31307
2.30934
2.30575
2.30227
2.29888
2.29556
2.2923
2.28909
2.28592
2.28279
2.2797
2.27664
2.27361
2.27061
2.26764
2.26468
2.26174
2.25882
2.25591
2.25301
2.2501
2.2472
2.24429
2.24137
2.23843
2.23548
2.2325
2.22949
2.22644
2.22336
2.22024
2.21707
2.21384
2.21057
2.20724
2.20385
2.20039
2.19687
2.19328
2.18962
2.18589
2.18208
2.1782
2.17424
2.1702
2.16609
2.16189
2.15761
2.15326
2.14882
2.1443
2.13969
2.13501
2.13025
2.12541
2.1205
2.11551
2.11044
2.10531
2.1001
2.09484
2.08951
2.08412
2.07868
2.07318
2.06765
2.06208
2.05648
2.05087
2.04525
2.03963
2.03404
2.02849
2.02301
2.01763
2.01237
2.00728
2.00239
1.99772
1.9933
1.98906
1.98496
1.98073
1.97627
1.97101
0.39634
0.699457
0.90159
1.0127
1.10778
1.18567
1.25786
1.32398
1.3876
1.44888
1.50915
1.56849
1.62755
1.68639
1.7453
1.80432
1.86356
1.92306
1.98285
2.0429
2.10309
2.16318
2.22286
2.28172
2.3392
2.39472
2.44762
2.49717
2.54274
2.58385
2.62019
2.65172
2.67866
2.70149
2.72092
2.73778
2.75289
2.76697
2.78052
2.79378
2.80676
2.81922
2.83077
2.84092
2.84916
2.85501
2.85814
2.85813
2.85481
2.84826
2.83864
2.82636
2.81179
2.79525
2.77705
2.75748
2.7368
2.71524
2.69299
2.67022
2.64712
2.62391
2.60088
2.57838
2.5569
2.53707
2.51978
2.5062
2.49765
2.49547
2.50007
2.51078
2.52527
2.5397
2.56114
2.60761
2.65949
2.67292
2.64216
2.58904
2.53474
2.48861
2.45237
2.42473
2.40373
2.38762
2.37506
2.36506
2.35692
2.35012
2.34431
2.33922
2.33464
2.33044
2.3265
2.32276
2.31915
2.31565
2.31223
2.30886
2.30555
2.30228
2.29905
2.29585
2.29269
2.28957
2.28648
2.28342
2.28039
2.27739
2.27442
2.27148
2.26855
2.26564
2.26275
2.25986
2.25698
2.2541
2.25122
2.24832
2.24541
2.24249
2.23954
2.23656
2.23354
2.23049
2.2274
2.22426
2.22107
2.21783
2.21452
2.21116
2.20773
2.20424
2.20068
2.19704
2.19334
2.18955
2.18569
2.18175
2.17773
2.17363
2.16945
2.16518
2.16083
2.15639
2.15188
2.14728
2.1426
2.13784
2.133
2.12808
2.12309
2.11803
2.1129
2.1077
2.10244
2.09711
2.09174
2.08631
2.08084
2.07534
2.0698
2.06425
2.05869
2.05313
2.04759
2.04209
2.03665
2.03129
2.02605
2.02095
2.01603
2.01131
2.00679
2.00243
1.99819
1.99386
1.98934
1.98425
0.383533
0.68109
0.878854
0.99058
1.08773
1.16831
1.24387
1.31371
1.38147
1.44698
1.51173
1.57572
1.63945
1.70294
1.76641
1.82986
1.89341
1.95705
2.02078
2.08453
2.14811
2.21121
2.27343
2.33425
2.39305
2.44911
2.50164
2.5499
2.59336
2.63162
2.66451
2.69213
2.71489
2.73345
2.74868
2.76148
2.7727
2.78297
2.79271
2.80213
2.8112
2.81968
2.82725
2.83333
2.83738
2.83894
2.83771
2.8336
2.82666
2.81698
2.80477
2.79027
2.77373
2.75538
2.73545
2.71415
2.69169
2.66824
2.644
2.61915
2.59393
2.5686
2.54347
2.51894
2.49543
2.47335
2.45314
2.43533
2.42071
2.41101
2.40874
2.41604
2.43547
2.46257
2.49483
2.55666
2.63953
2.67777
2.65365
2.59743
2.5392
2.49102
2.45444
2.42739
2.40737
2.39234
2.38082
2.37177
2.36445
2.35836
2.35314
2.34853
2.34433
2.34041
2.33669
2.3331
2.32959
2.32614
2.32274
2.31936
2.31601
2.31269
2.3094
2.30614
2.3029
2.2997
2.29653
2.29339
2.29028
2.2872
2.28414
2.28112
2.27811
2.27513
2.27216
2.2692
2.26625
2.26331
2.26036
2.25741
2.25446
2.25148
2.24849
2.24547
2.24242
2.23934
2.23623
2.23307
2.22986
2.22661
2.2233
2.21994
2.21651
2.21302
2.20947
2.20585
2.20215
2.19839
2.19455
2.19063
2.18664
2.18257
2.17841
2.17418
2.16986
2.16546
2.16098
2.15642
2.15178
2.14706
2.14226
2.13739
2.13244
2.12742
2.12234
2.11719
2.11197
2.1067
2.10138
2.09601
2.0906
2.08515
2.07967
2.07417
2.06866
2.06315
2.05766
2.05219
2.04678
2.04145
2.03621
2.03109
2.02613
2.02133
2.0167
2.0122
2.00781
2.00335
1.99876
1.99378
0.36973
0.661107
0.854067
0.966069
1.06474
1.14759
1.22598
1.29898
1.37024
1.43954
1.50819
1.57612
1.64393
1.71146
1.77895
1.8463
1.91367
1.98093
2.0481
2.11499
2.18139
2.24687
2.31098
2.37307
2.43244
2.48827
2.53977
2.58621
2.62712
2.6622
2.69144
2.71514
2.73386
2.74841
2.75975
2.76886
2.77661
2.78368
2.79048
2.79706
2.80325
2.80871
2.81304
2.81581
2.81664
2.81519
2.81115
2.80439
2.79497
2.78296
2.76854
2.75186
2.73314
2.71256
2.69032
2.66661
2.64161
2.61546
2.58833
2.56036
2.53177
2.5029
2.47416
2.44606
2.4192
2.39422
2.37182
2.35272
2.33743
2.32656
2.32047
2.32135
2.33732
2.36967
2.41297
2.49668
2.61711
2.68275
2.66517
2.60545
2.5434
2.49381
2.45749
2.43147
2.41271
2.39891
2.38851
2.38043
2.37394
2.36855
2.36389
2.35972
2.35587
2.35222
2.34867
2.3452
2.34175
2.33833
2.33491
2.3315
2.3281
2.32471
2.32134
2.31799
2.31467
2.31137
2.3081
2.30486
2.30164
2.29846
2.2953
2.29217
2.28906
2.28596
2.28289
2.27982
2.27676
2.27371
2.27066
2.2676
2.26454
2.26146
2.25837
2.25525
2.2521
2.24893
2.24572
2.24247
2.23918
2.23585
2.23246
2.22902
2.22553
2.22197
2.21835
2.21467
2.21092
2.20711
2.20322
2.19926
2.19522
2.19111
2.18692
2.18265
2.17831
2.17388
2.16938
2.1648
2.16015
2.15541
2.15061
2.14573
2.14078
2.13577
2.13068
2.12554
2.12034
2.11508
2.10977
2.10441
2.09902
2.09359
2.08813
2.08265
2.07716
2.07167
2.0662
2.06074
2.05533
2.04998
2.04472
2.03955
2.03451
2.0296
2.02483
2.02018
2.01561
2.01101
2.00632
2.0014
0.3529
0.6369
0.826061
0.938299
1.03829
1.12313
1.20409
1.27998
1.35449
1.42717
1.49953
1.57109
1.6426
1.71372
1.7849
1.85576
1.92655
1.99695
2.06704
2.13648
2.20506
2.27226
2.33756
2.40023
2.45952
2.51459
2.56465
2.60908
2.64742
2.67947
2.70536
2.72553
2.74066
2.75171
2.75983
2.7661
2.77127
2.77587
2.78014
2.78415
2.78775
2.79066
2.79249
2.7928
2.79121
2.78729
2.78083
2.77178
2.76019
2.74614
2.72979
2.7113
2.69085
2.66863
2.64479
2.61947
2.59281
2.5649
2.53588
2.50595
2.47533
2.44434
2.41331
2.38261
2.35272
2.32412
2.29741
2.27336
2.253
2.23777
2.22874
2.2283
2.24274
2.27717
2.32784
2.44305
2.60528
2.69406
2.67819
2.61297
2.54743
2.49742
2.46225
2.43783
2.42066
2.40828
2.39909
2.39203
2.38638
2.38166
2.37754
2.37377
2.37021
2.36675
2.36332
2.3599
2.35645
2.35299
2.3495
2.346
2.3425
2.339
2.33551
2.33204
2.32859
2.32517
2.32177
2.3184
2.31506
2.31175
2.30847
2.30521
2.30197
2.29875
2.29555
2.29236
2.28917
2.28599
2.28281
2.27962
2.27642
2.27321
2.26999
2.26674
2.26346
2.26016
2.25682
2.25344
2.25002
2.24656
2.24305
2.23949
2.23587
2.2322
2.22846
2.22467
2.22081
2.21688
2.21289
2.20882
2.20469
2.20048
2.1962
2.19184
2.18741
2.1829
2.17832
2.17366
2.16893
2.16413
2.15926
2.15432
2.14931
2.14424
2.1391
2.13391
2.12866
2.12336
2.11801
2.11262
2.10719
2.10172
2.09623
2.09072
2.0852
2.07968
2.07417
2.06867
2.06321
2.0578
2.05245
2.04718
2.04202
2.03696
2.03201
2.02715
2.02237
2.01758
2.01275
2.00781
0.333702
0.609513
0.796497
0.908895
1.01022
1.09673
1.18006
1.25842
1.33603
1.41164
1.48734
1.56205
1.63695
1.71121
1.78549
1.85932
1.93289
2.00584
2.07817
2.1495
2.21957
2.28782
2.35368
2.41642
2.47526
2.52939
2.57807
2.62072
2.65696
2.68667
2.71001
2.72745
2.73986
2.74839
2.75415
2.75813
2.76114
2.76371
2.76604
2.76809
2.76969
2.77056
2.77034
2.76861
2.76485
2.75883
2.75042
2.73961
2.72643
2.711
2.69346
2.67398
2.65271
2.6298
2.60538
2.5796
2.5526
2.52453
2.49555
2.46585
2.43569
2.40543
2.37548
2.34632
2.31824
2.29164
2.26668
2.24328
2.22149
2.20204
2.18625
2.18029
2.19425
2.22803
2.28031
2.4219
2.62164
2.7179
2.69189
2.61772
2.55024
2.5018
2.4691
2.44705
2.43186
2.42109
2.41321
2.40719
2.40238
2.3983
2.39465
2.39122
2.38788
2.38453
2.38113
2.37766
2.37413
2.37053
2.36689
2.36322
2.35953
2.35585
2.35217
2.34851
2.34487
2.34126
2.33769
2.33415
2.33064
2.32716
2.32372
2.3203
2.3169
2.31353
2.31017
2.30683
2.3035
2.30017
2.29684
2.29351
2.29017
2.28681
2.28344
2.28005
2.27663
2.27318
2.2697
2.26618
2.26262
2.25902
2.25537
2.25167
2.24791
2.2441
2.24023
2.2363
2.23231
2.22825
2.22412
2.21993
2.21566
2.21133
2.20692
2.20244
2.19789
2.19327
2.18857
2.1838
2.17896
2.17405
2.16908
2.16403
2.15892
2.15375
2.14852
2.14323
2.1379
2.13251
2.12707
2.1216
2.11609
2.11055
2.10498
2.09939
2.09379
2.08819
2.0826
2.07701
2.07146
2.06594
2.06047
2.05507
2.04975
2.04451
2.03935
2.03427
2.02925
2.02425
2.01924
2.0142
0.311266
0.580255
0.766713
0.879946
0.98242
1.07066
1.15619
1.23682
1.31717
1.3954
1.47391
1.55139
1.62904
1.70601
1.78287
1.85905
1.93478
2.00972
2.08378
2.15656
2.22773
2.29673
2.36297
2.42573
2.48424
2.53775
2.58556
2.62713
2.66211
2.69036
2.71206
2.72777
2.73843
2.74521
2.74921
2.75146
2.75281
2.75379
2.75452
2.75495
2.75496
2.75433
2.75255
2.74918
2.74391
2.73654
2.72699
2.71525
2.70138