/*--------------------------------*- C++ -*----------------------------------*\
| =========                 |                                                 |
| \\      /  F ield         | OpenFOAM: The Open Source CFD Toolbox           |
|  \\    /   O peration     | Version:  v1906                                 |
|   \\  /    A nd           | Web:      www.OpenFOAM.com                      |
|    \\/     M anipulation  |                                                 |
\*---------------------------------------------------------------------------*/
FoamFile
{
    version     2.0;
    format      ascii;
    class       volScalarField;
    location    "500";
    object      nut;
}
// * * * * * * * * * * * * * * * * * * * * * * * * * * * * * * * * * * * * * //

dimensions      [0 2 -1 0 0 0 0];


internalField   nonuniform List<scalar> 
12225
(
5.38048e-05
5.34215e-05
5.26392e-05
5.17768e-05
5.09442e-05
5.01776e-05
4.94826e-05
4.88638e-05
4.82991e-05
4.78076e-05
4.73396e-05
4.69585e-05
4.66484e-05
4.63956e-05
4.61621e-05
4.59947e-05
4.57919e-05
4.57202e-05
0.000743658
0.000274823
0.000208909
0.000186803
0.000173786
0.000168865
0.000164668
0.000161018
0.000158093
0.000155524
0.000153587
0.000151625
0.000150356
0.000148547
0.000148025
0.000146234
0.000146777
0.00014487
0.00337131
0.000965676
0.000668408
0.000562221
0.000503838
0.000471975
0.000448834
0.000431552
0.000418655
0.000408187
0.000399524
0.000392103
0.00038605
0.000380274
0.000376158
0.000371112
0.00036938
0.000364466
0.00784747
0.00229236
0.00147323
0.00117571
0.00101856
0.000926422
0.000864544
0.000819759
0.000786874
0.000761042
0.000739944
0.000723147
0.000709401
0.000697506
0.000687953
0.000678605
0.000673333
0.000663163
0.0127627
0.00432668
0.00270971
0.00210431
0.00178852
0.00159942
0.00147336
0.00138292
0.00131558
0.00126339
0.00122142
0.00118724
0.00115945
0.00113556
0.00111537
0.00109757
0.00108479
0.00106665
0.0171138
0.00693191
0.00436911
0.00334584
0.00280523
0.00247632
0.00225599
0.00209799
0.0019797
0.00188802
0.00181469
0.00175482
0.00170549
0.00166385
0.00162844
0.00159776
0.00157218
0.00154419
0.0205945
0.00988381
0.00641789
0.00491179
0.0040942
0.00358845
0.00324676
0.00300085
0.00281592
0.0026721
0.00255704
0.00246298
0.00238498
0.00231923
0.00226319
0.0022148
0.00217368
0.00213138
0.0232405
0.0129303
0.00876051
0.00676547
0.00563795
0.00492463
0.00443619
0.00408182
0.00381363
0.00360401
0.00343578
0.00329791
0.0031831
0.00308613
0.00300327
0.00293169
0.00286966
0.00280878
0.0252061
0.0158683
0.0112822
0.00885725
0.00741803
0.00648203
0.00583015
0.00535204
0.00498736
0.00470057
0.0044694
0.00427928
0.00412041
0.00398584
0.00387055
0.00377076
0.00368349
0.003601
0.0266539
0.0185545
0.0138524
0.011107
0.00938558
0.00822867
0.0074058
0.00679365
0.0063219
0.00594797
0.00564473
0.00539414
0.00518385
0.00500508
0.0048514
0.00471797
0.00460052
0.00449225
0.0277219
0.0209142
0.0163554
0.0134288
0.0114838
0.0101278
0.00913959
0.0083919
0.00780858
0.00734188
0.00696065
0.00664379
0.00637661
0.00614856
0.00595182
0.00578043
0.0056292
0.00549173
0.0284465
0.022741
0.0184771
0.0155114
0.0134323
0.0119301
0.0108079
0.00994379
0.00926072
0.0087087
0.00825421
0.00787407
0.00755185
0.00727561
0.00703639
0.0068273
0.00664236
0.00647561
0.0290073
0.0243024
0.0204367
0.0175378
0.0153936
0.0137846
0.0125499
0.0115802
0.0108023
0.0101665
0.00963824
0.00919325
0.00881386
0.00848702
0.00820283
0.00795357
0.00773277
0.00753438
0.0294887
0.025755
0.0223972
0.0196759
0.0175403
0.0158662
0.0145392
0.0134716
0.0125991
0.0118756
0.0112676
0.0107508
0.0103069
0.00992203
0.00958571
0.00928951
0.00902649
0.00879068
0.0298836
0.027028
0.0242385
0.0217971
0.0197573
0.0180787
0.0166978
0.0155544
0.014599
0.0137928
0.0131059
0.0125154
0.0120036
0.0115566
0.0111636
0.0108157
0.0105059
0.010228
0.0301875
0.02806
0.0258263
0.0237249
0.0218561
0.0202381
0.0188523
0.0176678
0.0166529
0.0157794
0.0150233
0.0143649
0.0137882
0.0132803
0.0128306
0.0124305
0.0120728
0.0117515
0.0303977
0.0288003
0.0270239
0.0252471
0.0235764
0.0220603
0.0207111
0.0195218
0.0184775
0.0175607
0.0167545
0.0160435
0.0154143
0.0148554
0.014357
0.0139112
0.013511
0.013151
0.0305044
0.0291848
0.027668
0.0260934
0.0245605
0.023127
0.0218189
0.0206422
0.0195919
0.0186575
0.017827
0.0170882
0.0164297
0.0158414
0.0153144
0.014841
0.0144146
0.0140292
0.0304716
0.0290673
0.0274723
0.0258376
0.0242643
0.0228068
0.0214868
0.0203063
0.0192572
0.0183273
0.0175029
0.0167711
0.0161199
0.0155388
0.015019
0.0145527
0.0141336
0.0137565
0.0302312
0.0282144
0.0260768
0.0240432
0.0222149
0.0206166
0.0192363
0.0180483
0.0170245
0.0161389
0.0153691
0.0146963
0.0141052
0.0135832
0.01312
0.0127074
0.0123388
0.0120089
0.0298208
0.0268286
0.0239505
0.021464
0.0194066
0.0177251
0.0163485
0.0152125
0.0142653
0.0134672
0.0127878
0.0122038
0.0116975
0.0112552
0.0108662
0.0105222
0.0102169
0.00994644
0.0291398
0.0247094
0.0209857
0.0181333
0.0159872
0.0143556
0.0130907
0.0120893
0.0112806
0.010616
0.0100614
0.00959213
0.00919054
0.00884332
0.00854044
0.00827433
0.00803934
0.00783197
0.0280362
0.0217168
0.0172859
0.0143388
0.0123321
0.0109087
0.00985786
0.00905499
0.00842371
0.00791535
0.00749777
0.00714896
0.00685343
0.00659996
0.00638018
0.00618789
0.00601841
0.00587065
0.0262546
0.0178172
0.0131464
0.0104901
0.00884801
0.00775203
0.00697472
0.00639747
0.00595298
0.00560067
0.00531483
0.00507845
0.00487981
0.00471064
0.0045648
0.0044378
0.00432603
0.00422866
0.0233816
0.0132062
0.00902291
0.00699389
0.00583866
0.00510195
0.00459355
0.00422336
0.00394225
0.00372169
0.00354419
0.00339834
0.00327644
0.00317312
0.00308423
0.00300697
0.00293811
0.00287877
0.0189047
0.00845576
0.00545027
0.00418511
0.00350662
0.00308646
0.00280124
0.00259689
0.00244317
0.00232327
0.00222728
0.00214872
0.0020833
0.0020281
0.00198056
0.00193959
0.00190309
0.00187211
0.0125845
0.00438903
0.00278868
0.00217258
0.0018505
0.00165244
0.00151853
0.00142456
0.00135384
0.00129865
0.00125469
0.00121876
0.001189
0.00116402
0.00114203
0.0011235
0.00110611
0.00109144
0.00562613
0.00171152
0.00115556
0.000946041
0.000837053
0.000769117
0.000723431
0.000693304
0.000668944
0.000649534
0.000634052
0.000621075
0.000609875
0.000600378
0.000591754
0.00058459
0.000577418
0.000572507
0.00117126
0.000435655
0.000327305
0.00028483
0.000262935
0.000248791
0.00024145
0.000237251
0.000233297
0.000229706
0.000226492
0.0002237
0.00022116
0.000219014
0.000216957
0.000215309
0.000213539
0.000211915
7.08579e-05
7.01307e-05
6.9115e-05
6.81145e-05
6.717e-05
6.63015e-05
6.55064e-05
6.47827e-05
6.41259e-05
6.35292e-05
6.2986e-05
6.24896e-05
6.20358e-05
6.16179e-05
6.12357e-05
6.08797e-05
6.05555e-05
6.02474e-05
1.29936e-05
3.54588e-05
4.33573e-05
4.79365e-05
5.11952e-05
5.34532e-05
5.50393e-05
5.60549e-05
5.66224e-05
5.67728e-05
5.66693e-05
5.6354e-05
5.56924e-05
5.46825e-05
5.32652e-05
5.15131e-05
4.93016e-05
4.65978e-05
4.35346e-05
3.96272e-05
3.63218e-05
3.44754e-05
3.43108e-05
3.47363e-05
3.52959e-05
3.52371e-05
3.46402e-05
3.42507e-05
3.56931e-05
3.86414e-05
4.3041e-05
4.918e-05
5.48884e-05
5.9772e-05
6.40785e-05
6.7955e-05
7.14411e-05
7.45969e-05
7.74887e-05
8.0169e-05
8.26782e-05
8.50492e-05
8.73068e-05
8.94699e-05
9.15526e-05
9.35649e-05
9.55136e-05
9.74034e-05
9.92367e-05
0.000101015
0.000102739
0.000104407
0.00010602
0.000107579
0.000109085
0.000110544
0.000111959
0.000113324
0.000114639
0.000115912
0.000117157
0.000118373
0.000119554
0.000120691
0.000121768
0.000122769
0.00012367
0.000124441
0.000125125
0.000125479
0.000125614
0.000125668
0.000125366
0.000124847
0.000124036
0.000122872
0.000121313
0.000119333
0.000117421
0.000115499
0.000113618
0.000111805
0.000110084
0.000108472
0.00010698
0.000105615
0.000104379
0.000103279
0.000102123
0.000101252
0.000100611
0.000100036
9.95016e-05
9.90141e-05
9.8573e-05
9.81774e-05
9.78247e-05
9.75099e-05
9.72267e-05
9.69685e-05
9.67292e-05
9.65036e-05
9.62871e-05
9.60762e-05
9.58681e-05
9.56607e-05
9.54523e-05
9.52419e-05
9.50288e-05
9.48127e-05
9.45934e-05
9.4371e-05
9.41457e-05
9.3918e-05
9.36881e-05
9.34565e-05
9.32236e-05
9.29898e-05
9.27555e-05
9.25211e-05
9.22869e-05
9.20533e-05
9.18206e-05
9.1589e-05
9.13587e-05
9.11299e-05
9.09029e-05
9.06776e-05
9.04542e-05
9.02328e-05
9.00135e-05
8.97963e-05
8.95812e-05
8.93684e-05
8.91578e-05
8.89494e-05
8.87433e-05
8.85393e-05
8.83376e-05
8.8138e-05
8.79406e-05
8.77453e-05
8.7552e-05
8.73607e-05
8.71712e-05
8.69834e-05
8.67974e-05
8.66134e-05
8.64311e-05
8.62506e-05
8.60716e-05
8.58938e-05
8.57192e-05
8.55436e-05
8.53736e-05
8.51985e-05
8.50314e-05
8.48579e-05
8.4693e-05
8.45245e-05
8.43607e-05
8.41961e-05
8.40269e-05
8.38731e-05
8.37238e-05
8.35637e-05
8.34153e-05
8.32418e-05
8.30788e-05
8.29195e-05
8.27626e-05
8.25996e-05
8.24395e-05
8.22616e-05
8.20889e-05
8.18734e-05
8.16528e-05
8.13029e-05
8.06844e-05
7.79981e-05
1.96179e-05
6.15404e-05
0.000146459
0.000214222
0.000261834
0.000290575
0.000307138
0.000314393
0.000317015
0.000317559
0.000317462
0.000316424
0.00031412
0.00031234
0.000314968
0.000317478
0.000326472
0.000349341
0.000380442
0.000406833
0.000421862
0.000427692
0.000429067
0.000430514
0.000434547
0.000441247
0.000449112
0.000456567
0.000462843
0.000467743
0.000471103
0.000472359
0.000475694
0.000482318
0.000491795
0.00050318
0.000516921
0.000531077
0.000544912
0.000558023
0.000570239
0.000581687
0.000592419
0.000602529
0.000612128
0.000621329
0.000630221
0.000638864
0.000647274
0.000655416
0.000663188
0.000670404
0.000676744
0.000681719
0.000684552
0.000686171
0.000687831
0.000689216
0.000689423
0.000688844
0.000689709
0.000692368
0.000697059
0.000703796
0.000712471
0.000722911
0.000734943
0.000748126
0.000762936
0.000778092
0.000793313
0.000806579
0.000819244
0.000832417
0.000845468
0.000857918
0.000869308
0.000877518
0.000882984
0.000885877
0.000886615
0.000885624
0.000883347
0.000880138
0.000876299
0.000872076
0.000867833
0.000864268
0.000862617
0.000864801
0.000869057
0.000872757
0.000875703
0.000878158
0.000880241
0.000882077
0.000883748
0.00088528
0.000886677
0.00088793
0.000889031
0.000889975
0.00089076
0.000891392
0.000891878
0.000892229
0.000892455
0.000892569
0.000892582
0.000892507
0.000892356
0.000892139
0.000891866
0.000891546
0.000891186
0.000890792
0.000890369
0.000889921
0.00088945
0.000888958
0.000888446
0.000887913
0.00088736
0.000886787
0.000886193
0.000885576
0.000884932
0.00088426
0.000883559
0.000882824
0.000882055
0.000881248
0.000880402
0.000879514
0.000878582
0.000877604
0.000876577
0.000875501
0.000874374
0.000873194
0.000871961
0.000870674
0.000869325
0.00086791
0.000866432
0.000864893
0.000863292
0.000861631
0.000859908
0.000858125
0.000856279
0.000854386
0.00085251
0.00085042
0.00084844
0.000846069
0.000844007
0.000841497
0.000839368
0.000836815
0.000834383
0.000831692
0.000829062
0.000826405
0.000823694
0.000821019
0.000818298
0.000815595
0.000812878
0.000810154
0.000807458
0.000804764
0.000802197
0.000799639
0.000797428
0.000795082
0.00079287
0.000784427
0.000764623
0.000725174
2.49812e-05
9.41819e-05
0.000217325
0.000311148
0.000387988
0.000443562
0.000487367
0.000519422
0.00054825
0.000575079
0.00060151
0.000626769
0.000650704
0.000671751
0.000685993
0.000692878
0.000692602
0.000686022
0.00067916
0.000677821
0.000682383
0.000692865
0.000709525
0.000733159
0.000759057
0.000785538
0.000811988
0.000836924
0.000863088
0.000889727
0.00091662
0.000944634
0.000974176
0.00100498
0.00103636
0.00106756
0.00109678
0.00112411
0.00114949
0.00117318
0.00119477
0.00121422
0.00123179
0.00124775
0.00126235
0.0012758
0.00128828
0.00129989
0.00131072
0.00132079
0.00133007
0.00133855
0.00134622
0.00135317
0.00135977
0.00136674
0.00137477
0.00138422
0.00139559
0.00140958
0.00142678
0.00144731
0.00147144
0.00149899
0.0015298
0.00156362
0.00160121
0.00164126
0.00168222
0.0017235
0.00176654
0.00180977
0.00185257
0.00189803
0.0019439
0.00198822
0.00202891
0.00206395
0.00209317
0.00211623
0.00213333
0.002145
0.00215201
0.00215521
0.00215548
0.0021536
0.00215031
0.00214607
0.00214126
0.00213661
0.00213201
0.00212739
0.00212306
0.00211924
0.00211602
0.0021134
0.00211132
0.00210966
0.00210831
0.00210717
0.00210616
0.00210521
0.00210425
0.00210325
0.00210218
0.00210101
0.00209975
0.00209837
0.0020969
0.00209532
0.00209365
0.0020919
0.00209007
0.00208817
0.00208621
0.00208421
0.00208216
0.00208007
0.00207794
0.00207578
0.00207359
0.00207136
0.00206911
0.00206681
0.00206448
0.00206211
0.0020597
0.00205724
0.00205472
0.00205215
0.00204951
0.00204681
0.00204404
0.00204119
0.00203826
0.00203525
0.00203214
0.00202895
0.00202566
0.00202227
0.00201879
0.0020152
0.0020115
0.00200769
0.00200376
0.00199972
0.00199556
0.00199129
0.0019869
0.00198239
0.00197778
0.00197306
0.00196825
0.00196328
0.00195818
0.00195291
0.00194758
0.0019421
0.00193657
0.00193086
0.00192502
0.00191905
0.00191303
0.00190694
0.00190078
0.00189459
0.00188834
0.00188206
0.00187574
0.0018694
0.00186305
0.00185669
0.0018504
0.00184406
0.0018378
0.00183033
0.00182168
0.00180682
0.00177834
0.00171185
2.81876e-05
0.000132608
0.000287355
0.000397191
0.000505101
0.000582643
0.000656723
0.000715326
0.000771176
0.000818618
0.000861413
0.000895993
0.000917932
0.000930314
0.000935513
0.000935732
0.000933548
0.000932242
0.000935163
0.000944863
0.000962831
0.00098827
0.00102041
0.0010561
0.00109753
0.00114206
0.0011886
0.00123603
0.00128271
0.00132733
0.0013703
0.00141242
0.0014539
0.00149456
0.00153399
0.00157173
0.00160742
0.00164085
0.00167194
0.00170053
0.00172702
0.00175139
0.00177388
0.0017947
0.00181408
0.00183223
0.00184931
0.00186545
0.00188074
0.00189524
0.001909
0.00192201
0.00193426
0.00194563
0.00195585
0.00196563
0.00197811
0.00199436
0.00201511
0.00204077
0.0020718
0.00210854
0.00215196
0.00220134
0.00225638
0.00231722
0.0023833
0.00245296
0.00252391
0.00259198
0.00266233
0.00273625
0.00281092
0.00288977
0.00296974
0.00304773
0.00312083
0.00318652
0.00324319
0.00328973
0.00332591
0.00335219
0.00336961
0.00337951
0.00338333
0.0033823
0.00337727
0.00336816
0.00335522
0.0033415
0.00332831
0.00331634
0.00330583
0.00329682
0.0032893
0.00328312
0.00327807
0.00327391
0.00327042
0.00326741
0.00326474
0.00326226
0.00325986
0.00325748
0.00325503
0.00325249
0.00324982
0.00324702
0.00324407
0.00324097
0.00323774
0.00323439
0.00323092
0.00322735
0.0032237
0.00321997
0.00321618
0.00321233
0.00320843
0.00320449
0.0032005
0.00319647
0.00319239
0.00318827
0.0031841
0.00317988
0.00317561
0.00317127
0.00316687
0.0031624
0.00315784
0.0031532
0.00314847
0.00314364
0.0031387
0.00313365
0.00312849
0.0031232
0.00311779
0.00311226
0.00310659
0.00310079
0.00309485
0.00308876
0.00308252
0.00307613
0.00306958
0.00306289
0.00305605
0.00304905
0.00304191
0.00303462
0.00302718
0.00301957
0.00301179
0.00300386
0.00299578
0.00298757
0.00297922
0.00297071
0.00296204
0.00295326
0.00294439
0.00293545
0.00292642
0.00291735
0.00290822
0.00289905
0.00288986
0.00288066
0.0028715
0.00286234
0.00285333
0.00284421
0.00283499
0.00282372
0.00281158
0.00279308
0.00276101
0.00268586
3.13623e-05
0.000172008
0.00036678
0.000516487
0.000653067
0.000764558
0.000861159
0.000941558
0.00100854
0.00106372
0.00110737
0.00114049
0.00116444
0.00118121
0.00119284
0.00120148
0.00120954
0.00121961
0.00123408
0.0012547
0.00128233
0.00131813
0.00136194
0.00141278
0.00146612
0.00152138
0.00157867
0.00163556
0.00169068
0.00174218
0.00179113
0.00183843
0.00188436
0.00192887
0.00197178
0.00201283
0.00205184
0.00208868
0.00212331
0.00215578
0.00218617
0.00221486
0.00224188
0.00226737
0.00229155
0.00231463
0.0023368
0.00235822
0.00237904
0.00239941
0.00241946
0.00243936
0.0024593
0.00247957
0.0025007
0.00252344
0.00254855
0.00257695
0.00261038
0.00264865
0.00269233
0.00274191
0.00279763
0.00285951
0.00292791
0.00300288
0.00308383
0.00316949
0.00325823
0.00334833
0.00344304
0.00354386
0.00364881
0.00375875
0.00387221
0.00398523
0.00409413
0.0041952
0.00428512
0.0043613
0.00442241
0.00446837
0.00450026
0.00451987
0.00452935
0.00453074
0.00452582
0.0045163
0.00450422
0.00449162
0.00447961
0.00446874
0.00445925
0.00445117
0.00444444
0.00443889
0.00443432
0.00443052
0.00442729
0.00442447
0.00442192
0.00441951
0.00441713
0.00441473
0.00441224
0.00440961
0.00440683
0.00440388
0.00440075
0.00439744
0.00439396
0.00439031
0.0043865
0.00438254
0.00437843
0.00437419
0.00436982
0.00436532
0.0043607
0.00435595
0.00435108
0.00434609
0.00434097
0.00433572
0.00433033
0.0043248
0.00431913
0.00431332
0.00430734
0.00430121
0.00429492
0.00428846
0.00428182
0.00427501
0.00426801
0.00426082
0.00425344
0.00424586
0.0042381
0.00423014
0.00422199
0.00421363
0.00420508
0.00419632
0.00418736
0.00417819
0.00416883
0.00415926
0.0041495
0.00413955
0.0041294
0.00411906
0.00410853
0.00409781
0.00408689
0.00407579
0.00406453
0.00405311
0.00404152
0.00402977
0.00401786
0.00400584
0.00399371
0.0039815
0.00396919
0.00395682
0.00394437
0.00393187
0.00391932
0.00390673
0.0038941
0.00388141
0.00386863
0.00385543
0.00384076
0.00382389
0.00380523
0.00377844
0.00373451
0.00364871
3.39628e-05
0.000198359
0.000433145
0.000619806
0.000777795
0.000910062
0.00102131
0.00111584
0.0011957
0.00126285
0.00131873
0.00136522
0.00140297
0.0014338
0.0014596
0.00148228
0.00150374
0.00152573
0.00154964
0.00157789
0.00161185
0.00165075
0.00169845
0.00175444
0.00181597
0.00188083
0.00194572
0.00200884
0.0020658
0.00211901
0.0021699
0.00221915
0.00226699
0.0023134
0.00235825
0.00240138
0.00244265
0.00248199
0.00251933
0.00255471
0.00258841
0.00262054
0.00265137
0.00268098
0.0027095
0.00273713
0.00276405
0.00279047
0.00281658
0.00284257
0.00286863
0.00289494
0.00292173
0.00294915
0.00297718
0.00300569
0.0030345
0.00306572
0.00310166
0.00314331
0.00319147
0.00324674
0.0033094
0.00337973
0.0034591
0.00354822
0.00364682
0.0037538
0.00386663
0.00397753
0.00409319
0.00421693
0.00434898
0.00448796
0.00463526
0.00478656
0.00493746
0.00508261
0.00521613
0.00533281
0.00542912
0.0055037
0.0055573
0.00559222
0.00561166
0.00561907
0.00561778
0.00561086
0.00560098
0.00559009
0.00557936
0.00556943
0.00556062
0.00555299
0.00554649
0.00554099
0.0055363
0.00553223
0.00552863
0.00552533
0.0055222
0.00551914
0.00551606
0.0055129
0.00550959
0.00550612
0.00550245
0.00549858
0.0054945
0.00549021
0.00548571
0.00548101
0.0054761
0.00547101
0.00546573
0.00546027
0.00545463
0.00544881
0.0054428
0.00543662
0.00543026
0.00542371
0.00541696
0.00541003
0.00540289
0.00539554
0.00538799
0.00538022
0.00537224
0.00536404
0.00535561
0.00534695
0.00533806
0.00532892
0.00531954
0.00530992
0.00530006
0.00528995
0.00527961
0.00526903
0.0052582
0.00524714
0.00523584
0.00522429
0.00521251
0.0052005
0.00518825
0.00517578
0.00516308
0.00515016
0.00513702
0.00512368
0.00511012
0.00509636
0.0050824
0.00506826
0.00505395
0.00503947
0.00502483
0.00501004
0.00499511
0.00498007
0.00496493
0.0049497
0.00493439
0.00491901
0.00490357
0.00488806
0.0048725
0.00485687
0.00484114
0.00482526
0.00480906
0.00479203
0.00477266
0.00475122
0.00472672
0.00469229
0.00463849
0.00454712
3.60529e-05
0.00021831
0.000484951
0.000698965
0.000876798
0.00102715
0.00115494
0.00126497
0.00135972
0.00144161
0.00151236
0.00157354
0.00162662
0.00167405
0.00171633
0.00175477
0.0017907
0.00182525
0.00185929
0.0018939
0.00193361
0.00198093
0.00203627
0.00209877
0.00216592
0.00223292
0.00229489
0.00235216
0.00240641
0.00245876
0.00250978
0.00255968
0.00260845
0.00265601
0.00270221
0.00274693
0.00279008
0.0028316
0.00287149
0.00290979
0.00294636
0.00298117
0.00301437
0.0030462
0.00307689
0.00310666
0.00313572
0.00316429
0.00319257
0.0032208
0.00324921
0.00327805
0.00330788
0.00333895
0.00337103
0.00340518
0.00344227
0.00348329
0.00352902
0.00357966
0.00363522
0.00369558
0.00376047
0.00382933
0.0039066
0.00399462
0.00409378
0.00420322
0.00432331
0.00445083
0.00458696
0.00473168
0.00488738
0.00505532
0.00523771
0.00543257
0.00563469
0.00583713
0.00603007
0.00620396
0.00635136
0.00646834
0.00655474
0.00661343
0.0066491
0.0066671
0.00667258
0.00666999
0.0066628
0.00665344
0.00664344
0.0066337
0.00662468
0.00661655
0.00660932
0.00660287
0.00659706
0.00659173
0.00658674
0.00658194
0.00657722
0.00657249
0.00656767
0.00656271
0.00655756
0.0065522
0.00654662
0.0065408
0.00653474
0.00652845
0.00652193
0.00651519
0.00650822
0.00650104
0.00649365
0.00648604
0.00647822
0.0064702
0.00646196
0.00645351
0.00644484
0.00643594
0.00642682
0.00641747
0.00640787
0.00639804
0.00638796
0.00637763
0.00636706
0.00635623
0.00634515
0.0063338
0.00632218
0.00631029
0.00629812
0.00628568
0.00627299
0.00626003
0.00624681
0.00623333
0.0062196
0.00620561
0.00619137
0.00617688
0.00616213
0.00614715
0.00613191
0.00611645
0.00610075
0.00608483
0.0060687
0.00605235
0.00603581
0.00601907
0.00600215
0.00598506
0.00596781
0.00595042
0.00593289
0.00591524
0.00589748
0.00587963
0.00586171
0.00584373
0.00582568
0.00580759
0.00578945
0.00577126
0.00575301
0.00573467
0.00571619
0.00569744
0.00567815
0.00565764
0.00563434
0.00560885
0.00557904
0.00553782
0.00547619
0.00538222
3.70238e-05
0.000229907
0.000523516
0.000760072
0.000956833
0.00112377
0.00126662
0.00139083
0.00149948
0.00159542
0.00168051
0.00175646
0.0018249
0.00188795
0.00194569
0.00199926
0.00204967
0.00209789
0.00214474
0.00219233
0.00224424
0.00230135
0.00236254
0.00242517
0.00248564
0.00254336
0.00259893
0.00265297
0.0027059
0.00275793
0.00280911
0.00285938
0.00290861
0.00295668
0.00300341
0.00304869
0.00309239
0.00313438
0.0031746
0.00321298
0.0032495
0.00328422
0.00331718
0.00334851
0.00337841
0.00340711
0.00343488
0.00346201
0.00348883
0.00351565
0.00354286
0.00357082
0.00360049
0.00363144
0.00366387
0.00369907
0.00373744
0.00377909
0.00382432
0.00387416
0.00392863
0.00398834
0.00405401
0.00412644
0.00420679
0.00429528
0.00439071
0.00449199
0.00460599
0.00473946
0.00489384
0.00505979
0.00523845
0.0054367
0.00565718
0.00590359
0.00617052
0.00644712
0.00672055
0.00697443
0.00719482
0.00737322
0.00750757
0.0076012
0.00766081
0.00769435
0.00770939
0.00771231
0.00770796
0.00769968
0.00768964
0.00767914
0.00766886
0.00765913
0.00765003
0.0076415
0.00763343
0.0076257
0.00761818
0.00761074
0.00760329
0.00759574
0.00758803
0.00758014
0.00757201
0.00756364
0.00755502
0.00754614
0.00753701
0.00752763
0.00751801
0.00750816
0.00749809
0.00748779
0.00747727
0.00746653
0.00745557
0.0074444
0.007433
0.00742138
0.00740953
0.00739745
0.00738513
0.00737258
0.00735978
0.00734673
0.00733343
0.00731989
0.0073061
0.00729207
0.00727777
0.0072632
0.00724834
0.00723322
0.00721783
0.00720218
0.00718627
0.00717011
0.00715371
0.00713705
0.00712015
0.00710301
0.00708561
0.00706798
0.00705011
0.007032
0.00701366
0.00699511
0.00697634
0.00695737
0.0069382
0.00691885
0.00689933
0.00687965
0.00685982
0.00683986
0.00681977
0.00679958
0.0067793
0.00675894
0.00673852
0.00671805
0.00669755
0.00667703
0.00665648
0.00663592
0.00661534
0.00659473
0.00657407
0.0065533
0.00653233
0.00651099
0.00648889
0.00646528
0.0064387
0.00640952
0.00637494
0.00632784
0.00626069
0.00616587
3.772e-05
0.000240536
0.000552083
0.000805529
0.00101792
0.00119943
0.00135604
0.00149341
0.00161481
0.00172327
0.00182074
0.00190961
0.00199156
0.00206729
0.00213792
0.00220453
0.00226804
0.00232935
0.00238934
0.00244892
0.0025086
0.00256827
0.00262749
0.00268575
0.00274279
0.00279871
0.00285364
0.00290768
0.00296087
0.00301316
0.00306448
0.00311469
0.00316365
0.00321122
0.00325723
0.0033015
0.00334384
0.00338409
0.00342208
0.0034577
0.0034909
0.00352172
0.00355028
0.00357679
0.00360155
0.00362491
0.00364726
0.00366898
0.00369049
0.00371219
0.00373445
0.00375773
0.00378285
0.00380896
0.00383676
0.00386714
0.00390033
0.00393716
0.00397759
0.00402213
0.00407131
0.00412572
0.00418611
0.00425336
0.00432832
0.0044118
0.00450489
0.00460971
0.00472948
0.00486642
0.00502119
0.00519155
0.00538436
0.00560718
0.00586545
0.00616653
0.00651262
0.00688947
0.0072698
0.00763237
0.00795382
0.00821811
0.0084196
0.00856189
0.00865442
0.00870879
0.0087361
0.00874557
0.00874408
0.00873635
0.00872544
0.00871318
0.00870058
0.00868813
0.00867603
0.00866429
0.00865283
0.00864156
0.00863037
0.00861917
0.00860786
0.00859638
0.00858469
0.00857275
0.00856056
0.0085481
0.00853536
0.00852235
0.00850908
0.00849556
0.00848182
0.00846785
0.00845366
0.00843925
0.00842463
0.0084098
0.00839476
0.00837952
0.00836406
0.0083484
0.00833251
0.00831642
0.0083001
0.00828356
0.0082668
0.00824982
0.00823263
0.00821522
0.00819761
0.00817977
0.00816169
0.00814335
0.00812476
0.00810593
0.00808687
0.00806759
0.0080481
0.00802839
0.00800848
0.00798835
0.007968
0.00794744
0.00792666
0.00790568
0.00788448
0.00786308
0.00784148
0.00781971
0.00779775
0.00777564
0.00775338
0.00773098
0.00770845
0.00768582
0.00766309
0.00764028
0.00761741
0.00759449
0.00757154
0.00754858
0.00752561
0.00750265
0.00747971
0.00745679
0.00743391
0.00741105
0.00738821
0.00736536
0.00734246
0.00731944
0.00729616
0.0072724
0.0072477
0.00722129
0.00719185
0.0071593
0.00712049
0.0070686
0.00699788
0.00690382
3.80526e-05
0.000249956
0.000571543
0.000837404
0.00106271
0.00125699
0.00142592
0.00157516
0.00170782
0.00182706
0.00193568
0.00203513
0.00212689
0.00221227
0.00229241
0.0023683
0.00244077
0.00251048
0.00257798
0.00264362
0.00270758
0.00277001
0.002831
0.0028906
0.0029489
0.00300596
0.00306183
0.00311651
0.00316996
0.00322213
0.0032729
0.00332218
0.00336981
0.00341562
0.00345938
0.00350087
0.00353983
0.00357602
0.00360927
0.00363948
0.00366667
0.00369098
0.0037127
0.0037322
0.00374992
0.00376634
0.0037819
0.00379705
0.00381219
0.00382772
0.00384382
0.00386147
0.00387959
0.00389853
0.00391979
0.00394331
0.00396905
0.0039974
0.00402868
0.00406328
0.00410163
0.00414429
0.00419194
0.00424522
0.00430492
0.0043728
0.00445155
0.00454421
0.00465345
0.00478202
0.00493301
0.00511111
0.00531906
0.00556478
0.00585817
0.00621413
0.0066457
0.00713587
0.00765907
0.00816379
0.00861996
0.00899977
0.00929137
0.00949827
0.00963367
0.00971445
0.00975673
0.00977371
0.00977506
0.00976737
0.0097548
0.00973986
0.00972394
0.00970776
0.00969163
0.00967564
0.00965977
0.00964394
0.00962808
0.00961212
0.00959596
0.00957957
0.00956292
0.00954599
0.00952879
0.0095113
0.00949354
0.00947548
0.00945715
0.0094386
0.00941984
0.00940088
0.00938172
0.00936237
0.00934282
0.00932309
0.00930317
0.00928307
0.00926278
0.00924232
0.00922167
0.00920083
0.00917982
0.00915863
0.00913727
0.00911574
0.00909406
0.00907223
0.00905028
0.00902815
0.0090058
0.00898323
0.00896046
0.00893753
0.00891445
0.00889123
0.00886785
0.00884431
0.00882062
0.00879677
0.00877276
0.00874858
0.00872422
0.0086997
0.00867501
0.00865017
0.00862519
0.00860008
0.00857485
0.00854952
0.00852411
0.00849862
0.00847307
0.00844748
0.00842187
0.00839624
0.00837063
0.00834504
0.00831949
0.00829399
0.00826855
0.00824319
0.00821791
0.00819272
0.0081676
0.00814256
0.00811756
0.00809259
0.00806756
0.00804239
0.00801691
0.00799084
0.0079637
0.00793473
0.00790277
0.00786717
0.00782476
0.00776924
0.00769658
0.00760465
3.80113e-05
0.000254228
0.000580612
0.000853592
0.00109224
0.00129918
0.00147969
0.00163898
0.00178121
0.00191009
0.00202737
0.00213481
0.00223416
0.00232679
0.00241383
0.00249627
0.00257486
0.0026502
0.00272273
0.00279273
0.00286035
0.00292576
0.00298915
0.00305066
0.00311039
0.00316839
0.0032247
0.00327933
0.00333225
0.00338342
0.00343275
0.00348012
0.00352535
0.00356821
0.00360844
0.00364574
0.00367983
0.00371049
0.00373761
0.0037612
0.00378145
0.00379868
0.00381331
0.00382585
0.00383677
0.00384657
0.00385564
0.00386438
0.00387309
0.00388244
0.00389149
0.00390126
0.00391171
0.00392303
0.00393549
0.00394918
0.00396435
0.00398124
0.00400003
0.00402089
0.00404413
0.00407019
0.00409971
0.00413342
0.00417238
0.0042184
0.00427386
0.00434183
0.00442619
0.004532
0.00466566
0.00483415
0.00504359
0.00530167
0.00562132
0.00602855
0.0065495
0.00717603
0.00786648
0.00855298
0.0091821
0.00971099
0.0101183
0.0104069
0.0105953
0.0107077
0.0107672
0.0107924
0.0107963
0.010788
0.0107729
0.0107544
0.0107342
0.0107133
0.0106923
0.0106711
0.0106499
0.0106286
0.0106072
0.0105857
0.0105639
0.0105418
0.0105194
0.0104967
0.0104737
0.0104505
0.010427
0.0104032
0.010379
0.0103548
0.0103303
0.0103057
0.0102809
0.010256
0.0102308
0.0102056
0.0101802
0.0101546
0.0101289
0.010103
0.010077
0.0100509
0.0100246
0.00999822
0.00997174
0.00994517
0.00991854
0.00989186
0.00986518
0.00983838
0.00981134
0.00978417
0.00975689
0.0097296
0.00970228
0.00967488
0.00964739
0.00961983
0.00959218
0.00956444
0.00953659
0.00950863
0.00948054
0.00945234
0.00942404
0.00939565
0.00936718
0.00933866
0.00931009
0.00928149
0.00925288
0.00922428
0.0091957
0.00916715
0.00913866
0.00911025
0.00908191
0.00905369
0.00902557
0.00899759
0.00896974
0.00894203
0.00891446
0.00888704
0.00885976
0.00883259
0.0088055
0.00877844
0.00875134
0.00872408
0.00869646
0.00866816
0.0086387
0.00860735
0.00857315
0.00853483
0.00848951
0.0084315
0.00835821
0.00826912
3.77777e-05
0.00025653
0.00058469
0.000860652
0.00111189
0.00132967
0.00151978
0.0016881
0.00183905
0.00197518
0.00209877
0.00221235
0.00231732
0.00241518
0.00250709
0.002594
0.00267665
0.00275562
0.0028313
0.00290398
0.00297385
0.00304109
0.00310582
0.00316814
0.00322817
0.003286
0.00334168
0.00339526
0.00344674
0.00349608
0.00354318
0.00358788
0.00362996
0.00366915
0.00370513
0.00373759
0.00376628
0.00379105
0.00381188
0.00382892
0.00384247
0.00385294
0.00386078
0.00386646
0.00387043
0.00387308
0.00387467
0.00387567
0.00387625
0.00387657
0.00387696
0.00387704
0.00387679
0.00387652
0.00387639
0.00387652
0.00387698
0.00387796
0.00387969
0.00388252
0.00388677
0.00389278
0.00390102
0.00391234
0.00392774
0.00394866
0.003977
0.00401547
0.00406813
0.00414094
0.00424216
0.00438231
0.0045727
0.00482597
0.00515498
0.00561102
0.00623013
0.00700722
0.00789099
0.00879637
0.00963623
0.0103486
0.0108974
0.011284
0.0115343
0.0116825
0.0117606
0.0117938
0.0117998
0.0117899
0.0117714
0.0117484
0.011723
0.0116966
0.0116697
0.0116426
0.0116153
0.0115879
0.0115603
0.0115325
0.0115044
0.011476
0.0114472
0.0114182
0.0113889
0.0113595
0.0113299
0.0112999
0.0112694
0.0112389
0.0112083
0.0111776
0.0111468
0.0111159
0.0110848
0.0110536
0.0110223
0.0109909
0.0109594
0.0109278
0.0108961
0.0108643
0.0108324
0.0108005
0.0107686
0.0107367
0.0107048
0.010673