/*--------------------------------*- C++ -*----------------------------------*\
| =========                 |                                                 |
| \\      /  F ield         | OpenFOAM: The Open Source CFD Toolbox           |
|  \\    /   O peration     | Version:  v1906                                 |
|   \\  /    A nd           | Web:      www.OpenFOAM.com                      |
|    \\/     M anipulation  |                                                 |
\*---------------------------------------------------------------------------*/
FoamFile
{
    version     2.0;
    format      ascii;
    class       volScalarField;
    location    "500";
    object      p;
}
// * * * * * * * * * * * * * * * * * * * * * * * * * * * * * * * * * * * * * //

dimensions      [0 2 -2 0 0 0 0];


internalField   nonuniform List<scalar> 
12225
(
2.86951
1.66728
1.61768
1.61341
1.47893
1.34243
1.23842
1.14662
1.05862
0.976068
0.899986
0.82591
0.750069
0.670693
0.587319
0.493314
0.378044
0.219959
1.10895
0.594268
0.43708
0.452183
0.398
0.334702
0.28831
0.24174
0.190076
0.137119
0.0846748
0.0309924
-0.027315
-0.0897944
-0.158139
-0.234925
-0.321476
-0.447666
1.69397
0.913679
0.774789
0.807326
0.77559
0.727809
0.6886
0.64795
0.602926
0.556785
0.510639
0.463516
0.412714
0.359013
0.300244
0.238751
0.172829
0.12901
1.03875
0.572343
0.355203
0.281991
0.190694
0.10854
0.0487732
-0.00318278
-0.0541516
-0.103742
-0.15224
-0.201251
-0.252769
-0.307014
-0.364287
-0.424
-0.483393
-0.547327
1.22963
0.771152
0.556508
0.496695
0.435581
0.38212
0.342421
0.305349
0.266967
0.228256
0.189525
0.149958
0.108673
0.0653181
0.0216984
-0.0228759
-0.0553705
-0.0740603
0.8522
0.550436
0.344907
0.242943
0.140525
0.0497567
-0.0236161
-0.0883375
-0.148782
-0.205698
-0.259954
-0.312984
-0.365822
-0.418985
-0.471201
-0.522714
-0.568595
-0.6163
0.917538
0.67014
0.470744
0.373198
0.287555
0.218028
0.164063
0.117026
0.0729813
0.0311173
-0.00915468
-0.0486581
-0.087687
-0.126367
-0.162634
-0.196185
-0.216811
-0.222343
0.676599
0.493087
0.318818
0.212014
0.108912
0.0181312
-0.0596919
-0.129888
-0.195066
-0.256152
-0.313959
-0.369412
-0.422985
-0.474876
-0.524093
-0.570411
-0.612776
-0.654825
0.689176
0.562547
0.402383
0.30125
0.208692
0.131456
0.0674256
0.0113509
-0.0395263
-0.0864933
-0.130397
-0.171933
-0.211213
-0.248181
-0.281241
-0.309779
-0.327266
-0.33279
0.527499
0.417984
0.27908
0.180029
0.0822561
-0.00516313
-0.083245
-0.154873
-0.221516
-0.283993
-0.342919
-0.398823
-0.451918
-0.50221
-0.549361
-0.593072
-0.634797
-0.674776
0.517336
0.452734
0.333043
0.242606
0.154029
0.0763706
0.00816854
-0.0529937
-0.108589
-0.159632
-0.206801
-0.250575
-0.29101
-0.328027
-0.360633
-0.388417
-0.407757
-0.419142
0.414339
0.347938
0.240485
0.15401
0.0655041
-0.0157873
-0.0906757
-0.160297
-0.225324
-0.286311
-0.343651
-0.397634
-0.448381
-0.495857
-0.540121
-0.580848
-0.620019
-0.656019
0.396872
0.359848
0.270404
0.192733
0.112317
0.0380826
-0.030052
-0.0927389
-0.150483
-0.203824
-0.253159
-0.298759
-0.340679
-0.37887
-0.412894
-0.442539
-0.466486
-0.485288
0.311786
0.268191
0.186683
0.112671
0.0345706
-0.0404298
-0.111674
-0.179176
-0.242891
-0.302956
-0.359505
-0.412652
-0.462497
-0.509049
-0.552574
-0.592854
-0.631158
-0.66567
0.288623
0.266448
0.203892
0.140172
0.0711287
0.0030514
-0.0622383
-0.124201
-0.182498
-0.237104
-0.288091
-0.335519
-0.379454
-0.419886
-0.456894
-0.49039
-0.520959
-0.548293
0.220491
0.193337
0.136
0.0762455
0.0116415
-0.0535471
-0.11721
-0.178551
-0.236962
-0.292147
-0.343968
-0.392393
-0.4374
-0.479075
-0.517334
-0.552451
-0.583713
-0.612313
0.193815
0.174439
0.127235
0.0725763
0.0115011
-0.0525358
-0.116893
-0.180349
-0.242081
-0.301602
-0.358687
-0.413193
-0.465177
-0.514511
-0.561696
-0.606095
-0.649841
-0.689383
0.181902
0.167584
0.129417
0.0841274
0.0344385
-0.0170213
-0.0676298
-0.116073
-0.161504
-0.203417
-0.241536
-0.275851
-0.306264
-0.333211
-0.356257
-0.377015
-0.392941
-0.410378
0.139149
0.110966
0.0562726
-0.0065286
-0.0762619
-0.150894
-0.227815
-0.305763
-0.383908
-0.461612
-0.538495
-0.614191
-0.68856
-0.761049
-0.831839
-0.899332
-0.965197
-1.02385
0.272535
0.265422
0.230287
0.188545
0.144795
0.101714
0.0619794
0.0266377
-0.00390981
-0.0294916
-0.0501427
-0.0660629
-0.0773724
-0.0847064
-0.0879114
-0.0891681
-0.0864713
-0.0881568
0.242778
0.196957
0.12097
0.0443429
-0.0362038
-0.118855
-0.201016
-0.28206
-0.361707
-0.439799
-0.516405
-0.59173
-0.666243
-0.740168
-0.814578
-0.888582
-0.965309
-1.03728
0.426696
0.407533
0.342325
0.282256
0.226752
0.177156
0.13544
0.100857
0.072355
0.0492442
0.0310666
0.0174897
0.00861952
0.00444273
0.00626243
0.0134316
0.0308983
0.0505774
0.398052
0.316064
0.2006
0.102409
0.00586037
-0.088777
-0.178166
-0.262661
-0.343094
-0.419835
-0.493334
-0.564223
-0.633489
-0.702115
-0.772471
-0.845875
-0.929898
-1.02076
0.660694
0.585952
0.462153
0.381366
0.318597
0.267802
0.229605
0.200131
0.175904
0.155512
0.138369
0.124092
0.112749
0.104659
0.101749
0.105596
0.126046
0.163504
0.596299
0.437321
0.266073
0.148146
0.0389549
-0.0647555
-0.155764
-0.236362
-0.310084
-0.378165
-0.441374
-0.500708
-0.557226
-0.611865
-0.666765
-0.724322
-0.796146
-0.890108
1.00979
0.76725
0.579345
0.508781
0.463955
0.426355
0.400453
0.380361
0.360757
0.341318
0.322739
0.305106
0.288495
0.273093
0.25999
0.250543
0.255529
0.287565
0.81783
0.5164
0.285122
0.16895
0.0631742
-0.0341185
-0.107989
-0.167141
-0.220194
-0.26908
-0.314269
-0.356705
-0.39721
-0.43617
-0.474345
-0.512603
-0.560339
-0.634272
1.55412
0.948936
0.783888
0.803085
0.796214
0.765638
0.740127
0.716045
0.687896
0.658013
0.628636
0.600073
0.572344
0.545586
0.520108
0.495731
0.478589
0.483974
0.929203
0.542435
0.318093
0.304686
0.263419
0.213457
0.178967
0.147798
0.112647
0.0754244
0.0384398
0.002009
-0.0339061
-0.0690987
-0.103284
-0.136513
-0.173408
-0.228561
2.79984
1.6789
1.60791
1.62716
1.52686
1.40697
1.31367
1.23442
1.15895
1.08802
1.02291
0.962887
0.907022
0.854996
0.80675
0.762601
0.724104
0.692868
-1.14979
-1.19962
-1.25283
-1.3251
-1.41915
-1.52228
-1.62584
-1.72692
-1.82119
-1.90302
-1.9654
-2.00423
-2.01755
-2.00829
-1.98148
-1.94068
-1.89104
-1.8382
-1.78688
-1.7414
-1.70832
-1.68985
-1.6823
-1.6783
-1.67212
-1.66016
-1.64647
-1.63886
-1.64666
-1.67757
-1.73507
-1.81338
-1.90506
-2.00644
-2.11585
-2.23058
-2.34824
-2.46704
-2.5856
-2.70316
-2.81907
-2.93316
-3.04502
-3.15456
-3.26116
-3.36455
-3.46365
-3.55778
-3.64536
-3.72552
-3.79616
-3.85607
-3.90217
-3.93269
-3.94514
-3.93968
-3.91426
-3.86479
-3.78048
-3.65541
-3.48719
-3.27753
-3.02563
-2.73222
-2.39593
-2.01817
-1.59968
-1.14455
-0.656998
-0.143191
0.389416
0.930433
1.46953
1.9997
2.51313
3.00497
3.47009
3.90497
4.30629
4.67542
5.01303
5.32254
5.60625
5.86795
6.11015
6.3361
6.54772
6.74773
6.93914
7.12499
7.30576
7.48092
7.65093
7.81632
7.97756
8.1351
8.28926
8.44029
8.58837
8.7336
8.87608
9.01583
9.15288
9.28726
9.41896
9.54801
9.67445
9.7983
9.9196
10.0384
10.1548
10.2689
10.3807
10.4903
10.5978
10.7034
10.8071
10.9089
11.0091
11.1077
11.2047
11.3004
11.3947
11.4878
11.5797
11.6705
11.7603
11.8492
11.9373
12.0245
12.111
12.1967
12.2819
12.3664
12.4504
12.5338
12.6168
12.6993
12.7815
12.8632
12.9445
13.0255
13.1061
13.1864
13.2664
13.346
13.4254
13.5044
13.5832
13.6617
13.7399
13.8178
13.8953
13.9726
14.0495
14.1261
14.2024
14.2782
14.3537
14.4287
14.5033
14.5775
14.6512
14.7243
14.7968
14.8689
14.9405
15.0116
15.0823
15.1527
15.2231
15.2936
15.3652
15.438
15.5151
15.5968
15.6963
15.8143
16.003
16.2164
-1.30099
-1.4504
-1.52629
-1.63212
-1.73832
-1.84534
-1.94637
-2.04623
-2.13714
-2.21378
-2.27107
-2.31127
-2.33626
-2.33609
-2.29552
-2.21795
-2.12286
-2.02746
-1.94068
-1.86657
-1.80949
-1.77244
-1.75301
-1.7445
-1.743
-1.74566
-1.74889
-1.75855
-1.78869
-1.84536
-1.92911
-2.0349
-2.15704
-2.29056
-2.43112
-2.57508
-2.71992
-2.86428
-3.00757
-3.14987
-3.29137
-3.43248
-3.5733
-3.71392
-3.85388
-3.9927
-4.12928
-4.26254
-4.39071
-4.5122
-4.62476
-4.72629
-4.81381
-4.88482
-4.93575
-4.96304
-4.96139
-4.92852
-4.86716
-4.78079
-4.66736
-4.52363
-4.34324
-4.1223
-3.85741
-3.54719
-3.19089
-2.79002
-2.34704
-1.86564
-1.35136
-0.813527
-0.261834
0.296549
0.853605
1.40103
1.92763
2.42619
2.89394
3.33007
3.73426
4.10809
4.45314
4.7723
5.06797
5.34321
5.60035
5.84245
6.06963
6.27956
6.47563
6.66341
6.84443
7.01988
7.19064
7.35723
7.52007
7.67942
7.83549
7.98843
8.13838
8.28543
8.42966
8.57111
8.70986
8.84593
8.97938
9.11025
9.23861
9.3645
9.48798
9.60913
9.728
9.84469
9.95927
10.0718
10.1824
10.2911
10.3981
10.5034
10.607
10.7092
10.8099
10.9092
11.0072
11.1041
11.1998
11.2944
11.388
11.4806
11.5724
11.6633
11.7534
11.8428
11.9315
12.0195
12.1069
12.1938
12.2801
12.3658
12.451
12.5358
12.6201
12.704
12.7874
12.8704
12.953
13.0352
13.117
13.1984
13.2794
13.3601
13.4403
13.5201
13.5996
13.6786
13.7572
13.8354
13.913
13.9902
14.0669
14.1431
14.2187
14.2938
14.3682
14.4421
14.5155
14.5884
14.6608
14.733
14.8052
14.8775
14.951
15.0257
15.1049
15.1879
15.2846
15.3881
15.5496
15.7215
-1.40689
-1.62143
-1.65271
-1.77058
-1.83109
-1.93241
-2.01267
-2.10107
-2.17757
-2.24426
-2.28868
-2.31727
-2.33394
-2.33703
-2.31473
-2.26424
-2.19461
-2.11878
-2.04708
-1.98287
-1.92707
-1.88457
-1.86068
-1.85326
-1.85861
-1.87536
-1.90185
-1.93739
-1.98542
-2.04794
-2.12472
-2.21301
-2.30958
-2.41127
-2.51586
-2.62189
-2.72875
-2.8364
-2.9451
-3.05521
-3.16698
-3.28058
-3.39586
-3.5126
-3.63015
-3.74788
-3.8647
-3.97959
-4.09106
-4.19779
-4.29789
-4.38973
-4.4711
-4.54046
-4.59586
-4.63501
-4.65386
-4.64891
-4.61796
-4.55839
-4.46474
-4.33132
-4.15636
-3.9386
-3.67633
-3.36838
-3.01424
-2.61513
-2.17416
-1.69556
-1.18313
-0.643099
-0.0880307
0.471809
1.02823
1.57184
2.09314
2.58581
3.04623
3.47335
3.8674
4.23021
4.56396
4.87165
5.15607
5.4201
5.66572
5.8958
6.11426
6.32271
6.52141
6.71209
6.89638
7.07502
7.24864
7.41795
7.58327
7.74486
7.90296
8.05775
8.20939
8.358
8.50368
8.64649
8.78651
8.92378
9.05837
9.19032
9.31969
9.44654
9.57094
9.69295
9.81266
9.93012
10.0454
10.1587
10.2699
10.3793
10.4868
10.5927
10.6968
10.7995
10.9006
11.0004
11.0988
11.196
11.2921
11.387
11.4809
11.5738
11.6658
11.757
11.8474
11.937
12.0258
12.1141
12.2016
12.2886
12.375
12.4609
12.5463
12.6311
12.7155
12.7994
12.8829
12.966
13.0486
13.1308
13.2127
13.2941
13.3752
13.4558
13.5361
13.616
13.6954
13.7744
13.853
13.9311
14.0088
14.086
14.1627
14.2388
14.3144
14.3895
14.4639
14.5378
14.6112
14.684
14.7565
14.8286
14.9007
14.9729
15.0462
15.1204
15.1991
15.2796
15.3748
15.4694
15.6107
15.7243
-1.43554
-1.67893
-1.71353
-1.86488
-1.90927
-2.03081
-2.10723
-2.21772
-2.30016
-2.37997
-2.42977
-2.46841
-2.49594
-2.5107
-2.49472
-2.44721
-2.37791
-2.30048
-2.22448
-2.15643
-2.10145
-2.06242
-2.04041
-2.03457
-2.04409
-2.06815
-2.10603
-2.15655
-2.21898
-2.29208
-2.37467
-2.4652
-2.5626
-2.66599
-2.77501
-2.88936
-3.00898
-3.13381
-3.26376
-3.39873
-3.53845
-3.68264
-3.83071
-3.98202
-4.13558
-4.29033
-4.4448
-4.59751
-4.74651
-4.88993
-5.02545
-5.15077
-5.26313
-5.35996
-5.43846
-5.49617
-5.53029
-5.53859
-5.51876
-5.46787
-5.38243
-5.26074
-5.09924
-4.89433
-4.64278
-4.34229
-3.99141
-3.58985
-3.13939
-2.64455
-2.11101
-1.54366
-0.953263
-0.353799
0.243274
0.826559
1.38515
1.91153
2.40154
2.85389
3.26927
3.64995
3.99887
4.31953
4.61542
4.89005
5.14629
5.38668
5.6134
5.8283
6.03327
6.22997
6.41976
6.60371
6.78248
6.95657
7.12653
7.29275
7.45546
7.61481
7.77094
7.92392
8.07385
8.22078
8.36478
8.5059
8.6442
8.77973
8.91257
9.04277
9.17042
9.29558
9.41835
9.53879
9.65701
9.77309
9.88712
9.99918
10.1094
10.2178
10.3245
10.4296
10.5331
10.6352
10.736
10.8355
10.9337
11.0308
11.1268
11.2218
11.3158
11.4089
11.5012
11.5926
11.6834
11.7733
11.8627
11.9513
12.0394
12.1269
12.2138
12.3003
12.3862
12.4716
12.5565
12.641
12.725
12.8086
12.8918
12.9745
13.0568
13.1387
13.2202
13.3013
13.3819
13.4621
13.5419
13.6211
13.6999
13.7782
13.856
13.9332
14.0099
14.0859
14.1614
14.2364
14.3107
14.3846
14.458
14.5311
14.6041
14.6771
14.7512
14.8257
14.9047
14.9837
15.0768
15.1638
15.2976
15.3872
-1.29497
-1.60524
-1.65672
-1.82333
-1.87229
-1.98824
-2.06099
-2.15914
-2.23944
-2.3176
-2.3722
-2.41186
-2.43831
-2.45296
-2.45
-2.42856
-2.39193
-2.34672
-2.29937
-2.25521
-2.21876
-2.1934
-2.18166
-2.18404
-2.19992
-2.22749
-2.26509
-2.31106
-2.36467
-2.4252
-2.49252
-2.5662
-2.64617
-2.7321
-2.82396
-2.92155
-3.02495
-3.13408
-3.24897
-3.36946
-3.49531
-3.62609
-3.76115
-3.89973
-4.04073
-4.18307
-4.32531
-4.46609
-4.60368
-4.73652
-4.86264
-4.98031
-5.08734
-5.18179
-5.26112
-5.32294
-5.36429
-5.38273
-5.37537
-5.33933
-5.27114
-5.16697
-5.02257
-4.83379
-4.59685
-4.30866
-3.96711
-3.571
-3.12082
-2.61995
-2.07423
-1.48988
-0.876801
-0.250534
0.374049
0.983298
1.56414
2.10746
2.60854
3.06639
3.48258
3.86041
4.20389
4.5174
4.80509
5.07098
5.31854
5.55116
5.77159
5.98173
6.18304
6.3769
6.56433
6.74629
6.92352
7.09658
7.26583
7.43148
7.59369
7.7526
7.90831
8.06091
8.21047
8.35705
8.50069
8.64147
8.77943
8.91463
9.04713
9.17701
9.30433
9.42918
9.55163
9.67177
9.78968
9.90547
10.0192
10.131
10.2409
10.349
10.4555
10.5603
10.6636
10.7655
10.866
10.9652
11.0632
11.1601
11.2558
11.3506
11.4444
11.5372
11.6293
11.7205
11.811
11.9007
11.9898
12.0783
12.1661
12.2533
12.34
12.4262
12.5118
12.597
12.6817
12.7659
12.8496
12.933
13.0158
13.0983
13.1804
13.262
13.3432
13.424
13.5044
13.5843
13.6637
13.7427
13.8212
13.8992
13.9767
14.0536
14.13
14.2057
14.2809
14.3555
14.4295
14.503
14.5761
14.6487
14.7213
14.7936
14.8671
14.9403
15.0181
15.0939
15.1836
15.2611
15.375
15.4208
-1.07678
-1.46824
-1.54604
-1.74244
-1.79737
-1.92273
-1.99601
-2.09559
-2.17326
-2.25309
-2.31656
-2.36961
-2.40462
-2.42428
-2.42784
-2.41748
-2.39625
-2.36888
-2.34012
-2.31434
-2.29555
-2.2865
-2.28887
-2.3026
-2.327
-2.36076
-2.40297
-2.45278
-2.51002
-2.57444
-2.64618
-2.7252
-2.81178
-2.90597
-3.00807
-3.11814
-3.23636
-3.36261
-3.4968
-3.63856
-3.78741
-3.94265
-4.10336
-4.26851
-4.43674
-4.6067
-4.77669
-4.94511
-5.10997
-5.26951
-5.42152
-5.56403
-5.69469
-5.81141
-5.91167
-5.99317
-6.05319
-6.08924
-6.09779
-6.07488
-6.01605
-5.91853
-5.77947
-5.59489
-5.3604
-5.07205
-4.72671
-4.32165
-3.85563
-3.33096
-2.75271
-2.12818
-1.46787
-0.789122
-0.110676
0.549084
1.17311
1.7501
2.27521
2.74867
3.17393
3.55611
3.90085
4.21374
4.49985
4.7638
5.00944
5.24011
5.45851
5.6669
5.86709
6.06053
6.24833
6.43124
6.60981
6.78449
6.9556
7.12332
7.28778
7.44906
7.6072
7.76222
7.91415
8.06303
8.20889
8.35177
8.49173
8.62881
8.76308
8.89462
9.02352
9.14984
9.2737
9.39517
9.51436
9.63135
9.74625
9.85915
9.97014
10.0793
10.1868
10.2926
10.3968
10.4996
10.601
10.7011
10.8
10.8977
10.9943
11.0898
11.1844
11.2781
11.3709
11.4629
11.5541
11.6446
11.7344
11.8236
11.9122
12.0002
12.0876
12.1745
12.2608
12.3467
12.4321
12.517
12.6015
12.6856
12.7692
12.8524
12.9351
13.0175
13.0994
13.181
13.262
13.3427
13.4229
13.5026
13.5819
13.6606
13.7389
13.8166
13.8937
13.9703
14.0463
14.1217
14.1965
14.2707
14.3445
14.4177
14.491
14.5636
14.6374
14.7102
14.7873
14.8604
14.9469
15.0157
15.123
15.1592
-0.850357
-1.29598
-1.40008
-1.61339
-1.67174
-1.79755
-1.86756
-1.96062
-2.03154
-2.10518
-2.16476
-2.21797
-2.26004
-2.29288
-2.31329
-2.32354
-2.32635
-2.32487
-2.32226
-2.32168
-2.32575
-2.33592
-2.35309
-2.37719
-2.40812
-2.44545
-2.48911
-2.5388
-2.59472
-2.65685
-2.72563
-2.80124
-2.88426
-2.97489
-3.07367
-3.18071
-3.29631
-3.42038
-3.55282
-3.69318
-3.84092
-3.99518
-4.15491
-4.31895
-4.48584
-4.65415
-4.82218
-4.98835
-5.15082
-5.30798
-5.4579
-5.59898
-5.72924
-5.84705
-5.95023
-6.03691
-6.10469
-6.15166
-6.17497
-6.17162
-6.1382
-6.07083
-5.96386
-5.81143
-5.60722
-5.34537
-5.02063
-4.62781
-4.16361
-3.62812
-3.02474
-2.36093
-1.64935
-0.909238
-0.164123
0.559424
1.23729
1.85438
2.40602
2.89462
3.32636
3.70896
4.05025
4.35736
4.63657
4.89343
5.13244
5.35727
5.57075
5.77516
5.97219
6.1632
6.34912
6.53069
6.70842
6.88263
7.0535
7.22115
7.38563
7.54697
7.70519
7.8603
8.01233
8.16128
8.3072
8.45013
8.59012
8.72722
8.86152
8.99308
9.12199
9.24835
9.37223
9.49375
9.61298
9.73004
9.845
9.95798
10.0691
10.1783
10.2859
10.3918
10.4962
10.5991
10.7006
10.8008
10.8998
10.9976
11.0943
11.19
11.2847
11.3784
11.4713
11.5634
11.6547
11.7452
11.8351
11.9243
12.0129
12.1009
12.1883
12.2752
12.3615
12.4473
12.5326
12.6175
12.7019
12.7858
12.8693
12.9524
13.035
13.1172
13.199
13.2803
13.3612
13.4417
13.5217
13.6012
13.6802
13.7587
13.8367
13.9141
13.991
14.0672
14.1429
14.2179
14.2924
14.3662
14.4395
14.5123
14.5849
14.6568
14.7298
14.8013
14.8771
14.9474
15.0309
15.0918
15.1903
15.1928
-0.682206
-1.14619
-1.27679
-1.50307
-1.56387
-1.69305
-1.76096
-1.85343
-1.92113
-1.99364
-2.05266
-2.10792
-2.15278
-2.19106
-2.22232
-2.24883
-2.26972
-2.28775
-2.30558
-2.32488
-2.34674
-2.37201
-2.40143
-2.43528
-2.474
-2.51768
-2.56672
-2.62128
-2.68192
-2.74899
-2.82319
-2.90496
-2.99511
-3.09407
-3.20255
-3.32085
-3.44937
-3.58806
-3.73685
-3.89522
-4.0625
-4.23765
-4.41944
-4.60641
-4.79686
-4.98908
-5.18112
-5.37118
-5.55723
-5.73754
-5.91016
-6.07344
-6.22553
-6.36476
-6.48902
-6.59677
-6.68626
-6.75523
-6.80047
-6.81901
-6.8077
-6.76223
-6.6775
-6.54771
-6.36611
-6.12529
-5.81759
-5.43405
-4.96749
-4.41434
-3.77501
-3.05389
-2.26587
-1.43471
-0.589924
0.229143
0.984283
1.65466
2.23712
2.73947
3.17386
3.55262
3.88663
4.18499
4.45511
4.70313
4.93395
5.15152
5.35889
5.55839
5.75177
5.94024
6.12465
6.30554
6.48324
6.65794
6.8297
6.99851
7.16435
7.32715
7.48686
7.64345
7.79689
7.94718
8.09433
8.23839
8.37939
8.51741
8.65252
8.7848
8.91436
9.04128
9.16568
9.28764
9.40729
9.52471
9.64001
9.75329
9.86465
9.97418
10.082
10.1881
10.2927
10.3959
10.4976
10.5981
10.6972
10.7953
10.8922
10.9881
11.083
11.177
11.2701
11.3624
11.454
11.5448
11.6349
11.7244
11.8133
11.9016
11.9894
12.0766
12.1632
12.2494
12.3352
12.4204
12.5052
12.5896
12.6735
12.7571
12.8402
12.9229
13.0052
13.087
13.1684
13.2494
13.33
13.4101
13.4897
13.5688
13.6475
13.7255
13.8031
13.88
13.9563
14.032
14.1071
14.1815
14.2553
14.3284
14.4014
14.4732
14.5459
14.6163
14.6905
14.7573
14.8365
14.889
14.9795
14.9756
-0.566533
-1.04695
-1.1805
-1.41368
-1.47095
-1.60241
-1.66541
-1.75716
-1.8208
-1.8929
-1.9514
-2.0099
-2.05993
-2.10696
-2.14796
-2.18589
-2.22131
-2.25616
-2.28888
-2.32129
-2.35488
-2.38986
-2.42716
-2.46725
-2.51082
-2.55826
-2.61025
-2.66723
-2.72998
-2.79906
-2.87541
-2.95967
-3.05286
-3.15564
-3.26889
-3.39304
-3.52858
-3.67547
-3.83353
-4.00207
-4.18015
-4.36639
-4.55918
-4.75668
-4.9568
-5.15754
-5.35674
-5.55251
-5.74286
-5.92627
-6.10105
-6.26588
-6.41943
-6.56079
-6.68879
-6.8025
-6.90061
-6.9816
-7.04364
-7.08551
-7.10608
-7.10239
-7.06649
-6.99118
-6.86904
-6.69082
-6.4454
-6.11915
-5.6974
-5.16678
-4.51838
-3.74777
-2.86842
-1.91166
-0.915421
0.0576799
0.937369
1.69113
2.32172
2.84822
3.29169
3.6703
3.99882
4.28905
4.5502
4.78954
5.01259
5.22363
5.42576
5.6213
5.81183
5.99844
6.18176
6.3622
6.53992
6.71495
6.88724
7.0567
7.2232
7.38666
7.54699
7.70414
7.85808
8.00881
8.15635
8.30074
8.44204
8.58033
8.71568
8.8482
8.97797
9.10512
9.22974
9.35194
9.47183
9.5895
9.70506
9.81862
9.93026
10.0401
10.1482
10.2546
10.3596
10.463
10.5651
10.6658
10.7653
10.8636
10.9608
11.057
11.1522
11.2464
11.3398
11.4324
11.5242
11.6152
11.7055
11.7952
11.8843
11.9727
12.0606
12.1479
12.2346
12.3209
12.4066
12.4919
12.5767
12.6611
12.745
12.8285
12.9115
12.9942
13.0764
13.1581
13.2394
13.3203
13.4007
13.4806
13.5601
13.639
13.7174
13.7952
13.8725
13.9492
14.0252
14.1005
14.1753
14.2493
14.3227
14.3953
14.4677
14.5388
14.6106
14.6798
14.7525
14.817
14.8935
14.9406
15.0256
15.0049
-0.51016
-1.00837
-1.12316
-1.3623
-1.41184
-1.54897
-1.60758
-1.70246
-1.76346
-1.83747
-1.89521
-1.95624
-2.00816
-2.05978
-2.10586
-2.15086
-2.19263
-2.23374
-2.27435
-2.31611
-2.35711
-2.39841
-2.44146
-2.48652
-2.5346
-2.58626
-2.64236
-2.70353
-2.77075
-2.8448
-2.92689
-3.01795
-3.1193
-3.2319
-3.35687
-3.49484
-3.64636
-3.81129
-3.98924
-4.1791
-4.37936
-4.588
-4.80268
-5.0209
-5.24001
-5.45754
-5.6711
-5.87867
-6.07833
-6.26878
-6.44873
-6.61733
-6.77378
-6.91764
-7.04818
-7.16475
-7.26666
-7.35338
-7.42371
-7.47649
-7.50898
-7.51842
-7.50321
-7.46099
-7.38699
-7.27448
-7.11249
-6.88396
-6.56465
-6.12944
-5.55303
-4.80329
-3.87033
-2.78536
-1.58996
-0.38488
0.684479
1.55993
2.25472
2.80609
3.25111
3.61903
3.93146
4.20401
4.44802
4.67187
4.88165
5.08173
5.27521
5.4642
5.65008
5.83359
6.01511
6.19473
6.37239
6.54788
6.72099
6.89146
7.05908
7.22366
7.38508
7.54322
7.69803
7.84952
7.99768
8.14257
8.28426
8.42283
8.55837
8.691
8.82083
8.94798
9.07255
9.19467
9.31444
9.43199
9.54741
9.66081
9.77229
9.88196
9.98991
10.0962
10.201
10.3043
10.4062
10.5068
10.6062
10.7044
10.8016
10.8977
10.9928
11.0871
11.1804
11.273
11.3648
11.4559
11.5463
11.6361
11.7252
11.8138
11.9018
11.9893
12.0763
12.1628
12.2488
12.3344
12.4195
12.5042
12.5885
12.6723
12.7557
12.8388
12.9214
13.0036
13.0853
13.1667
13.2476
13.328
13.408
13.4875
13.5665
13.6449
13.7227
13.8
13.8766
13.9525
14.0277
14.1021
14.1759
14.2486
14.3209
14.3916
14.4626
14.5301
14.6006
14.6611
14.7326
14.7723
14.85
14.8219
-0.50096
-0.99211
-1.08568
-1.32583
-1.36481
-1.50565
-1.55768
-1.65603
-1.7131
-1.78956
-1.84577
-1.90958
-1.96234
-2.01773
-2.06661
-2.11628
-2.16216
-2.20856
-2.25292
-2.29875
-2.34462
-2.39049
-2.43673
-2.48532
-2.53664
-2.59138
-2.6504
-2.71467
-2.78525
-2.8633
-2.95028
-3.04753
-3.15669
-3.27901
-3.41578
-3.5676
-3.73472
-3.91649
-4.11167
-4.31822
-4.53356
-4.7547
-4.97853
-5.20196
-5.42208
-5.63646
-5.843
-6.04031
-6.22724
-6.40317
-6.56758
-6.7204
-6.86137
-6.99042
-7.10733
-7.21211
-7.30413
-7.38286
-7.4475
-7.4967
-7.52681
-7.53705
-7.5303
-7.50538
-7.4576
-7.38194
-7.27259
-7.1251
-6.93107
-6.67125
-6.3042
-5.74791
-4.92631
-3.82559
-2.44202
-0.910391
0.464366
1.54306
2.34275
2.9351
3.38712
3.74588
4.04238
4.29732
4.52461
4.73386
4.93161
5.12232
5.30888
5.49315
5.67608
5.85811
6.03924
6.21927
6.39784
6.57457
6.74905
6.92092
7.08988
7.2557
7.41822
7.57733
7.73298
7.88517
8.03394
8.17934
8.32148
8.46043
8.59633
8.72928
8.85941
8.98685
9.11173
9.23414
9.35423
9.47209
9.58783
9.70157
9.8134
9.92341
10.0317
10.1384
10.2435
10.3472
10.4495
10.5504
10.6502
10.7488
10.8462
10.9427
11.0381
11.1326
11.2263
11.3191
11.4112
11.5025
11.5932
11.6832
11.7725
11.8612
11.9494
12.037
12.1241
12.2107
12.2967
12.3824
12.4675
12.5522
12.6365
12.7203
12.8037
12.8867
12.9692
13.0513
13.133
13.2143
13.2951
13.3754
13.4553
13.5346
13.6134
13.6917
13.7693
13.8463
13.9227
13.9983
14.0733
14.1474
14.2207
14.293
14.3647
14.4346
14.5047
14.571
14.6399
14.6985
14.7672
14.804
14.876
14.8436
-0.520232
-0.990208
-1.06355
-1.30228
-1.33154
-1.47618
-1.52008
-1.62132
-1.67328
-1.75257
-1.80576
-1.87207
-1.92395
-1.98203
-2.03175
-2.08448
-2.13231
-2.18182
-2.22869
-2.277
-2.32397
-2.37298
-2.42322
-2.47481
-2.52813
-2.58532
-2.647
-2.71429
-2.78846
-2.87113
-2.96406
-3.06908
-3.18815
-3.32272
-3.47394
-3.64199
-3.82638
-4.0254
-4.23687
-4.45755
-4.6839
-4.91219
-5.13891
-5.36113
-5.5764
-5.78302
-5.97974
-6.16602
-6.34157
-6.50651
-6.66077
-6.80452
-6.93775
-7.06042
-7.17217
-7.27275
-7.36147
-7.43758
-7.49985
-7.54764
-7.5802
-7.59474
-7.58709
-7.55516
-7.49767
-7.41411
-7.30362
-7.16438
-6.98844
-6.76768
-6.51116
-6.19224
-5.70124
-4.89628
-3.562
-1.71917
0.0756291
1.44667
2.38206
3.01485
3.46125
3.79505
4.06042
4.28426
4.48351
4.66887
4.84719
5.02274
5.19803
5.3743
5.55202
5.73097
5.91067
6.09044
6.26957
6.44734
6.62312
6.79638
6.96668
7.13373
7.2973
7.45728
7.61361
7.76628
7.91536
8.06092
8.20308
8.34195
8.47767
8.61037
8.74019
8.86728
8.99177
9.11379
9.23346
9.3509
9.46623
9.57956
9.69099
9.80062
9.90855
10.0149
10.1197
10.223
10.325
10.4257
10.5252
10.6235
10.7207
10.817
10.9123
11.0067
11.1002
11.193
11.285
11.3763
11.4669
11.5569
11.6463
11.7351
11.8234
11.9111
11.9984
12.0852
12.1715
12.2573
12.3427
12.4277
12.5123
12.5964
12.6801
12.7635
12.8464
12.9289
13.0111
13.0928
13.174
13.2548
13.3352
13.415
13.4943
13.5731
13.6513
13.7288
13.8056
13.8817
13.957
14.0313
14.1047
14.1768
14.2481
14.3173
14.3861
14.4505
14.5165
14.5713
14.6345
14.6652
14.7295
14.6938
-0.550044
-0.988498
-1.04343
-1.27683
-1.29604
-1.44273
-1.47868
-1.58307
-1.62813
-1.71002
-1.75944
-1.82838
-1.87838
-1.93927
-1.98883
-2.04438
-2.09317
-2.14532
-2.19364
-2.24403
-2.29262
-2.34296
-2.39322
-2.44636
-2.50224
-2.56106
-2.6238
-2.69313
-2.76977
-2.85617
-2.95446
-3.06691
-3.19557
-3.34175
-3.506
-3.6879
-3.88576
-4.09674
-4.31727
-4.54336
-4.77096
-4.99655
-5.21719
-5.4307
-5.63564
-5.83145
-6.01773
-6.19445
-6.36181
-6.52029
-6.67005
-6.81122
-6.94356
-7.06692
-7.18075
-7.28462
-7.3777
-7.4593
-7.52829
-7.58394
-7.625
-7.64816
-7.64945
-7.62572
-7.57281
-7.48595
-7.35813
-7.18617
-6.9767
-6.73426
-6.46486
-6.16746
-5.81615
-5.39262
-4.50036
-2.59404
-0.32378
1.43436
2.54676
3.22805
3.66564
3.96916
4.1988
4.3885
4.55803
4.7191
4.87858
5.04032
5.20608
5.37647
5.5511
5.72911
5.90938
6.09071
6.27199
6.45218
6.63042
6.80603
6.9785
7.14746
7.3127
7.47408
7.63157
7.78522
7.93509
8.08131
8.224
8.36333
8.49944
8.63249
8.76264
8.89004
9.01482
9.13714
9.25711
9.37487
9.49052
9.60418
9.71594
9.82592
9.9342
10.0409
10.146
10.2497
10.352
10.4531
10.5529
10.6515
10.7491
10.8457
10.9412
11.0359
11.1297
11.2227
11.315
11.4065
11.4973
11.5875
11.6771
11.7661
11.8545
11.9423
12.0297
12.1165
12.2029
12.2888
12.3742
12.4592
12.5438
12.6279
12.7116
12.7949
12.8778
12.9603
13.0424
13.1241
13.2053
13.286
13.3663
13.446
13.5253
13.6039
13.682
13.7594
13.8361
13.912
13.9871
14.0611
14.1342
14.2059
14.2767
14.3451
14.413
14.4763
14.5407
14.594
14.6544
14.6841
14.7419
14.7089
-0.579685
-0.982515
-1.02179
-1.24787
-1.25825
-1.40637
-1.43393
-1.54202
-1.58109
-1.66645
-1.71119
-1.78339
-1.83137
-1.89481
-1.94403
-2.00184
-2.05117
-2.1052
-2.15431
-2.20605
-2.25527
-2.30655
-2.35746
-2.41065
-2.46549
-2.52461
-2.58904
-2.6597
-2.73812
-2.82796
-2.93117
-3.05043
-3.18785
-3.34439
-3.51984
-3.71242
-3.91929
-4.13696
-4.36175
-4.58937
-4.81591
-5.0384
-5.25438
-5.46244
-5.66206
-5.85329
-6.03634
-6.21145
-6.37856
-6.5378
-6.689
-6.83212
-6.96672
-7.09234
-7.20811
-7.31318
-7.40638
-7.48679
-7.55317
-7.60393
-7.63748
-7.65397
-7.65243
-7.62953
-7.58052
-7.50001
-7.37961
-7.21397
-7.00048
-6.72412
-6.40312
-6.05553
-5.64238
-5.3468
-4.95039
-3.31356
-0.689813
1.46875
2.75046
3.45541
3.85871
4.11014
4.28631
4.42766
4.55623
4.68431
4.81842
4.9615
5.11444
5.27663
5.44677
5.62299
5.80339
5.98611
6.16948
6.3521
6.53281
6.71075
6.88529
7.05601
7.22267
7.38515
7.54343
7.69758
7.84773
7.99401
8.1366
8.27569
8.41145
8.54407
8.67373
8.80059
8.92481
9.04655
9.16593
9.28309
9.39816
9.51125
9.62247
9.73191
9.83968
9.94587
10.0505
10.1538
10.2557
10.3564
10.4558
10.5541
10.6514
10.7477
10.8431
10.9375
11.0312
11.124
11.2162
11.3076
11.3984
11.4886
11.5782
11.6672
11.7557
11.8437
11.9312
12.0182
12.1047
12.1908
12.2765
12.3617
12.4466
12.531
12.615
12.6987
12.7819
12.8648
12.9472
13.0292
13.1108
13.192
13.2727
13.3529
13.4325
13.5116
13.5901
13.6679
13.7449
13.8211
13.8963
13.9704
14.0434
14.1148
14.1849
14.2523
14.3186
14.3798
14.441
14.4908
14.5456
14.5709
14.6204
14.589
-0.599539
-0.964884
-0.991015
-1.20717
-1.21009
-1.3577
-1.37837
-1.48822
-1.52204
-1.60993
-1.65176
-1.72584
-1.77233
-1.83841
-1.88714
-1.94713
-1.99674
-2.05258
-2.10222
-2.1552
-2.20475
-2.25643
-2.30709
-2.35998
-2.41458
-2.47281
-2.53658
-2.60809
-2.68805
-2.77984
-2.8871
-3.01212
-3.15668
-3.32043
-3.50262
-3.70124
-3.91317
-4.13425
-4.36039
-4.58741
-4.81199
-5.0314
-5.24395
-5.44882
-5.64564
-5.83453
-6.0155
-6.18866
-6.354
-6.51157
-6.66101
-6.80202
-6.9339
-7.05606
-7.16762
-7.26789
-7.35601
-7.43139
-7.4933
-7.54098
-7.57255
-7.58574
-7.5781
-7.54732
-7.49077
-7.40577
-7.28742
-7.12717
-6.91187
-6.62179
-6.27535
-5.87644
-5.34909
-4.98378
-4.85599
-3.59566
-0.823808
1.67635
3.09356
3.7952
4.14368
4.32893
4.44229
4.5298
4.61494
4.70986
4.81994
4.94701
5.09029
5.24793
5.41714
5.59504
5.77872
5.96561
6.15348
6.34055
6.52543
6.70712
6.88492
7.0584
7.22735
7.3917
7.55149
7.70685
7.85795
8.00498
8.14818
8.28774
8.4239
8.55686
8.68681
8.81394
8.93842
9.0604
9.18003
9.29744
9.41277
9.52613
9.63762
9.74735
9.85541
9.96188
10.0668
10.1704
10.2726
10.3735
10.4732
10.5718
10.6694
10.7659
10.8615
10.9562
11.0501
11.1432
11.2355
11.3272
11.4181
11.5085
11.5982
11.6874
11.776
11.8641
11.9516
12.0387
12.1253
12.2114
12.2971
12.3824
12.4673
12.5517
12.6357
12.7194
12.8027
12.8855
12.968
13.05
13.1316
13.2128
13.2935
13.3737
13.4533
13.5324
13.6109
13.6887
13.7657
13.8418
13.9169
13.9909
14.0637
14.1347
14.2043
14.2712
14.3366
14.397
14.4567
14.5054
14.5574
14.583
14.6257
14.6013
-0.604596
-0.933634
-0.950474
-1.15494
-1.15372
-1.29964
-1.31556
-1.42789
-1.45708
-1.54901
-1.58741
-1.6662
-1.71075
-1.77977
-1.82838
-1.89081
-1.94105
-1.99862
-2.04933
-2.10342
-2.15387
-2.20597
-2.25692
-2.30952
-2.36363
-2.42119
-2.48402
-2.55382
-2.63404
-2.72791
-2.83686
-2.96314
-3.10975
-3.27664
-3.46285
-3.66484
-3.87871
-4.10059
-4.32684
-4.55397
-4.77861
-4.99832
-5.21108
-5.41605
-5.61333
-5.80315
-5.98529
-6.15993
-6.32695
-6.48633
-6.6376
-6.7804
-6.91394
-7.03754
-7.15012
-7.25073
-7.33808
-7.41118
-7.46887
-7.51027
-7.53374
-7.53742
-7.51841
-7.47315
-7.39624
-7.28291
-7.12825
-6.93168
-6.69595
-6.41414
-6.08146
-5.65394
-5.01892
-4.5005
-4.37593
-3.34898
-0.631194
2.02612
3.46773
4.11206
4.38565
4.49409
4.53836
4.56646
4.60387
4.66219
4.7463
4.85622
4.98977
5.14317
5.31224
5.49265
5.68044
5.87219
6.06509
6.25695
6.44614
6.63154
6.81242
6.98837
7.15923
7.32499
7.48576
7.64174
7.79317
7.9403
8.0834
8.22273
8.35855
8.49107
8.62053
8.74712
8.87103
8.99243
9.11147
9.2283
9.34304
9.45582
9.56675
9.67592
9.78345
9.8894
9.99388
10.097
10.1987
10.2992
10.3985
10.4968
10.5939
10.6902
10.7855
10.88
10.9736
11.0665
11.1587
11.2503
11.3412
11.4315
11.5212
11.6104
11.6991
11.7872
11.8749
11.9621
12.0488
12.1352
12.221
12.3065
12.3916
12.4763
12.5606
12.6445
12.728
12.8112
12.8939
12.9763
13.0582
13.1397
13.2208
13.3013
13.3814
13.4608
13.5396
13.6177
13.6949
13.7712
13.8464
13.9203
13.9929
14.0635
14.1323
14.1981
14.2619
14.3202
14.3768
14.4225
14.4693
14.4919
14.5265
14.5076
-0.577626
-0.888633
-0.889758
-1.08893