/*--------------------------------*- C++ -*----------------------------------*\
| =========                 |                                                 |
| \\      /  F ield         | OpenFOAM: The Open Source CFD Toolbox           |
|  \\    /   O peration     | Version:  v1906                                 |
|   \\  /    A nd           | Web:      www.OpenFOAM.com                      |
|    \\/     M anipulation  |                                                 |
\*---------------------------------------------------------------------------*/
FoamFile
{
    version     2.0;
    format      ascii;
    class       surfaceScalarField;
    location    "500";
    object      phi;
}
// * * * * * * * * * * * * * * * * * * * * * * * * * * * * * * * * * * * * * //

dimensions      [0 3 -1 0 0 0 0];
oriented        oriented;


internalField   nonuniform List<scalar> 
24170
(
3.08281e-06
1.05595e-07
2.98696e-06
9.58514e-08
2.9206e-06
6.63554e-08
2.86453e-06
5.60795e-08
2.8156e-06
4.89217e-08
2.77264e-06
4.29619e-08
2.73442e-06
3.8221e-08
2.70006e-06
3.43668e-08
2.66905e-06
3.10119e-08
2.64103e-06
2.80175e-08
2.61556e-06
2.54705e-08
2.59224e-06
2.33208e-08
2.57099e-06
2.12533e-08
2.55186e-06
1.91299e-08
2.53523e-06
1.66291e-08
2.52165e-06
1.35808e-08
2.51229e-06
9.36082e-09
-3.74199e-09
2.51604e-06
3.44276e-06
8.00829e-08
3.44404e-06
9.45683e-08
3.43232e-06
7.80755e-08
3.41871e-06
6.96928e-08
3.40396e-06
6.36682e-08
3.38915e-06
5.77801e-08
3.37475e-06
5.26175e-08
3.36088e-06
4.82337e-08
3.34757e-06
4.43243e-08
3.33485e-06
4.07405e-08
3.32278e-06
3.75426e-08
3.3114e-06
3.46971e-08
3.30064e-06
3.2016e-08
3.2905e-06
2.92686e-08
3.28086e-06
2.62784e-08
3.27176e-06
2.26766e-08
3.26393e-06
1.71923e-08
6.06993e-09
3.25412e-06
3.67627e-06
6.63325e-08
3.67855e-06
9.22879e-08
3.67275e-06
8.38756e-08
3.6652e-06
7.72428e-08
3.65757e-06
7.12933e-08
3.65036e-06
6.49944e-08
3.64361e-06
5.93663e-08
3.63726e-06
5.45851e-08
3.63124e-06
5.03423e-08
3.62551e-06
4.6469e-08
3.62009e-06
4.29666e-08
3.615e-06
3.97824e-08
3.61027e-06
3.67539e-08
3.60589e-06
3.36454e-08
3.60185e-06
3.03163e-08
3.59831e-06
2.62237e-08
3.59395e-06
2.15483e-08
1.41705e-08
3.58586e-06
3.93546e-06
5.6262e-08
3.943e-06
8.47489e-08
3.94506e-06
8.18155e-08
3.94504e-06
7.72654e-08
3.94381e-06
7.25237e-08
3.94173e-06
6.70698e-08
3.93917e-06
6.19276e-08
3.93637e-06
5.73859e-08
3.93346e-06
5.32471e-08
3.93054e-06
4.93978e-08
3.92767e-06
4.58375e-08
3.92493e-06
4.25205e-08
3.92237e-06
3.93093e-08
3.92002e-06
3.59952e-08
3.91789e-06
3.24498e-08
3.91589e-06
2.82271e-08
3.91421e-06
2.32247e-08
1.53299e-08
3.91306e-06
4.2181e-06
4.52932e-08
4.22756e-06
7.52856e-08
4.23146e-06
7.79104e-08
4.23278e-06
7.59468e-08
4.23291e-06
7.23954e-08
4.23237e-06
6.7615e-08
4.23149e-06
6.28027e-08
4.23048e-06
5.83961e-08
4.22941e-06
5.4316e-08
4.22832e-06
5.04942e-08
4.22723e-06
4.69239e-08
4.2262e-06
4.35523e-08
4.22524e-06
4.0265e-08
4.22436e-06
3.68763e-08
4.22349e-06
3.3324e-08
4.22251e-06
2.92062e-08
4.22061e-06
2.51265e-08
2.01848e-08
4.21576e-06
4.51709e-06
3.72927e-08
4.52579e-06
6.658e-08
4.53149e-06
7.22166e-08
4.53548e-06
7.19505e-08
4.53846e-06
6.94196e-08
4.5406e-06
6.5474e-08
4.54213e-06
6.12725e-08
4.54325e-06
5.72734e-08
4.54409e-06
5.34769e-08
4.54473e-06
4.98578e-08
4.54524e-06
4.64161e-08
4.54568e-06
4.31096e-08
4.5461e-06
3.98498e-08
4.54648e-06
3.64962e-08
4.54682e-06
3.2981e-08
4.54696e-06
2.90711e-08
4.54728e-06
2.48078e-08
1.96879e-08
4.54777e-06
4.83985e-06
3.01603e-08
4.84836e-06
5.80712e-08
4.85434e-06
6.62418e-08
4.85844e-06
6.78436e-08
4.86139e-06
6.6474e-08
4.86351e-06
6.33571e-08
4.86509e-06
5.96879e-08
4.86637e-06
5.59982e-08
4.86745e-06
5.2395e-08
4.8684e-06
4.8909e-08
4.86926e-06
4.55574e-08
4.87005e-06
4.23103e-08
4.8708e-06
3.91069e-08
4.87146e-06
3.58391e-08
4.87193e-06
3.25023e-08
4.87206e-06
2.89459e-08
4.87124e-06
2.56308e-08
2.22583e-08
4.86867e-06
5.18533e-06
2.4415e-08
5.19294e-06
5.04559e-08
5.19927e-06
5.99125e-08
5.20448e-06
6.26376e-08
5.20888e-06
6.20714e-08
5.21259e-06
5.96486e-08
5.21576e-06
5.65212e-08
5.21853e-06
5.32249e-08
5.221e-06
4.99205e-08
5.22324e-06
4.66702e-08
5.2253e-06
4.3502e-08
5.22721e-06
4.03998e-08
5.22899e-06
3.73228e-08
5.23063e-06
3.42022e-08
5.23212e-06
3.10178e-08
5.23336e-06
2.77015e-08
5.23472e-06
2.4271e-08
2.07906e-08
5.23619e-06
5.55572e-06
2.00334e-08
5.56252e-06
4.36562e-08
5.56872e-06
5.37105e-08
5.57389e-06
5.74639e-08
5.57818e-06
5.77842e-08
5.58172e-06
5.61133e-08
5.58469e-06
5.35486e-08
5.58727e-06
5.0643e-08
5.58957e-06
4.76199e-08
5.59166e-06
4.45844e-08
5.59357e-06
4.15881e-08
5.59534e-06
3.86351e-08
5.59695e-06
3.57134e-08
5.59837e-06
3.27829e-08
5.5995e-06
2.98795e-08
5.60023e-06
2.69766e-08
5.60012e-06
2.43794e-08
2.19077e-08
5.599e-06
5.95381e-06
1.60006e-08
5.96017e-06
3.72989e-08
5.96637e-06
4.75061e-08
5.97202e-06
5.1814e-08
5.97712e-06
5.26877e-08
5.98167e-06
5.15604e-08
5.98576e-06
4.94576e-08
5.98949e-06
4.69195e-08
5.99291e-06
4.41968e-08
5.99608e-06
4.14154e-08
5.99903e-06
3.86381e-08
6.00178e-06
3.58834e-08
6.00434e-06
3.31509e-08
6.0067e-06
3.04251e-08
6.00887e-06
2.77144e-08
6.01082e-06
2.5021e-08
6.01284e-06
2.23579e-08
1.99316e-08
6.01482e-06
6.37947e-06
1.3339e-08
6.38476e-06
3.20078e-08
6.39056e-06
4.17154e-08
6.39604e-06
4.6327e-08
6.40101e-06
4.77166e-08
6.40542e-06
4.71523e-08
6.40933e-06
4.55446e-08
6.41285e-06
4.34078e-08
6.41603e-06
4.10127e-08
6.41894e-06
3.85067e-08
6.42161e-06
3.59711e-08
6.42405e-06
3.34422e-08
6.42626e-06
3.09424e-08
6.42821e-06
2.84756e-08
6.42983e-06
2.609e-08
6.43106e-06
2.37967e-08
6.43164e-06
2.17713e-08
1.99285e-08
6.43165e-06
5.74323e-06
1.09415e-08
5.74766e-06
2.75769e-08
5.75256e-06
3.68157e-08
5.75738e-06
4.15096e-08
5.76195e-06
4.3144e-08
5.7662e-06
4.2907e-08
5.77012e-06
4.1619e-08
5.77376e-06
3.97676e-08
5.77715e-06
3.76263e-08
5.78031e-06
3.53495e-08
5.78325e-06
3.30248e-08
5.786e-06
3.06971e-08
5.78855e-06
2.83933e-08
5.7909e-06
2.61289e-08
5.79306e-06
2.39263e-08
5.79504e-06
2.18153e-08
5.79701e-06
1.98024e-08
1.80781e-08
5.79886e-06
6.99985e-06
9.24541e-09
7.00397e-06
2.34576e-08
7.00908e-06
3.17093e-08
7.01437e-06
3.62145e-08
7.01949e-06
3.80245e-08
7.02427e-06
3.81265e-08
7.02868e-06
3.72088e-08
7.03274e-06
3.57075e-08
7.03648e-06
3.3886e-08
7.03993e-06
3.19016e-08
7.04311e-06
2.98495e-08
7.04602e-06
2.7785e-08
7.04866e-06
2.57473e-08
7.05103e-06
2.37625e-08
7.05309e-06
2.18697e-08
7.05481e-06
2.00945e-08
7.05611e-06
1.84994e-08
1.6984e-08
7.05721e-06
8.53318e-06
6.91447e-09
8.53804e-06
1.8592e-08
8.54392e-06
2.58314e-08
8.55013e-06
3.00038e-08
8.55632e-06
3.18412e-08
8.56229e-06
3.21556e-08
8.56797e-06
3.15251e-08
8.57335e-06
3.03317e-08
8.57841e-06
2.88192e-08
8.58318e-06
2.7138e-08
8.58765e-06
2.53814e-08
8.59182e-06
2.36066e-08
8.59572e-06
2.18513e-08
8.59934e-06
2.01435e-08
8.6027e-06
1.85071e-08
8.60582e-06
1.69729e-08
8.60876e-06
1.55584e-08
1.44075e-08
8.61134e-06
1.04007e-05
5.46678e-09
1.04049e-05
1.43695e-08
1.04107e-05
2.00292e-08
1.04173e-05
2.34312e-08
1.0424e-05
2.50617e-08
1.04307e-05
2.54824e-08
1.04371e-05
2.51169e-08
1.04432e-05
2.4259e-08
1.04489e-05
2.3108e-08
1.04543e-05
2.17942e-08
1.04592e-05
2.04028e-08
1.04638e-05
1.89906e-08
1.04681e-05
1.75951e-08
1.0472e-05
1.62463e-08
1.04755e-05
1.49596e-08
1.04788e-05
1.37567e-08
1.04817e-05
1.26275e-08
1.1545e-08
1.04846e-05
1.26789e-05
3.36978e-09
1.26839e-05
9.35688e-09
1.26905e-05
1.33944e-08
1.2698e-05
1.5929e-08
1.27059e-05
1.72238e-08
1.27137e-05
1.76364e-08
1.27214e-05
1.74594e-08
1.27287e-05
1.69034e-08
1.27357e-05
1.61175e-08
1.27423e-05
1.52025e-08
1.27485e-05
1.42264e-08
1.27542e-05
1.32344e-08
1.27596e-05
1.22599e-08
1.27645e-05
1.13257e-08
1.2769e-05
1.0456e-08
1.27731e-05
9.66499e-09
1.27768e-05
8.97579e-09
8.40291e-09
1.27799e-05
1.5455e-05
1.59268e-09
1.54599e-05
4.41284e-09
1.5467e-05
6.28276e-09
1.54755e-05
7.42795e-09
1.54848e-05
7.9681e-09
1.54943e-05
8.06834e-09
1.55039e-05
7.86974e-09
1.55134e-05
7.47465e-09
1.55225e-05
6.95911e-09
1.55313e-05
6.37765e-09
1.55398e-05
5.76751e-09
1.55479e-05
5.15696e-09
1.55556e-05
4.5614e-09
1.55629e-05
3.99964e-09
1.55699e-05
3.46711e-09
1.55766e-05
2.98915e-09
1.5583e-05
2.53082e-09
2.20056e-09
1.55892e-05
1.88392e-05
7.18766e-11
1.88439e-05
-3.53858e-10
1.88509e-05
-7.38857e-10
1.88593e-05
-9.68351e-10
1.88684e-05
-1.0876e-09
1.88776e-05
-1.13156e-09
1.88866e-05
-1.12698e-09
1.88952e-05
-1.09363e-09
1.89032e-05
-1.04211e-09
1.89105e-05
-9.78816e-10
1.89172e-05
-9.06796e-10
1.89232e-05
-8.29604e-10
1.89285e-05
-7.48769e-10
1.89332e-05
-6.70505e-10
1.89372e-05
-5.97382e-10
1.89408e-05
-5.37554e-10
1.89438e-05
-5.10847e-10
-5.99054e-10
1.89466e-05
2.29673e-05
-3.8785e-09
2.29763e-05
-9.40507e-09
2.29887e-05
-1.31029e-08
2.30033e-05
-1.55482e-08
2.30193e-05
-1.70992e-08
2.30362e-05
-1.80042e-08
2.30535e-05
-1.8463e-08
2.3071e-05
-1.86223e-08
2.30886e-05
-1.85805e-08
2.3106e-05
-1.84012e-08
2.31232e-05
-1.81237e-08
2.31401e-05
-1.77678e-08
2.31567e-05
-1.73404e-08
2.31729e-05
-1.6834e-08
2.31885e-05
-1.6237e-08
2.32035e-05
-1.55179e-08
2.32177e-05
-1.46733e-08
-1.3355e-08
2.32304e-05
1.68113e-05
-4.42596e-09
1.68148e-05
-1.29454e-08
1.68204e-05
-1.87e-08
1.6827e-05
-2.21788e-08
1.68339e-05
-2.39863e-08
1.68405e-05
-2.46423e-08
1.68466e-05
-2.45636e-08
1.68521e-05
-2.40365e-08
1.68567e-05
-2.32434e-08
1.68606e-05
-2.2295e-08
1.68638e-05
-2.12583e-08
1.68662e-05
-2.01733e-08
1.68679e-05
-1.90616e-08
1.6869e-05
-1.79463e-08
1.68696e-05
-1.68366e-08
1.68699e-05
-1.57835e-08
1.687e-05
-1.47871e-08
-1.43281e-08
1.68709e-05
1.46387e-05
-8.55086e-09
1.46469e-05
-2.11219e-08
1.46569e-05
-2.87633e-08
1.46679e-05
-3.31742e-08
1.46794e-05
-3.54311e-08
1.4691e-05
-3.62197e-08
1.47025e-05
-3.60831e-08
1.47138e-05
-3.54006e-08
1.4725e-05
-3.44074e-08
1.4736e-05
-3.32499e-08
1.47467e-05
-3.20235e-08
1.47573e-05
-3.07889e-08
1.47679e-05
-2.9589e-08
1.47784e-05
-2.84442e-08
1.47889e-05
-2.73816e-08
1.47995e-05
-2.637e-08
1.48102e-05
-2.54444e-08
-2.39698e-08
1.48198e-05
1.27416e-05
-1.004e-08
1.27468e-05
-2.63131e-08
1.27535e-05
-3.54515e-08
1.27603e-05
-3.99943e-08
1.27666e-05
-4.1726e-08
1.27721e-05
-4.17204e-08
1.27768e-05
-4.07493e-08
1.27807e-05
-3.92981e-08
1.27839e-05
-3.76202e-08
1.27865e-05
-3.58464e-08
1.27885e-05
-3.40459e-08
1.279e-05
-3.22526e-08
1.27909e-05
-3.04681e-08
1.27911e-05
-2.86879e-08
1.27906e-05
-2.68659e-08
1.27892e-05
-2.50086e-08
1.27868e-05
-2.30016e-08
-2.1579e-08
1.27844e-05
1.10966e-05
-1.56769e-08
1.11063e-05
-3.60159e-08
1.11167e-05
-4.58709e-08
1.1127e-05
-5.02895e-08
1.1137e-05
-5.17109e-08
1.11465e-05
-5.12445e-08
1.11555e-05
-4.97568e-08
1.1164e-05
-4.78139e-08
1.11721e-05
-4.56896e-08
1.11798e-05
-4.35212e-08
1.11871e-05
-4.13942e-08
1.11942e-05
-3.93605e-08
1.12012e-05
-3.74613e-08
1.12083e-05
-3.57275e-08
1.12156e-05
-3.42363e-08
1.12236e-05
-3.3027e-08
1.1233e-05
-3.23408e-08
-3.14134e-08
1.12428e-05
9.65975e-06
-2.0213e-08
9.66822e-06
-4.44819e-08
9.67619e-06
-5.38426e-08
9.68262e-06
-5.67208e-08
9.6876e-06
-5.66876e-08
9.69134e-06
-5.49908e-08
9.69416e-06
-5.2573e-08
9.69634e-06
-4.99897e-08
9.69806e-06
-4.74184e-08
9.69945e-06
-4.491e-08
9.70056e-06
-4.24962e-08
9.70139e-06
-4.01927e-08
9.70191e-06
-3.79883e-08
9.70205e-06
-3.5863e-08
9.70153e-06
-3.37188e-08
9.69997e-06
-3.14668e-08
9.69628e-06
-2.86434e-08
-2.57503e-08
9.69061e-06
8.41353e-06
-2.83919e-08
8.42514e-06
-5.60895e-08
8.43537e-06
-6.40784e-08
8.44423e-06
-6.55727e-08
8.45205e-06
-6.45098e-08
8.45884e-06
-6.17826e-08
8.4647e-06
-5.8437e-08
8.46982e-06
-5.51082e-08
8.47434e-06
-5.19398e-08
8.47838e-06
-4.89464e-08
8.48203e-06
-4.61455e-08
8.48538e-06
-4.35438e-08
8.48853e-06
-4.11416e-08
8.49161e-06
-3.89369e-08
8.49489e-06
-3.69968e-08
8.49882e-06
-3.53989e-08
8.50491e-06
-3.47323e-08
-3.47492e-08
8.51391e-06
7.32786e-06
-3.89715e-08
7.33971e-06
-6.7939e-08
7.34648e-06
-7.08415e-08
7.34982e-06
-6.89143e-08
7.35134e-06
-6.60288e-08
7.35177e-06
-6.2217e-08
7.35164e-06
-5.83039e-08
7.35127e-06
-5.47407e-08
7.3508e-06
-5.14723e-08
7.35027e-06
-4.84146e-08
7.34968e-06
-4.55555e-08
7.34903e-06
-4.28947e-08
7.34831e-06
-4.04175e-08
7.34749e-06
-3.81172e-08
7.34641e-06
-3.59183e-08
7.34478e-06
-3.37643e-08
7.34093e-06
-3.08824e-08
-2.67589e-08
7.33294e-06
6.38128e-06
-5.01833e-08
6.39315e-06
-7.98139e-08
6.39997e-06
-7.76546e-08
6.40422e-06
-7.31682e-08
6.40673e-06
-6.85437e-08
6.40777e-06
-6.3251e-08
6.40779e-06
-5.83207e-08
6.40716e-06
-5.41134e-08
6.40613e-06
-5.04405e-08
6.40484e-06
-4.71261e-08
6.40339e-06
-4.41074e-08
6.40185e-06
-4.13542e-08
6.40027e-06
-3.88367e-08
6.39868e-06
-3.65243e-08
6.3972e-06
-3.44407e-08
6.396e-06
-3.25697e-08
6.39678e-06
-3.16594e-08
-3.22957e-08
6.40232e-06
5.56301e-06
-6.77247e-08
5.56912e-06
-8.59263e-08
5.56475e-06
-7.32832e-08
5.55736e-06
-6.57827e-08
5.54964e-06
-6.08235e-08
5.54229e-06
-5.5904e-08
5.53552e-06
-5.15514e-08
5.52928e-06
-4.78711e-08
5.52344e-06
-4.45977e-08
5.51791e-06
-4.15993e-08
5.51265e-06
-3.88409e-08
5.5076e-06
-3.63098e-08
5.50275e-06
-3.3984e-08
5.49809e-06
-3.18619e-08
5.49356e-06
-2.99116e-08
5.48918e-06
-2.81952e-08
5.4835e-06
-2.5979e-08
-2.17986e-08
5.47301e-06
4.85296e-06
-9.30786e-08
4.85866e-06
-9.16291e-08
4.8488e-06
-6.34195e-08
4.83772e-06
-5.46989e-08
4.82553e-06
-4.86341e-08
4.81335e-06
-4.37258e-08
4.80166e-06
-3.98672e-08
4.79055e-06
-3.67528e-08
4.77998e-06
-3.40344e-08
4.76992e-06
-3.15399e-08
4.76032e-06
-2.92374e-08
4.75113e-06
-2.71206e-08
4.74233e-06
-2.51838e-08
4.73389e-06
-2.34194e-08
4.72584e-06
-2.18623e-08
4.71816e-06
-2.05151e-08
4.71242e-06
-2.02383e-08
-2.14327e-08
4.71205e-06
4.1096e-06
4.01797e-06
3.95455e-06
3.89985e-06
3.85122e-06
3.80749e-06
3.76762e-06
3.73087e-06
3.69684e-06
3.6653e-06
3.63606e-06
3.60894e-06
3.58375e-06
3.56033e-06
3.53847e-06
3.51796e-06
3.49772e-06
3.47629e-06
1.25898e-07
-1.25988e-07
2.87541e-07
-1.61622e-07
4.60367e-07
-1.72952e-07
6.15551e-07
-1.55238e-07
7.54909e-07
-1.39467e-07
8.787e-07
-1.23915e-07
9.88946e-07
-1.10317e-07
1.08455e-06
-9.5796e-08
1.16456e-06
-8.00393e-08
1.22697e-06
-6.26164e-08
1.27007e-06
-4.31121e-08
1.29097e-06
-2.1049e-08
1.28589e-06
5.10423e-09
1.25205e-06
3.38291e-08
1.19063e-06
6.14758e-08
1.10668e-06
8.41143e-08
1.00647e-06
1.00262e-07
8.96459e-07
1.10288e-07
7.80997e-07
1.15523e-07
6.63875e-07
1.17403e-07
5.50451e-07
1.13431e-07
4.49616e-07
1.01131e-07
3.64645e-07
8.49455e-08
2.91303e-07
7.39479e-08
2.16772e-07
7.44752e-08
1.30544e-07
8.72377e-08
2.02254e-08
1.10079e-07
-1.14816e-07
1.35685e-07
-2.69055e-07
1.53776e-07
-4.34346e-07
1.65327e-07
-6.06011e-07
1.71188e-07
-7.7909e-07
1.72885e-07
-9.51224e-07
1.71778e-07
-1.11969e-06
1.68236e-07
-1.28256e-06
1.62629e-07
-1.43849e-06
1.5574e-07
-1.5869e-06
1.48261e-07
-1.72779e-06
1.40748e-07
-1.86146e-06
1.33578e-07
-1.98853e-06
1.26962e-07
-2.10955e-06
1.2097e-07
-2.2252e-06
1.15566e-07
-2.3359e-06
1.10656e-07
-2.44207e-06
1.061e-07
-2.54383e-06
1.01753e-07
-2.64136e-06
9.74548e-08
-2.73444e-06
9.30773e-08
-2.823e-06
8.84768e-08
-2.90654e-06
8.3546e-08
-2.98481e-06
7.81542e-08
-3.05703e-06
7.22283e-08
-3.12283e-06
6.56481e-08
-3.18121e-06
5.83743e-08
-3.23167e-06
5.03082e-08
-3.27304e-06
4.1397e-08
-3.30468e-06
3.14803e-08
-3.32517e-06
2.05254e-08
-3.33407e-06
8.76055e-09
-3.33094e-06
-3.02259e-09
-3.31669e-06
-1.43569e-08
-3.29092e-06
-2.56148e-08
-3.25375e-06
-3.72115e-08
-3.20444e-06
-4.90558e-08
-3.14288e-06
-6.15046e-08
-3.06802e-06
-7.45269e-08
-2.97979e-06
-8.81104e-08
-2.87747e-06
-1.01974e-07
-2.76138e-06
-1.15916e-07
-2.63154e-06
-1.29518e-07
-2.48896e-06
-1.4234e-07
-2.33507e-06
-1.53608e-07
-2.1719e-06
-1.62839e-07
-2.00173e-06
-1.69938e-07
-1.82694e-06
-1.74348e-07
-1.65101e-06
-1.7569e-07
-1.47666e-06
-1.73774e-07
-1.30704e-06
-1.69366e-07
-1.14371e-06
-1.62733e-07
-9.89433e-07
-1.54135e-07
-8.44997e-07
-1.4393e-07
-7.11861e-07
-1.331e-07
-5.89492e-07
-1.22002e-07
-4.78291e-07
-1.1131e-07
-3.76945e-07
-1.01118e-07
-2.85266e-07
-9.18466e-08
-2.01838e-07
-8.33164e-08
-1.26622e-07
-7.54505e-08
-5.90146e-08
-6.77342e-08
1.10977e-09
-6.04692e-08
5.84205e-08
-5.7684e-08
1.15951e-07
-5.77613e-08
1.71938e-07
-5.60919e-08
2.25994e-07
-5.40727e-08
2.78206e-07
-5.2197e-08
3.28838e-07
-5.05902e-08
3.78258e-07
-4.93768e-08
4.26858e-07
-4.85458e-08
4.74941e-07
-4.80302e-08
5.22738e-07
-4.7739e-08
5.70385e-07
-4.759e-08
6.17959e-07
-4.75121e-08
6.6547e-07
-4.74488e-08
7.12896e-07
-4.73599e-08
7.60177e-07
-4.72149e-08
8.07238e-07
-4.6998e-08
8.53991e-07
-4.66956e-08
9.00345e-07
-4.63066e-08
9.46213e-07
-4.58281e-08
9.91509e-07
-4.52672e-08
1.03616e-06
-4.46275e-08
1.08009e-06
-4.39205e-08
1.12325e-06
-4.31524e-08
1.16559e-06
-4.2336e-08
1.20707e-06
-4.14778e-08
1.24766e-06
-4.05896e-08
1.28733e-06
-3.96768e-08
1.32607e-06
-3.87499e-08
1.36388e-06
-3.78129e-08
1.40074e-06
-3.68744e-08
1.43667e-06
-3.59371e-08
1.47168e-06
-3.50079e-08
1.50577e-06
-3.40895e-08
1.53895e-06
-3.3188e-08
1.57126e-06
-3.23045e-08
1.6027e-06
-3.14426e-08
1.63331e-06
-3.06018e-08
1.66309e-06
-2.97849e-08
1.69208e-06
-2.89916e-08
1.7203e-06
-2.82243e-08
1.74778e-06
-2.74825e-08
1.77455e-06
-2.67682e-08
1.80063e-06
-2.60807e-08
1.82605e-06
-2.54215e-08
1.85084e-06
-2.47898e-08
1.87503e-06
-2.41866e-08
1.89864e-06
-2.36111e-08
1.92171e-06
-2.30638e-08
1.94426e-06
-2.25436e-08
1.96631e-06
-2.20506e-08
1.98791e-06
-2.15836e-08
2.00906e-06
-2.11431e-08
2.0298e-06
-2.07274e-08
2.05016e-06
-2.03372e-08
2.07015e-06
-1.99707e-08
2.08979e-06
-1.96281e-08
2.10912e-06
-1.93077e-08
2.12816e-06
-1.90102e-08
2.14692e-06
-1.8734e-08
2.16542e-06
-1.84794e-08
2.18369e-06
-1.82446e-08
2.20175e-06
-1.80297e-08
2.21961e-06
-1.78337e-08
2.2373e-06
-1.7657e-08
2.25483e-06
-1.75007e-08
2.27222e-06
-1.73603e-08
2.28949e-06
-1.72404e-08
2.30666e-06
-1.71337e-08
2.32374e-06
-1.7047e-08
2.34075e-06
-1.69776e-08
2.35771e-06
-1.69249e-08
2.37464e-06
-1.68849e-08
2.39153e-06
-1.68531e-08
2.4084e-06
-1.68342e-08
2.42528e-06
-1.68431e-08
2.44219e-06
-1.68676e-08
2.45913e-06
-1.68998e-08
2.47609e-06
-1.69188e-08
2.49304e-06
-1.69109e-08
2.50996e-06
-1.6883e-08
2.5268e-06
-1.67868e-08
2.54348e-06
-1.66437e-08
2.55983e-06
-1.63023e-08
2.57573e-06
-1.58536e-08
2.5906e-06
-1.48177e-08
2.60404e-06
-1.33935e-08
2.61409e-06
-9.99374e-09
2.61601e-06
-1.86139e-09
2.59652e-06
1.95471e-08
2.52847e-06
6.8104e-08
1.2418e-07
2.40435e-06
1.85736e-07
-3.11754e-07
3.12068e-07
-2.87962e-07
4.18772e-07
-2.79711e-07
5.03463e-07
-2.39973e-07
5.89563e-07
-2.25623e-07
6.71217e-07
-2.05636e-07
7.50729e-07
-1.89877e-07
8.22576e-07
-1.67726e-07
8.84103e-07
-1.41604e-07
9.30269e-07
-1.08879e-07
9.61052e-07
-7.39243e-08
9.82004e-07
-4.20784e-08
9.96285e-07
-9.18133e-09
9.94069e-07
3.60422e-08
9.62743e-07
9.28362e-08
8.9857e-07
1.48362e-07
8.08012e-07
1.90877e-07
7.00722e-07
2.17672e-07
5.84655e-07
2.31648e-07
4.65958e-07
2.36171e-07
3.47676e-07
2.31744e-07
2.28116e-07
2.20738e-07
1.00219e-07
2.12874e-07
-4.5059e-08
2.19325e-07
-2.11984e-07
2.41456e-07
-3.9604e-07
2.71393e-07
-5.8671e-07
3.00774e-07
-7.7417e-07
3.23189e-07
-9.54866e-07
3.34431e-07
-1.12405e-06
3.34472e-07
-1.27834e-06
3.25393e-07
-1.41541e-06
3.09883e-07
-1.53412e-06
2.90382e-07
-1.63497e-06
2.68994e-07
-1.71993e-06
2.47505e-07
-1.79156e-06
2.27288e-07
-1.85257e-06
2.09202e-07
-1.90554e-06
1.93647e-07
-1.95268e-06
1.8067e-07
-1.99585e-06
1.70073e-07
-2.03644e-06
1.61523e-07
-2.07554e-06
1.54618e-07
-2.11388e-06
1.48962e-07
-2.15201e-06
1.44182e-07
-2.19023e-06
1.39957e-07
-2.22883e-06
1.36015e-07
-2.2679e-06
1.32131e-07
-2.30759e-06
1.28122e-07
-2.3479e-06
1.23836e-07
-2.38893e-06
1.19133e-07
-2.43062e-06
1.1389e-07
-2.47303e-06
1.0798e-07
-2.51595e-06
1.01266e-07
-2.55928e-06
9.35719e-08
-2.60265e-06
8.47471e-08
-2.64591e-06
7.46598e-08
-2.68863e-06
6.32369e-08
-2.73017e-06
5.02485e-08
-2.76843e-06
3.52596e-08
-2.80101e-06
1.81964e-08
-2.8256e-06
-9.6267e-10
-2.84046e-06
-2.2325e-08
-2.84332e-06
-4.60827e-08
-2.83293e-06
-7.18102e-08
-2.80822e-06
-9.90836e-08
-2.76864e-06
-1.27566e-07
-2.71367e-06
-1.56781e-07
-2.64324e-06
-1.86205e-07
-2.55752e-06
-2.15072e-07
-2.4572e-06
-2.42496e-07
-2.34338e-06
-2.67277e-07
-2.21788e-06
-2.88167e-07
-2.08298e-06
-3.04685e-07
-1.94092e-06
-3.16226e-07
-1.79427e-06
-3.22189e-07
-1.64554e-06
-3.22302e-07
-1.49741e-06
-3.17345e-07
-1.35216e-06
-3.07809e-07
-1.21169e-06
-2.94504e-07
-1.07716e-06
-2.78339e-07
-9.49704e-07
-2.605e-07
-8.29778e-07
-2.41864e-07
-7.17725e-07
-2.23355e-07
-6.13306e-07
-2.05511e-07
-5.16245e-07
-1.88922e-07
-4.25754e-07
-1.7381e-07
-3.40846e-07
-1.60391e-07
-2.60195e-07
-1.48429e-07
-1.83168e-07
-1.37571e-07
-1.1249e-07
-1.28452e-07
-4.89346e-08
-1.21374e-07
1.05291e-08
-1.15584e-07
6.70481e-08
-1.10596e-07
1.21295e-07
-1.0644e-07
1.73946e-07
-1.03229e-07
2.2542e-07
-1.00838e-07
2.76036e-07
-9.91449e-08
3.26006e-07
-9.79837e-08
3.75474e-07
-9.71872e-08
4.24532e-07
-9.66282e-08
4.7324e-07
-9.61973e-08
5.21627e-07
-9.58126e-08
5.69702e-07
-9.54079e-08
6.1745e-07
-9.49377e-08
6.64848e-07
-9.43694e-08
7.11857e-07
-9.36834e-08
7.5844e-07
-9.28688e-08
8.04549e-07
-9.19227e-08
8.50143e-07
-9.08482e-08
8.95176e-07
-8.96525e-08
9.39609e-07
-8.83469e-08
9.83404e-07
-8.69439e-08
1.02653e-06
-8.54581e-08
1.06895e-06
-8.39031e-08
1.11066e-06
-8.22937e-08
1.15162e-06
-8.06425e-08
1.19183e-06
-7.89625e-08
1.23128e-06
-7.72642e-08
1.26996e-06
-7.55587e-08
1.30787e-06
-7.38541e-08
1.34502e-06
-7.21598e-08
1.38141e-06
-7.04825e-08
1.41706e-06
-6.88299e-08
1.45196e-06
-6.72066e-08
1.48613e-06
-6.56174e-08
1.5196e-06
-6.40648e-08
1.55236e-06
-6.25521e-08
1.58445e-06
-6.10812e-08
1.61588e-06
-5.9655e-08
1.64667e-06
-5.82748e-08
1.67685e-06
-5.69426e-08
1.70643e-06
-5.56592e-08
1.73543e-06
-5.4426e-08
1.76389e-06
-5.32433e-08
1.79181e-06
-5.21117e-08
1.81923e-06
-5.10311e-08
1.84617e-06
-5.00015e-08
1.87265e-06
-4.90219e-08
1.8987e-06
-4.80923e-08
1.92433e-06
-4.72111e-08
1.94957e-06
-4.63787e-08
1.97444e-06
-4.5593e-08
1.99897e-06
-4.48545e-08
2.02317e-06
-4.41606e-08
2.04706e-06
-4.35113e-08
2.07066e-06
-4.29042e-08
2.094e-06
-4.23395e-08
2.1171e-06
-4.18151e-08
2.13996e-06
-4.1331e-08
2.16261e-06
-4.0885e-08
2.18507e-06
-4.04772e-08
2.20736e-06
-4.01054e-08
2.22949e-06
-3.97713e-08
2.25148e-06
-3.94734e-08
2.27335e-06
-3.92134e-08
2.29511e-06
-3.89871e-08
2.31679e-06
-3.87964e-08
2.3384e-06
-3.86367e-08
2.35995e-06
-3.85156e-08
2.38147e-06
-3.84221e-08
2.40296e-06
-3.83598e-08
2.42445e-06
-3.83253e-08
2.44595e-06
-3.83103e-08
2.46746e-06
-3.83341e-08
2.48898e-06
-3.83666e-08
2.51052e-06
-3.84156e-08
2.53207e-06
-3.84505e-08
2.55363e-06
-3.8449e-08
2.57518e-06
-3.8403e-08
2.59664e-06
-3.8226e-08
2.61796e-06
-3.79343e-08
2.63895e-06
-3.72708e-08
2.65947e-06
-3.63417e-08
2.67902e-06
-3.43389e-08
2.6973e-06
-3.16492e-08
2.71296e-06
-2.56177e-08
2.72741e-06
-1.62801e-08
2.74478e-06
2.20961e-09
2.77026e-06
4.2656e-08
1.13712e-07
2.78076e-06
1.03169e-07
-4.14946e-07
1.32861e-07
-3.17658e-07
1.81851e-07
-3.28749e-07
2.33893e-07
-2.92053e-07
2.92271e-07
-2.84046e-07
3.52349e-07
-2.65769e-07
4.12205e-07
-2.49767e-07
4.63983e-07
-2.19567e-07
5.02328e-07
-1.79969e-07
5.2114e-07
-1.27761e-07
5.22931e-07
-7.57274e-08
5.12468e-07
-3.16688e-08
4.9371e-07
9.57681e-09
4.63635e-07
6.61187e-08
4.18506e-07
1.37987e-07
3.57809e-07
2.0911e-07
2.84129e-07
2.6459e-07
2.00557e-07
3.01308e-07
1.09124e-07
3.23105e-07
1.01444e-08
3.35198e-07
-1.01312e-07
3.43208e-07
-2.34564e-07
3.54016e-07
-3.93759e-07
3.7207e-07
-5.70553e-07
3.96155e-07
-7.49746e-07
4.20652e-07
-9.17818e-07
4.39505e-07
-1.06575e-06
4.48698e-07
-1.18911e-06
4.4657e-07
-1.28832e-06
4.3362e-07
-1.366e-06
4.12144e-07
-1.42591e-06
3.85268e-07
-1.47225e-06
3.56191e-07
-1.50953e-06
3.2761e-07
-1.5421e-06
3.01524e-07
-1.57382e-06
2.79179e-07
-1.60768e-06
2.61109e-07
-1.64581e-06
2.47292e-07
-1.68951e-06
2.37313e-07
-1.73943e-06
2.30552e-07
-1.79569e-06
2.26296e-07
-1.85805e-06
2.23849e-07
-1.92603e-06
2.22563e-07
-1.99898e-06
2.21883e-07
-2.07616e-06
2.21336e-07
-2.15677e-06
2.20541e-07
-2.23997e-06
2.19186e-07
-2.32489e-06
2.17025e-07
-2.41065e-06
2.13856e-07
-2.49634e-06
2.09511e-07
-2.58109e-06
2.03843e-07
-2.66394e-06
1.96723e-07
-2.74402e-06
1.88015e-07
-2.82036e-06
1.77587e-07
-2.8921e-06
1.6527e-07
-2.95826e-06
1.50886e-07
-3.01786e-06
1.34223e-07
-3.06971e-06
1.15074e-07
-3.11265e-06
9.31682e-08
-3.14564e-06
6.8254e-08
-3.1678e-06
4.03504e-08
-3.17842e-06
9.67255e-09
-3.17695e-06
-2.37686e-08
-3.16327e-06
-5.97176e-08
-3.13697e-06
-9.80629e-08
-3.0974e-06
-1.3858e-07
-3.04401e-06
-1.80882e-07
-2.97634e-06
-2.24364e-07
-2.89423e-06
-2.68229e-07
-2.79778e-06
-3.1142e-07
-2.68755e-06
-3.52632e-07
-2.5644e-06
-3.90329e-07
-2.42969e-06
-4.22772e-07
-2.28588e-06
-4.48397e-07
-2.13545e-06
-4.66559e-07
-1.98103e-06
-4.7651e-07
-1.82542e-06
-4.7782e-07
-1.67153e-06
-4.71161e-07
-1.52173e-06
-4.57535e-07
-1.37784e-06
-4.3834e-07
-1.24098e-06
-4.15155e-07
-1.11186e-06
-3.89596e-07
-9.90714e-07
-3.6299e-07
-8.77558e-07
-3.36503e-07
-7.72139e-07
-3.10926e-07
-6.74144e-07
-2.86921e-07
-5.83121e-07
-2.64837e-07
-4.98551e-07
-2.44971e-07
-4.19626e-07
-2.2737e-07
-3.45123e-07
-2.12108e-07
-2.7435e-07
-1.99259e-07
-2.0713e-07
-1.88619e-07
-1.42921e-07
-1.79805e-07
-8.09927e-08
-1.72528e-07
-2.08325e-08
-1.66598e-07
3.78382e-08
-1.61895e-07
9.52787e-08
-1.58272e-07
1.51664e-07
-1.55523e-07
2.07136e-07
-1.53447e-07
2.61827e-07
-1.51868e-07
3.15842e-07
-1.50633e-07
3.69263e-07
-1.49606e-07
4.22142e-07
-1.4868e-07
4.74512e-07
-1.47763e-07
5.26381e-07
-1.46793e-07
5.77747e-07
-1.45721e-07
6.28592e-07
-1.44517e-07
6.78895e-07
-1.43161e-07
7.28627e-07
-1.41647e-07
7.77758e-07
-1.39973e-07
8.26257e-07
-1.38148e-07
8.74094e-07
-1.36181e-07
9.21241e-07
-1.3409e-07
9.67673e-07
-1.3189e-07
1.01337e-06
-1.296e-07
1.05831e-06
-1.27235e-07
1.10248e-06
-1.24814e-07
1.14586e-06
-1.22351e-07
1.18846e-06
-1.19861e-07
1.23026e-06
-1.17359e-07
1.27125e-06
-1.14857e-07
1.31146e-06
-1.12365e-07
1.35087e-06
-1.09894e-07
1.38949e-06
-1.07454e-07
1.42734e-06
-1.05051e-07
1.46441e-06
-1.02692e-07
1.50073e-06
-1.00382e-07
1.5363e-06
-9.8125e-08
1.57114e-06
-9.59252e-08
1.60527e-06
-9.37859e-08
1.6387e-06
-9.17104e-08
1.67146e-06
-8.97011e-08
1.70356e-06
-8.77602e-08
1.73502e-06
-8.58893e-08
1.76586e-06
-8.40899e-08
1.79611e-06
-8.23629e-08
1.82579e-06
-8.07088e-08
1.85491e-06
-7.91277e-08
1.88351e-06
-7.76189e-08
1.9116e-06
-7.61818e-08
1.9392e-06
-7.48156e-08
1.96634e-06
-7.35194e-08
1.99304e-06
-7.22921e-08
2.01932e-06
-7.11323e-08
2.0452e-06
-7.00385e-08
2.0707e-06
-6.90092e-08
2.09584e-06
-6.80429e-08
2.12064e-06
-6.71385e-08
2.14512e-06
-6.62946e-08
2.1693e-06
-6.55101e-08
2.19321e-06
-6.47834e-08
2.21684e-06
-6.41135e-08
2.24024e-06
-6.34999e-08
2.26342e-06
-6.29428e-08
2.28639e-06
-6.24416e-08
2.30918e-06
-6.19952e-08
2.33179e-06
-6.16021e-08
2.35426e-06
-6.1262e-08
2.37661e-06
-6.09739e-08
2.39884e-06
-6.07404e-08
2.42097e-06
-6.05553e-08
2.44303e-06
-6.04152e-08
2.46503e-06
-6.0319e-08
2.48699e-06
-6.02617e-08
2.50891e-06
-6.02477e-08
2.53081e-06
-6.0259e-08
2.55268e-06
-6.02843e-08
2.57454e-06
-6.03023e-08
2.59637e-06
-6.02735e-08
2.61816e-06
-6.01822e-08
2.63985e-06
-5.99101e-08
2.66138e-06
-5.94599e-08
2.68262e-06
-5.85066e-08
2.70343e-06
-5.71388e-08
2.72348e-06
-5.43828e-08
2.74246e-06
-5.06171e-08
2.75964e-06
-4.2787e-08
2.77491e-06
-3.15432e-08
2.78629e-06
-9.16479e-09
2.79732e-06
3.16348e-08
1.09282e-07
2.80176e-06
1.54086e-08
-4.30364e-07
6.47043e-09
-3.08718e-07
1.73569e-08
-3.39672e-07
3.83006e-08
-3.13031e-07
5.29913e-08
-2.98772e-07
6.63523e-08
-2.79174e-07
7.32452e-08
-2.56685e-07
7.74386e-08
-2.23804e-07
7.432e-08
-1.76863e-07
6.40201e-08
-1.17508e-07
4.24572e-08
-5.41699e-08
3.77179e-09
6.9779e-09
-5.27921e-08
6.61468e-08
-1.15644e-07
1.28968e-07
-1.73296e-07
1.9566e-07
-2.2352e-07
2.59369e-07
-2.72521e-07
3.13618e-07
-3.28213e-07
3.57043e-07
-3.97201e-07
3.92109e-07
-4.8433e-07
4.22355e-07
-5.91413e-07
4.50291e-07
-7.13508e-07
4.76123e-07
-8.39165e-07
4.97718e-07
-9.5509e-07
5.1209e-07
-1.05143e-06
5.16979e-07
-1.12357e-06
5.11655e-07
-1.17182e-06
4.96936e-07
-1.20002e-06
4.74778e-07
-1.21427e-06
4.47855e-07
-1.22126e-06
4.19126e-07
-1.22732e-06
3.91303e-07
-1.23762e-06
3.66483e-07
-1.256e-06
3.45958e-07
-1.28474e-06
3.30246e-07
-1.32483e-06
3.19245e-07
-1.37617e-06
3.12423e-07
-1.43794e-06
3.09032e-07
-1.50888e-06
3.08228e-07
-1.58755e-06
3.09196e-07
-1.67247e-06
3.11184e-07
-1.76219e-06
3.1354e-07
-1.85537e-06
3.15709e-07
-1.95076e-06
3.17242e-07
-2.04723e-06
3.17771e-07
-2.14373e-06
3.17014e-07
-2.23933e-06
3.14753e-07
-2.33315e-06
3.10825e-07
-2.42443e-06
3.05107e-07
-2.51245e-06
2.97503e-07
-2.59656e-06
2.87932e-07
-2.67618e-06
2.76315e-07
-2.75076e-06
2.62568e-07
-2.81978e-06
2.46589e-07
-2.8828e-06
2.28255e-07
-2.93935e-06
2.0742e-07
-2.98907e-06
1.83919e-07
-3.03156e-06
1.57548e-07
-3.06645e-06
1.28045e-07
-3.09334e-06
9.51329e-08
-3.11165e-06
5.86541e-08
-3.12052e-06
1.85481e-08
-3.1191e-06
-2.51923e-08
-3.10635e-06
-7.24402e-08
-3.08124e-06
-1.23155e-07
-3.04277e-06
-1.77012e-07
-2.99014e-06
-2.33469e-07
-2.92274e-06
-2.91711e-07
-2.84026e-06
-3.50646e-07
-2.74277e-06
-4.08842e-07
-2.63085e-06
-4.64479e-07
-2.50565e-06
-5.15455e-07
-2.36883e-06
-5.59515e-07
-2.22276e-06
-5.94386e-07
-2.07057e-06
-6.18675e-07
-1.91569e-06
-6.31326e-07
-1.76152e-06
-6.31924e-07
-1.61129e-06
-6.21336e-07
-1.46746e-06
-6.01327e-07
-1.33155e-06
-5.74225e-07
-1.20425e-06
-5.42429e-07
-1.08569e-06
-5.08144e-07
-9.75538e-07
-4.73134e-07
-8.73246e-07
-4.38789e-07
-7.78116e-07
-4.06054e-07
-6.89426e-07
-3.75612e-07
-6.06437e-07
-3.47828e-07
-5.28481e-07
-3.22931e-07
-4.54931e-07
-3.00928e-07
-3.85225e-07
-2.8183e-07
-3.18882e-07
-2.65623e-07
-2.55381e-07
-2.52135e-07
-1.94162e-07
-2.4103e-07
-1.34713e-07
-2.31978e-07
-7.66031e-08
-2.24707e-07
-1.95491e-08
-2.18946e-07
3.66018e-08
-2.14419e-07
9.19544e-08
-2.1087e-07
1.46606e-07
-2.08093e-07
2.00628e-07
-2.05884e-07
2.54064e-07
-2.04063e-07
3.0694e-07
-2.02474e-07
3.59264e-07
-2.00994e-07
4.11034e-07
-1.99523e-07
4.62239e-07
-1.97988e-07
5.12864e-07
-1.96337e-07
5.62889e-07
-1.94534e-07
6.12292e-07
-1.92559e-07
6.61053e-07
-1.90403e-07
7.09151e-07
-1.88068e-07
7.56567e-07
-1.85562e-07
8.03287e-07
-1.82899e-07
8.49295e-07
-1.80098e-07
8.9458e-07
-1.77176e-07
9.39135e-07