/*--------------------------------*- C++ -*----------------------------------*\
| =========                 |                                                 |
| \\      /  F ield         | OpenFOAM: The Open Source CFD Toolbox           |
|  \\    /   O peration     | Version:  v1906                                 |
|   \\  /    A nd           | Web:      www.OpenFOAM.com                      |
|    \\/     M anipulation  |                                                 |
\*---------------------------------------------------------------------------*/
FoamFile
{
    version     2.0;
    format      ascii;
    class       volSymmTensorField;
    location    "500";
    object      R;
}
// * * * * * * * * * * * * * * * * * * * * * * * * * * * * * * * * * * * * * //

dimensions      [0 2 -2 0 0 0 0];


internalField   nonuniform List<symmTensor> 
12225
(
(1.62918 -0.333427 0 1.36078 0 1.52752)
(1.99603 -0.597707 0 0.915068 0 1.54224)
(2.14974 -0.586204 0 0.68566 0 1.48846)
(2.16277 -0.548269 0 0.594773 0 1.4258)
(2.12993 -0.521025 0 0.549767 0 1.37019)
(2.08399 -0.501275 0 0.521765 0 1.32316)
(2.03666 -0.485786 0 0.501184 0 1.28297)
(1.99249 -0.473028 0 0.484838 0 1.24852)
(1.95118 -0.461943 0 0.471005 0 1.21803)
(1.91515 -0.45252 0 0.459463 0 1.19187)
(1.88027 -0.443735 0 0.449019 0 1.16769)
(1.85286 -0.437118 0 0.440402 0 1.14765)
(1.83078 -0.431901 0 0.433408 0 1.13141)
(1.81329 -0.427592 0 0.427662 0 1.11792)
(1.79683 -0.423611 0 0.422471 0 1.10583)
(1.78528 -0.421128 0 0.418964 0 1.09681)
(1.77149 -0.417088 0 0.413981 0 1.0865)
(1.76605 -0.417934 0 0.413575 0 1.08212)
(1.52372 -0.0379507 0 1.4601 0 1.51677)
(1.57651 -0.140441 0 1.18693 0 1.51214)
(1.58672 -0.190057 0 0.927594 0 1.45697)
(1.57205 -0.209373 0 0.773714 0 1.39907)
(1.54349 -0.218199 0 0.676113 0 1.34285)
(1.5188 -0.225277 0 0.610948 0 1.29757)
(1.49713 -0.231475 0 0.564231 0 1.25992)
(1.47765 -0.236891 0 0.528828 0 1.22733)
(1.46114 -0.241882 0 0.501193 0 1.19982)
(1.4464 -0.246132 0 0.478779 0 1.17519)
(1.43484 -0.250407 0 0.460675 0 1.15505)
(1.42375 -0.253635 0 0.444941 0 1.13547)
(1.41673 -0.257846 0 0.432833 0 1.12131)
(1.40903 -0.260037 0 0.42078 0 1.10505)
(1.40495 -0.264394 0 0.413368 0 1.09589)
(1.40014 -0.265207 0 0.402671 0 1.0816)
(1.3966 -0.269334 0 0.399155 0 1.07605)
(1.39242 -0.268319 0 0.388912 0 1.06217)
(1.51161 -0.00810288 0 1.49388 0 1.51021)
(1.53452 -0.0358745 0 1.38466 0 1.51859)
(1.54645 -0.0615385 0 1.23512 0 1.50563)
(1.54339 -0.0798771 0 1.11791 0 1.48178)
(1.52927 -0.0934872 0 1.02627 0 1.45234)
(1.51241 -0.105368 0 0.952783 0 1.42305)
(1.49515 -0.116033 0 0.892906 0 1.39554)
(1.47811 -0.125645 0 0.84316 0 1.3698)
(1.46225 -0.134466 0 0.801314 0 1.34643)
(1.4474 -0.142399 0 0.765514 0 1.32474)
(1.43417 -0.149879 0 0.734789 0 1.30552)
(1.42184 -0.156427 0 0.707663 0 1.28722)
(1.41104 -0.162918 0 0.684529 0 1.2717)
(1.40159 -0.168217 0 0.662875 0 1.25605)
(1.39192 -0.173889 0 0.646066 0 1.24407)
(1.38728 -0.177961 0 0.62615 0 1.22983)
(1.3729 -0.182581 0 0.618893 0 1.22249)
(1.38763 -0.184749 0 0.588104 0 1.20687)
(1.51152 -0.0060728 0 1.49418 0 1.51109)
(1.5272 -0.0163014 0 1.42183 0 1.52173)
(1.53973 -0.0295226 0 1.31293 0 1.52317)
(1.5429 -0.0419775 0 1.2135 0 1.51515)
(1.53782 -0.0522887 0 1.12967 0 1.50089)
(1.52879 -0.0613785 0 1.059 0 1.48397)
(1.51794 -0.0696413 0 0.999384 0 1.46633)
(1.50617 -0.0772182 0 0.948657 0 1.44863)
(1.49432 -0.0842685 0 0.905118 0 1.43158)
(1.48265 -0.0907578 0 0.867351 0 1.41518)
(1.47156 -0.0968778 0 0.83443 0 1.39988)
(1.46098 -0.102454 0 0.805309 0 1.38522)
(1.45108 -0.107808 0 0.779807 0 1.3719)
(1.44206 -0.112504 0 0.756622 0 1.35898)
(1.43305 -0.117105 0 0.736794 0 1.34767)
(1.42633 -0.120845 0 0.717098 0 1.33614)
(1.41696 -0.12444 0 0.702966 0 1.32713)
(1.41413 -0.127181 0 0.68259 0 1.31648)
(1.50986 -0.00454727 0 1.49822 0 1.50975)
(1.5209 -0.00885696 0 1.44949 0 1.51875)
(1.53219 -0.0149777 0 1.37332 0 1.52453)
(1.53791 -0.0220653 0 1.29837 0 1.52386)
(1.53783 -0.0287232 0 1.23174 0 1.51809)
(1.53419 -0.0350509 0 1.17298 0 1.50933)
(1.52841 -0.041177 0 1.12133 0 1.49898)
(1.52128 -0.04707 0 1.07584 0 1.48777)
(1.51345 -0.0527258 0 1.03559 0 1.47629)
(1.50528 -0.058089 0 0.999768 0 1.46478)
(1.4971 -0.0632087 0 0.96781 0 1.45358)
(1.48901 -0.0680051 0 0.939067 0 1.44262)
(1.48113 -0.0725691 0 0.913255 0 1.43222)
(1.47366 -0.0767242 0 0.889752 0 1.42214)
(1.46633 -0.0806177 0 0.868674 0 1.41278)
(1.45992 -0.0840118 0 0.848869 0 1.40365)
(1.45334 -0.0870079 0 0.831731 0 1.39568)
(1.44877 -0.0897525 0 0.813035 0 1.38756)
(1.50977 -0.00412419 0 1.49854 0 1.50979)
(1.51846 -0.00589083 0 1.46071 0 1.51761)
(1.52829 -0.00846937 0 1.40237 0 1.52456)
(1.53482 -0.0123161 0 1.34183 0 1.52735)
(1.53732 -0.0164162 0 1.28529 0 1.52625)
(1.53688 -0.0205714 0 1.23368 0 1.52242)
(1.5344 -0.0247802 0 1.18706 0 1.51681)
(1.53046 -0.0289668 0 1.14513 0 1.51002)
(1.52558 -0.0330786 0 1.10738 0 1.50253)
(1.5201 -0.0370651 0 1.07332 0 1.49465)
(1.51428 -0.0409213 0 1.04253 0 1.48664)
(1.5083 -0.0445971 0 1.01458 0 1.4786)
(1.50229 -0.0480986 0 0.989178 0 1.4707)
(1.49638 -0.0513448 0 0.965939 0 1.46295)
(1.49058 -0.0543481 0 0.944715 0 1.45553)
(1.48519 -0.0570438 0 0.924981 0 1.44835)
(1.4799 -0.0594301 0 0.906972 0 1.44167)
(1.47535 -0.0617882 0 0.888839 0 1.43508)
(1.50947 -0.00340228 0 1.49935 0 1.50954)
(1.51635 -0.00438969 0 1.4691 0 1.5161)
(1.52455 -0.00519782 0 1.4239 0 1.52278)
(1.53085 -0.0069312 0 1.37545 0 1.52687)
(1.53439 -0.00910937 0 1.32876 0 1.5281)
(1.53564 -0.0115552 0 1.28511 0 1.52709)
(1.53514 -0.0142333 0 1.2449 0 1.52444)
(1.5333 -0.0170535 0 1.20806 0 1.52059)
(1.53049 -0.0199354 0 1.17437 0 1.51593)
(1.52701 -0.022817 0 1.14354 0 1.51072)
(1.52307 -0.0256622 0 1.11529 0 1.50517)
(1.51884 -0.0284227 0 1.08936 0 1.49943)
(1.51444 -0.0310699 0 1.06551 0 1.49363)
(1.50999 -0.033555 0 1.04349 0 1.48783)
(1.50558 -0.0358562 0 1.02312 0 1.48216)
(1.50135 -0.0379633 0 1.00413 0 1.47664)
(1.49737 -0.0398713 0 0.986427 0 1.47142)
(1.4936 -0.0418313 0 0.969298 0 1.46631)
(1.50952 -0.00300851 0 1.4993 0 1.50963)
(1.51533 -0.00367019 0 1.4735 0 1.5154)
(1.52219 -0.00361966 0 1.437 0 1.52149)
(1.528 -0.00416417 0 1.39696 0 1.52601)
(1.53193 -0.00516741 0 1.35729 0 1.5285)
(1.53413 -0.00651106 0 1.31937 0 1.52921)
(1.53488 -0.00814528 0 1.28376 0 1.5285)
(1.53446 -0.00998063 0 1.25063 0 1.52669)
(1.53314 -0.0119347 0 1.21991 0 1.52404)
(1.53114 -0.0139463 0 1.19148 0 1.52079)
(1.52863 -0.0159711 0 1.16516 0 1.51712)
(1.52577 -0.0179648 0 1.14078 0 1.51315)
(1.52266 -0.0198917 0 1.11817 0 1.509)
(1.51943 -0.0217177 0 1.09714 0 1.50476)
(1.51615 -0.0234214 0 1.07753 0 1.50052)
(1.51293 -0.0250089 0 1.05917 0 1.49634)
(1.50975 -0.0265132 0 1.04196 0 1.49227)
(1.50648 -0.0280917 0 1.02568 0 1.48828)
(1.50948 -0.00247107 0 1.49946 0 1.50961)
(1.51441 -0.00312439 0 1.47714 0 1.51466)
(1.52013 -0.00273567 0 1.44713 0 1.52005)
(1.52528 -0.00258056 0 1.41383 0 1.52449)
(1.52915 -0.00277246 0 1.3802 0 1.5275)
(1.53174 -0.00329184 0 1.34754 0 1.52913)
(1.53316 -0.00411249 0 1.31643 0 1.52958)
(1.53361 -0.00516436 0 1.28713 0 1.52907)
(1.53325 -0.00637469 0 1.25967 0 1.52779)
(1.53226 -0.00768502 0 1.234 0 1.52592)
(1.53078 -0.00904822 0 1.21001 0 1.5236)
(1.52894 -0.0104214 0 1.18761 0 1.52095)
(1.52684 -0.0117682 0 1.16666 0 1.51808)
(1.52458 -0.0130617 0 1.14704 0 1.51506)
(1.52222 -0.0142859 0 1.12863 0 1.51197)
(1.51985 -0.0154536 0 1.11132 0 1.50889)
(1.51746 -0.0165902 0 1.09505 0 1.50585)
(1.51478 -0.0178226 0 1.07988 0 1.50283)
(1.50951 -0.00211934 0 1.49943 0 1.50965)
(1.51389 -0.00279876 0 1.47941 0 1.51424)
(1.51874 -0.00229985 0 1.45397 0 1.51903)
(1.52326 -0.0017884 0 1.42569 0 1.52323)
(1.52692 -0.00151271 0 1.39672 0 1.52642)
(1.52963 -0.00152427 0 1.36814 0 1.52856)
(1.53143 -0.00181774 0 1.34057 0 1.52975)
(1.53242 -0.00234037 0 1.31428 0 1.53012)
(1.53273 -0.00303098 0 1.28938 0 1.52981)
(1.53248 -0.00383687 0 1.26588 0 1.52894)
(1.53177 -0.00471356 0 1.24374 0 1.52765)
(1.53072 -0.00562232 0 1.22291 0 1.52602)
(1.5294 -0.00653112 0 1.20329 0 1.52414)
(1.52789 -0.00741872 0 1.18481 0 1.52208)
(1.52626 -0.00827536 0 1.1674 0 1.51991)
(1.52453 -0.00911496 0 1.15098 0 1.51768)
(1.52265 -0.00997425 0 1.13558 0 1.51543)
(1.52042 -0.0109153 0 1.12132 0 1.51316)
(1.50948 -0.00171118 0 1.49954 0 1.50962)
(1.51339 -0.00242122 0 1.48141 0 1.51382)
(1.51752 -0.00195472 0 1.4595 0 1.51806)
(1.52145 -0.00128778 0 1.43526 0 1.52192)
(1.52479 -0.000730169 0 1.41018 0 1.52506)
(1.52744 -0.000389873 0 1.38517 0 1.52741)
(1.52938 -0.000289676 0 1.36078 0 1.529)
(1.53066 -0.000399999 0 1.3373 0 1.52991)
(1.53138 -0.000675728 0 1.31487 0 1.53023)
(1.53161 -0.0010731 0 1.29353 0 1.53006)
(1.53144 -0.00155282 0 1.27328 0 1.52949)
(1.53094 -0.00208075 0 1.2541 0 1.5286)
(1.5302 -0.00262916 0 1.23593 0 1.52746)
(1.52927 -0.00318034 0 1.21873 0 1.52613)
(1.52819 -0.00372663 0 1.20246 0 1.52468)
(1.52699 -0.00427773 0 1.1871 0 1.52314)
(1.5256 -0.00485107 0 1.17268 0 1.52155)
(1.5238 -0.00550784 0 1.15941 0 1.5199)
(1.50945 -0.00144974 0 1.49964 0 1.5096)
(1.51306 -0.00216719 0 1.48274 0 1.51353)
(1.5167 -0.0017701 0 1.46321 0 1.51739)
(1.52017 -0.00107441 0 1.4418 0 1.52094)
(1.52322 -0.00040184 0 1.41955 0 1.52396)
(1.52573 0.000111219 0 1.39718 0 1.52637)
(1.52769 0.000424288 0 1.37518 0 1.52816)
(1.52912 0.000550416 0 1.35381 0 1.52939)
(1.53007 0.000522369 0 1.33324 0 1.53011)
(1.5306 0.000376081 0 1.31353 0 1.53039)
(1.53078 0.000145444 0 1.29471 0 1.53032)
(1.53067 -0.000139971 0 1.27678 0 1.52994)
(1.53033 -0.000456404 0 1.25972 0 1.52932)
(1.52979 -0.000788746 0 1.24351 0 1.52851)
(1.5291 -0.00113052 0 1.22813 0 1.52756)
(1.52825 -0.00148771 0 1.2136 0 1.52651)
(1.52717 -0.00187679 0 1.19999 0 1.52538)
(1.5257 -0.00231235 0 1.18746 0 1.52418)
(1.50938 -0.00117921 0 1.49982 0 1.50954)
(1.51274 -0.00186424 0 1.484 0 1.51324)
(1.51596 -0.00154901 0 1.46639 0 1.51675)
(1.51903 -0.000880218 0 1.44732 0 1.52001)
(1.52177 -0.000162038 0 1.42747 0 1.52287)
(1.52412 0.000455489 0 1.4074 0 1.52524)
(1.52602 0.000917661 0 1.3875 0 1.52713)
(1.5275 0.00122216 0 1.36804 0 1.52854)
(1.52859 0.00138944 0 1.34918 0 1.52952)
(1.52931 0.00144696 0 1.331 0 1.53012)
(1.52974 0.0014226 0 1.31354 0 1.5304)
(1.5299 0.00134146 0 1.29683 0 1.5304)
(1.52985 0.00122396 0 1.28086 0 1.53018)
(1.52962 0.00108425 0 1.26564 0 1.52977)
(1.52923 0.00092997 0 1.25117 0 1.52922)
(1.52867 0.000762879 0 1.23749 0 1.52856)
(1.52788 0.000581876 0 1.22467 0 1.52781)
(1.5267 0.000368738 0 1.21288 0 1.52697)
(1.5093 -0.000953562 0 1.50004 0 1.50945)
(1.51242 -0.00158926 0 1.48516 0 1.51295)
(1.51529 -0.00136334 0 1.46921 0 1.51617)
(1.51799 -0.00076667 0 1.45221 0 1.51914)
(1.52043 -6.92082e-05 0 1.43454 0 1.5218)
(1.52257 0.00057948 0 1.41659 0 1.52409)
(1.52438 0.00111638 0 1.39867 0 1.526)
(1.52585 0.00152739 0 1.38102 0 1.52753)
(1.52701 0.00182229 0 1.36379 0 1.5287)
(1.52787 0.00202045 0 1.34706 0 1.52956)
(1.52848 0.00214373 0 1.33091 0 1.53012)
(1.52887 0.00221273 0 1.31537 0 1.53044)
(1.52906 0.00224496 0 1.30046 0 1.53056)
(1.52909 0.00225337 0 1.2862 0 1.5305)
(1.52895 0.00224669 0 1.27262 0 1.53029)
(1.52864 0.00222961 0 1.25976 0 1.52997)
(1.5281 0.00220385 0 1.24772 0 1.52956)
(1.52724 0.00219325 0 1.2366 0 1.52907)
(1.50918 -0.000682881 0 1.50034 0 1.50934)
(1.51207 -0.00118939 0 1.48638 0 1.51261)
(1.51462 -0.00102634 0 1.47191 0 1.51555)
(1.51696 -0.000521904 0 1.45674 0 1.51825)
(1.5191 0.000113125 0 1.44103 0 1.52069)
(1.52102 0.000747608 0 1.42502 0 1.52285)
(1.52269 0.00131806 0 1.40896 0 1.52472)
(1.52411 0.00180227 0 1.39303 0 1.52629)
(1.52528 0.00220051 0 1.37736 0 1.52758)
(1.52622 0.00252394 0 1.36207 0 1.52859)
(1.52695 0.00278798 0 1.34721 0 1.52937)
(1.52749 0.00300887 0 1.33284 0 1.52993)
(1.52787 0.00320178 0 1.319 0 1.53031)
(1.52809 0.00338062 0 1.30573 0 1.53053)
(1.52817 0.00355751 0 1.29306 0 1.53061)
(1.52808 0.00374415 0 1.28105 0 1.53057)
(1.52778 0.00395163 0 1.26978 0 1.53044)
(1.52721 0.00416994 0 1.25937 0 1.53023)
(1.50904 -0.000481076 0 1.50068 0 1.5092)
(1.5117 -0.000864192 0 1.48753 0 1.51227)
(1.514 -0.000762614 0 1.47421 0 1.51498)
(1.51607 -0.000379866 0 1.46049 0 1.51744)
(1.51795 0.0001328 0 1.44637 0 1.51969)
(1.51966 0.000672137 0 1.432 0 1.52171)
(1.52118 0.00118222 0 1.41751 0 1.52351)
(1.52251 0.00163893 0 1.40306 0 1.52507)
(1.52365 0.00203711 0 1.38876 0 1.5264)
(1.52461 0.00238204 0 1.37472 0 1.52751)
(1.5254 0.00268407 0 1.36102 0 1.52842)
(1.52604 0.00295565 0 1.34771 0 1.52915)
(1.52654 0.00320998 0 1.33484 0 1.52971)
(1.5269 0.00346042 0 1.32245 0 1.53013)
(1.52714 0.00372119 0 1.31061 0 1.53042)
(1.52723 0.00400887 0 1.29936 0 1.53061)
(1.52717 0.00434277 0 1.28876 0 1.53071)
(1.52692 0.00476902 0 1.27892 0 1.53073)
(1.50889 -0.00021349 0 1.50103 0 1.50906)
(1.51135 -0.000361083 0 1.48858 0 1.51192)
(1.51344 -0.000230934 0 1.47617 0 1.51444)
(1.51529 8.13697e-05 0 1.46353 0 1.51672)
(1.51697 0.000493974 0 1.45062 0 1.5188)
(1.5185 0.000945343 0 1.43748 0 1.52069)
(1.51988 0.00139889 0 1.42421 0 1.5224)
(1.52111 0.00183682 0 1.41092 0 1.52392)
(1.5222 0.00225353 0 1.39771 0 1.52525)
(1.52314 0.00265104 0 1.38468 0 1.5264)
(1.52395 0.00303588 0 1.37191 0 1.52738)
(1.52462 0.00341736 0 1.35945 0 1.52819)
(1.52518 0.00380661 0 1.34737 0 1.52887)
(1.52563 0.00421646 0 1.33572 0 1.52941)
(1.52597 0.00466082 0 1.32454 0 1.52983)
(1.52621 0.00515421 0 1.31391 0 1.53016)
(1.52632 0.00571142 0 1.30386 0 1.5304)
(1.52632 0.00632861 0 1.29448 0 1.53058)
(1.50877 -5.0589e-05 0 1.50132 0 1.50894)
(1.5111 -2.22656e-05 0 1.48932 0 1.51166)
(1.51307 0.000100983 0 1.4774 0 1.51407)
(1.51482 0.000291019 0 1.46536 0 1.51625)
(1.51639 0.00052423 0 1.4531 0 1.51824)
(1.51782 0.000781097 0 1.44066 0 1.52005)
(1.51912 0.00104907 0 1.42809 0 1.5217)
(1.52029 0.00132154 0 1.41548 0 1.52317)
(1.52133 0.00159649 0 1.40293 0 1.52449)
(1.52226 0.00187556 0 1.39051 0 1.52564)
(1.52306 0.0021634 0 1.37831 0 1.52663)
(1.52376 0.0024674 0 1.36639 0 1.52748)
(1.52435 0.0027978 0 1.3548 0 1.52819)
(1.52486 0.00316815 0 1.34359 0 1.52879)
(1.52528 0.00359556 0 1.33282 0 1.52928)
(1.52563 0.00410296 0 1.32253 0 1.52967)
(1.5259 0.0047165 0 1.31276 0 1.52999)
(1.52609 0.00548476 0 1.30357 0 1.53024)
(1.50879 0.000298585 0 1.50126 0 1.50896)
(1.51113 0.000716747 0 1.48917 0 1.5117)
(1.51312 0.000999286 0 1.47716 0 1.51412)
(1.51488 0.0012089 0 1.46499 0 1.5163)
(1.51646 0.00139647 0 1.45261 0 1.51829)
(1.51788 0.00159582 0 1.44004 0 1.5201)
(1.51916 0.00182695 0 1.42736 0 1.52173)
(1.5203 0.00209995 0 1.41465 0 1.52318)
(1.5213 0.00241901 0 1.402 0 1.52445)
(1.52217 0.00278566 0 1.3895 0 1.52556)
(1.52291 0.00320099 0 1.37723 0 1.5265)
(1.52353 0.00366697 0 1.36525 0 1.52729)
(1.52406 0.00418725 0 1.35359 0 1.52794)
(1.5245 0.00476748 0 1.34232 0 1.52847)
(1.52487 0.0054152 0 1.33145 0 1.5289)
(1.52521 0.0061388 0 1.32102 0 1.52925)
(1.52552 0.00694698 0 1.31107 0 1.52953)
(1.52586 0.00783765 0 1.3016 0 1.52978)
(1.50903 0.000483759 0 1.50078 0 1.50917)
(1.51169 0.00105644 0 1.48784 0 1.51219)
(1.51397 0.00127715 0 1.47481 0 1.51484)
(1.51602 0.00130333 0 1.46144 0 1.51725)
(1.51787 0.00125256 0 1.44773 0 1.51943)
(1.51955 0.00120061 0 1.4338 0 1.5214)
(1.52104 0.00119026 0 1.41977 0 1.52313)
(1.52235 0.00124071 0 1.40577 0 1.52465)
(1.52347 0.00135726 0 1.39193 0 1.52594)
(1.52442 0.0015383 0 1.37832 0 1.52702)
(1.5252 0.00177957 0 1.36503 0 1.5279)
(1.52583 0.00207674 0 1.35211 0 1.52859)
(1.52633 0.00242723 0 1.33961 0 1.52912)
(1.52671 0.00283134 0 1.32756 0 1.5295)
(1.52698 0.0032945 0 1.31599 0 1.52975)
(1.52717 0.00382858 0 1.30492 0 1.52988)
(1.52729 0.0044572 0 1.29439 0 1.52991)
(1.52732 0.00522857 0 1.28443 0 1.52984)
(1.5092 0.000853638 0 1.50032 0 1.50934)
(1.51218 0.0017211 0 1.48623 0 1.51266)
(1.51484 0.00197524 0 1.47158 0 1.51563)
(1.51728 0.00194521 0 1.45624 0 1.51835)
(1.5195 0.00183465 0 1.4404 0 1.52079)
(1.52145 0.00175555 0 1.42429 0 1.52293)
(1.52314 0.00176246 0 1.40815 0 1.52476)
(1.52456 0.001873 0 1.39216 0 1.52627)
(1.52571 0.00208532 0 1.37646 0 1.52749)
(1.5266 0.00239001 0 1.36115 0 1.52842)
(1.52727 0.00277648 0 1.34629 0 1.5291)
(1.52772 0.00323626 0 1.33194 0 1.52954)
(1.528 0.0037648 0 1.31813 0 1.52979)
(1.52812 0.00436292 0 1.30488 0 1.52985)
(1.5281 0.00503667 0 1.29219 0 1.52976)
(1.528 0.00579762 0 1.28008 0 1.52955)
(1.52784 0.00665719 0 1.26854 0 1.52926)
(1.52773 0.00760948 0 1.25753 0 1.52892)
(1.5094 0.00112477 0 1.49991 0 1.50952)
(1.51277 0.00211237 0 1.48447 0 1.51315)
(1.51593 0.00228628 0 1.46759 0 1.51653)
(1.51893 0.00216124 0 1.44945 0 1.51964)
(1.52161 0.00199049 0 1.43062 0 1.52236)
(1.52392 0.0018927 0 1.41158 0 1.52464)
(1.52581 0.0019209 0 1.3927 0 1.52646)
(1.52731 0.00208623 0 1.37421 0 1.52784)
(1.52842 0.0023784 0 1.35625 0 1.52881)
(1.52918 0.00278031 0 1.33891 0 1.52941)
(1.52965 0.00327441 0 1.32225 0 1.5297)
(1.52985 0.00384459 0 1.30627 0 1.52972)
(1.52984 0.00447701 0 1.29098 0 1.52951)
(1.52965 0.00515942 0 1.27638 0 1.5291)
(1.52931 0.00588121 0 1.26247 0 1.52854)
(1.52887 0.00663206 0 1.24922 0 1.52784)
(1.52833 0.00740912 0 1.23664 0 1.52704)
(1.52763 0.00824156 0 1.22477 0 1.5261)
(1.50954 0.00169797 0 1.49952 0 1.50965)
(1.51345 0.00290532 0 1.48193 0 1.51375)
(1.51744 0.00309531 0 1.46133 0 1.51777)
(1.52122 0.00308939 0 1.43871 0 1.52142)
(1.52449 0.00316554 0 1.4153 0 1.52444)
(1.52713 0.00340379 0 1.39186 0 1.52675)
(1.52914 0.00382493 0 1.36887 0 1.5284)
(1.53056 0.00441213 0 1.34662 0 1.52942)
(1.53144 0.00513211 0 1.32525 0 1.5299)
(1.53184 0.00595301 0 1.30484 0 1.52991)
(1.53186 0.00684919 0 1.28541 0 1.52952)
(1.53153 0.00780074 0 1.26695 0 1.52881)
(1.53092 0.0087934 0 1.24945 0 1.52783)
(1.53008 0.00981946 0 1.23289 0 1.52663)
(1.52904 0.0108791 0 1.21722 0 1.52524)
(1.52783 0.0119856 0 1.20243 0 1.5237)
(1.5265 0.013164 0 1.18848 0 1.52205)
(1.52523 0.0144332 0 1.17528 0 1.5204)
(1.50957 0.00207319 0 1.49947 0 1.50965)
(1.51411 0.00339508 0 1.47935 0 1.51423)
(1.51915 0.00374835 0 1.45359 0 1.51896)
(1.52385 0.00410483 0 1.42501 0 1.52303)
(1.52763 0.00464562 0 1.39589 0 1.52603)
(1.53037 0.00537905 0 1.36733 0 1.52792)
(1.53214 0.00631104 0 1.33988 0 1.52882)
(1.53306 0.00741914 0 1.31379 0 1.52889)
(1.53327 0.0086608 0 1.28912 0 1.52827)
(1.53288 0.00999802 0 1.26587 0 1.52709)
(1.53203 0.0114022 0 1.24398 0 1.52549)
(1.5308 0.0128513 0 1.22339 0 1.52354)
(1.52929 0.0143289 0 1.20402 0 1.52135)
(1.52757 0.0158225 0 1.1858 0 1.51897)
(1.52572 0.0173203 0 1.16865 0 1.51646)
(1.52379 0.018801 0 1.15248 0 1.51388)
(1.52186 0.0202275 0 1.13723 0 1.51129)
(1.51979 0.0215569 0 1.1229 0 1.50863)
(1.50974 0.00297954 0 1.499 0 1.50979)
(1.51559 0.0046227 0 1.47384 0 1.5154)
(1.52236 0.00569736 0 1.43894 0 1.52118)
(1.52822 0.00723218 0 1.4006 0 1.52554)
(1.53238 0.00909825 0 1.36238 0 1.52804)
(1.53487 0.0111216 0 1.32568 0 1.52888)
(1.53595 0.0132598 0 1.29106 0 1.52835)
(1.53586 0.0154793 0 1.2587 0 1.52674)
(1.53485 0.0177288 0 1.2286 0 1.52431)
(1.53313 0.0199732 0 1.20065 0 1.52126)
(1.53088 0.0221937 0 1.17473 0 1.51776)
(1.52824 0.0243775 0 1.15066 0 1.51395)
(1.52531 0.0265144 0 1.1283 0 1.50994)
(1.52218 0.0285961 0 1.10751 0 1.50578)
(1.51889 0.0306142 0 1.08817 0 1.50155)
(1.51548 0.03257 0 1.07018 0 1.49727)
(1.51188 0.0344818 0 1.05346 0 1.49293)
(1.50836 0.0364425 0 1.03794 0 1.48869)
(1.50955 0.00333488 0 1.49941 0 1.50953)
(1.51693 0.00621786 0 1.46782 0 1.51606)
(1.52583 0.00935114 0 1.41972 0 1.5224)
(1.53242 0.0130354 0 1.36913 0 1.52571)
(1.53596 0.0168159 0 1.32105 0 1.52595)
(1.53691 0.0205026 0 1.27662 0 1.52383)
(1.53592 0.0241459 0 1.23592 0 1.52002)
(1.53353 0.02778 0 1.19872 0 1.51505)
(1.53012 0.0313558 0 1.16476 0 1.50929)
(1.52604 0.0348388 0 1.13371 0 1.50306)
(1.52151 0.038216 0 1.10525 0 1.49656)
(1.5167 0.0414803 0 1.07913 0 1.48993)
(1.51176 0.0446289 0 1.05508 0 1.48328)
(1.50676 0.0476648 0 1.03291 0 1.4767)
(1.5018 0.0505943 0 1.01242 0 1.47024)
(1.49695 0.0534279 0 0.993441 0 1.46394)
(1.49244 0.0561585 0 0.975782 0 1.45794)
(1.48817 0.0586225 0 0.959426 0 1.45223)
(1.51072 0.00496935 0 1.49654 0 1.51053)
(1.52205 0.01132 0 1.4481 0 1.5193)
(1.53415 0.0198811 0 1.37304 0 1.52517)
(1.5409 0.0284987 0 1.29847 0 1.52503)
(1.54232 0.0361551 0 1.23108 0 1.52018)
(1.53986 0.0427527 0 1.17143 0 1.51225)
(1.53485 0.0486276 0 1.11887 0 1.50244)
(1.52835 0.0540644 0 1.07252 0 1.49167)
(1.52097 0.0591018 0 1.03159 0 1.48048)
(1.51312 0.0637881 0 0.995287 0 1.46924)
(1.50511 0.0681739 0 0.962905 0 1.45815)
(1.49713 0.0722927 0 0.933884 0 1.44736)
(1.48929 0.0761656 0 0.907753 0 1.43694)
(1.48171 0.0798163 0 0.884127 0 1.42696)
(1.47435 0.0832496 0 0.862666 0 1.41738)
(1.46734 0.0864793 0 0.84313 0 1.40829)
(1.46022 0.089454 0 0.825214 0 1.39939)
(1.45326 0.0922573 0 0.809114 0 1.39099)
(1.50985 0.00578883 0 1.49844 0 1.50914)
(1.52694 0.0254649 0 1.4243 0 1.51749)
(1.54201 0.0455961 0 1.31354 0 1.51583)
(1.54562 0.0605505 0 1.21748 0 1.50426)
(1.54096 0.0721494 0 1.1377 0 1.48735)
(1.53123 0.0815545 0 1.07083 0 1.4679)
(1.51908 0.0897732 0 1.01386 0 1.4477)
(1.50636 0.0973501 0 0.96491 0 1.42803)
(1.49359 0.104266 0 0.922547 0 1.40925)
(1.48113 0.110589 0 0.885558 0 1.3915)
(1.46919 0.116396 0 0.853004 0 1.37483)
(1.45792 0.121755 0 0.824157 0 1.35928)
(1.44729 0.126704 0 0.798408 0 1.34472)
(1.4374 0.131298 0 0.775327 0 1.3312)
(1.42815 0.135581 0 0.754454 0 1.31853)
(1.41955 0.139559 0 0.735655 0 1.30681)
(1.41177 0.143433 0 0.718321 0 1.29577)
(1.40542 0.146769 0 0.703246 0 1.28627)
(1.5189 0.0284564 0 1.47294 0 1.51483)
(1.5634 0.112005 0 1.2634 0 1.5187)
(1.5832 0.161016 0 1.03775 0 1.48714)
(1.57564 0.181941 0 0.887124 0 1.44363)
(1.55678 0.192537 0 0.784484 0 1.39972)
(1.53308 0.198819 0 0.711605 0 1.35826)
(1.51034 0.204036 0 0.657471 0 1.32168)
(1.49081 0.209107 0 0.616122 0 1.29073)
(1.47344 0.213893 0 0.583263 0 1.26375)
(1.45797 0.218346 0 0.556438 0 1.23997)
(1.44409 0.222439 0 0.534116 0 1.21876)
(1.43191 0.226231 0 0.515259 0 1.19993)
(1.42093 0.229716 0 0.499069 0 1.18289)
(1.41147 0.232946 0 0.485089 0 1.16777)
(1.40279 0.23594 0 0.472829 0 1.15384)
(1.39555 0.238699 0 0.462081 0 1.14155)
(1.38851 0.241326 0 0.452541 0 1.12994)
(1.38162 0.243532 0 0.443828 0 1.11917)
(1.59274 0.291964 0 1.39581 0 1.52093)
(1.91623 0.578697 0 0.968064 0 1.53309)
(2.06904 0.585634 0 0.732316 0 1.489)
(2.10355 0.552969 0 0.628186 0 1.43531)
(2.09261 0.525615 0 0.573936 0 1.38575)
(2.06477 0.50549 0 0.540778 0 1.34262)
(2.03097 0.490013 0 0.517731 0 1.30536)
(1.99614 0.477497 0 0.500167 0 1.27307)
(1.96262 0.467001 0 0.485903 0 1.24481)
(1.93122 0.457934 0 0.473872 0 1.21983)
(1.90216 0.449948 0 0.463487 0 1.19756)
(1.87534 0.442819 0 0.454377 0 1.17755)
(1.85073 0.436409 0 0.446303 0 1.1595)
(1.82796 0.430599 0 0.439075 0 1.14309)
(1.80719 0.425304 0 0.432566 0 1.12821)
(1.78774 0.420487 0 0.426684 0 1.11449)
(1.77021 0.415977 0 0.421278 0 1.10208)
(1.75331 0.411801 0 0.416456 0 1.09039)
(0.0125423 0.0049535 0 0.0483651 0 0.0366788)
(0.0272328 -0.000475714 0 0.0638724 0 0.0660746)
(0.0481431 -0.00291939 0 0.0871644 0 0.0993178)
(0.0662473 -0.00875327 0 0.0999466 0 0.120676)
(0.0822517 -0.0156356 0 0.108963 0 0.136205)
(0.0971399 -0.0224845 0 0.112939 0 0.147024)
(0.11096 -0.0283493 0 0.113235 0 0.154526)
(0.123499 -0.0332168 0 0.110306 0 0.159061)
(0.133727 -0.0368471 0 0.105665 0 0.161473)
(0.14577 -0.039354 0 0.0960482 0 0.160849)
(0.150776 -0.0400312 0 0.0906707 0 0.159744)
(0.155441 -0.0400598 0 0.0836725 0 0.157275)
(0.158682 -0.0389403 0 0.0751597 0 0.152651)
(0.158896 -0.0367332 0 0.0665708 0 0.145966)
(0.15608 -0.0336142 0 0.0581367 0 0.137453)
(0.14988 -0.0298043 0 0.0502584 0 0.127321)
(0.139717 -0.0255657 0 0.0429395 0 0.115338)
(0.12627 -0.0214084 0 0.0362391 0 0.101984)
(0.110357 -0.0175847 0 0.0301175 0 0.0877843)
(0.0910923 -0.014199 0 0.0242865 0 0.0722119)
(0.0796312 -0.0105348 0 0.019701 0 0.0616211)
(0.0766356 -0.00603779 0 0.0164813 0 0.0559577)
(0.0783471 -0.00359398 0 0.0155473 0 0.0552916)
(0.0817312 -0.00158719 0 0.0154091 0 0.0563557)
(0.083431 -0.000235338 0 0.015617 0 0.057341)
(0.0818519 9.85511e-05 0 0.0157716 0 0.0570999)
(0.0777222 0.000504985 0 0.0162993 0 0.056653)
(0.0768636 0.00170681 0 0.0179158 0 0.0589153)
(0.0851307 0.00413794 0 0.02118 0 0.0667634)
(0.101857 0.00739223 0 0.0263906 0 0.0799953)
(0.128795 0.0112207 0 0.0334525 0 0.0998473)
(0.170017 0.0157413 0 0.042292 0 0.129133)
(0.209331 0.0206748 0 0.0508609 0 0.157192)
(0.246345 0.0258538 0 0.0592583 0 0.183824)
(0.281432 0.0311358 0 0.0675265 0 0.209268)
(0.314923 0.0364325 0 0.0757187 0 0.233731)
(0.346455 0.0416267 0 0.0837036 0 0.256923)
(0.376295 0.0467252 0 0.0915357 0 0.279042)
(0.40468 0.0517448 0 0.0992657 0 0.300271)
(0.431834 0.0567107 0 0.106957 0 0.320795)
(0.457949 0.0616479 0 0.114674 0 0.340779)
(0.483175 0.0665768 0 0.122483 0 0.360358)
(0.507619 0.0715146 0 0.13045 0 0.379641)
(0.531353 0.0764729 0 0.138639 0 0.398706)
(0.554408 0.0814585 0 0.147115 0 0.417608)
(0.576787 0.0864744 0 0.155941 0 0.436375)
(0.59846 0.0915201 0 0.165182 0 0.455014)
(0.619376 0.0965912 0 0.174905 0 0.473515)
(0.639462 0.10168 0 0.185177 0 0.49185)
(0.658634 0.106777 0 0.196072 0 0.509983)
(0.67679 0.111873 0 0.207663 0 0.527862)
(0.693834 0.116951 0 0.220032 0 0.545436)
(0.709665 0.121992 0 0.233259 0 0.562646)
(0.724201 0.126968 0 0.247438 0 0.579448)
(0.737386 0.131838 0 0.262663 0 0.595813)
(0.749224 0.136541 0 0.279066 0 0.611766)
(0.759603 0.14103 0 0.296722 0 0.627222)
(0.768402 0.145267 0 0.315697 0 0.642079)
(0.775563 0.149132 0 0.336066 0 0.656278)
(0.781245 0.152553 0 0.357973 0 0.669921)
(0.785487 0.155432 0 0.381514 0 0.683023)
(0.78827 0.157635 0 0.406647 0 0.695495)
(0.789553 0.159023 0 0.433258 0 0.707231)
(0.789243 0.159437 0 0.461164 0 0.718073)
(0.787239 0.158712 0 0.490066 0 0.727839)
(0.783444 0.156654 0 0.519581 0 0.73634)
(0.777768 0.15307 0 0.549197 0 0.743363)
(0.770121 0.147707 0 0.57833 0 0.748678)
(0.760447 0.139973 0 0.606301 0 0.751997)
(0.751192 0.130977 0 0.626861 0 0.752939)
(0.742539 0.12228 0 0.64144 0 0.752579)
(0.725118 0.109072 0 0.661155 0 0.749789)
(0.711744 0.0963831 0 0.669459 0 0.745148)
(0.695969 0.0816739 0 0.673527 0 0.738308)
(0.679281 0.06632 0 0.67056 0 0.729173)
(0.660481 0.0502312 0 0.660586 0 0.717192)
(0.63889 0.0295551 0 0.641863 0 0.702172)
(0.620622 0.00589144 0 0.61536 0 0.687363)
(0.60563 -0.0136969 0 0.586307 0 0.673039)
(0.593197 -0.0296954 0 0.555699 0 0.659093)
(0.582741 -0.0423498 0 0.525066 0 0.645596)
(0.573843 -0.0520872 0 0.495485 0 0.632615)
(0.56616 -0.0594386 0 0.467796 0 0.620241)
(0.559411 -0.0649215 0 0.442445 0 0.608512)
(0.55346 -0.0690474 0 0.419718 0 0.597515)
(0.548222 -0.072292 0 0.399631 0 0.587269)
(0.543622 -0.0751444 0 0.381947 0 0.577713)
(0.53976 -0.0785897 0 0.36513 0 0.568672)
(0.53777 -0.0829586 0 0.347834 0 0.561291)
(0.53677 -0.0865983 0 0.334878 0 0.556142)
(0.536175 -0.0889339 0 0.324807 0 0.552156)
(0.535754 -0.0903729 0 0.315725 0 0.548429)
(0.535564 -0.0914547 0 0.307382 0 0.54498)
(0.535509 -0.0923447 0 0.299941 0 0.54184)
(0.535578 -0.0931575 0 0.293372 0 0.539019)
(0.53579 -0.0939804 0 0.287604 0 0.536525)
(0.536163 -0.0948586 0 0.28253 0 0.534341)
(0.5367 -0.0958043 0 0.278029 0 0.532431)
(0.537389 -0.0968087 0 0.273981 0 0.530745)
(0.538207 -0.0978533 0 0.270284 0 0.529232)
(0.539127 -0.0989168 0 0.266852 0 0.527846)
(0.540121 -0.099978 0 0.263618 0 0.526544)
(0.541162 -0.101018 0 0.26053 0 0.525292)
(0.542227 -0.102022 0 0.257549 0 0.524063)
(0.543295 -0.102976 0 0.254646 0 0.522834)
(0.544348 -0.103872 0 0.251801 0 0.521591)
(0.545374 -0.104704 0 0.249 0 0.520321)
(0.54636 -0.105469 0 0.246236 0 0.519017)
(0.547299 -0.106167 0 0.243504 0 0.517676)
(0.548185 -0.106797 0 0.240803 0 0.516295)
(0.549014 -0.107363 0 0.238135 0 0.514876)
(0.549785 -0.107867 0 0.2355 0 0.513422)
(0.550499 -0.108313 0 0.232904 0 0.511936)
(0.551155 -0.108706 0 0.230348 0 0.510421)
(0.551756 -0.10905 0 0.227837 0 0.508884)
(0.552305 -0.10935 0 0.225374 0 0.507329)
(0.552804 -0.109611 0 0.222962 0 0.505761)
(0.553257 -0.109836 0 0.220606 0 0.504186)
(0.553668 -0.11003 0 0.218306 0 0.502607)
(0.554038 -0.110198 0 0.216065 0 0.501028)
(0.554372 -0.110342 0 0.213885 0 0.499456)
(0.554674 -0.110467 0 0.211767 0 0.497892)
(0.554946 -0.110575 0 0.209712 0 0.496341)
(0.555192 -0.11067 0 0.207721 0 0.494805)
(0.555415 -0.110754 0 0.205793 0 0.493288)
(0.555617 -0.110829 0 0.203928 0 0.491791)
(0.555802 -0.110897 0 0.202126 0 0.490318)
(0.55597 -0.11096 0 0.200387 0 0.488868)
(0.556124 -0.111021 0 0.198708 0 0.487444)
(0.556266 -0.11108 0 0.197091 0 0.486047)
(0.556399 -0.111139 0 0.195532 0 0.484679)
(0.556524 -0.111199 0 0.194032 0 0.48334)
(0.556644 -0.111261 0 0.192589 0 0.482031)
(0.556758 -0.111327 0 0.191201 0 0.480752)
(0.55687 -0.111396 0 0.189868 0 0.479505)
(0.55698 -0.11147 0 0.188587 0 0.478288)
(0.557091 -0.11155 0 0.187358 0 0.477103)
(0.557202 -0.111636 0 0.186179 0 0.47595)
(0.557316 -0.111728 0 0.185048 0 0.474828)
(0.557433 -0.111827 0 0.183963 0 0.473737)
(0.557555 -0.111934 0 0.182923 0 0.472678)
(0.557683 -0.112048 0 0.181927 0 0.47165)
(0.557817 -0.11217 0 0.180973 0 0.470652)
(0.557957 -0.112299 0 0.18006 0 0.469683)
(0.558104 -0.112436 0 0.179184 0 0.468743)
(0.558258 -0.112582 0 0.178346 0 0.467831)
(0.558423 -0.112735 0 0.177544 0 0.466948)
(0.558599 -0.112898 0 0.176777 0 0.466094)
(0.558787 -0.113069 0 0.176044 0 0.465268)
(0.558985 -0.113248 0 0.175343 0 0.464468)
(0.559195 -0.113436 0 0.174673 0 0.463695)
(0.559418 -0.113632 0 0.174032 0 0.462948)
(0.559661 -0.113839 0 0.173424 0 0.462235)
(0.559914 -0.114054 0 0.172841 0 0.461542)
(0.560185 -0.114277 0 0.172287 0 0.460878)
(0.560453 -0.114508 0 0.171753 0 0.46022)
(0.560746 -0.114748 0 0.171246 0 0.459596)
(0.561042 -0.114996 0 0.17076 0 0.458982)
(0.56137 -0.115256 0 0.170302 0 0.458408)
(0.561721 -0.115526 0 0.169867 0 0.457854)
(0.562062 -0.115802 0 0.169448 0 0.457315)
(0.562472 -0.11609 0 0.169049 0 0.456787)
(0.562737 -0.116371 0 0.168674 0 0.456288)
(0.5635 -0.116752 0 0.168271 0 0.45578)
(0.563847 -0.117023 0 0.168091 0 0.455605)