/*--------------------------------*- C++ -*----------------------------------*\
| =========                 |                                                 |
| \\      /  F ield         | OpenFOAM: The Open Source CFD Toolbox           |
|  \\    /   O peration     | Version:  v1906                                 |
|   \\  /    A nd           | Web:      www.OpenFOAM.com                      |
|    \\/     M anipulation  |                                                 |
\*---------------------------------------------------------------------------*/
FoamFile
{
    version     2.0;
    format      ascii;
    class       volVectorField;
    location    "500";
    object      U;
}
// * * * * * * * * * * * * * * * * * * * * * * * * * * * * * * * * * * * * * //

dimensions      [0 1 -1 0 0 0 0];


internalField   nonuniform List<vector> 
12225
(
(9.79725 -0.108743 0)
(9.50662 -0.356738 0)
(9.26417 -0.488238 0)
(9.06556 -0.540765 0)
(8.90234 -0.559364 0)
(8.7609 -0.565004 0)
(8.63432 -0.565396 0)
(8.52055 -0.563323 0)
(8.41819 -0.559861 0)
(8.32583 -0.555588 0)
(8.24247 -0.550593 0)
(8.16592 -0.544888 0)
(8.096 -0.538973 0)
(8.03244 -0.533118 0)
(7.97611 -0.527551 0)
(7.92815 -0.523726 0)
(7.89118 -0.516656 0)
(7.87116 -0.537612 0)
(10.0492 0.150449 0)
(10.0911 0.259769 0)
(10.0684 0.319278 0)
(10.0255 0.363365 0)
(9.98269 0.392982 0)
(9.93984 0.411627 0)
(9.89694 0.423574 0)
(9.85531 0.431371 0)
(9.81554 0.436208 0)
(9.7774 0.438951 0)
(9.74113 0.440189 0)
(9.70677 0.44037 0)
(9.67442 0.439539 0)
(9.64381 0.437948 0)
(9.61508 0.435076 0)
(9.58729 0.432072 0)
(9.56262 0.423851 0)
(9.5369 0.418112 0)
(10.0166 0.00776411 0)
(10.0499 -0.0105521 0)
(10.0414 -0.0528146 0)
(10.018 -0.0929604 0)
(9.99641 -0.127325 0)
(9.9766 -0.155642 0)
(9.95757 -0.177892 0)
(9.93962 -0.195196 0)
(9.92275 -0.20889 0)
(9.90677 -0.219979 0)
(9.8915 -0.228974 0)
(9.87718 -0.236352 0)
(9.86365 -0.242514 0)
(9.85135 -0.248139 0)
(9.83964 -0.25338 0)
(9.82936 -0.259725 0)
(9.81961 -0.266582 0)
(9.8025 -0.283617 0)
(10.0096 0.0583046 0)
(10.039 0.0976747 0)
(10.0506 0.115083 0)
(10.051 0.134179 0)
(10.0489 0.15308 0)
(10.0448 0.169533 0)
(10.0387 0.183545 0)
(10.0317 0.195351 0)
(10.0244 0.205133 0)
(10.0169 0.213194 0)
(10.0095 0.219886 0)
(10.0023 0.225452 0)
(9.9955 0.229969 0)
(9.98928 0.233414 0)
(9.9835 0.235782 0)
(9.97836 0.236661 0)
(9.97344 0.235951 0)
(9.96972 0.232231 0)
(10.0094 0.0199407 0)
(10.0406 0.0291766 0)
(10.0562 0.0220855 0)
(10.0603 0.0110896 0)
(10.0615 -0.00204548 0)
(10.061 -0.0163892 0)
(10.0591 -0.0302744 0)
(10.0568 -0.0429356 0)
(10.0543 -0.0543506 0)
(10.0517 -0.0646334 0)
(10.0491 -0.0738892 0)
(10.0465 -0.0822792 0)
(10.0442 -0.0900462 0)
(10.042 -0.0975193 0)
(10.04 -0.104965 0)
(10.0376 -0.113073 0)
(10.0355 -0.121579 0)
(10.0269 -0.133166 0)
(10.0058 0.0333058 0)
(10.0286 0.0620704 0)
(10.045 0.0732146 0)
(10.0546 0.0813378 0)
(10.0622 0.0889365 0)
(10.0679 0.0960347 0)
(10.0719 0.102961 0)
(10.0747 0.109665 0)
(10.0768 0.115918 0)
(10.0784 0.121608 0)
(10.0797 0.126736 0)
(10.0807 0.131296 0)
(10.0816 0.135241 0)
(10.0825 0.138452 0)
(10.0833 0.140882 0)
(10.084 0.142252 0)
(10.0841 0.142707 0)
(10.0854 0.14232 0)
(10.0046 0.0160244 0)
(10.0242 0.0298375 0)
(10.04 0.0321787 0)
(10.0496 0.030414 0)
(10.0567 0.0261976 0)
(10.0618 0.0201321 0)
(10.0655 0.0132369 0)
(10.0684 0.00613628 0)
(10.0708 -0.000928587 0)
(10.0729 -0.00783432 0)
(10.0747 -0.0145111 0)
(10.0764 -0.0209718 0)
(10.078 -0.027299 0)
(10.0795 -0.0336549 0)
(10.0808 -0.0401232 0)
(10.0814 -0.0470235 0)
(10.0814 -0.053948 0)
(10.0774 -0.0621997 0)
(10.0032 0.0203564 0)
(10.0185 0.0434461 0)
(10.0327 0.0544523 0)
(10.0433 0.0610004 0)
(10.0526 0.0656441 0)
(10.0604 0.0692905 0)
(10.0669 0.0726577 0)
(10.0726 0.0759914 0)
(10.0777 0.0792603 0)
(10.0822 0.0824024 0)
(10.0863 0.0853713 0)
(10.0901 0.0881072 0)
(10.0937 0.0905397 0)
(10.097 0.0925677 0)
(10.1 0.0941533 0)
(10.1027 0.0952015 0)
(10.1049 0.0958023 0)
(10.1081 0.0966043 0)
(10.0019 0.0115697 0)
(10.0135 0.0248887 0)
(10.0263 0.0302823 0)
(10.0363 0.0318902 0)
(10.0448 0.0311368 0)
(10.0518 0.028702 0)
(10.0576 0.0252961 0)
(10.0625 0.0213478 0)
(10.0669 0.0170695 0)
(10.0708 0.0125928 0)
(10.0744 0.00800161 0)
(10.0777 0.00332268 0)
(10.0808 -0.00145265 0)
(10.0835 -0.00638019 0)
(10.0859 -0.0114527 0)
(10.0876 -0.0167646 0)
(10.0886 -0.0220104 0)
(10.087 -0.0279631 0)
(10.0017 0.0127682 0)
(10.0116 0.0308395 0)
(10.0229 0.0412117 0)
(10.0327 0.0475597 0)
(10.0418 0.0516206 0)
(10.0499 0.0543648 0)
(10.0571 0.0565129 0)
(10.0637 0.0584193 0)
(10.0697 0.0602102 0)
(10.0752 0.0619239 0)
(10.0803 0.0635619 0)
(10.0851 0.0650965 0)
(10.0896 0.0664921 0)
(10.0937 0.0676994 0)
(10.0975 0.0687174 0)
(10.101 0.0695502 0)
(10.1041 0.0702692 0)
(10.1079 0.071573 0)
(10.0007 0.00807449 0)
(10.0075 0.0193149 0)
(10.0171 0.0252412 0)
(10.0259 0.0280775 0)
(10.0342 0.0287922 0)
(10.0416 0.0280234 0)
(10.048 0.0263119 0)
(10.0538 0.0239866 0)
(10.0591 0.0212351 0)
(10.0638 0.0181752 0)
(10.0682 0.0148831 0)
(10.0722 0.0113976 0)
(10.0759 0.00774037 0)
(10.0791 0.00391171 0)
(10.082 -5.25443e-05 0)
(10.0842 -0.00416954 0)
(10.0859 -0.00824223 0)
(10.086 -0.0128203 0)
(10.0008 0.00823186 0)
(10.0074 0.0216529 0)
(10.0161 0.0303522 0)
(10.0246 0.0360495 0)
(10.0329 0.0396824 0)
(10.0406 0.0420076 0)
(10.0477 0.0435914 0)
(10.0542 0.0447696 0)
(10.0604 0.0457222 0)
(10.066 0.0465438 0)
(10.0714 0.0472818 0)
(10.0763 0.0479506 0)
(10.0809 0.0485571 0)
(10.0852 0.0490975 0)
(10.0891 0.0496031 0)
(10.0928 0.0501146 0)
(10.096 0.0506968 0)
(10.0997 0.0519571 0)
(10.0002 0.00578692 0)
(10.0046 0.0147855 0)
(10.0118 0.0201624 0)
(10.0193 0.0232203 0)
(10.0269 0.0244842 0)
(10.034 0.0244909 0)
(10.0405 0.0236399 0)
(10.0466 0.0221935 0)
(10.0522 0.0203173 0)
(10.0573 0.018117 0)
(10.062 0.015662 0)
(10.0664 0.0129962 0)
(10.0703 0.0101511 0)
(10.0739 0.00715257 0)
(10.0771 0.00402937 0)
(10.0798 0.000800966 0)
(10.0821 -0.00245708 0)
(10.0835 -0.00620938 0)
(10.0005 0.00544623 0)
(10.0049 0.015359 0)
(10.0117 0.0225511 0)
(10.0188 0.0277707 0)
(10.0262 0.0314013 0)
(10.0334 0.0339603 0)
(10.0402 0.035844 0)
(10.0467 0.0373244 0)
(10.0528 0.0385772 0)
(10.0586 0.0397107 0)
(10.064 0.0407917 0)
(10.0691 0.0418585 0)
(10.0738 0.042941 0)
(10.0782 0.0440595 0)
(10.0823 0.0452562 0)
(10.0861 0.046586 0)
(10.0896 0.0480674 0)
(10.093 0.0502681 0)
(10.0001 0.00347303 0)
(10.0027 0.00919631 0)
(10.0079 0.0127682 0)
(10.014 0.0148071 0)
(10.0205 0.0155426 0)
(10.0271 0.0153025 0)
(10.0334 0.0143364 0)
(10.0394 0.0128206 0)
(10.0451 0.0108782 0)
(10.0504 0.00859301 0)
(10.0554 0.00602302 0)
(10.06 0.00321095 0)
(10.0642 0.000186054 0)
(10.0682 -0.00302082 0)
(10.0717 -0.006397 0)
(10.075 -0.00992688 0)
(10.0779 -0.0135464 0)
(10.0807 -0.0176859 0)
(10.0002 0.00310509 0)
(10.0031 0.00917684 0)
(10.008 0.0141648 0)
(10.0136 0.018248 0)
(10.0198 0.0215167 0)
(10.026 0.0241952 0)
(10.0321 0.0264895 0)
(10.0381 0.0285613 0)
(10.0438 0.0305326 0)
(10.0491 0.0324901 0)
(10.0542 0.0344945 0)
(10.0589 0.0365874 0)
(10.0632 0.0388021 0)
(10.0673 0.0411612 0)
(10.071 0.0436907 0)
(10.0744 0.0464256 0)
(10.0775 0.0492943 0)
(10.0801 0.0527839 0)
(10.0001 0.00109027 0)
(10.0022 0.00274223 0)
(10.0063 0.0034146 0)
(10.0115 0.00330353 0)
(10.0173 0.00248098 0)
(10.0234 0.00106137 0)
(10.0297 -0.000855469 0)
(10.0359 -0.00319709 0)
(10.0419 -0.00590855 0)
(10.0477 -0.00894832 0)
(10.0533 -0.0122848 0)
(10.0587 -0.0158894 0)
(10.0638 -0.0197395 0)
(10.0686 -0.0238054 0)
(10.0733 -0.0280644 0)
(10.0777 -0.0324918 0)
(10.0819 -0.0369692 0)
(10.0861 -0.0418773 0)
(10 0.00105687 0)
(10.0016 0.00334136 0)
(10.0049 0.00571517 0)
(10.0091 0.00817855 0)
(10.0138 0.0107144 0)
(10.0187 0.013351 0)
(10.0236 0.0161251 0)
(10.0283 0.0190698 0)
(10.0327 0.0222146 0)
(10.0368 0.0255817 0)
(10.0405 0.0291857 0)
(10.0439 0.0330343 0)
(10.0469 0.0371268 0)
(10.0495 0.0414581 0)
(10.0519 0.0460024 0)
(10.0538 0.0507644 0)
(10.0557 0.0555762 0)
(10.0569 0.0608636 0)
(10.0003 -0.00182833 0)
(10.0031 -0.00562695 0)
(10.008 -0.00938015 0)
(10.014 -0.0130634 0)
(10.0207 -0.0167342 0)
(10.0279 -0.0204647 0)
(10.0354 -0.0243269 0)
(10.043 -0.0283811 0)
(10.0506 -0.0326684 0)
(10.0583 -0.0372143 0)
(10.0658 -0.0420306 0)
(10.0733 -0.0471194 0)
(10.0806 -0.0524755 0)
(10.0877 -0.0580874 0)
(10.0946 -0.0639359 0)
(10.1014 -0.0700044 0)
(10.1076 -0.076202 0)
(10.1138 -0.0827163 0)
(9.99985 -0.00203163 0)
(10.0009 -0.00514137 0)
(10.0038 -0.00685354 0)
(10.0076 -0.00745417 0)
(10.0117 -0.00713775 0)
(10.0158 -0.00605543 0)
(10.0196 -0.0043445 0)
(10.0231 -0.00211281 0)
(10.0261 0.000558523 0)
(10.0286 0.00361016 0)
(10.0307 0.00700028 0)
(10.0324 0.0107038 0)
(10.0336 0.0147146 0)
(10.0344 0.0190382 0)
(10.0349 0.0237072 0)
(10.0351 0.0287533 0)
(10.0353 0.0342009 0)
(10.0351 0.0403012 0)
(10.0006 -0.00463796 0)
(10.005 -0.0134647 0)
(10.0116 -0.0205644 0)
(10.0189 -0.026248 0)
(10.0266 -0.0309243 0)
(10.0345 -0.0349476 0)
(10.0424 -0.0386205 0)
(10.0502 -0.042151 0)
(10.0579 -0.0456597 0)
(10.0655 -0.0492087 0)
(10.0729 -0.0528278 0)
(10.0802 -0.0565302 0)
(10.0874 -0.0603301 0)
(10.0946 -0.0642493 0)
(10.1018 -0.0683422 0)
(10.1091 -0.072688 0)
(10.1161 -0.0773997 0)
(10.1237 -0.082847 0)
(9.99994 -0.0046902 0)
(10.0025 -0.0117864 0)
(10.0077 -0.0157226 0)
(10.0132 -0.0174149 0)
(10.0184 -0.0174054 0)
(10.0231 -0.0160453 0)
(10.0271 -0.0136744 0)
(10.0304 -0.0105764 0)
(10.0332 -0.00696066 0)
(10.0355 -0.00298676 0)
(10.0373 0.00122181 0)
(10.0386 0.0055732 0)
(10.0396 0.01001 0)
(10.04 0.0145061 0)
(10.04 0.0190914 0)
(10.0392 0.0238513 0)
(10.038 0.028966 0)
(10.0352 0.0349807 0)
(10.0012 -0.00952694 0)
(10.0088 -0.0252954 0)
(10.0185 -0.0359593 0)
(10.0278 -0.0436015 0)
(10.037 -0.0496275 0)
(10.0458 -0.0547901 0)
(10.0542 -0.0595982 0)
(10.0621 -0.0643215 0)
(10.0696 -0.0690354 0)
(10.0766 -0.0737284 0)
(10.0834 -0.078364 0)
(10.0899 -0.0829 0)
(10.0962 -0.0872962 0)
(10.1025 -0.0915269 0)
(10.1089 -0.0955997 0)
(10.1159 -0.0995867 0)
(10.1232 -0.103688 0)
(10.1329 -0.108586 0)
(10.0009 -0.00806416 0)
(10.0084 -0.0181321 0)
(10.018 -0.0218168 0)
(10.0254 -0.0217762 0)
(10.0312 -0.0192058 0)
(10.0357 -0.0146746 0)
(10.0391 -0.00887011 0)
(10.0416 -0.00237807 0)
(10.0436 0.00442925 0)
(10.0452 0.0113042 0)
(10.0464 0.0180667 0)
(10.0474 0.0245915 0)
(10.0482 0.030792 0)
(10.0485 0.0366064 0)
(10.0485 0.0419972 0)
(10.0474 0.0469766 0)
(10.0454 0.0517012 0)
(10.0394 0.0569692 0)
(10.0027 -0.0199358 0)
(10.0163 -0.0448027 0)
(10.0302 -0.0583137 0)
(10.0413 -0.0681096 0)
(10.0511 -0.0770069 0)
(10.0598 -0.0855392 0)
(10.0673 -0.0939678 0)
(10.0738 -0.102323 0)
(10.0795 -0.11043 0)
(10.0846 -0.118122 0)
(10.0891 -0.125317 0)
(10.0933 -0.131975 0)
(10.0971 -0.138071 0)
(10.1008 -0.143585 0)
(10.1044 -0.148477 0)
(10.1087 -0.152711 0)
(10.1137 -0.15628 0)
(10.1236 -0.159753 0)
(10.0045 -0.0117178 0)
(10.0233 -0.0209361 0)
(10.0371 -0.0180106 0)
(10.0431 -0.00971663 0)
(10.0459 0.00169463 0)
(10.0471 0.0150809 0)
(10.0472 0.0289184 0)
(10.0468 0.0422079 0)
(10.0462 0.0545696 0)
(10.0455 0.0658943 0)
(10.0447 0.0761598 0)
(10.0439 0.0853928 0)
(10.0429 0.0936429 0)
(10.0419 0.100957 0)
(10.0407 0.107345 0)
(10.0388 0.112768 0)
(10.0362 0.117151 0)
(10.0274 0.120971 0)
(10.0057 -0.043887 0)
(10.0279 -0.081765 0)
(10.0435 -0.1012 0)
(10.0512 -0.12055 0)
(10.056 -0.140383 0)
(10.0588 -0.158696 0)
(10.0596 -0.175061 0)
(10.059 -0.189495 0)
(10.0576 -0.201971 0)
(10.0557 -0.212609 0)
(10.0535 -0.221638 0)
(10.0512 -0.229283 0)
(10.0487 -0.23573 0)
(10.0462 -0.241134 0)
(10.0437 -0.245584 0)
(10.0417 -0.249108 0)
(10.0401 -0.251525 0)
(10.0454 -0.252576 0)
(10.0127 -0.00409283 0)
(10.0434 0.00730362 0)
(10.0437 0.0413688 0)
(10.0292 0.0775506 0)
(10.0141 0.110811 0)
(10.0007 0.139632 0)
(9.98815 0.163328 0)
(9.97636 0.182334 0)
(9.96546 0.197598 0)
(9.95526 0.20995 0)
(9.94556 0.219977 0)
(9.93627 0.228103 0)
(9.92736 0.23466 0)
(9.91876 0.239897 0)
(9.91054 0.243978 0)
(9.90227 0.247001 0)
(9.89451 0.248849 0)
(9.87979 0.249749 0)
(10.0321 -0.126616 0)
(10.0676 -0.22557 0)
(10.0594 -0.280222 0)
(10.0339 -0.322849 0)
(10.0081 -0.353447 0)
(9.98321 -0.373958 0)
(9.95851 -0.38791 0)
(9.93469 -0.397548 0)
(9.91219 -0.404067 0)
(9.89089 -0.408228 0)
(9.87055 -0.410594 0)
(9.85109 -0.41158 0)
(9.83245 -0.411479 0)
(9.81461 -0.410519 0)
(9.79747 -0.408856 0)
(9.78138 -0.40674 0)
(9.76595 -0.40411 0)
(9.75983 -0.400506 0)
(9.86118 0.076929 0)
(9.6625 0.274113 0)
(9.48827 0.393185 0)
(9.34053 0.447789 0)
(9.2179 0.470433 0)
(9.11022 0.479156 0)
(9.01151 0.48145 0)
(8.92031 0.480492 0)
(8.83611 0.477794 0)
(8.7582 0.474075 0)
(8.68597 0.469676 0)
(8.61896 0.464772 0)
(8.55678 0.45947 0)
(8.49902 0.453852 0)
(8.44524 0.447905 0)
(8.39486 0.441797 0)
(8.34754 0.434609 0)
(8.29725 0.42708 0)
(-0.0266649 -0.165131 -4.17656e-20)
(0.179214 -0.243413 2.36062e-20)
(0.338808 -0.290043 0)
(0.477408 -0.291529 0)
(0.609687 -0.2782 0)
(0.728135 -0.260938 -1.21554e-20)
(0.832337 -0.244192 0)
(0.924445 -0.227353 0)
(1.00296 -0.209695 0)
(1.06721 -0.191113 0)
(1.11563 -0.172376 1.15744e-20)
(1.14519 -0.152441 0)
(1.15491 -0.129028 0)
(1.13789 -0.0969627 0)
(1.09502 -0.0596576 0)
(1.02957 -0.0243895 1.23445e-20)
(0.946579 0.00476566 0)
(0.851437 0.0266628 0)
(0.750867 0.0415723 0)
(0.647216 0.0495622 0)
(0.541395 0.048838 0)
(0.44254 0.0417742 0)
(0.358938 0.0309181 0)
(0.290445 0.0140725 2.3332e-20)
(0.228092 -0.00602857 -2.60703e-20)
(0.161333 -0.0200007 2.97557e-20)
(0.0786915 -0.0188991 3.57565e-20)
(-0.0352352 0.00479526 0)
(-0.169023 0.0291611 0)
(-0.315139 0.0434819 -1.98671e-20)
(-0.470232 0.0507659 -1.66002e-20)
(-0.624863 0.053566 0)
(-0.779659 0.0529605 0)
(-0.934202 0.0483895 -1.21932e-20)
(-1.08427 0.0399888 0)
(-1.22869 0.0285778 0)
(-1.36659 0.0149365 1.08063e-20)
(-1.49782 -0.000306243 0)
(-1.62249 -0.0166892 1.04227e-20)
(-1.74107 -0.0339444 2.06186e-20)
(-1.85409 -0.0519653 0)
(-1.96212 -0.0707592 0)
(-2.06564 -0.0903985 0)
(-2.16505 -0.110988 0)
(-2.26058 -0.132627 0)
(-2.35235 -0.155397 2.02677e-20)
(-2.44034 -0.179335 2.02937e-20)
(-2.5244 -0.204443 2.03274e-20)
(-2.60427 -0.230657 0)
(-2.6796 -0.257866 -2.03976e-20)
(-2.74992 -0.285871 0)
(-2.8147 -0.314434 2.04392e-20)
(-2.87327 -0.343202 2.04357e-20)
(-2.92489 -0.371775 0)
(-2.96884 -0.399587 0)
(-3.00441 -0.425887 0)
(-3.03073 -0.449623 2.01141e-20)
(-3.04663 -0.46971 0)
(-3.05096 -0.485721 0)
(-3.04469 -0.499069 0)
(-3.02853 -0.511531 0)
(-3.00191 -0.524119 0)
(-2.9645 -0.537503 0)
(-2.91587 -0.55193 0)
(-2.85541 -0.567321 0)
(-2.78255 -0.583512 -1.39082e-20)
(-2.69688 -0.600169 0)
(-2.59821 -0.616972 0)
(-2.48671 -0.633468 8.58469e-21)
(-2.36264 -0.649074 6.26243e-21)
(-2.22679 -0.663455 0)
(-2.08179 -0.677108 -6.18636e-22)
(-1.92909 -0.688255 -2.74447e-21)
(-1.77008 -0.696207 0)
(-1.60866 -0.700628 1.07542e-20)
(-1.44692 -0.701396 0)
(-1.28805 -0.700576 0)
(-1.13445 -0.699917 -2.67002e-20)
(-0.987518 -0.698727 0)
(-0.849524 -0.697214 4.05013e-20)
(-0.721115 -0.69611 0)
(-0.602937 -0.695901 -5.7347e-20)
(-0.49481 -0.697015 -6.70356e-20)
(-0.396376 -0.699689 -7.76876e-20)
(-0.306852 -0.704037 -1.7862e-19)
(-0.225474 -0.709946 2.04102e-19)
(-0.151688 -0.716685 0)
(-0.0852604 -0.72322 0)
(-0.0261924 -0.725472 0)
(0.0281917 -0.712026 2.95078e-19)
(0.0821155 -0.68927 2.82663e-19)
(0.135653 -0.667197 -2.72044e-19)
(0.187511 -0.646213 0)
(0.23765 -0.626718 2.55152e-19)
(0.286238 -0.608985 2.48293e-19)
(0.333587 -0.592861 2.42165e-19)
(0.380075 -0.578198 0)
(0.426041 -0.564829 0)
(0.471737 -0.552587 0)
(0.517335 -0.541315 2.22169e-19)
(0.562934 -0.530879 0)
(0.608573 -0.521164 0)
(0.654245 -0.512079 -2.10132e-19)
(0.69991 -0.503545 0)
(0.745503 -0.495502 0)
(0.790946 -0.487899 -1.99946e-19)
(0.836153 -0.480697 0)
(0.881038 -0.47386 0)
(0.925517 -0.467364 1.91378e-19)
(0.969515 -0.461183 1.88847e-19)
(1.01296 -0.455302 0)
(1.0558 -0.449702 -1.84229e-19)
(1.09797 -0.44437 0)
(1.13943 -0.439294 1.80151e-19)
(1.18015 -0.434463 0)
(1.2201 -0.429866 1.76555e-19)
(1.25926 -0.425495 1.74922e-19)
(1.29762 -0.42134 0)
(1.33518 -0.417392 0)
(1.37192 -0.413644 0)
(1.40786 -0.410088 0)
(1.44301 -0.406717 0)
(1.47737 -0.403524 0)
(1.51097 -0.400501 0)
(1.54381 -0.397641 1.65019e-19)
(1.57592 -0.394939 -1.64103e-19)
(1.60731 -0.392387 0)
(1.638 -0.389978 0)
(1.66803 -0.387707 0)
(1.69742 -0.385568 0)
(1.72618 -0.383554 -3.20646e-19)
(1.75434 -0.381661 0)
(1.78194 -0.379883 3.1825e-19)
(1.80899 -0.378214 -3.17165e-19)
(1.83553 -0.37665 0)
(1.86158 -0.375185 0)
(1.88716 -0.373815 0)
(1.91231 -0.372535 3.1347e-19)
(1.93704 -0.37134 3.12685e-19)
(1.96139 -0.370227 0)
(1.98539 -0.369191 3.11257e-19)
(2.00905 -0.36823 3.10604e-19)
(2.0324 -0.367339 -3.09989e-19)
(2.05547 -0.366515 0)
(2.07827 -0.365755 0)
(2.10084 -0.365055 -3.08337e-19)
(2.12319 -0.364413 0)
(2.14535 -0.363825 0)
(2.16733 -0.363288 0)
(2.18916 -0.3628 0)
(2.21086 -0.362358 3.06077e-19)
(2.23245 -0.361958 3.05675e-19)
(2.25394 -0.3616 0)
(2.27536 -0.36128 3.04903e-19)
(2.29673 -0.361 0)
(2.31807 -0.360751 0)
(2.33939 -0.360537 3.03841e-19)
(2.36072 -0.36035 0)
(2.38206 -0.360192 3.0313e-19)
(2.40345 -0.360063 0)
(2.42489 -0.35996 0)
(2.44642 -0.359878 3.02064e-19)
(2.468 -0.359817 0)
(2.4897 -0.359765 3.01321e-19)
(2.51153 -0.359798 0)
(2.5335 -0.359818 0)
(2.55563 -0.359889 0)
(2.57787 -0.359953 -2.99694e-19)
(2.60021 -0.360038 0)
(2.62261 -0.360138 2.98842e-19)
(2.64504 -0.360268 0)
(2.66731 -0.360418 0)
(2.68939 -0.360626 0)
(2.71068 -0.360857 0)
(2.73129 -0.361189 0)
(2.74848 -0.361522 0)
(2.7644 -0.361803 0)
(2.75897 -0.358626 -6.02272e-19)
(2.74283 -0.342238 0)
(2.59769 -0.323016 0)
(-0.0887289 -0.433696 7.20279e-20)
(0.268198 -0.472185 -4.4222e-20)
(0.325917 -0.443647 0)
(0.408821 -0.362997 1.7231e-20)
(0.485103 -0.310275 0)
(0.560805 -0.260995 6.59527e-21)
(0.63261 -0.221309 -1.45723e-20)
(0.700615 -0.180387 -1.46979e-20)
(0.761328 -0.137672 0)
(0.810697 -0.0910099 -1.52861e-20)
(0.845062 -0.039134 -7.24973e-21)
(0.866512 0.0177812 0)
(0.881657 0.0815979 0)
(0.891351 0.14479 0)
(0.880891 0.202125 0)
(0.838863 0.248336 -7.09895e-21)
(0.767218 0.2802 0)
(0.676627 0.297942 1.42193e-20)
(0.575339 0.30497 0)
(0.469773 0.305991 0)
(0.363633 0.295415 -1.32275e-20)
(0.257938 0.263311 0)
(0.148968 0.221821 1.40869e-20)
(0.0292249 0.201923 -6.87271e-21)
(-0.110959 0.218659 6.55199e-21)
(-0.27045 0.260986 -5.96441e-21)
(-0.440275 0.312328 -5.42929e-21)
(-0.611423 0.359704 0)
(-0.778504 0.394145 0)
(-0.937467 0.413917 4.51557e-21)
(-1.0842 0.421178 -5.40589e-21)
(-1.21614 0.419008 0)
(-1.33189 0.410173 0)
(-1.43111 0.397015 4.68738e-21)
(-1.51499 0.381606 0)
(-1.58574 0.36587 0)
(-1.6458 0.351244 -5.11142e-21)
(-1.69759 0.338691 0)
(-1.74329 0.328741 6.12209e-21)
(-1.78474 0.321579 -1.11295e-20)
(-1.82339 0.317156 0)
(-1.86033 0.315259 0)
(-1.89637 0.315597 -2.5336e-20)
(-1.93207 0.317836 -2.59195e-20)
(-1.9678 0.321642 -2.65005e-20)
(-2.00382 0.326684 1.42027e-20)
(-2.0403 0.332653 -1.31283e-20)
(-2.07734 0.339229 -4.15328e-20)
(-2.115 0.346102 2.86644e-20)
(-2.15332 0.352924 1.37856e-20)
(-2.19235 0.359352 0)
(-2.23208 0.364968 -1.40909e-20)
(-2.27244 0.369338 1.60048e-20)
(-2.31332 0.371901 0)
(-2.35451 0.372072 0)
(-2.39574 0.369215 0)
(-2.4366 0.362856 -1.41588e-20)
(-2.47672 0.35267 0)
(-2.51573 0.338725 3.00035e-20)
(-2.55051 0.321722 0)
(-2.579 0.301711 2.87032e-20)
(-2.59946 0.279021 0)
(-2.60973 0.255244 -2.64688e-20)
(-2.60834 0.230537 0)
(-2.59424 0.205172 2.33673e-20)
(-2.56665 0.179295 -1.27313e-20)
(-2.52504 0.153272 0)
(-2.46913 0.127425 -1.69976e-20)
(-2.39892 0.102316 -4.96431e-21)
(-2.31469 0.0785463 -3.50684e-21)
(-2.21714 0.0575232 0)
(-2.1079 0.0405877 -5.12808e-21)
(-1.98876 0.0265826 1.33764e-21)
(-1.86165 0.0161985 0)
(-1.72886 0.010086 -4.81814e-21)
(-1.59268 0.00833596 8.53693e-21)
(-1.45602 0.0104555 0)
(-1.3207 0.0165343 1.01636e-20)
(-1.18886 0.0256704 0)
(-1.06182 0.0371352 -3.68299e-20)
(-0.94074 0.0498151 0)
(-0.826338 0.0630513 4.74868e-20)
(-0.719001 0.0760207 1.89217e-20)
(-0.618777 0.0883365 -1.66727e-20)
(-0.52543 0.0994439 -3.68513e-20)
(-0.438485 0.109201 4.03066e-20)
(-0.357253 0.117382 0)
(-0.280313 0.124304 0)
(-0.206201 0.13124 0)
(-0.136973 0.138938 -1.74212e-19)
(-0.0745971 0.146409 -6.31743e-20)
(-0.0172781 0.152503 6.54521e-20)
(0.0370529 0.157127 0)
(0.089039 0.160443 6.05044e-20)
(0.139345 0.162616 -6.77968e-20)
(0.188471 0.163793 -6.82932e-20)
(0.236754 0.164251 0)
(0.284441 0.164233 0)
(0.331693 0.163931 0)
(0.378616 0.163485 -6.99156e-20)
(0.425282 0.162999 0)
(0.471731 0.162551 1.35717e-19)
(0.51798 0.162191 2.07258e-19)
(0.564028 0.161956 -1.37082e-19)
(0.609855 0.161863 0)
(0.655431 0.161922 -6.67033e-20)
(0.700719 0.162131 0)
(0.745678 0.162489 -1.39346e-19)
(0.790266 0.162982 6.7647e-20)
(0.83444 0.163602 6.79285e-20)
(0.87816 0.164333 0)
(0.921387 0.165163 2.13793e-19)
(0.964089 0.166074 -1.415e-19)
(1.00623 0.167055 -7.29452e-20)
(1.0478 0.168091 0)
(1.08876 0.169173 -7.31813e-20)
(1.1291 0.170289 -2.16101e-19)
(1.16881 0.17143 0)
(1.20789 0.172587 -1.43365e-19)
(1.24632 0.173754 -1.4362e-19)
(1.28412 0.174924 -1.43861e-19)
(1.32128 0.176093 0)
(1.35781 0.177254 0)
(1.39371 0.178404 0)
(1.429 0.17954 7.07854e-20)
(1.46369 0.180661 7.40065e-20)
(1.4978 0.181764 0)
(1.53133 0.182848 1.45298e-19)
(1.56431 0.183911 1.45478e-19)
(1.59675 0.184952 0)
(1.62868 0.18597 1.48625e-19)
(1.6601 0.186964 2.91994e-19)
(1.69106 0.187933 -1.48859e-19)
(1.72156 0.188877 -1.43683e-19)
(1.75163 0.189795 0)
(1.78128 0.190686 0)
(1.81055 0.191551 0)
(1.83945 0.19239 -1.4944e-19)
(1.86801 0.193204 1.44703e-19)
(1.89625 0.193992 2.94571e-19)
(1.92419 0.194756 -1.4979e-19)
(1.95185 0.195497 1.45279e-19)
(1.97926 0.196214 1.50022e-19)
(2.00643 0.196909 0)
(2.03339 0.197581 0)
(2.06015 0.198233 -1.46007e-19)
(2.08675 0.198864 0)
(2.11318 0.199475 0)
(2.13949 0.200066 2.9723e-19)
(2.16568 0.200638 0)
(2.19177 0.201191 1.46851e-19)
(2.21778 0.201726 -1.51028e-19)
(2.24374 0.202242 0)
(2.26965 0.20274 1.47303e-19)
(2.29554 0.203219 0)
(2.32144 0.20368 0)
(2.34734 0.204124 -1.51524e-19)
(2.37329 0.204552 2.99461e-19)
(2.39929 0.204959 -1.51688e-19)
(2.42536 0.205356 0)
(2.45152 0.205735 0)
(2.47779 0.206101 1.48328e-19)
(2.50419 0.206465 0)
(2.53071 0.206799 1.4851e-19)
(2.55739 0.207166 0)
(2.5842 0.207511 0)
(2.61117 0.207891 0)
(2.63829 0.208292 1.52106e-19)
(2.66554 0.208732 0)
(2.69288 0.209256 -1.52099e-19)
(2.72028 0.209863 0)
(2.74754 0.210692 0)
(2.77463 0.211705 3.00979e-19)
(2.801 0.213316 -3.01092e-19)
(2.82666 0.21542 0)
(2.85 0.219292 0)
(2.87163 0.226152 0)
(2.88933 0.239205 9.17548e-19)
(2.9245 0.261083 0)
(2.94778 0.283535 -6.25932e-19)
(-0.266945 -0.750463 1.90678e-21)
(0.250045 -0.614097 5.61185e-20)
(0.0765437 -0.586959 0)
(0.214849 -0.511354 -3.00753e-20)
(0.217237 -0.499167 0)
(0.292789 -0.46866 0)
(0.337242 -0.44444 -4.69919e-22)
(0.393102 -0.398804 1.13269e-20)
(0.432319 -0.342557 1.17253e-20)
(0.459888 -0.268537 1.13347e-20)
(0.468195 -0.19348 0)
(0.463335 -0.135547 0)
(0.449558 -0.0818945 -1.16642e-20)
(0.429023 0.0112145 -2.28699e-20)
(0.39698 0.143381 2.23323e-20)
(0.350104 0.276346 0)
(0.289512 0.376352 2.14103e-20)
(0.218692 0.436841 -9.93784e-21)
(0.139783 0.465442 0)
(0.0549581 0.469553 2.08604e-20)
(-0.0367826 0.457624 9.34104e-21)
(-0.144259 0.447902 -1.88143e-20)
(-0.276274 0.458675 -8.12541e-21)
(-0.430018 0.493438 0)
(-0.593135 0.540987 1.52532e-20)
(-0.751736 0.586729 1.44348e-20)
(-0.895249 0.619644 0)
(-1.01762 0.633253 1.34936e-20)
(-1.11771 0.625834 0)
(-1.1971 0.600022 1.33024e-20)
(-1.25871 0.560462 6.03631e-21)
(-1.30619 0.512452 0)
(-1.34347 0.460818 0)
(-1.37468 0.409529 0)
(-1.40361 0.361528 0)
(-1.43337 0.318633 0)
(-1.46627 0.281618 0)
(-1.50384 0.250425 1.54254e-20)
(-1.54692 0.22446 -2.32865e-20)
(-1.59583 0.202815 0)
(-1.6505 0.184491 0)
(-1.71059 0.168508 0)
(-1.77558 0.153998 -6.08627e-22)
(-1.84484 0.140234 1.68176e-20)
(-1.91768 0.126642 3.49428e-20)
(-1.99334 0.112783 -3.56209e-20)
(-2.07107 0.0983513 -1.84893e-20)
(-2.15006 0.0831387 1.80996e-20)
(-2.22952 0.0670297 7.6119e-22)
(-2.30864 0.0499682 1.94554e-20)
(-2.38657 0.0319647 0)
(-2.46249 0.0130624 1.99963e-20)
(-2.53554 -0.00665318 9.18492e-22)
(-2.6049 -0.027104 0)
(-2.66976 -0.0481889 0)
(-2.72923 -0.0698752 -2.06291e-20)
(-2.78223 -0.0921727 0)
(-2.82764 -0.115262 0)
(-2.86453 -0.139305 2.16512e-20)
(-2.89202 -0.163971 4.01819e-20)
(-2.90919 -0.188764 -1.82715e-20)
(-2.91533 -0.214107 0)
(-2.91052 -0.24224 1.67386e-20)
(-2.89438 -0.272818 0)
(-2.86634 -0.305354 1.75739e-20)
(-2.82579 -0.33934 1.33433e-20)
(-2.77222 -0.374102 -2.68009e-20)
(-2.70527 -0.408847 -1.33026e-20)
(-2.62495 -0.442542 0)
(-2.53151 -0.474038 1.67268e-20)
(-2.42545 -0.502107 0)
(-2.30762 -0.525142 1.21778e-20)
(-2.18028 -0.541648 4.92836e-21)
(-2.0453 -0.551498 8.2344e-22)
(-1.90521 -0.554304 3.25532e-21)
(-1.76245 -0.549828 -1.19031e-20)
(-1.61984 -0.539008 0)
(-1.47984 -0.522749 0)
(-1.34442 -0.502143 1.83543e-20)
(-1.21491 -0.478515 3.34192e-20)
(-1.09215 -0.453288 0)
(-0.976584 -0.427586 -1.48088e-20)
(-0.868318 -0.402434 0)
(-0.767242 -0.378462 5.1333e-20)
(-0.673079 -0.356231 1.69896e-21)
(-0.585484 -0.335974 -1.72336e-21)
(-0.504087 -0.317901 -4.14228e-20)
(-0.42835 -0.302027 0)
(-0.35709 -0.288661 4.61639e-20)
(-0.289379 -0.278081 1.81857e-21)
(-0.224991 -0.26972 0)
(-0.163678 -0.262802 0)
(-0.104681 -0.257071 0)
(-0.0474325 -0.252307 -5.85774e-20)
(0.00840573 -0.248323 0)
(0.0630932 -0.245012 0)
(0.116815 -0.242294 0)
(0.169712 -0.240077 0)
(0.221917 -0.238239 0)
(0.273542 -0.236676 -6.36163e-20)
(0.324676 -0.235293 0)
(0.375382 -0.234017 -6.67692e-20)
(0.425698 -0.232787 -6.75309e-20)
(0.475644 -0.231561 6.8262e-20)
(0.525221 -0.230306 0)
(0.574418 -0.229006 6.96411e-20)
(0.623218 -0.227647 0)
(0.671594 -0.226227 7.09194e-20)
(0.719518 -0.224747 -7.15236e-20)
(0.76696 -0.223214 -2.13842e-19)
(0.813892 -0.221633 0)
(0.860283 -0.220018 -2.17234e-19)
(0.90611 -0.218378 -7.13834e-20)
(0.951347 -0.216726 0)
(0.995976 -0.215072 -1.47158e-19)
(1.03998 -0.213426 -1.48126e-19)
(1.08334 -0.211797 2.24681e-19)
(1.12605 -0.210194 0)
(1.1681 -0.208624 7.64707e-20)
(1.20949 -0.207092 7.68717e-20)
(1.25021 -0.205604 2.29723e-19)
(1.29027 -0.204165 0)
(1.32967 -0.202779 0)
(1.36842 -0.201448 0)
(1.40652 -0.200173 7.67474e-20)
(1.44398 -0.198956 0)
(1.48082 -0.197796 0)
(1.51704 -0.196695 -7.96363e-20)
(1.55267 -0.195652 -7.99371e-20)
(1.58771 -0.194666 0)
(1.62218 -0.193738 0)
(1.65611 -0.192866 -1.61588e-19)
(1.6895 -0.192049 0)
(1.72238 -0.191286 1.62664e-19)
(1.75477 -0.190575 1.61494e-19)
(1.78669 -0.189915 0)
(1.81816 -0.189303 0)
(1.8492 -0.188739 -1.63056e-19)
(1.87983 -0.18822 -1.6119e-21)
(1.91008 -0.187745 -1.59363e-21)
(1.93996 -0.187313 0)
(1.9695 -0.186922 -3.31565e-19)
(1.99872 -0.186571 0)
(2.02763 -0.186257 0)
(2.05626 -0.185979 0)
(2.08463 -0.185734 1.68311e-19)
(2.11276 -0.185521 0)
(2.14067 -0.185338 -3.35357e-19)
(2.16837 -0.185184 -1.69549e-19)
(2.1959 -0.185058 0)
(2.22326 -0.184957 -1.70339e-19)
(2.25048 -0.184881 0)
(2.27757 -0.18483 0)
(2.30457 -0.184801 -5.11639e-19)
(2.33148 -0.184793 3.40931e-19)
(2.35833 -0.184806 0)
(2.38514 -0.184838 3.42395e-19)
(2.41192 -0.18489 -1.72878e-19)
(2.43871 -0.18496 0)
(2.4655 -0.18505 0)
(2.49234 -0.185151 0)
(2.51923 -0.185267 -5.19881e-19)
(2.54619 -0.185404 0)
(2.57325 -0.185556 -1.74719e-19)
(2.6004 -0.18573 0)
(2.62766 -0.185912 0)
(2.65504 -0.186101 0)
(2.68253 -0.186282 0)
(2.71013 -0.18646 0)
(2.7378 -0.186594 0)
(2.76551 -0.186704 -3.50182e-19)
(2.79309 -0.186678 0)
(2.82056 -0.186588 -1.76673e-19)
(2.84735 -0.186072 5.28361e-19)
(2.87382 -0.185402 0)
(2.89805 -0.183349 0)
(2.92219 -0.180514 -3.54475e-19)
(2.94024 -0.174698 -3.59789e-19)
(2.96134 -0.157513 3.6174e-19)
(2.97039 -0.115622 3.72389e-19)
(-0.395811 -0.840521 -1.06373e-19)
(0.21583 -0.58178 -7.946e-20)
(-0.106764 -0.642698 -3.30364e-20)
(0.0960597 -0.576323 -1.38839e-20)
(-0.000835684 -0.550223 0)
(0.079676 -0.509009 2.15678e-20)
(0.0469791 -0.468307 -1.02912e-20)
(0.0769537 -0.40206 0)
(0.0632416 -0.312478 -9.67627e-21)
(0.0664744 -0.19895 0)
(0.0488739 -0.0891072 1.95775e-20)
(0.0268703 0.00690477 0)
(-0.0201534 0.0952314 9.43358e-21)
(-0.0756354 0.194809 1.83167e-20)
(-0.130996 0.306112 -1.77087e-20)
(-0.177616 0.411643 0)
(-0.220321 0.494636 -1.62963e-20)
(-0.265648 0.551928 0)
(-0.320357 0.590143 0)
(-0.389425 0.619866 -1.39441e-20)
(-0.476764 0.650902 0)
(-0.581651 0.687505 -9.4417e-22)
(-0.696029 0.726344 0)
(-0.807341 0.759882 0)
(-0.904445 0.780831 9.10928e-22)
(-0.980832 0.784736 -1.02216e-20)
(-1.03476 0.770612 -1.09206e-20)
(-1.06838 0.740284 -9.92415e-21)
(-1.08648 0.697615 0)
(-1.0951 0.647821 -2.09158e-20)
(-1.10024 0.59633 0)
(-1.10718 0.547825 -1.11842e-20)
(-1.12001 0.505626 0)
(-1.14151 0.471536 0)
(-1.17309 0.446024 1.17297e-20)
(-1.21511 0.428565 0)
(-1.26708 0.418064 -1.21257e-20)
(-1.32803 0.413163 5.90066e-22)
(-1.39672 0.412503 2.4541e-20)
(-1.47179 0.414821 -2.56102e-20)
(-1.55194 0.41904 0)
(-1.63591 0.424253 0)
(-1.72252 0.429734 -1.42675e-20)
(-1.8107 0.434895 0)
(-1.89949 0.439274 -1.35133e-20)
(-1.98797 0.442499 1.37947e-20)
(-2.07534 0.444265 1.40775e-20)
(-2.16086 0.444316 0)
(-2.24383 0.442416 -1.46339e-20)
(-2.32365 0.438337 -1.48995e-20)
(-2.39975 0.431842 3.21204e-20)
(-2.47161 0.422674 -1.53827e-20)
(-2.53874 0.410543 -1.55898e-20)
(-2.60069 0.395128 0)
(-2.65704 0.376095 0)
(-2.7074 0.353112 1.6005e-20)
(-2.75141 0.325824 0)
(-2.78873 0.293799 0)
(-2.81901 0.256566 -3.16601e-20)
(-2.84182 0.213843 -3.11713e-20)
(-2.8564 0.165681 0)
(-2.86206 0.112497 0)
(-2.85783 0.0570983 0)
(-2.84271 -0.000277794 0)
(-2.81575 -0.0593458 -2.44935e-20)
(-2.77606 -0.119581 2.5061e-20)
(-2.72297 -0.180181 2.01397e-20)
(-2.65599 -0.240095 3.79687e-20)
(-2.57494 -0.297948 0)
(-2.48013 -0.352037 2.4698e-21)
(-2.37233 -0.400459 0)
(-2.25258 -0.441323 -6.53705e-21)
(-2.12294 -0.472716 2.05797e-21)
(-1.98595 -0.49376 -5.88951e-22)
(-1.8446 -0.50374 -2.30878e-21)
(-1.70215 -0.5024 1.49447e-21)
(-1.5618 -0.490735 0)
(-1.42626 -0.470377 -9.05304e-21)
(-1.29734 -0.443436 -1.25731e-20)
(-1.17606 -0.412085 -2.85008e-20)
(-1.06277 -0.378372 0)