/*--------------------------------*- C++ -*----------------------------------*\
| =========                 |                                                 |
| \\      /  F ield         | OpenFOAM: The Open Source CFD Toolbox           |
|  \\    /   O peration     | Version:  2012                                  |
|   \\  /    A nd           | Website:  www.openfoam.com                      |
|    \\/     M anipulation  |                                                 |
\*---------------------------------------------------------------------------*/
FoamFile
{
    version     2.0;
    format      ascii;
    class       volVectorField;
    location    "1";
    object      flux;
}
// * * * * * * * * * * * * * * * * * * * * * * * * * * * * * * * * * * * * * //

dimensions      [0 1 -1 1 0 0 0];


internalField   nonuniform List<vector> 
1000
(
(0.030004 0.00904335 0)
(0.027696 0.0257389 0)
(0.0255653 0.04115 0)
(0.0235982 0.0553755 0)
(0.0217821 0.0685063 0)
(0.0201054 0.0806265 0)
(0.0185574 0.0918136 0)
(0.0171282 0.102139 0)
(0.0158086 0.11167 0)
(0.0145902 0.120465 0)
(0.0134651 0.128583 0)
(0.0124262 0.136075 0)
(0.0114669 0.142988 0)
(0.0105809 0.149368 0)
(0.00976269 0.155254 0)
(0.00900692 0.160685 0)
(0.00830881 0.165696 0)
(0.00766386 0.170317 0)
(0.00706797 0.17458 0)
(0.00651731 0.178511 0)
(0.00600837 0.182135 0)
(0.00553787 0.185476 0)
(0.00510282 0.188555 0)
(0.00470043 0.191392 0)
(0.00432812 0.194004 0)
(0.00398351 0.196409 0)
(0.00366439 0.198622 0)
(0.00336874 0.200657 0)
(0.00309462 0.202527 0)
(0.00284034 0.204245 0)
(0.00260421 0.20582 0)
(0.00238477 0.207263 0)
(0.00218056 0.208584 0)
(0.00199035 0.209791 0)
(0.00181283 0.210892 0)
(0.00164696 0.211893 0)
(0.00149159 0.212801 0)
(0.0013458 0.213622 0)
(0.00120859 0.214361 0)
(0.00107915 0.215023 0)
(0.000956575 0.215612 0)
(0.000840172 0.216132 0)
(0.000729093 0.216586 0)
(0.000622734 0.216977 0)
(0.000520306 0.217308 0)
(0.000421264 0.21758 0)
(0.00032486 0.217796 0)
(0.000230594 0.217957 0)
(0.000137745 0.218064 0)
(4.58371e-05 0.218117 0)
(-4.58371e-05 0.218117 0)
(-0.000137745 0.218064 0)
(-0.000230594 0.217957 0)
(-0.00032486 0.217796 0)
(-0.000421264 0.21758 0)
(-0.000520306 0.217308 0)
(-0.000622734 0.216977 0)
(-0.000729093 0.216586 0)
(-0.000840172 0.216132 0)
(-0.000956575 0.215612 0)
(-0.00107915 0.215023 0)
(-0.00120859 0.214361 0)
(-0.0013458 0.213622 0)
(-0.00149159 0.212801 0)
(-0.00164696 0.211893 0)
(-0.00181283 0.210892 0)
(-0.00199035 0.209791 0)
(-0.00218056 0.208584 0)
(-0.00238477 0.207263 0)
(-0.00260421 0.20582 0)
(-0.00284034 0.204245 0)
(-0.00309462 0.202527 0)
(-0.00336874 0.200657 0)
(-0.00366439 0.198622 0)
(-0.00398351 0.196409 0)
(-0.00432812 0.194004 0)
(-0.00470043 0.191392 0)
(-0.00510282 0.188555 0)
(-0.00553787 0.185476 0)
(-0.00600837 0.182135 0)
(-0.00651731 0.178511 0)
(-0.00706797 0.17458 0)
(-0.00766386 0.170317 0)
(-0.00830881 0.165696 0)
(-0.00900692 0.160685 0)
(-0.00976269 0.155254 0)
(-0.0105809 0.149368 0)
(-0.0114669 0.142988 0)
(-0.0124262 0.136075 0)
(-0.0134651 0.128583 0)
(-0.0145902 0.120465 0)
(-0.0158086 0.11167 0)
(-0.0171282 0.102139 0)
(-0.0185574 0.0918136 0)
(-0.0201054 0.0806265 0)
(-0.0217821 0.0685063 0)
(-0.0235982 0.0553755 0)
(-0.0255653 0.04115 0)
(-0.027696 0.0257389 0)
(-0.030004 0.00904335 0)
(0.0300039 6.50328e-10 0)
(0.027696 -1.21564e-08 0)
(0.0255653 2.03098e-09 0)
(0.0235982 -1.54348e-08 0)
(0.0217821 1.5678e-09 0)
(0.0201054 -1.58358e-08 0)
(0.0185574 1.63843e-09 0)
(0.0171282 -1.58299e-08 0)
(0.0158086 2.11857e-09 0)
(0.0145902 -1.54774e-08 0)
(0.0134651 2.90943e-09 0)
(0.0124263 -1.48268e-08 0)
(0.0114669 3.93093e-09 0)
(0.0105809 -1.39178e-08 0)
(0.00976268 5.11681e-09 0)
(0.00900693 -1.27844e-08 0)
(0.0083088 6.41114e-09 0)
(0.00766387 -1.14574e-08 0)
(0.00706797 7.76588e-09 0)
(0.00651732 -9.96475e-09 0)
(0.00600837 9.13919e-09 0)
(0.00553788 -8.33343e-09 0)
(0.00510283 1.04942e-08 0)
(0.00470043 -6.58949e-09 0)
(0.00432813 1.17984e-08 0)
(0.00398351 -4.75858e-09 0)
(0.0036644 1.30227e-08 0)
(0.00336873 -2.8661e-09 0)
(0.00309464 1.41416e-08 0)
(0.00284033 -9.37231e-10 0)
(0.00260422 1.51326e-08 0)
(0.00238476 1.00311e-09 0)
(0.00218058 1.59763e-08 0)
(0.00199033 2.93039e-09 0)
(0.00181286 1.66561e-08 0)
(0.00164694 4.82067e-09 0)
(0.00149161 1.71586e-08 0)
(0.00134578 6.65073e-09 0)
(0.00120861 1.74731e-08 0)
(0.00107913 8.3984e-09 0)
(0.000956604 1.7592e-08 0)
(0.000840146 1.00427e-08 0)
(0.000729123 1.75105e-08 0)
(0.000622707 1.15641e-08 0)
(0.000520337 1.72268e-08 0)
(0.000421235 1.29449e-08 0)
(0.000324892 1.67419e-08 0)
(0.000230564 1.4169e-08 0)
(0.000137777 1.60596e-08 0)
(4.58062e-05 1.52227e-08 0)
(-4.58062e-05 1.51863e-08 0)
(-0.000137777 1.60944e-08 0)
(-0.000230564 1.41311e-08 0)
(-0.000324892 1.67751e-08 0)
(-0.000421235 1.29056e-08 0)
(-0.000520337 1.72583e-08 0)
(-0.000622707 1.15236e-08 0)
(-0.000729123 1.75403e-08 0)
(-0.000840146 1.0001e-08 0)
(-0.000956604 1.76199e-08 0)
(-0.00107913 8.35559e-09 0)
(-0.00120861 1.74992e-08 0)
(-0.00134578 6.60692e-09 0)
(-0.00149161 1.71828e-08 0)
(-0.00164694 4.77597e-09 0)
(-0.00181286 1.66784e-08 0)
(-0.00199033 2.88493e-09 0)
(-0.00218058 1.59966e-08 0)
(-0.00238476 9.56985e-10 0)
(-0.00260422 1.5151e-08 0)
(-0.00284033 -9.83891e-10 0)
(-0.00309464 1.41581e-08 0)
(-0.00336873 -2.91318e-09 0)
(-0.0036644 1.30373e-08 0)
(-0.00398351 -4.80595e-09 0)
(-0.00432813 1.18112e-08 0)
(-0.00470043 -6.63702e-09 0)
(-0.00510283 1.05052e-08 0)
(-0.00553788 -8.38098e-09 0)
(-0.00600837 9.14848e-09 0)
(-0.00651732 -1.00122e-08 0)
(-0.00706797 7.77358e-09 0)
(-0.00766387 -1.15045e-08 0)
(-0.0083088 6.41739e-09 0)
(-0.00900693 -1.28311e-08 0)
(-0.00976268 5.1218e-09 0)
(-0.0105809 -1.39638e-08 0)
(-0.0114669 3.9349e-09 0)
(-0.0124263 -1.48719e-08 0)
(-0.0134651 2.91267e-09 0)
(-0.0145902 -1.55214e-08 0)
(-0.0158086 2.12146e-09 0)
(-0.0171282 -1.58723e-08 0)
(-0.0185574 1.64147e-09 0)
(-0.0201054 -1.58764e-08 0)
(-0.0217821 1.57161e-09 0)
(-0.0235982 -1.54729e-08 0)
(-0.0255653 2.03636e-09 0)
(-0.027696 -1.21857e-08 0)
(-0.0300039 6.52243e-10 0)
(0.030004 -2.47115e-09 0)
(0.027696 1.15643e-09 0)
(0.0255653 -7.81787e-09 0)
(0.0235982 2.32903e-09 0)
(0.0217821 -1.15007e-08 0)
(0.0201054 3.79509e-09 0)
(0.0185574 -1.41451e-08 0)
(0.0171282 5.39959e-09 0)
(0.0158086 -1.5952e-08 0)
(0.0145902 7.09464e-09 0)
(0.0134651 -1.70711e-08 0)
(0.0124262 8.83599e-09 0)
(0.0114669 -1.7615e-08 0)
(0.0105809 1.05827e-08 0)
(0.00976269 -1.76704e-08 0)
(0.00900692 1.2297e-08 0)
(0.00830881 -1.73057e-08 0)
(0.00766386 1.39439e-08 0)
(0.00706797 -1.65765e-08 0)
(0.00651731 1.54914e-08 0)
(0.00600837 -1.55295e-08 0)
(0.00553787 1.69106e-08 0)
(0.00510282 -1.4206e-08 0)
(0.00470043 1.81753e-08 0)
(0.00432812 -1.26432e-08 0)
(0.00398352 1.92628e-08 0)
(0.00366439 -1.08759e-08 0)
(0.00336874 2.01531e-08 0)
(0.00309463 -8.93755e-09 0)
(0.00284034 2.083e-08 0)
(0.00260421 -6.86081e-09 0)
(0.00238477 2.12803e-08 0)
(0.00218057 -4.67768e-09 0)
(0.00199035 2.14943e-08 0)
(0.00181284 -2.41989e-09 0)
(0.00164696 2.14657e-08 0)
(0.00149159 -1.18788e-10 0)
(0.0013458 2.11919e-08 0)
(0.00120859 2.1947e-09 0)
(0.00107915 2.06735e-08 0)
(0.000956576 4.49024e-09 0)
(0.000840174 1.99145e-08 0)
(0.000729094 6.73832e-09 0)
(0.000622736 1.89224e-08 0)
(0.000520306 8.9105e-09 0)
(0.000421265 1.77076e-08 0)
(0.00032486 1.09797e-08 0)
(0.000230595 1.62838e-08 0)
(0.000137745 1.29203e-08 0)
(4.58379e-05 1.46674e-08 0)
(-4.58379e-05 1.47087e-08 0)
(-0.000137745 1.28775e-08 0)
(-0.000230595 1.63235e-08 0)
(-0.00032486 1.09355e-08 0)
(-0.000421265 1.77456e-08 0)
(-0.000520306 8.86509e-09 0)
(-0.000622736 1.89586e-08 0)
(-0.000729094 6.69177e-09 0)
(-0.000840174 1.99489e-08 0)
(-0.000956576 4.44266e-09 0)
(-0.00107915 2.0706e-08 0)
(-0.00120859 2.14623e-09 0)
(-0.0013458 2.12224e-08 0)
(-0.00149159 -1.68007e-10 0)
(-0.00164696 2.14942e-08 0)
(-0.00181284 -2.46972e-09 0)
(-0.00199035 2.15207e-08 0)
(-0.00218057 -4.72797e-09 0)
(-0.00238477 2.13046e-08 0)
(-0.00260421 -6.91139e-09 0)
(-0.00284034 2.08522e-08 0)
(-0.00309463 -8.98827e-09 0)
(-0.00336874 2.01732e-08 0)
(-0.00366439 -1.09265e-08 0)
(-0.00398352 1.92806e-08 0)
(-0.00432812 -1.26936e-08 0)
(-0.00470043 1.81911e-08 0)
(-0.00510282 -1.42559e-08 0)
(-0.00553787 1.69242e-08 0)
(-0.00600837 -1.55787e-08 0)
(-0.00651731 1.5503e-08 0)
(-0.00706797 -1.66247e-08 0)
(-0.00766386 1.39535e-08 0)
(-0.00830881 -1.73526e-08 0)
(-0.00900692 1.23048e-08 0)
(-0.00976269 -1.77155e-08 0)
(-0.0105809 1.05887e-08 0)
(-0.0114669 -1.76578e-08 0)
(-0.0124262 8.84038e-09 0)
(-0.0134651 -1.71109e-08 0)
(-0.0145902 7.09757e-09 0)
(-0.0158086 -1.5988e-08 0)
(-0.0171282 5.40125e-09 0)
(-0.0185574 -1.41762e-08 0)
(-0.0201054 3.7957e-09 0)
(-0.0217821 -1.15254e-08 0)
(-0.0235982 2.32887e-09 0)
(-0.0255653 -7.83426e-09 0)
(-0.027696 1.15618e-09 0)
(-0.030004 -2.47624e-09 0)
(0.0300039 1.5277e-09 0)
(0.027696 -5.44718e-09 0)
(0.0255653 4.82649e-09 0)
(0.0235982 -9.04872e-09 0)
(0.0217821 7.02335e-09 0)
(0.0201054 -1.16917e-08 0)
(0.0185574 9.11284e-09 0)
(0.0171282 -1.38244e-08 0)
(0.0158086 1.10988e-08 0)
(0.0145902 -1.54916e-08 0)
(0.0134651 1.29747e-08 0)
(0.0124263 -1.67287e-08 0)
(0.0114669 1.47275e-08 0)
(0.0105809 -1.75647e-08 0)
(0.00976268 1.63405e-08 0)
(0.00900693 -1.80246e-08 0)
(0.0083088 1.77953e-08 0)
(0.00766387 -1.81306e-08 0)
(0.00706797 1.90732e-08 0)
(0.00651732 -1.7904e-08 0)
(0.00600837 2.01568e-08 0)
(0.00553788 -1.73656e-08 0)
(0.00510283 2.10299e-08 0)
(0.00470043 -1.65368e-08 0)
(0.00432813 2.16788e-08 0)
(0.00398351 -1.54395e-08 0)
(0.00366441 2.20927e-08 0)
(0.00336873 -1.40971e-08 0)
(0.00309464 2.22633e-08 0)
(0.00284033 -1.2534e-08 0)
(0.00260423 2.2186e-08 0)
(0.00238476 -1.07759e-08 0)
(0.00218059 2.18591e-08 0)
(0.00199034 -8.84985e-09 0)
(0.00181286 2.12846e-08 0)
(0.00164694 -6.78408e-09 0)
(0.00149161 2.04675e-08 0)
(0.00134578 -4.60765e-09 0)
(0.00120861 1.94162e-08 0)
(0.00107913 -2.35039e-09 0)
(0.000956605 1.81426e-08 0)
(0.000840149 -4.26065e-11 0)
(0.000729123 1.66611e-08 0)
(0.000622709 2.28527e-09 0)
(0.000520337 1.49893e-08 0)
(0.000421237 4.60294e-09 0)
(0.000324891 1.31473e-08 0)
(0.000230566 6.88059e-09 0)
(0.000137776 1.11577e-08 0)
(4.58074e-05 9.08922e-09 0)
(-4.58074e-05 9.04488e-09 0)
(-0.000137776 1.1201e-08 0)
(-0.000230566 6.83536e-09 0)
(-0.000324891 1.31895e-08 0)
(-0.000421237 4.55697e-09 0)
(-0.000520337 1.50303e-08 0)
(-0.000622709 2.23869e-09 0)
(-0.000729123 1.67007e-08 0)
(-0.000840149 -8.96523e-11 0)
(-0.000956605 1.81808e-08 0)
(-0.00107913 -2.39776e-09 0)
(-0.00120861 1.9453e-08 0)
(-0.00134578 -4.65518e-09 0)
(-0.00149161 2.05026e-08 0)
(-0.00164694 -6.83161e-09 0)
(-0.00181286 2.1318e-08 0)
(-0.00199034 -8.89723e-09 0)
(-0.00218059 2.18909e-08 0)
(-0.00238476 -1.08229e-08 0)
(-0.00260423 2.22159e-08 0)
(-0.00284033 -1.25805e-08 0)
(-0.00309464 2.22914e-08 0)
(-0.00336873 -1.41429e-08 0)
(-0.00366441 2.21189e-08 0)
(-0.00398351 -1.54845e-08 0)
(-0.00432813 2.17032e-08 0)
(-0.00470043 -1.65806e-08 0)
(-0.00510283 2.10524e-08 0)
(-0.00553788 -1.74081e-08 0)
(-0.00600837 2.01774e-08 0)
(-0.00651732 -1.79448e-08 0)
(-0.00706797 1.9092e-08 0)
(-0.00766387 -1.81696e-08 0)
(-0.0083088 1.78122e-08 0)
(-0.00900693 -1.80614e-08 0)
(-0.00976268 1.63556e-08 0)
(-0.0105809 -1.7599e-08 0)
(-0.0114669 1.47408e-08 0)
(-0.0124263 -1.67601e-08 0)
(-0.0134651 1.29863e-08 0)
(-0.0145902 -1.55196e-08 0)
(-0.0158086 1.11087e-08 0)
(-0.0171282 -1.38485e-08 0)
(-0.0185574 9.121e-09 0)
(-0.0201054 -1.17112e-08 0)
(-0.0217821 7.0298e-09 0)
(-0.0235982 -9.06288e-09 0)
(-0.0255653 4.83117e-09 0)
(-0.027696 -5.45484e-09 0)
(-0.0300039 1.52932e-09 0)
(0.030004 -1.73021e-09 0)
(0.027696 5.06146e-09 0)
(0.0255653 -5.74857e-09 0)
(0.0235982 8.0821e-09 0)
(0.0217821 -8.57356e-09 0)
(0.0201054 1.04937e-08 0)
(0.0185574 -1.11423e-08 0)
(0.0171282 1.27759e-08 0)
(0.0158086 -1.34054e-08 0)
(0.0145902 1.49088e-08 0)
(0.0134651 -1.53314e-08 0)
(0.0124262 1.68711e-08 0)
(0.0114669 -1.69013e-08 0)
(0.0105809 1.86417e-08 0)
(0.00976269 -1.81054e-08 0)
(0.00900692 2.02001e-08 0)
(0.00830881 -1.89412e-08 0)
(0.00766386 2.15276e-08 0)
(0.00706798 -1.94116e-08 0)
(0.00651731 2.26078e-08 0)
(0.00600837 -1.9524e-08 0)
(0.00553788 2.34267e-08 0)
(0.00510283 -1.92897e-08 0)
(0.00470043 2.39734e-08 0)
(0.00432812 -1.87235e-08 0)
(0.00398352 2.42404e-08 0)
(0.0036644 -1.7843e-08 0)
(0.00336874 2.42235e-08 0)
(0.00309463 -1.66689e-08 0)
(0.00284034 2.39221e-08 0)
(0.00260421 -1.52241e-08 0)
(0.00238477 2.33394e-08 0)
(0.00218057 -1.35342e-08 0)
(0.00199035 2.24819e-08 0)
(0.00181284 -1.16267e-08 0)
(0.00164696 2.13599e-08 0)
(0.00149159 -9.53109e-09 0)
(0.0013458 1.99872e-08 0)
(0.00120859 -7.27825e-09 0)
(0.00107915 1.83806e-08 0)
(0.000956579 -4.90052e-09 0)
(0.000840173 1.65604e-08 0)
(0.000729096 -2.43112e-09 0)
(0.000622734 1.45493e-08 0)
(0.000520309 9.60908e-11 0)
(0.000421263 1.23729e-08 0)
(0.000324863 2.647e-09 0)
(0.000230593 1.00591e-08 0)
(0.000137747 5.18761e-09 0)
(4.58356e-05 7.6377e-09 0)
(-4.58355e-05 7.68443e-09 0)
(-0.000137747 5.13998e-09 0)
(-0.000230593 1.01048e-08 0)
(-0.000324863 2.59862e-09 0)
(-0.000421263 1.24174e-08 0)
(-0.000520309 4.71216e-11 0)
(-0.000622734 1.45924e-08 0)
(-0.000729096 -2.48051e-09 0)
(-0.000840173 1.66021e-08 0)
(-0.000956579 -4.95016e-09 0)
(-0.00107915 1.84208e-08 0)
(-0.00120859 -7.32796e-09 0)
(-0.0013458 2.00257e-08 0)
(-0.00149159 -9.58068e-09 0)
(-0.00164696 2.13967e-08 0)
(-0.00181284 -1.1676e-08 0)
(-0.00199035 2.25168e-08 0)
(-0.00218057 -1.3583e-08 0)
(-0.00238477 2.33723e-08 0)
(-0.00260421 -1.52722e-08 0)
(-0.00284034 2.3953e-08 0)
(-0.00309463 -1.6716e-08 0)
(-0.00336874 2.42523e-08 0)
(-0.0036644 -1.78889e-08 0)
(-0.00398352 2.42671e-08 0)
(-0.00432812 -1.87679e-08 0)
(-0.00470043 2.39979e-08 0)
(-0.00510283 -1.93325e-08 0)
(-0.00553788 2.3449e-08 0)
(-0.00600837 -1.95647e-08 0)
(-0.00651731 2.26279e-08 0)
(-0.00706798 -1.94501e-08 0)
(-0.00766386 2.15455e-08 0)
(-0.00830881 -1.89771e-08 0)
(-0.00900692 2.02158e-08 0)
(-0.00976269 -1.81384e-08 0)
(-0.0105809 1.86551e-08 0)
(-0.0114669 -1.6931e-08 0)
(-0.0124262 1.68823e-08 0)
(-0.0134651 -1.53574e-08 0)
(-0.0145902 1.49178e-08 0)
(-0.0158086 -1.34274e-08 0)
(-0.0171282 1.27827e-08 0)
(-0.0185574 -1.11598e-08 0)
(-0.0201054 1.04983e-08 0)
(-0.0217821 -8.58635e-09 0)
(-0.0235982 8.08453e-09 0)
(-0.0255653 -5.75624e-09 0)
(-0.027696 5.06208e-09 0)
(-0.030004 -1.73238e-09 0)
(0.0300039 1.65404e-09 0)
(0.027696 -6.28975e-09 0)
(0.0255653 5.45415e-09 0)
(0.0235982 -9.41907e-09 0)
(0.0217821 7.90066e-09 0)
(0.0201054 -1.15574e-08 0)
(0.0185574 1.02444e-08 0)
(0.0171282 -1.34612e-08 0)
(0.0158086 1.24585e-08 0)
(0.0145902 -1.51024e-08 0)
(0.0134651 1.45179e-08 0)
(0.0124262 -1.64606e-08 0)
(0.0114669 1.63991e-08 0)
(0.0105809 -1.75213e-08 0)
(0.00976268 1.80806e-08 0)
(0.00900693 -1.82754e-08 0)
(0.00830881 1.95429e-08 0)
(0.00766387 -1.87186e-08 0)
(0.00706797 2.0769e-08 0)
(0.00651732 -1.88509e-08 0)
(0.00600837 2.17445e-08 0)
(0.00553788 -1.86761e-08 0)
(0.00510283 2.24582e-08 0)
(0.00470044 -1.82021e-08 0)
(0.00432813 2.29015e-08 0)
(0.00398352 -1.74399e-08 0)
(0.00366441 2.30694e-08 0)
(0.00336874 -1.64043e-08 0)
(0.00309464 2.29603e-08 0)
(0.00284034 -1.51127e-08 0)
(0.00260423 2.25757e-08 0)
(0.00238476 -1.35856e-08 0)
(0.00218059 2.19209e-08 0)
(0.00199034 -1.1846e-08 0)
(0.00181286 2.10043e-08 0)
(0.00164695 -9.91942e-09 0)
(0.00149161 1.98378e-08 0)
(0.00134579 -7.83308e-09 0)
(0.00120861 1.84365e-08 0)
(0.00107914 -5.61609e-09 0)
(0.000956602 1.68184e-08 0)
(0.000840153 -3.29887e-09 0)
(0.00072912 1.50045e-08 0)
(0.000622713 -9.12805e-10 0)
(0.000520333 1.30182e-08 0)
(0.000421241 1.51008e-09 0)
(0.000324888 1.08852e-08 0)
(0.00023057 3.93753e-09 0)
(0.000137772 8.63325e-09 0)
(4.58112e-05 6.33745e-09 0)
(-4.58112e-05 6.29172e-09 0)
(-0.000137772 8.67828e-09 0)
(-0.00023057 3.89126e-09 0)
(-0.000324888 1.09294e-08 0)
(-0.000421241 1.46342e-09 0)
(-0.000520333 1.30614e-08 0)
(-0.000622713 -9.59688e-10 0)
(-0.00072912 1.50466e-08 0)
(-0.000840153 -3.34581e-09 0)
(-0.000956602 1.68593e-08 0)
(-0.00107914 -5.66292e-09 0)
(-0.00120861 1.8476e-08 0)
(-0.00134579 -7.87962e-09 0)
(-0.00149161 1.98759e-08 0)
(-0.00164695 -9.96549e-09 0)
(-0.00181286 2.10408e-08 0)
(-0.00199034 -1.18915e-08 0)
(-0.00218059 2.19558e-08 0)
(-0.00238476 -1.36301e-08 0)
(-0.00260423 2.26089e-08 0)
(-0.00284034 -1.51562e-08 0)
(-0.00309464 2.29917e-08 0)
(-0.00336874 -1.64466e-08 0)
(-0.00366441 2.30989e-08 0)
(-0.00398352 -1.74808e-08 0)
(-0.00432813 2.29291e-08 0)
(-0.00470044 -1.82412e-08 0)
(-0.00510283 2.24838e-08 0)
(-0.00553788 -1.87134e-08 0)
(-0.00600837 2.17681e-08 0)
(-0.00651732 -1.8886e-08 0)
(-0.00706797 2.07905e-08 0)
(-0.00766387 -1.87515e-08 0)
(-0.00830881 1.95623e-08 0)
(-0.00900693 -1.83057e-08 0)
(-0.00976268 1.8098e-08 0)
(-0.0105809 -1.75488e-08 0)
(-0.0114669 1.64144e-08 0)
(-0.0124262 -1.64851e-08 0)
(-0.0134651 1.45311e-08 0)
(-0.0145902 -1.51236e-08 0)
(-0.0158086 1.24695e-08 0)
(-0.0171282 -1.34788e-08 0)
(-0.0185574 1.02533e-08 0)
(-0.0201054 -1.15713e-08 0)
(-0.0217821 7.90741e-09 0)
(-0.0235982 -9.42895e-09 0)
(-0.0255653 5.45872e-09 0)
(-0.027696 -6.29525e-09 0)
(-0.0300039 1.65549e-09 0)
(0.030004 -1.52307e-09 0)
(0.027696 6.78857e-09 0)
(0.0255653 -4.98185e-09 0)
(0.0235982 9.84044e-09 0)
(0.0217821 -6.97695e-09 0)
(0.0201054 1.18162e-08 0)
(0.0185574 -8.86792e-09 0)
(0.0171282 1.36593e-08 0)
(0.0158086 -1.0619e-08 0)
(0.0145902 1.53453e-08 0)
(0.0134651 -1.21987e-08 0)
(0.0124262 1.68522e-08 0)
(0.0114669 -1.35799e-08 0)
(0.0105809 1.81604e-08 0)
(0.00976269 -1.474e-08 0)
(0.00900692 1.92532e-08 0)
(0.00830881 -1.56612e-08 0)
(0.00766386 2.01165e-08 0)
(0.00706798 -1.63298e-08 0)
(0.00651732 2.07392e-08 0)
(0.00600837 -1.67369e-08 0)
(0.00553788 2.11135e-08 0)
(0.00510283 -1.68776e-08 0)
(0.00470043 2.12348e-08 0)
(0.00432812 -1.67511e-08 0)
(0.00398352 2.11016e-08 0)
(0.0036644 -1.63606e-08 0)
(0.00336874 2.07159e-08 0)
(0.00309463 -1.57129e-08 0)
(0.00284034 2.00829e-08 0)
(0.00260421 -1.48183e-08 0)
(0.00238477 1.92109e-08 0)
(0.00218057 -1.36907e-08 0)
(0.00199035 1.81115e-08 0)
(0.00181284 -1.23465e-08 0)
(0.00164696 1.67992e-08 0)
(0.00149159 -1.08053e-08 0)
(0.0013458 1.52912e-08 0)
(0.00120859 -9.08885e-09 0)
(0.00107915 1.36074e-08 0)
(0.000956584 -7.22121e-09 0)
(0.000840169 1.17699e-08 0)
(0.000729101 -5.2282e-09 0)
(0.000622731 9.80288e-09 0)
(0.000520313 -3.13712e-09 0)
(0.00042126 7.7324e-09 0)
(0.000324867 -9.76389e-10 0)
(0.000230589 5.58578e-09 0)
(0.000137752 1.22483e-09 0)
(4.58313e-05 3.39152e-09 0)
(-4.58313e-05 3.43698e-09 0)
(-0.000137752 1.1788e-09 0)
(-0.000230589 5.6305e-09 0)
(-0.000324867 -1.02281e-09 0)
(-0.00042126 7.77622e-09 0)
(-0.000520313 -3.18376e-09 0)
(-0.000622731 9.84565e-09 0)
(-0.000729101 -5.27487e-09 0)
(-0.000840169 1.18114e-08 0)
(-0.000956584 -7.26771e-09 0)
(-0.00107915 1.36476e-08 0)
(-0.00120859 -9.135e-09 0)
(-0.0013458 1.53299e-08 0)
(-0.00149159 -1.08509e-08 0)
(-0.00164696 1.68363e-08 0)
(-0.00181284 -1.23914e-08 0)
(-0.00199035 1.81469e-08 0)
(-0.00218057 -1.37346e-08 0)
(-0.00238477 1.92445e-08 0)
(-0.00260421 -1.4861e-08 0)
(-0.00284034 2.01145e-08 0)
(-0.00309463 -1.57542e-08 0)
(-0.00336874 2.07455e-08 0)
(-0.0036644 -1.64003e-08 0)
(-0.00398352 2.11292e-08 0)
(-0.00432812 -1.6789e-08 0)
(-0.00470043 2.12602e-08 0)
(-0.00510283 -1.69135e-08 0)
(-0.00553788 2.11367e-08 0)
(-0.00600837 -1.67706e-08 0)
(-0.00651732 2.07601e-08 0)
(-0.00706798 -1.63611e-08 0)
(-0.00766386 2.01351e-08 0)
(-0.00830881 -1.56897e-08 0)
(-0.00900692 1.92695e-08 0)
(-0.00976269 -1.47658e-08 0)
(-0.0105809 1.81744e-08 0)
(-0.0114669 -1.36026e-08 0)
(-0.0124262 1.68638e-08 0)
(-0.0134651 -1.22182e-08 0)
(-0.0145902 1.53546e-08 0)
(-0.0158086 -1.06352e-08 0)
(-0.0171282 1.36664e-08 0)
(-0.0185574 -8.88058e-09 0)
(-0.0201054 1.18212e-08 0)
(-0.0217821 -6.98601e-09 0)
(-0.0235982 9.84324e-09 0)
(-0.0255653 -4.98726e-09 0)
(-0.027696 6.78959e-09 0)
(-0.030004 -1.52458e-09 0)
(0.0300039 1.26481e-09 0)
(0.027696 -5.90846e-09 0)
(0.0255653 4.1798e-09 0)
(0.0235982 -8.2835e-09 0)
(0.0217821 5.85031e-09 0)
(0.0201054 -9.59883e-09 0)
(0.0185574 7.49136e-09 0)
(0.0171282 -1.07571e-08 0)
(0.0158086 9.07652e-09 0)
(0.0145902 -1.17411e-08 0)
(0.0134651 1.05809e-08 0)
(0.0124262 -1.25366e-08 0)
(0.0114669 1.19816e-08 0)
(0.0105809 -1.31324e-08 0)
(0.00976269 1.32573e-08 0)
(0.00900693 -1.35206e-08 0)
(0.00830881 1.43893e-08 0)
(0.00766387 -1.36962e-08 0)
(0.00706798 1.53609e-08 0)
(0.00651732 -1.36575e-08 0)
(0.00600837 1.61579e-08 0)
(0.00553788 -1.34058e-08 0)
(0.00510283 1.67687e-08 0)
(0.00470044 -1.29453e-08 0)
(0.00432813 1.71845e-08 0)
(0.00398352 -1.22831e-08 0)
(0.00366441 1.73991e-08 0)
(0.00336874 -1.14289e-08 0)
(0.00309464 1.74091e-08 0)
(0.00284034 -1.0395e-08 0)
(0.00260422 1.7214e-08 0)
(0.00238477 -9.19601e-09 0)
(0.00218058 1.6816e-08 0)
(0.00199034 -7.84867e-09 0)
(0.00181285 1.62199e-08 0)
(0.00164695 -6.37154e-09 0)
(0.00149161 1.54335e-08 0)
(0.00134579 -4.78484e-09 0)
(0.00120861 1.44669e-08 0)
(0.00107914 -3.1101e-09 0)
(0.000956599 1.33327e-08 0)
(0.000840157 -1.36994e-09 0)
(0.000729116 1.20456e-08 0)
(0.000622718 4.12269e-10 0)
(0.000520329 1.06226e-08 0)
(0.000421245 2.2127e-09 0)
(0.000324883 9.08223e-09 0)
(0.000230574 4.00735e-09 0)
(0.000137768 7.44483e-09 0)
(4.58159e-05 5.7724e-09 0)
(-4.58159e-05 5.73196e-09 0)
(-0.000137768 7.48445e-09 0)
(-0.000230574 3.96625e-09 0)
(-0.000324883 9.12089e-09 0)
(-0.000421245 2.17109e-09 0)
(-0.000520329 1.06602e-08 0)
(-0.000622718 3.70309e-10 0)
(-0.000729116 1.2082e-08 0)
(-0.000840157 -1.41209e-09 0)
(-0.000956599 1.33677e-08 0)
(-0.00107914 -3.15227e-09 0)
(-0.00120861 1.45005e-08 0)
(-0.00134579 -4.82685e-09 0)
(-0.00149161 1.54655e-08 0)
(-0.00164695 -6.41322e-09 0)
(-0.00181285 1.62503e-08 0)
(-0.00199034 -7.88983e-09 0)
(-0.00218058 1.68446e-08 0)
(-0.00238477 -9.23647e-09 0)
(-0.00260422 1.72408e-08 0)
(-0.00284034 -1.04346e-08 0)
(-0.00309464 1.74341e-08 0)
(-0.00336874 -1.14674e-08 0)
(-0.00366441 1.74222e-08 0)
(-0.00398352 -1.23203e-08 0)
(-0.00432813 1.72056e-08 0)
(-0.00470044 -1.29811e-08 0)
(-0.00510283 1.67879e-08 0)
(-0.00553788 -1.34399e-08 0)
(-0.00600837 1.6175e-08 0)
(-0.00651732 -1.36898e-08 0)
(-0.00706798 1.53761e-08 0)
(-0.00766387 -1.37264e-08 0)
(-0.00830881 1.44026e-08 0)
(-0.00900693 -1.35485e-08 0)
(-0.00976269 1.32687e-08 0)
(-0.0105809 -1.31579e-08 0)
(-0.0114669 1.19911e-08 0)
(-0.0124262 -1.25594e-08 0)
(-0.0134651 1.05888e-08 0)
(-0.0145902 -1.17611e-08 0)
(-0.0158086 9.08282e-09 0)
(-0.0171282 -1.07741e-08 0)
(-0.0185574 7.49625e-09 0)
(-0.0201054 -9.61269e-09 0)
(-0.0217821 5.85399e-09 0)
(-0.0235982 -8.29401e-09 0)
(-0.0255653 4.18252e-09 0)
(-0.027696 -5.91491e-09 0)
(-0.0300039 1.26571e-09 0)
(0.030004 -1.01624e-09 0)
(0.027696 4.38663e-09 0)
(0.0255653 -3.31529e-09 0)
(0.0235982 6.39562e-09 0)
(0.0217821 -4.62125e-09 0)
(0.0201054 7.73929e-09 0)
(0.0185574 -5.82678e-09 0)
(0.0171282 8.99686e-09 0)
(0.0158086 -6.91788e-09 0)
(0.0145902 1.01523e-08 0)
(0.0134651 -7.88165e-09 0)
(0.0124262 1.11908e-08 0)
(0.0114669 -8.70655e-09 0)
(0.0105809 1.20994e-08 0)
(0.00976269 -9.38269e-09 0)
(0.00900692 1.28669e-08 0)
(0.00830881 -9.90199e-09 0)
(0.00766387 1.34836e-08 0)
(0.00706798 -1.02583e-08 0)
(0.00651732 1.39422e-08 0)
(0.00600837 -1.04477e-08 0)
(0.00553788 1.42372e-08 0)
(0.00510283 -1.04682e-08 0)
(0.00470044 1.43653e-08 0)
(0.00432813 -1.03203e-08 0)
(0.00398352 1.43255e-08 0)
(0.0036644 -1.00063e-08 0)
(0.00336874 1.41188e-08 0)
(0.00309463 -9.53099e-09 0)
(0.00284034 1.37483e-08 0)
(0.00260422 -8.90117e-09 0)
(0.00238477 1.32194e-08 0)
(0.00218058 -8.12561e-09 0)
(0.00199035 1.25395e-08 0)
(0.00181285 -7.215e-09 0)
(0.00164696 1.17177e-08 0)
(0.0014916 -6.18176e-09 0)
(0.0013458 1.07653e-08 0)
(0.0012086 -5.0399e-09 0)
(0.00107915 9.69503e-09 0)
(0.000956588 -3.8048e-09 0)
(0.000840166 8.52119e-09 0)
(0.000729105 -2.49306e-09 0)
(0.000622728 7.25946e-09 0)
(0.000520318 -1.12224e-09 0)
(0.000421256 5.92664e-09 0)
(0.000324872 2.89358e-10 0)
(0.000230585 4.54044e-09 0)
(0.000137756 1.72291e-09 0)
(4.58273e-05 3.11929e-09 0)
(-4.58273e-05 3.15933e-09 0)
(-0.000137756 1.68208e-09 0)
(-0.000230585 4.57951e-09 0)
(-0.000324872 2.47915e-10 0)
(-0.000421256 5.96458e-09 0)
(-0.000520318 -1.16411e-09 0)
(-0.000622728 7.29611e-09 0)
(-0.000729105 -2.53518e-09 0)
(-0.000840166 8.5564e-09 0)
(-0.000956588 -3.84697e-09 0)
(-0.00107915 9.72864e-09 0)
(-0.0012086 -5.08193e-09 0)
(-0.0013458 1.07972e-08 0)
(-0.0014916 -6.22346e-09 0)
(-0.00164696 1.17477e-08 0)
(-0.00181285 -7.25615e-09 0)
(-0.00199035 1.25675e-08 0)
(-0.00218058 -8.166e-09 0)
(-0.00238477 1.32453e-08 0)
(-0.00260422 -8.94058e-09 0)
(-0.00284034 1.3772e-08 0)
(-0.00309463 -9.56922e-09 0)
(-0.00336874 1.41401e-08 0)
(-0.0036644 -1.00431e-08 0)
(-0.00398352 1.43444e-08 0)
(-0.00432813 -1.03555e-08 0)
(-0.00470044 1.43817e-08 0)
(-0.00510283 -1.05016e-08 0)
(-0.00553788 1.42509e-08 0)
(-0.00600837 -1.0479e-08 0)
(-0.00651732 1.39532e-08 0)
(-0.00706798 -1.02874e-08 0)
(-0.00766387 1.34919e-08 0)
(-0.00830881 -9.92851e-09 0)
(-0.00900692 1.28724e-08 0)
(-0.00976269 -9.40647e-09 0)
(-0.0105809 1.21021e-08 0)
(-0.0114669 -8.72735e-09 0)
(-0.0124262 1.11906e-08 0)
(-0.0134651 -7.89924e-09 0)
(-0.0145902 1.01492e-08 0)
(-0.0158086 -6.93203e-09 0)
(-0.0171282 8.99088e-09 0)
(-0.0185574 -5.83724e-09 0)
(-0.0201054 7.73039e-09 0)
(-0.0217821 -4.62778e-09 0)
(-0.0235982 6.38382e-09 0)
(-0.0255653 -3.31764e-09 0)
(-0.027696 4.37523e-09 0)
(-0.030004 -1.0167e-09 0)
(0.0300039 -0.00452168 0)
(0.027696 -0.0128694 0)
(0.0255653 -0.020575 0)
(0.0235982 -0.0276878 0)
(0.0217821 -0.0342532 0)
(0.0201054 -0.0403132 0)
(0.0185574 -0.0459068 0)
(0.0171282 -0.0510696 0)
(0.0158086 -0.0558348 0)
(0.0145902 -0.0602327 0)
(0.0134651 -0.0642916 0)
(0.0124262 -0.0680375 0)
(0.0114669 -0.0714942 0)
(0.0105809 -0.074684 0)
(0.00976269 -0.0776272 0)
(0.00900693 -0.0803427 0)
(0.00830881 -0.0828479 0)
(0.00766387 -0.0851587 0)
(0.00706798 -0.08729 0)
(0.00651732 -0.0892555 0)
(0.00600837 -0.0910677 0)
(0.00553788 -0.0927381 0)
(0.00510283 -0.0942776 0)
(0.00470044 -0.0956959 0)
(0.00432813 -0.0970021 0)
(0.00398352 -0.0982046 0)
(0.0036644 -0.099311 0)
(0.00336874 -0.100329 0)
(0.00309464 -0.101264 0)
(0.00284034 -0.102122 0)
(0.00260422 -0.10291 0)
(0.00238477 -0.103632 0)
(0.00218058 -0.104292 0)
(0.00199034 -0.104896 0)
(0.00181285 -0.105446 0)
(0.00164695 -0.105946 0)
(0.00149161 -0.106401 0)
(0.0013458 -0.106811 0)
(0.00120861 -0.107181 0)
(0.00107914 -0.107512 0)
(0.000956596 -0.107806 0)
(0.000840161 -0.108066 0)
(0.000729113 -0.108293 0)
(0.000622721 -0.108489 0)
(0.000520326 -0.108654 0)
(0.000421249 -0.10879 0)
(0.00032488 -0.108898 0)
(0.000230578 -0.108979 0)
(0.000137764 -0.109032 0)
(4.58197e-05 -0.109058 0)
(-4.58198e-05 -0.109058 0)
(-0.000137764 -0.109032 0)
(-0.000230578 -0.108979 0)
(-0.00032488 -0.108898 0)
(-0.000421249 -0.10879 0)
(-0.000520326 -0.108654 0)
(-0.000622721 -0.108489 0)
(-0.000729113 -0.108293 0)
(-0.000840161 -0.108066 0)
(-0.000956596 -0.107806 0)
(-0.00107914 -0.107512 0)
(-0.00120861 -0.107181 0)
(-0.0013458 -0.106811 0)
(-0.00149161 -0.106401 0)
(-0.00164695 -0.105946 0)
(-0.00181285 -0.105446 0)
(-0.00199034 -0.104896 0)
(-0.00218058 -0.104292 0)
(-0.00238477 -0.103632 0)
(-0.00260422 -0.10291 0)
(-0.00284034 -0.102122 0)
(-0.00309464 -0.101264 0)
(-0.00336874 -0.100329 0)
(-0.0036644 -0.099311 0)
(-0.00398352 -0.0982046 0)
(-0.00432813 -0.0970021 0)
(-0.00470044 -0.0956959 0)
(-0.00510283 -0.0942776 0)
(-0.00553788 -0.0927381 0)
(-0.00600837 -0.0910677 0)
(-0.00651732 -0.0892555 0)
(-0.00706798 -0.08729 0)
(-0.00766387 -0.0851587 0)
(-0.00830881 -0.0828479 0)
(-0.00900693 -0.0803427 0)
(-0.00976269 -0.0776272 0)
(-0.0105809 -0.074684 0)
(-0.0114669 -0.0714942 0)
(-0.0124262 -0.0680375 0)
(-0.0134651 -0.0642916 0)
(-0.0145902 -0.0602327 0)
(-0.0158086 -0.0558348 0)
(-0.0171282 -0.0510696 0)
(-0.0185574 -0.0459068 0)
(-0.0201054 -0.0403132 0)
(-0.0217821 -0.0342532 0)
(-0.0235982 -0.0276878 0)
(-0.0255653 -0.020575 0)
(-0.027696 -0.0128694 0)
(-0.0300039 -0.00452168 0)
)
;

boundaryField
{
    left
    {
        type            calculated;
        value           nonuniform List<vector> 10((-0.031204 0.00904335 0) (-0.0312041 6.52243e-10 0) (-0.031204 -2.47624e-09 0) (-0.0312041 1.52932e-09 0) (-0.031204 -1.73238e-09 0) (-0.0312041 1.65549e-09 0) (-0.031204 -1.52458e-09 0) (-0.0312041 1.26571e-09 0) (-0.031204 -1.0167e-09 0) (-0.0312041 -0.00452168 0));
    }
    right
    {
        type            calculated;
        value           nonuniform List<vector> 10((0.031204 0.00904335 0) (0.0312041 6.50328e-10 0) (0.031204 -2.47115e-09 0) (0.0312041 1.5277e-09 0) (0.031204 -1.73021e-09 0) (0.0312041 1.65404e-09 0) (0.031204 -1.52307e-09 0) (0.0312041 1.26481e-09 0) (0.031204 -1.01624e-09 0) (0.0312041 -0.00452168 0));
    }
    bottom
    {
        type            calculated;
        value           nonuniform List<vector> 
1000
(
(0.030004 0.00904335 -0.00124816)
(0.0300039 6.50328e-10 -0.00124816)
(0.030004 -2.47115e-09 -0.00124816)
(0.0300039 1.5277e-09 -0.00124816)
(0.030004 -1.73021e-09 -0.00124816)
(0.0300039 1.65404e-09 -0.00124816)
(0.030004 -1.52307e-09 -0.00124816)
(0.0300039 1.26481e-09 -0.00124816)
(0.030004 -1.01624e-09 -0.00124816)
(0.0300039 -0.00452168 -0.00124816)
(0.027696 0.0257389 -0.00355248)
(0.027696 -1.21564e-08 -0.00355247)
(0.027696 1.15643e-09 -0.00355248)
(0.027696 -5.44718e-09 -0.00355247)
(0.027696 5.06146e-09 -0.00355248)
(0.027696 -6.28975e-09 -0.00355247)
(0.027696 6.78857e-09 -0.00355248)
(0.027696 -5.90846e-09 -0.00355247)
(0.027696 4.38663e-09 -0.00355248)
(0.027696 -0.0128694 -0.00355247)
(0.0255653 0.04115 -0.00567952)
(0.0255653 2.03098e-09 -0.00567953)
(0.0255653 -7.81787e-09 -0.00567951)
(0.0255653 4.82649e-09 -0.00567953)
(0.0255653 -5.74857e-09 -0.00567952)
(0.0255653 5.45415e-09 -0.00567953)
(0.0255653 -4.98185e-09 -0.00567952)
(0.0255653 4.1798e-09 -0.00567952)
(0.0255653 -3.31529e-09 -0.00567952)
(0.0255653 -0.020575 -0.00567952)
(0.0235982 0.0553755 -0.00764293)