/*--------------------------------*- C++ -*----------------------------------*\
| =========                 |                                                 |
| \\      /  F ield         | OpenFOAM: The Open Source CFD Toolbox           |
|  \\    /   O peration     | Version:  2012                                  |
|   \\  /    A nd           | Website:  www.openfoam.com                      |
|    \\/     M anipulation  |                                                 |
\*---------------------------------------------------------------------------*/
FoamFile
{
    version     2.0;
    format      ascii;
    class       volScalarField;
    location    "1";
    object      gradTy;
}
// * * * * * * * * * * * * * * * * * * * * * * * * * * * * * * * * * * * * * //

dimensions      [0 -1 0 1 0 0 0];


internalField   nonuniform List<scalar> 
1000
(
0.00904335
0.0257389
0.04115
0.0553755
0.0685063
0.0806265
0.0918136
0.102139
0.11167
0.120465
0.128583
0.136075
0.142988
0.149368
0.155254
0.160685
0.165696
0.170317
0.17458
0.178511
0.182135
0.185476
0.188555
0.191392
0.194004
0.196409
0.198622
0.200657
0.202527
0.204245
0.20582
0.207263
0.208584
0.209791
0.210892
0.211893
0.212801
0.213622
0.214361
0.215023
0.215612
0.216132
0.216586
0.216977
0.217308
0.21758
0.217796
0.217957
0.218064
0.218117
0.218117
0.218064
0.217957
0.217796
0.21758
0.217308
0.216977
0.216586
0.216132
0.215612
0.215023
0.214361
0.213622
0.212801
0.211893
0.210892
0.209791
0.208584
0.207263
0.20582
0.204245
0.202527
0.200657
0.198622
0.196409
0.194004
0.191392
0.188555
0.185476
0.182135
0.178511
0.17458
0.170317
0.165696
0.160685
0.155254
0.149368
0.142988
0.136075
0.128583
0.120465
0.11167
0.102139
0.0918136
0.0806265
0.0685063
0.0553755
0.04115
0.0257389
0.00904335
6.50328e-10
-1.21564e-08
2.03098e-09
-1.54348e-08
1.5678e-09
-1.58358e-08
1.63843e-09
-1.58299e-08
2.11857e-09
-1.54774e-08
2.90943e-09
-1.48268e-08
3.93093e-09
-1.39178e-08
5.11681e-09
-1.27844e-08
6.41114e-09
-1.14574e-08
7.76588e-09
-9.96475e-09
9.13919e-09
-8.33343e-09
1.04942e-08
-6.58949e-09
1.17984e-08
-4.75858e-09
1.30227e-08
-2.8661e-09
1.41416e-08
-9.37231e-10
1.51326e-08
1.00311e-09
1.59763e-08
2.93039e-09
1.66561e-08
4.82067e-09
1.71586e-08
6.65073e-09
1.74731e-08
8.3984e-09
1.7592e-08
1.00427e-08
1.75105e-08
1.15641e-08
1.72268e-08
1.29449e-08
1.67419e-08
1.4169e-08
1.60596e-08
1.52227e-08
1.51863e-08
1.60944e-08
1.41311e-08
1.67751e-08
1.29056e-08
1.72583e-08
1.15236e-08
1.75403e-08
1.0001e-08
1.76199e-08
8.35559e-09
1.74992e-08
6.60692e-09
1.71828e-08
4.77597e-09
1.66784e-08
2.88493e-09
1.59966e-08
9.56985e-10
1.5151e-08
-9.83891e-10
1.41581e-08
-2.91318e-09
1.30373e-08
-4.80595e-09
1.18112e-08
-6.63702e-09
1.05052e-08
-8.38098e-09
9.14848e-09
-1.00122e-08
7.77358e-09
-1.15045e-08
6.41739e-09
-1.28311e-08
5.1218e-09
-1.39638e-08
3.9349e-09
-1.48719e-08
2.91267e-09
-1.55214e-08
2.12146e-09
-1.58723e-08
1.64147e-09
-1.58764e-08
1.57161e-09
-1.54729e-08
2.03636e-09
-1.21857e-08
6.52243e-10
-2.47115e-09
1.15643e-09
-7.81787e-09
2.32903e-09
-1.15007e-08
3.79509e-09
-1.41451e-08
5.39959e-09
-1.5952e-08
7.09464e-09
-1.70711e-08
8.83599e-09
-1.7615e-08
1.05827e-08
-1.76704e-08
1.2297e-08
-1.73057e-08
1.39439e-08
-1.65765e-08
1.54914e-08
-1.55295e-08
1.69106e-08
-1.4206e-08
1.81753e-08
-1.26432e-08
1.92628e-08
-1.08759e-08
2.01531e-08
-8.93755e-09
2.083e-08
-6.86081e-09
2.12803e-08
-4.67768e-09
2.14943e-08
-2.41989e-09
2.14657e-08
-1.18788e-10
2.11919e-08
2.1947e-09
2.06735e-08
4.49024e-09
1.99145e-08
6.73832e-09
1.89224e-08
8.9105e-09
1.77076e-08
1.09797e-08
1.62838e-08
1.29203e-08
1.46674e-08
1.47087e-08
1.28775e-08
1.63235e-08
1.09355e-08
1.77456e-08
8.86509e-09
1.89586e-08
6.69177e-09
1.99489e-08
4.44266e-09
2.0706e-08
2.14623e-09
2.12224e-08
-1.68007e-10
2.14942e-08
-2.46972e-09
2.15207e-08
-4.72797e-09
2.13046e-08
-6.91139e-09
2.08522e-08
-8.98827e-09
2.01732e-08
-1.09265e-08
1.92806e-08
-1.26936e-08
1.81911e-08
-1.42559e-08
1.69242e-08
-1.55787e-08
1.5503e-08
-1.66247e-08
1.39535e-08
-1.73526e-08
1.23048e-08
-1.77155e-08
1.05887e-08
-1.76578e-08
8.84038e-09
-1.71109e-08
7.09757e-09
-1.5988e-08
5.40125e-09
-1.41762e-08
3.7957e-09
-1.15254e-08
2.32887e-09
-7.83426e-09
1.15618e-09
-2.47624e-09
1.5277e-09
-5.44718e-09
4.82649e-09
-9.04872e-09
7.02335e-09
-1.16917e-08
9.11284e-09
-1.38244e-08
1.10988e-08
-1.54916e-08
1.29747e-08
-1.67287e-08
1.47275e-08
-1.75647e-08
1.63405e-08
-1.80246e-08
1.77953e-08
-1.81306e-08
1.90732e-08
-1.7904e-08
2.01568e-08
-1.73656e-08
2.10299e-08
-1.65368e-08
2.16788e-08
-1.54395e-08
2.20927e-08
-1.40971e-08
2.22633e-08
-1.2534e-08
2.2186e-08
-1.07759e-08
2.18591e-08
-8.84985e-09
2.12846e-08
-6.78408e-09
2.04675e-08
-4.60765e-09
1.94162e-08
-2.35039e-09
1.81426e-08
-4.26065e-11
1.66611e-08
2.28527e-09
1.49893e-08
4.60294e-09
1.31473e-08
6.88059e-09
1.11577e-08
9.08922e-09
9.04488e-09
1.1201e-08
6.83536e-09
1.31895e-08
4.55697e-09
1.50303e-08
2.23869e-09
1.67007e-08
-8.96523e-11
1.81808e-08
-2.39776e-09
1.9453e-08
-4.65518e-09
2.05026e-08
-6.83161e-09
2.1318e-08
-8.89723e-09
2.18909e-08
-1.08229e-08
2.22159e-08
-1.25805e-08
2.22914e-08
-1.41429e-08
2.21189e-08
-1.54845e-08
2.17032e-08
-1.65806e-08
2.10524e-08
-1.74081e-08
2.01774e-08
-1.79448e-08
1.9092e-08
-1.81696e-08
1.78122e-08
-1.80614e-08
1.63556e-08
-1.7599e-08
1.47408e-08
-1.67601e-08
1.29863e-08
-1.55196e-08
1.11087e-08
-1.38485e-08
9.121e-09
-1.17112e-08
7.0298e-09
-9.06288e-09
4.83117e-09
-5.45484e-09
1.52932e-09
-1.73021e-09
5.06146e-09
-5.74857e-09
8.0821e-09
-8.57356e-09
1.04937e-08
-1.11423e-08
1.27759e-08
-1.34054e-08
1.49088e-08
-1.53314e-08
1.68711e-08
-1.69013e-08
1.86417e-08
-1.81054e-08
2.02001e-08
-1.89412e-08
2.15276e-08
-1.94116e-08
2.26078e-08
-1.9524e-08
2.34267e-08
-1.92897e-08
2.39734e-08
-1.87235e-08
2.42404e-08
-1.7843e-08
2.42235e-08
-1.66689e-08
2.39221e-08
-1.52241e-08
2.33394e-08
-1.35342e-08
2.24819e-08
-1.16267e-08
2.13599e-08
-9.53109e-09
1.99872e-08
-7.27825e-09
1.83806e-08
-4.90052e-09
1.65604e-08
-2.43112e-09
1.45493e-08
9.60908e-11
1.23729e-08
2.647e-09
1.00591e-08
5.18761e-09
7.6377e-09
7.68443e-09
5.13998e-09
1.01048e-08
2.59862e-09
1.24174e-08
4.71216e-11
1.45924e-08
-2.48051e-09
1.66021e-08
-4.95016e-09
1.84208e-08
-7.32796e-09
2.00257e-08
-9.58068e-09
2.13967e-08
-1.1676e-08
2.25168e-08
-1.3583e-08
2.33723e-08
-1.52722e-08
2.3953e-08
-1.6716e-08
2.42523e-08
-1.78889e-08
2.42671e-08
-1.87679e-08
2.39979e-08
-1.93325e-08
2.3449e-08
-1.95647e-08
2.26279e-08
-1.94501e-08
2.15455e-08
-1.89771e-08
2.02158e-08
-1.81384e-08
1.86551e-08
-1.6931e-08
1.68823e-08
-1.53574e-08
1.49178e-08
-1.34274e-08
1.27827e-08
-1.11598e-08
1.04983e-08
-8.58635e-09
8.08453e-09
-5.75624e-09
5.06208e-09
-1.73238e-09
1.65404e-09
-6.28975e-09
5.45415e-09
-9.41907e-09
7.90066e-09
-1.15574e-08
1.02444e-08
-1.34612e-08
1.24585e-08
-1.51024e-08
1.45179e-08
-1.64606e-08
1.63991e-08
-1.75213e-08
1.80806e-08
-1.82754e-08
1.95429e-08
-1.87186e-08
2.0769e-08
-1.88509e-08
2.17445e-08
-1.86761e-08
2.24582e-08
-1.82021e-08
2.29015e-08
-1.74399e-08
2.30694e-08
-1.64043e-08
2.29603e-08
-1.51127e-08
2.25757e-08
-1.35856e-08
2.19209e-08
-1.1846e-08
2.10043e-08
-9.91942e-09
1.98378e-08
-7.83308e-09
1.84365e-08
-5.61609e-09
1.68184e-08
-3.29887e-09
1.50045e-08
-9.12805e-10
1.30182e-08
1.51008e-09
1.08852e-08
3.93753e-09
8.63325e-09
6.33745e-09
6.29172e-09
8.67828e-09
3.89126e-09
1.09294e-08
1.46342e-09
1.30614e-08
-9.59688e-10
1.50466e-08
-3.34581e-09
1.68593e-08
-5.66292e-09
1.8476e-08
-7.87962e-09
1.98759e-08
-9.96549e-09
2.10408e-08
-1.18915e-08
2.19558e-08
-1.36301e-08
2.26089e-08
-1.51562e-08
2.29917e-08
-1.64466e-08
2.30989e-08
-1.74808e-08
2.29291e-08
-1.82412e-08
2.24838e-08
-1.87134e-08
2.17681e-08
-1.8886e-08
2.07905e-08
-1.87515e-08
1.95623e-08
-1.83057e-08
1.8098e-08
-1.75488e-08
1.64144e-08
-1.64851e-08
1.45311e-08
-1.51236e-08
1.24695e-08
-1.34788e-08
1.02533e-08
-1.15713e-08
7.90741e-09
-9.42895e-09
5.45872e-09
-6.29525e-09
1.65549e-09
-1.52307e-09
6.78857e-09
-4.98185e-09
9.84044e-09
-6.97695e-09
1.18162e-08
-8.86792e-09
1.36593e-08
-1.0619e-08
1.53453e-08
-1.21987e-08
1.68522e-08
-1.35799e-08
1.81604e-08
-1.474e-08
1.92532e-08
-1.56612e-08
2.01165e-08
-1.63298e-08
2.07392e-08
-1.67369e-08
2.11135e-08
-1.68776e-08
2.12348e-08
-1.67511e-08
2.11016e-08
-1.63606e-08
2.07159e-08
-1.57129e-08
2.00829e-08
-1.48183e-08
1.92109e-08
-1.36907e-08
1.81115e-08
-1.23465e-08
1.67992e-08
-1.08053e-08
1.52912e-08
-9.08885e-09
1.36074e-08
-7.22121e-09
1.17699e-08
-5.2282e-09
9.80288e-09
-3.13712e-09
7.7324e-09
-9.76389e-10
5.58578e-09
1.22483e-09
3.39152e-09
3.43698e-09
1.1788e-09
5.6305e-09
-1.02281e-09
7.77622e-09
-3.18376e-09
9.84565e-09
-5.27487e-09
1.18114e-08
-7.26771e-09
1.36476e-08
-9.135e-09
1.53299e-08
-1.08509e-08
1.68363e-08
-1.23914e-08
1.81469e-08
-1.37346e-08
1.92445e-08
-1.4861e-08
2.01145e-08
-1.57542e-08
2.07455e-08
-1.64003e-08
2.11292e-08
-1.6789e-08
2.12602e-08
-1.69135e-08
2.11367e-08
-1.67706e-08
2.07601e-08
-1.63611e-08
2.01351e-08
-1.56897e-08
1.92695e-08
-1.47658e-08
1.81744e-08
-1.36026e-08
1.68638e-08
-1.22182e-08
1.53546e-08
-1.06352e-08
1.36664e-08
-8.88058e-09
1.18212e-08
-6.98601e-09
9.84324e-09
-4.98726e-09
6.78959e-09
-1.52458e-09
1.26481e-09
-5.90846e-09
4.1798e-09
-8.2835e-09
5.85031e-09
-9.59883e-09
7.49136e-09
-1.07571e-08
9.07652e-09
-1.17411e-08
1.05809e-08
-1.25366e-08
1.19816e-08
-1.31324e-08
1.32573e-08
-1.35206e-08
1.43893e-08
-1.36962e-08
1.53609e-08
-1.36575e-08
1.61579e-08
-1.34058e-08
1.67687e-08
-1.29453e-08
1.71845e-08
-1.22831e-08
1.73991e-08
-1.14289e-08
1.74091e-08
-1.0395e-08
1.7214e-08
-9.19601e-09
1.6816e-08
-7.84867e-09
1.62199e-08
-6.37154e-09
1.54335e-08
-4.78484e-09
1.44669e-08
-3.1101e-09
1.33327e-08
-1.36994e-09
1.20456e-08
4.12269e-10
1.06226e-08
2.2127e-09
9.08223e-09
4.00735e-09
7.44483e-09
5.7724e-09
5.73196e-09
7.48445e-09
3.96625e-09
9.12089e-09
2.17109e-09
1.06602e-08
3.70309e-10
1.2082e-08
-1.41209e-09
1.33677e-08
-3.15227e-09
1.45005e-08
-4.82685e-09
1.54655e-08
-6.41322e-09
1.62503e-08
-7.88983e-09
1.68446e-08
-9.23647e-09
1.72408e-08
-1.04346e-08
1.74341e-08
-1.14674e-08
1.74222e-08
-1.23203e-08
1.72056e-08
-1.29811e-08
1.67879e-08
-1.34399e-08
1.6175e-08
-1.36898e-08
1.53761e-08
-1.37264e-08
1.44026e-08
-1.35485e-08
1.32687e-08
-1.31579e-08
1.19911e-08
-1.25594e-08
1.05888e-08
-1.17611e-08
9.08282e-09
-1.07741e-08
7.49625e-09
-9.61269e-09
5.85399e-09
-8.29401e-09
4.18252e-09
-5.91491e-09
1.26571e-09
-1.01624e-09
4.38663e-09
-3.31529e-09
6.39562e-09
-4.62125e-09
7.73929e-09
-5.82678e-09
8.99686e-09
-6.91788e-09
1.01523e-08
-7.88165e-09
1.11908e-08
-8.70655e-09
1.20994e-08
-9.38269e-09
1.28669e-08
-9.90199e-09
1.34836e-08
-1.02583e-08
1.39422e-08
-1.04477e-08
1.42372e-08
-1.04682e-08
1.43653e-08
-1.03203e-08
1.43255e-08
-1.00063e-08
1.41188e-08
-9.53099e-09
1.37483e-08
-8.90117e-09
1.32194e-08
-8.12561e-09
1.25395e-08
-7.215e-09
1.17177e-08
-6.18176e-09
1.07653e-08
-5.0399e-09
9.69503e-09
-3.8048e-09
8.52119e-09
-2.49306e-09
7.25946e-09
-1.12224e-09
5.92664e-09
2.89358e-10
4.54044e-09
1.72291e-09
3.11929e-09
3.15933e-09
1.68208e-09
4.57951e-09
2.47915e-10
5.96458e-09
-1.16411e-09
7.29611e-09
-2.53518e-09
8.5564e-09
-3.84697e-09
9.72864e-09
-5.08193e-09
1.07972e-08
-6.22346e-09
1.17477e-08
-7.25615e-09
1.25675e-08
-8.166e-09
1.32453e-08
-8.94058e-09
1.3772e-08
-9.56922e-09
1.41401e-08
-1.00431e-08
1.43444e-08
-1.03555e-08
1.43817e-08
-1.05016e-08
1.42509e-08
-1.0479e-08
1.39532e-08
-1.02874e-08
1.34919e-08
-9.92851e-09
1.28724e-08
-9.40647e-09
1.21021e-08
-8.72735e-09
1.11906e-08
-7.89924e-09
1.01492e-08
-6.93203e-09
8.99088e-09
-5.83724e-09
7.73039e-09
-4.62778e-09
6.38382e-09
-3.31764e-09
4.37523e-09
-1.0167e-09
-0.00452168
-0.0128694
-0.020575
-0.0276878
-0.0342532
-0.0403132
-0.0459068
-0.0510696
-0.0558348
-0.0602327
-0.0642916
-0.0680375
-0.0714942
-0.074684
-0.0776272
-0.0803427
-0.0828479
-0.0851587
-0.08729
-0.0892555
-0.0910677
-0.0927381
-0.0942776
-0.0956959
-0.0970021
-0.0982046
-0.099311
-0.100329
-0.101264
-0.102122
-0.10291
-0.103632
-0.104292
-0.104896
-0.105446
-0.105946
-0.106401
-0.106811
-0.107181
-0.107512
-0.107806
-0.108066
-0.108293
-0.108489
-0.108654
-0.10879
-0.108898
-0.108979
-0.109032
-0.109058
-0.109058
-0.109032
-0.108979
-0.108898
-0.10879
-0.108654
-0.108489
-0.108293
-0.108066
-0.107806
-0.107512
-0.107181
-0.106811
-0.106401
-0.105946
-0.105446
-0.104896
-0.104292
-0.103632
-0.10291
-0.102122
-0.101264
-0.100329
-0.099311
-0.0982046
-0.0970021
-0.0956959
-0.0942776
-0.0927381
-0.0910677
-0.0892555
-0.08729
-0.0851587
-0.0828479
-0.0803427
-0.0776272
-0.074684
-0.0714942
-0.0680375
-0.0642916
-0.0602327
-0.0558348
-0.0510696
-0.0459068
-0.0403132
-0.0342532
-0.0276878
-0.020575
-0.0128694
-0.00452168
)
;

boundaryField
{
    left
    {
        type            calculated;
        value           nonuniform List<scalar> 10(0.00904335 6.52243e-10 -2.47624e-09 1.52932e-09 -1.73238e-09 1.65549e-09 -1.52458e-09 1.26571e-09 -1.0167e-09 -0.00452168);
    }
    right
    {
        type            calculated;
        value           nonuniform List<scalar> 10(0.00904335 6.50328e-10 -2.47115e-09 1.5277e-09 -1.73021e-09 1.65404e-09 -1.52307e-09 1.26481e-09 -1.01624e-09 -0.00452168);
    }
    bottom
    {
        type            calculated;
        value           nonuniform List<scalar> 
1000
(
0.00904335
6.50328e-10
-2.47115e-09
1.5277e-09
-1.73021e-09
1.65404e-09
-1.52307e-09
1.26481e-09
-1.01624e-09
-0.00452168
0.0257389
-1.21564e-08
1.15643e-09
-5.44718e-09
5.06146e-09
-6.28975e-09
6.78857e-09
-5.90846e-09
4.38663e-09
-0.0128694
0.04115
2.03098e-09
-7.81787e-09
4.82649e-09
-5.74857e-09
5.45415e-09
-4.98185e-09
4.1798e-09
-3.31529e-09
-0.020575
0.0553755
-1.54348e-08
2.32903e-09
-9.04872e-09
8.0821e-09
-9.41907e-09
9.84044e-09
-8.2835e-09
6.39562e-09
-0.0276878
0.0685063
1.5678e-09
-1.15007e-08
7.02335e-09
-8.57356e-09
7.90066e-09
-6.97695e-09
5.85031e-09
-4.62125e-09
-0.0342532
0.0806265
-1.58358e-08
3.79509e-09
-1.16917e-08
1.04937e-08
-1.15574e-08
1.18162e-08
-9.59883e-09
7.73929e-09
-0.0403132
0.0918136
1.63843e-09
-1.41451e-08
9.11284e-09
-1.11423e-08
1.02444e-08
-8.86792e-09
7.49136e-09
-5.82678e-09
-0.0459068
0.102139
-1.58299e-08
5.39959e-09
-1.38244e-08
1.27759e-08
-1.34612e-08
1.36593e-08
-1.07571e-08
8.99686e-09
-0.0510696
0.11167
2.11857e-09
-1.5952e-08
1.10988e-08
-1.34054e-08
1.24585e-08
-1.0619e-08
9.07652e-09
-6.91788e-09
-0.0558348
0.120465
-1.54774e-08
7.09464e-09
-1.54916e-08
1.49088e-08
-1.51024e-08
1.53453e-08
-1.17411e-08
1.01523e-08
-0.0602327
0.128583
2.90943e-09
-1.70711e-08
1.29747e-08
-1.53314e-08
1.45179e-08
-1.21987e-08
1.05809e-08
-7.88165e-09
-0.0642916
0.136075
-1.48268e-08
8.83599e-09
-1.67287e-08
1.68711e-08
-1.64606e-08
1.68522e-08
-1.25366e-08
1.11908e-08
-0.0680375
0.142988
3.93093e-09
-1.7615e-08
1.47275e-08
-1.69013e-08
1.63991e-08
-1.35799e-08
1.19816e-08
-8.70655e-09
-0.0714942
0.149368
-1.39178e-08
1.05827e-08
-1.75647e-08
1.86417e-08
-1.75213e-08
1.81604e-08
-1.31324e-08
1.20994e-08
-0.074684
0.155254
5.11681e-09
-1.76704e-08
1.63405e-08
-1.81054e-08
1.80806e-08
-1.474e-08
1.32573e-08
-9.38269e-09
-0.0776272
0.160685
-1.27844e-08
1.2297e-08
-1.80246e-08
2.02001e-08
-1.82754e-08
1.92532e-08
-1.35206e-08
1.28669e-08
-0.0803427
0.165696
6.41114e-09
-1.73057e-08
1.77953e-08
-1.89412e-08
1.95429e-08
-1.56612e-08
1.43893e-08
-9.90199e-09
-0.0828479
0.170317
-1.14574e-08
1.39439e-08
-1.81306e-08
2.15276e-08
-1.87186e-08
2.01165e-08
-1.36962e-08
1.34836e-08
-0.0851587
0.17458
7.76588e-09
-1.65765e-08
1.90732e-08
-1.94116e-08
2.0769e-08
-1.63298e-08
1.53609e-08
-1.02583e-08
-0.08729
0.178511
-9.96475e-09
1.54914e-08
-1.7904e-08
2.26078e-08
-1.88509e-08
2.07392e-08
-1.36575e-08
1.39422e-08
-0.0892555
0.182135
9.13919e-09
-1.55295e-08
2.01568e-08
-1.9524e-08
2.17445e-08
-1.67369e-08
1.61579e-08
-1.04477e-08
-0.0910677
0.185476
-8.33343e-09
1.69106e-08
-1.73656e-08
2.34267e-08
-1.86761e-08
2.11135e-08
-1.34058e-08
1.42372e-08
-0.0927381
0.188555
1.04942e-08
-1.4206e-08
2.10299e-08
-1.92897e-08
2.24582e-08
-1.68776e-08
1.67687e-08
-1.04682e-08
-0.0942776
0.191392
-6.58949e-09
1.81753e-08
-1.65368e-08
2.39734e-08
-1.82021e-08
2.12348e-08
-1.29453e-08
1.43653e-08
-0.0956959
0.194004
1.17984e-08
-1.26432e-08
2.16788e-08
-1.87235e-08
2.29015e-08
-1.67511e-08
1.71845e-08
-1.03203e-08
-0.0970021
0.196409
-4.75858e-09
1.92628e-08
-1.54395e-08
2.42404e-08
-1.74399e-08
2.11016e-08
-1.22831e-08
1.43255e-08
-0.0982046
0.198622
1.30227e-08
-1.08759e-08
2.20927e-08
-1.7843e-08
2.30694e-08
-1.63606e-08
1.73991e-08
-1.00063e-08
-0.099311
0.200657
-2.8661e-09
2.01531e-08
-1.40971e-08
2.42235e-08
-1.64043e-08
2.07159e-08
-1.14289e-08
1.41188e-08
-0.100329
0.202527
1.41416e-08
-8.93755e-09
2.22633e-08
-1.66689e-08
2.29603e-08
-1.57129e-08
1.74091e-08
-9.53099e-09
-0.101264
0.204245
-9.37231e-10
2.083e-08
-1.2534e-08
2.39221e-08
-1.51127e-08
2.00829e-08
-1.0395e-08
1.37483e-08
-0.102122
0.20582
1.51326e-08
-6.86081e-09
2.2186e-08
-1.52241e-08
2.25757e-08
-1.48183e-08
1.7214e-08
-8.90117e-09
-0.10291
0.207263
1.00311e-09
2.12803e-08
-1.07759e-08
2.33394e-08
-1.35856e-08
1.92109e-08
-9.19601e-09
1.32194e-08
-0.103632
0.208584
1.59763e-08
-4.67768e-09
2.18591e-08
-1.35342e-08
2.19209e-08
-1.36907e-08
1.6816e-08
-8.12561e-09
-0.104292
0.209791
2.93039e-09
2.14943e-08
-8.84985e-09
2.24819e-08
-1.1846e-08
1.81115e-08
-7.84867e-09
1.25395e-08
-0.104896
0.210892
1.66561e-08
-2.41989e-09
2.12846e-08
-1.16267e-08
2.10043e-08
-1.23465e-08
1.62199e-08
-7.215e-09
-0.105446
0.211893
4.82067e-09
2.14657e-08
-6.78408e-09
2.13599e-08
-9.91942e-09
1.67992e-08
-6.37154e-09
1.17177e-08
-0.105946
0.212801
1.71586e-08
-1.18788e-10
2.04675e-08
-9.53109e-09
1.98378e-08
-1.08053e-08
1.54335e-08
-6.18176e-09
-0.106401
0.213622
6.65073e-09
2.11919e-08
-4.60765e-09
1.99872e-08
-7.83308e-09
1.52912e-08
-4.78484e-09
1.07653e-08
-0.106811
0.214361
1.74731e-08
2.1947e-09
1.94162e-08
-7.27825e-09
1.84365e-08
-9.08885e-09
1.44669e-08
-5.0399e-09
-0.107181
0.215023
8.3984e-09
2.06735e-08
-2.35039e-09
1.83806e-08
-5.61609e-09
1.36074e-08
-3.1101e-09
9.69503e-09
-0.107512
0.215612
1.7592e-08
4.49024e-09
1.81426e-08
-4.90052e-09
1.68184e-08
-7.22121e-09
1.33327e-08
-3.8048e-09
-0.107806
0.216132
1.00427e-08
1.99145e-08
-4.26065e-11
1.65604e-08
-3.29887e-09
1.17699e-08
-1.36994e-09
8.52119e-09
-0.108066
0.216586
1.75105e-08
6.73832e-09
1.66611e-08
-2.43112e-09
1.50045e-08
-5.2282e-09
1.20456e-08
-2.49306e-09
-0.108293
0.216977
1.15641e-08
1.89224e-08
2.28527e-09
1.45493e-08
-9.12805e-10
9.80288e-09
4.12269e-10
7.25946e-09
-0.108489
0.217308
1.72268e-08
8.9105e-09
1.49893e-08
9.60908e-11
1.30182e-08
-3.13712e-09
1.06226e-08
-1.12224e-09
-0.108654
0.21758
1.29449e-08
1.77076e-08
4.60294e-09
1.23729e-08
1.51008e-09
7.7324e-09
2.2127e-09
5.92664e-09
-0.10879
0.217796
1.67419e-08
1.09797e-08
1.31473e-08
2.647e-09
1.08852e-08
-9.76389e-10
9.08223e-09
2.89358e-10
-0.108898
0.217957
1.4169e-08
1.62838e-08
6.88059e-09
1.00591e-08
3.93753e-09
5.58578e-09
4.00735e-09
4.54044e-09
-0.108979
0.218064
1.60596e-08
1.29203e-08
1.11577e-08
5.18761e-09
8.63325e-09
1.22483e-09
7.44483e-09
1.72291e-09
-0.109032
0.218117
1.52227e-08
1.46674e-08
9.08922e-09
7.6377e-09
6.33745e-09
3.39152e-09
5.7724e-09
3.11929e-09
-0.109058
0.218117
1.51863e-08
1.47087e-08
9.04488e-09
7.68443e-09
6.29172e-09
3.43698e-09
5.73196e-09
3.15933e-09
-0.109058
0.218064
1.60944e-08
1.28775e-08
1.1201e-08
5.13998e-09
8.67828e-09
1.1788e-09
7.48445e-09
1.68208e-09
-0.109032
0.217957
1.41311e-08
1.63235e-08
6.83536e-09
1.01048e-08
3.89126e-09
5.6305e-09
3.96625e-09
4.57951e-09
-0.108979
0.217796
1.67751e-08
1.09355e-08
1.31895e-08
2.59862e-09
1.09294e-08
-1.02281e-09
9.12089e-09
2.47915e-10
-0.108898
0.21758
1.29056e-08
1.77456e-08
4.55697e-09
1.24174e-08
1.46342e-09
7.77622e-09
2.17109e-09
5.96458e-09
-0.10879
0.217308
1.72583e-08
8.86509e-09
1.50303e-08
4.71216e-11
1.30614e-08
-3.18376e-09
1.06602e-08
-1.16411e-09
-0.108654
0.216977
1.15236e-08
1.89586e-08
2.23869e-09
1.45924e-08
-9.59688e-10
9.84565e-09
3.70309e-10
7.29611e-09
-0.108489
0.216586
1.75403e-08
6.69177e-09
1.67007e-08
-2.48051e-09
1.50466e-08
-5.27487e-09
1.2082e-08
-2.53518e-09
-0.108293
0.216132
1.0001e-08
1.99489e-08
-8.96523e-11
1.66021e-08
-3.34581e-09
1.18114e-08
-1.41209e-09
8.5564e-09
-0.108066
0.215612
1.76199e-08
4.44266e-09
1.81808e-08
-4.95016e-09
1.68593e-08
-7.26771e-09
1.33677e-08
-3.84697e-09
-0.107806
0.215023
8.35559e-09
2.0706e-08
-2.39776e-09
1.84208e-08
-5.66292e-09
1.36476e-08
-3.15227e-09
9.72864e-09
-0.107512
0.214361
1.74992e-08
2.14623e-09
1.9453e-08
-7.32796e-09
1.8476e-08
-9.135e-09
1.45005e-08
-5.08193e-09
-0.107181
0.213622
6.60692e-09
2.12224e-08
-4.65518e-09
2.00257e-08
-7.87962e-09
1.53299e-08
-4.82685e-09
1.07972e-08
-0.106811
0.212801
1.71828e-08
-1.68007e-10
2.05026e-08
-9.58068e-09
1.98759e-08
-1.08509e-08
1.54655e-08
-6.22346e-09
-0.106401
0.211893
4.77597e-09
2.14942e-08
-6.83161e-09
2.13967e-08
-9.96549e-09
1.68363e-08
-6.41322e-09
1.17477e-08
-0.105946
0.210892
1.66784e-08
-2.46972e-09
2.1318e-08
-1.1676e-08
2.10408e-08
-1.23914e-08
1.62503e-08
-7.25615e-09
-0.105446
0.209791
2.88493e-09
2.15207e-08
-8.89723e-09
2.25168e-08
-1.18915e-08
1.81469e-08
-7.88983e-09
1.25675e-08
-0.104896
0.208584
1.59966e-08
-4.72797e-09
2.18909e-08
-1.3583e-08
2.19558e-08
-1.37346e-08
1.68446e-08
-8.166e-09
-0.104292
0.207263
9.56985e-10
2.13046e-08
-1.08229e-08
2.33723e-08
-1.36301e-08
1.92445e-08
-9.23647e-09
1.32453e-08
-0.103632
0.20582
1.5151e-08
-6.91139e-09
2.22159e-08
-1.52722e-08
2.26089e-08
-1.4861e-08
1.72408e-08
-8.94058e-09
-0.10291
0.204245
-9.83891e-10
2.08522e-08
-1.25805e-08
2.3953e-08
-1.51562e-08
2.01145e-08
-1.04346e-08
1.3772e-08
-0.102122
0.202527
1.41581e-08
-8.98827e-09
2.22914e-08
-1.6716e-08
2.29917e-08
-1.57542e-08
1.74341e-08
-9.56922e-09
-0.101264
0.200657
-2.91318e-09
2.01732e-08
-1.41429e-08
2.42523e-08
-1.64466e-08
2.07455e-08
-1.14674e-08
1.41401e-08
-0.100329
0.198622
1.30373e-08
-1.09265e-08
2.21189e-08
-1.78889e-08
2.30989e-08
-1.64003e-08
1.74222e-08
-1.00431e-08
-0.099311
0.196409
-4.80595e-09
1.92806e-08
-1.54845e-08
2.42671e-08
-1.74808e-08
2.11292e-08
-1.23203e-08
1.43444e-08
-0.0982046
0.194004
1.18112e-08
-1.26936e-08
2.17032e-08
-1.87679e-08
2.29291e-08
-1.6789e-08
1.72056e-08
-1.03555e-08
-0.0970021
0.191392
-6.63702e-09
1.81911e-08
-1.65806e-08
2.39979e-08
-1.82412e-08
2.12602e-08
-1.29811e-08
1.43817e-08
-0.0956959
0.188555
1.05052e-08
-1.42559e-08
2.10524e-08
-1.93325e-08
2.24838e-08
-1.69135e-08
1.67879e-08
-1.05016e-08
-0.0942776
0.185476
-8.38098e-09
1.69242e-08
-1.74081e-08
2.3449e-08
-1.87134e-08
2.11367e-08
-1.34399e-08
1.42509e-08
-0.0927381
0.182135
9.14848e-09
-1.55787e-08
2.01774e-08
-1.95647e-08
2.17681e-08
-1.67706e-08
1.6175e-08
-1.0479e-08
-0.0910677
0.178511
-1.00122e-08
1.5503e-08
-1.79448e-08
2.26279e-08
-1.8886e-08
2.07601e-08
-1.36898e-08
1.39532e-08
-0.0892555
0.17458
7.77358e-09
-1.66247e-08
1.9092e-08
-1.94501e-08
2.07905e-08
-1.63611e-08
1.53761e-08
-1.02874e-08
-0.08729
0.170317
-1.15045e-08
1.39535e-08
-1.81696e-08
2.15455e-08
-1.87515e-08
2.01351e-08
-1.37264e-08
1.34919e-08
-0.0851587
0.165696
6.41739e-09
-1.73526e-08
1.78122e-08
-1.89771e-08
1.95623e-08
-1.56897e-08
1.44026e-08
-9.92851e-09
-0.0828479
0.160685
-1.28311e-08
1.23048e-08
-1.80614e-08
2.02158e-08
-1.83057e-08
1.92695e-08
-1.35485e-08
1.28724e-08
-0.0803427
0.155254
5.1218e-09
-1.77155e-08
1.63556e-08
-1.81384e-08
1.8098e-08
-1.47658e-08
1.32687e-08
-9.40647e-09
-0.0776272
0.149368
-1.39638e-08
1.05887e-08
-1.7599e-08
1.86551e-08
-1.75488e-08
1.81744e-08
-1.31579e-08
1.21021e-08
-0.074684
0.142988
3.9349e-09
-1.76578e-08
1.47408e-08
-1.6931e-08
1.64144e-08
-1.36026e-08
1.19911e-08
-8.72735e-09
-0.0714942
0.136075
-1.48719e-08
8.84038e-09
-1.67601e-08
1.68823e-08
-1.64851e-08
1.68638e-08
-1.25594e-08
1.11906e-08
-0.0680375
0.128583
2.91267e-09
-1.71109e-08
1.29863e-08
-1.53574e-08
1.45311e-08
-1.22182e-08
1.05888e-08
-7.89924e-09
-0.0642916
0.120465
-1.55214e-08
7.09757e-09
-1.55196e-08
1.49178e-08
-1.51236e-08
1.53546e-08
-1.17611e-08
1.01492e-08
-0.0602327
0.11167
2.12146e-09
-1.5988e-08
1.11087e-08
-1.34274e-08
1.24695e-08
-1.06352e-08
9.08282e-09
-6.93203e-09
-0.0558348
0.102139
-1.58723e-08
5.40125e-09
-1.38485e-08
1.27827e-08
-1.34788e-08
1.36664e-08
-1.07741e-08
8.99088e-09
-0.0510696
0.0918136
1.64147e-09
-1.41762e-08
9.121e-09
-1.11598e-08
1.02533e-08
-8.88058e-09
7.49625e-09
-5.83724e-09
-0.0459068
0.0806265
-1.58764e-08
3.7957e-09
-1.17112e-08
1.04983e-08
-1.15713e-08
1.18212e-08
-9.61269e-09
7.73039e-09
-0.0403132
0.0685063
1.57161e-09
-1.15254e-08
7.0298e-09
-8.58635e-09
7.90741e-09
-6.98601e-09
5.85399e-09
-4.62778e-09
-0.0342532
0.0553755
-1.54729e-08
2.32887e-09
-9.06288e-09
8.08453e-09
-9.42895e-09
9.84324e-09
-8.29401e-09
6.38382e-09
-0.0276878
0.04115
2.03636e-09
-7.83426e-09
4.83117e-09
-5.75624e-09
5.45872e-09
-4.98726e-09
4.18252e-09
-3.31764e-09
-0.020575
0.0257389
-1.21857e-08
1.15618e-09
-5.45484e-09
5.06208e-09
-6.29525e-09
6.78959e-09
-5.91491e-09
4.37523e-09
-0.0128694
0.00904335
6.52243e-10
-2.47624e-09
1.52932e-09
-1.73238e-09
1.65549e-09
-1.52458e-09
1.26571e-09
-1.0167e-09
-0.00452168
)
;
    }
    top
    {
        type            calculated;
        value           nonuniform List<scalar> 
1000
(
0.00904335
6.50328e-10
-2.47115e-09
1.5277e-09
-1.73021e-09
1.65404e-09
-1.52307e-09
1.26481e-09
-1.01624e-09
-0.00452168
0.0257389
-1.21564e-08
1.15643e-09
-5.44718e-09
5.06146e-09
-6.28975e-09
6.78857e-09
-5.90846e-09
4.38663e-09
-0.0128694
0.04115
2.03098e-09
-7.81787e-09
4.82649e-09
-5.74857e-09
5.45415e-09
-4.98185e-09
4.1798e-09
-3.31529e-09
-0.020575
0.0553755
-1.54348e-08
2.32903e-09
-9.04872e-09
8.0821e-09
-9.41907e-09
9.84044e-09
-8.2835e-09
6.39562e-09
-0.0276878
0.0685063
1.5678e-09
-1.15007e-08
7.02335e-09
-8.57356e-09
7.90066e-09
-6.97695e-09
5.85031e-09
-4.62125e-09
-0.0342532
0.0806265
-1.58358e-08
3.79509e-09
-1.16917e-08
1.04937e-08
-1.15574e-08
1.18162e-08
-9.59883e-09
7.73929e-09
-0.0403132
0.0918136
1.63843e-09
-1.41451e-08
9.11284e-09
-1.11423e-08
1.02444e-08
-8.86792e-09
7.49136e-09
-5.82678e-09
-0.0459068
0.102139
-1.58299e-08
5.39959e-09
-1.38244e-08
1.27759e-08
-1.34612e-08
1.36593e-08
-1.07571e-08
8.99686e-09
-0.0510696
0.11167
2.11857e-09
-1.5952e-08
1.10988e-08
-1.34054e-08
1.24585e-08
-1.0619e-08
9.07652e-09
-6.91788e-09
-0.0558348
0.120465
-1.54774e-08
7.09464e-09
-1.54916e-08
1.49088e-08
-1.51024e-08
1.53453e-08
-1.17411e-08
1.01523e-08
-0.0602327
0.128583
2.90943e-09
-1.70711e-08
1.29747e-08
-1.53314e-08
1.45179e-08
-1.21987e-08
1.05809e-08
-7.88165e-09
-0.0642916
0.136075
-1.48268e-08
8.83599e-09
-1.67287e-08
1.68711e-08
-1.64606e-08
1.68522e-08
-1.25366e-08
1.11908e-08
-0.0680375
0.142988
3.93093e-09
-1.7615e-08
1.47275e-08
-1.69013e-08
1.63991e-08
-1.35799e-08
1.19816e-08
-8.70655e-09
-0.0714942
0.149368
-1.39178e-08
1.05827e-08
-1.75647e-08
1.86417e-08
-1.75213e-08
1.81604e-08
-1.31324e-08
1.20994e-08
-0.074684
0.155254
5.11681e-09
-1.76704e-08
1.63405e-08
-1.81054e-08
1.80806e-08
-1.474e-08
1.32573e-08
-9.38269e-09
-0.0776272
0.160685
-1.27844e-08
1.2297e-08
-1.80246e-08
2.02001e-08
-1.82754e-08
1.92532e-08
-1.35206e-08
1.28669e-08
-0.0803427
0.165696
6.41114e-09
-1.73057e-08
1.77953e-08
-1.89412e-08
1.95429e-08
-1.56612e-08
1.43893e-08
-9.90199e-09
-0.0828479
0.170317
-1.14574e-08
1.39439e-08
-1.81306e-08
2.15276e-08
-1.87186e-08
2.01165e-08
-1.36962e-08
1.34836e-08
-0.0851587
0.17458
7.76588e-09
-1.65765e-08
1.90732e-08
-1.94116e-08
2.0769e-08
-1.63298e-08
1.53609e-08
-1.02583e-08
-0.08729
0.178511
-9.96475e-09
1.54914e-08
-1.7904e-08
2.26078e-08
-1.88509e-08
2.07392e-08
-1.36575e-08
1.39422e-08
-0.0892555
0.182135
9.13919e-09
-1.55295e-08
2.01568e-08
-1.9524e-08
2.17445e-08
-1.67369e-08
1.61579e-08
-1.04477e-08
-0.0910677
0.185476
-8.33343e-09
1.69106e-08
-1.73656e-08
2.34267e-08
-1.86761e-08
2.11135e-08
-1.34058e-08
1.42372e-08
-0.0927381
0.188555
1.04942e-08
-1.4206e-08
2.10299e-08
-1.92897e-08
2.24582e-08
-1.68776e-08
1.67687e-08
-1.04682e-08
-0.0942776
0.191392
-6.58949e-09
1.81753e-08
-1.65368e-08
2.39734e-08
-1.82021e-08
2.12348e-08
-1.29453e-08
1.43653e-08
-0.0956959
0.194004
1.17984e-08
-1.26432e-08
2.16788e-08
-1.87235e-08
2.29015e-08
-1.67511e-08
1.71845e-08
-1.03203e-08
-0.0970021
0.196409
-4.75858e-09
1.92628e-08
-1.54395e-08
2.42404e-08
-1.74399e-08
2.11016e-08
-1.22831e-08
1.43255e-08
-0.0982046
0.198622
1.30227e-08
-1.08759e-08
2.20927e-08
-1.7843e-08
2.30694e-08
-1.63606e-08
1.73991e-08
-1.00063e-08
-0.099311
0.200657
-2.8661e-09
2.01531e-08
-1.40971e-08
2.42235e-08
-1.64043e-08
2.07159e-08
-1.14289e-08
1.41188e-08
-0.100329
0.202527
1.41416e-08
-8.93755e-09
2.22633e-08
-1.66689e-08
2.29603e-08
-1.57129e-08
1.74091e-08
-9.53099e-09
-0.101264
0.204245
-9.37231e-10
2.083e-08
-1.2534e-08
2.39221e-08
-1.51127e-08
2.00829e-08
-1.0395e-08
1.37483e-08
-0.102122
0.20582
1.51326e-08
-6.86081e-09
2.2186e-08
-1.52241e-08
2.25757e-08
-1.48183e-08
1.7214e-08
-8.90117e-09
-0.10291
0.207263
1.00311e-09
2.12803e-08
-1.07759e-08
2.33394e-08
-1.35856e-08
1.92109e-08
-9.19601e-09
1.32194e-08
-0.103632
0.208584
1.59763e-08
-4.67768e-09
2.18591e-08
-1.35342e-08
2.19209e-08
-1.36907e-08
1.6816e-08
-8.12561e-09
-0.104292
0.209791
2.93039e-09
2.14943e-08
-8.84985e-09
2.24819e-08
-1.1846e-08
1.81115e-08
-7.84867e-09
1.25395e-08
-0.104896
0.210892
1.66561e-08
-2.41989e-09
2.12846e-08
-1.16267e-08
2.10043e-08
-1.23465e-08
1.62199e-08
-7.215e-09
-0.105446
0.211893
4.82067e-09
2.14657e-08
-6.78408e-09
2.13599e-08
-9.91942e-09
1.67992e-08
-6.37154e-09
1.17177e-08
-0.105946
0.212801
1.71586e-08
-1.18788e-10
2.04675e-08
-9.53109e-09
1.98378e-08
-1.08053e-08
1.54335e-08
-6.18176e-09
-0.106401
0.213622
6.65073e-09
2.11919e-08
-4.60765e-09
1.99872e-08
-7.83308e-09
1.52912e-08
-4.78484e-09
1.07653e-08
-0.106811
0.214361
1.74731e-08
2.1947e-09
1.94162e-08
-7.27825e-09
1.84365e-08
-9.08885e-09
1.44669e-08
-5.0399e-09
-0.107181
0.215023
8.3984e-09
2.06735e-08
-2.35039e-09
1.83806e-08
-5.61609e-09
1.36074e-08
-3.1101e-09
9.69503e-09
-0.107512
0.215612
1.7592e-08
4.49024e-09
1.81426e-08
-4.90052e-09
1.68184e-08
-7.22121e-09