# vtk DataFile Version 2.0
track0
ASCII
DATASET POLYDATA
POINTS 12522 double
-0.0205 0.001 1e-05
-0.0202034 0.000998502 1e-05
-0.0199069 0.000997594 1e-05
-0.0196103 0.000997619 1e-05
-0.0193137 0.000998657 1e-05
-0.0190172 0.0010008 1e-05
-0.0187389 0.001006 1e-05
-0.0184608 0.00101536 1e-05
-0.0182263 0.00102682 1e-05
-0.0180805 0.00103584 1e-05
-0.0179349 0.00104618 1e-05
-0.0177893 0.00105787 1e-05
-0.0176439 0.00107092 1e-05
-0.0174976 0.00108544 1e-05
-0.0172058 0.0011167 1e-05
-0.0169146 0.00115264 1e-05
-0.0166239 0.00119336 1e-05
-0.0163341 0.0012392 1e-05
-0.0160387 0.00129193 1e-05
-0.0159124 0.00131742 1e-05
-0.0157863 0.00134413 1e-05
-0.0156605 0.00137212 1e-05
-0.0155351 0.00140146 1e-05
-0.0154624 0.00141936 1e-05
-0.0152975 0.00146123 1e-05
-0.0151335 0.00150625 1e-05
-0.0149704 0.00155466 1e-05
-0.0148085 0.00160664 1e-05
-0.0146381 0.00166581 1e-05
-0.0145463 0.00170066 1e-05
-0.0144553 0.00173728 1e-05
-0.014365 0.0017758 1e-05
-0.0142755 0.00181598 1e-05
-0.0142233 0.00184007 1e-05
-0.0140374 0.0019275 1e-05
-0.0138558 0.00202369 1e-05
-0.0136799 0.00212997 1e-05
-0.0135027 0.00223413 1e-05
-0.013402 0.00229098 1e-05
-0.0133803 0.00230287 1e-05
-0.0133586 0.00231483 1e-05
-0.013337 0.00232685 1e-05
-0.0133153 0.00233871 1e-05
-0.0132934 0.0023504 1e-05
-0.0131324 0.00243517 1e-05
-0.0129681 0.00251348 1e-05
-0.0128011 0.00258557 1e-05
-0.0126315 0.0026517 1e-05
-0.0122736 0.00277425 1e-05
-0.0122194 0.00278805 1e-05
-0.012165 0.0028013 1e-05
-0.0121105 0.00281402 1e-05
-0.012056 0.0028262 1e-05
-0.0120025 0.00283779 1e-05
-0.0117547 0.00289015 1e-05
-0.0115052 0.00293441 1e-05
-0.0112546 0.00297141 1e-05
-0.0110031 0.00300154 1e-05
-0.0107632 0.00302729 1e-05
-0.0105252 0.0030502 1e-05
-0.010287 0.00307047 1e-05
-0.0100486 0.00308803 1e-05
-0.00981 0.00310297 1e-05
-0.00957337 0.00311556 1e-05
-0.00934491 0.00312559 1e-05
-0.00911638 0.00313393 1e-05
-0.00888779 0.00314029 1e-05
-0.00865915 0.00314437 1e-05
-0.00843108 0.00314622 1e-05
-0.00821175 0.00314596 1e-05
-0.00799243 0.00314397 1e-05
-0.00777314 0.00314002 1e-05
-0.00755389 0.00313397 1e-05
-0.00733443 0.00312583 1e-05
-0.00712387 0.00311604 1e-05
-0.00691338 0.00310454 1e-05
-0.00670301 0.00309128 1e-05
-0.00649277 0.00307603 1e-05
-0.0062816 0.0030586 1e-05
-0.00607944 0.0030399 1e-05
-0.00587746 0.0030195 1e-05
-0.00567564 0.00299743 1e-05
-0.00547402 0.00297366 1e-05
-0.00527083 0.00294782 1e-05
-0.00507675 0.00292135 1e-05
-0.00488288 0.0028934 1e-05
-0.00468925 0.00286382 1e-05
-0.00449589 0.00283256 1e-05
-0.00430044 0.00279924 1e-05
-0.00427264 0.00279424 1e-05
-0.00424485 0.00278921 1e-05
-0.00421706 0.00278414 1e-05
-0.00418928 0.00277903 1e-05
-0.00416352 0.00277425 1e-05
-0.00400458 0.00274457 1e-05
-0.00384587 0.00271371 1e-05
-0.00368739 0.00268169 1e-05
-0.00352914 0.00264853 1e-05
-0.00336883 0.00261379 1e-05
-0.00318995 0.00257378 1e-05
-0.0030114 0.00253231 1e-05
-0.00283318 0.00248944 1e-05
-0.00265534 0.00244504 1e-05
-0.00247443 0.00239801 1e-05
-0.0023952 0.0023766 1e-05
-0.00231607 0.00235483 1e-05
-0.00223705 0.00233268 1e-05
-0.00215815 0.00231008 1e-05
-0.00209275 0.00229098 1e-05
-0.00199735 0.00226265 1e-05
-0.0019021 0.00223385 1e-05
-0.00180698 0.00220461 1e-05
-0.001712 0.00217491 1e-05
-0.00161577 0.00214417 1e-05
-0.0014509 0.0020903 1e-05
-0.0012866 0.00203472 1e-05
-0.00112287 0.00197748 1e-05
-0.000959975 0.0019179 1e-05
-0.000791418 0.00185351 1e-05
-0.000784688 0.00185082 1e-05
-0.000777959 0.00184813 1e-05
-0.000771233 0.00184543 1e-05
-0.000764508 0.00184273 1e-05
-0.000757898 0.00184007 1e-05
-0.000606319 0.00177892 1e-05
-0.000455555 0.00171578 1e-05
-0.000305588 0.00165077 1e-05
-0.000156491 0.00158379 1e-05
0 0.00150994 1e-05
3.54973e-05 0.00149236 1e-05
7.08822e-05 0.00147455 1e-05
0.000106155 0.00145652 1e-05
0.000141304 0.00143825 1e-05
0.000172167 0.00142194 1e-05
0.000243411 0.00138376 1e-05
0.000314158 0.00134467 1e-05
0.000384414 0.0013047 1e-05
0.000454163 0.00126385 1e-05
0.000528387 0.00121876 1e-05
0.000586252 0.00118224 1e-05
0.000643604 0.00114493 1e-05
0.000700439 0.00110683 1e-05
0.000756706 0.0010679 1e-05
0.000801341 0.001036 1e-05
0.000853249 0.000997938 1e-05
0.000904589 0.000959115 1e-05
0.000955367 0.00091956 1e-05
0.00100548 0.00087916 1e-05
0.00106088 0.000832762 1e-05
0.0010981 0.000800257 1e-05
0.00113488 0.000767258 1e-05
0.00117122 0.000733775 1e-05
0.00120713 0.000699826 1e-05
0.00123776 0.000670162 1e-05
0.00130756 0.000601146 1e-05
0.00137487 0.000529695 1e-05
0.00143969 0.000455972 1e-05
0.0015023 0.000380368 1e-05
0.00154558 0.000324918 1e-05
0.00155597 0.000311087 1e-05
0.00156626 0.000297185 1e-05
0.00157647 0.000283218 1e-05
0.00158659 0.000269192 1e-05
0.00159752 0.000253858 1e-05
0.00163322 0.000203086 1e-05
0.00166786 0.000151587 1e-05
0.00170144 9.93874e-05 1e-05
0.00173395 4.65167e-05 1e-05
0.00176161 0 1e-05
0.0018043 -7.31508e-05 1e-05
0.00184463 -0.000147627 1e-05
0.00188263 -0.000223322 1e-05
0.00191914 -0.000299745 1e-05
0.00194985 -0.000365683 1e-05
0.00198701 -0.000447275 1e-05
0.00202174 -0.000529932 1e-05
0.00205494 -0.000613214 1e-05
0.00208695 -0.000696957 1e-05
0.002115 -0.000773531 1e-05
0.00211966 -0.000786733 1e-05
0.00212428 -0.000799954 1e-05
0.00212886 -0.000813187 1e-05
0.00213341 -0.000826428 1e-05
0.00213833 -0.000840833 1e-05
0.00216457 -0.000918291 1e-05
0.0021899 -0.000996053 1e-05
0.00221431 -0.00107411 1e-05
0.0022378 -0.00115245 1e-05
0.00225954 -0.00122805 1e-05
0.00228832 -0.00132934 1e-05
0.00231548 -0.00143108 1e-05
0.002341 -0.00153324 1e-05
0.00236487 -0.0016358 1e-05
0.00238711 -0.00173434 1e-05
0.00241192 -0.00184713 1e-05
0.00243525 -0.00196023 1e-05
0.00245705 -0.00207364 1e-05
0.00247806 -0.0021872 1e-05
0.00249773 -0.00229812 1e-05
0.00251897 -0.00242369 1e-05
0.00253995 -0.00254931 1e-05
0.00256078 -0.00267495 1e-05
0.00258152 -0.00280061 1e-05
0.00260211 -0.00292596 1e-05
0.00261835 -0.00302858 1e-05
0.00263565 -0.00313102 1e-05
0.00265334 -0.0032334 1e-05
0.00267143 -0.00333571 1e-05
0.00268334 -0.00340146 1e-05
0.00269159 -0.00344626 1e-05
0.00269991 -0.00349104 1e-05
0.00270831 -0.00353582 1e-05
0.00271678 -0.00358057 1e-05
0.00272537 -0.00362547 1e-05
0.00275523 -0.00378135 1e-05
0.00278641 -0.00393698 1e-05
0.00281897 -0.00409232 1e-05
0.00285302 -0.00424735 1e-05
0.00288889 -0.00440512 1e-05
0.00292904 -0.00457888 1e-05
0.00297087 -0.00475224 1e-05
0.0030145 -0.00492516 1e-05
0.00305922 -0.0050978 1e-05
0.00310556 -0.00527417 1e-05
0.00313096 -0.00536942 1e-05
0.00315678 -0.00546456 1e-05
0.00318294 -0.00555961 1e-05
0.00320935 -0.00565459 1e-05
0.00323259 -0.00573729 1e-05
0.00326125 -0.00583835 1e-05
0.00329021 -0.00593933 1e-05
0.00331947 -0.00604023 1e-05
0.00334905 -0.00614103 1e-05
0.00337919 -0.00624267 1e-05
0.00344382 -0.00645842 1e-05
0.00350997 -0.00667372 1e-05
0.00357773 -0.00688851 1e-05
0.003647 -0.00710282 1e-05
0.00371945 -0.00732169 1e-05
0.00373278 -0.00736096 1e-05
0.00374617 -0.00740021 1e-05
0.00375963 -0.00743944 1e-05
0.00377313 -0.00747866 1e-05
0.00378611 -0.00751619 1e-05
0.00385598 -0.00771762 1e-05
0.00392725 -0.00791855 1e-05
0.00399999 -0.00811896 1e-05
0.00407419 -0.00831883 1e-05
0.00415148 -0.00852354 1e-05
0.00418997 -0.00862369 1e-05
0.0042288 -0.00872371 1e-05
0.00426797 -0.0088236 1e-05
0.00430744 -0.00892337 1e-05
0.00434393 -0.00901482 1e-05
0.00439538 -0.00914273 1e-05
0.00444734 -0.00927044 1e-05
0.0044998 -0.00939795 1e-05
0.00455279 -0.00952523 1e-05
0.00460716 -0.00965447 1e-05
0.00466694 -0.00979501 1e-05
0.00472736 -0.00993528 1e-05
0.00478843 -0.0100753 1e-05
0.00485017 -0.010215 1e-05
0.00490609 -0.0103398 1e-05
0.00494646 -0.0104289 1e-05
0.0049871 -0.0105178 1e-05
0.00502802 -0.0106066 1e-05
0.00506921 -0.0106953 1e-05
0.0051113 -0.0107851 1e-05
0.00518356 -0.010938 1e-05
0.00525674 -0.0110905 1e-05
0.00533087 -0.0112425 1e-05
0.00540597 -0.011394 1e-05
0.00547262 -0.0115262 1e-05
0.00551247 -0.0116041 1e-05
0.00555257 -0.0116818 1e-05
0.00559295 -0.0117594 1e-05
0.0056336 -0.0118368 1e-05
0.00567529 -0.0119155 1e-05
0.00574894 -0.0120533 1e-05
0.00582353 -0.0121906 1e-05
0.00589908 -0.0123274 1e-05
0.00597562 -0.0124636 1e-05
0.00604356 -0.0125824 1e-05
0.00609736 -0.012675 1e-05
0.00615164 -0.0127674 1e-05
0.00620639 -0.0128595 1e-05
0.00626164 -0.0129513 1e-05
0.00631914 -0.0130457 1e-05
0.0063791 -0.0131429 1e-05
0.00643964 -0.0132397 1e-05
0.00650078 -0.0133361 1e-05
0.00656253 -0.0134321 1e-05
0.00661893 -0.0135186 1e-05
0.00670578 -0.01365 1e-05
0.00679376 -0.0137806 1e-05
0.00688292 -0.0139104 1e-05
0.00697329 -0.0140394 1e-05
0.00707072 -0.0141757 1e-05
0.00709633 -0.0142107 1e-05
0.00712204 -0.0142457 1e-05
0.00714785 -0.0142806 1e-05
0.00717375 -0.0143154 1e-05
0.00719878 -0.0143488 1e-05
0.00731565 -0.0145042 1e-05
0.00743442 -0.014658 1e-05
0.00755513 -0.0148103 1e-05
0.00767781 -0.0149611 1e-05
0.00778313 -0.0150871 1e-05
0.00782053 -0.0151307 1e-05
0.00785809 -0.0151743 1e-05
0.00789583 -0.0152177 1e-05
0.00793374 -0.0152609 1e-05
0.00797315 -0.0153055 1e-05
0.00805293 -0.0153951 1e-05
0.00813346 -0.0154839 1e-05
0.00821474 -0.0155721 1e-05
0.00829677 -0.0156596 1e-05
0.00837203 -0.0157384 1e-05
0.00849073 -0.0158606 1e-05
0.00861087 -0.0159814 1e-05
0.00873247 -0.0161008 1e-05
0.00885556 -0.0162187 1e-05
0.00896551 -0.0163213 1e-05
0.00899053 -0.0163441 1e-05
0.00901561 -0.0163668 1e-05
0.00904074 -0.0163895 1e-05
0.00906594 -0.0164121 1e-05
0.00909188 -0.0164353 1e-05
0.00918623 -0.0165192 1e-05
0.00928135 -0.0166022 1e-05
0.00937726 -0.0166843 1e-05
0.00947393 -0.0167655 1e-05
0.0095636 -0.0168394 1e-05
0.00968415 -0.0169371 1e-05
0.00980581 -0.0170334 1e-05
0.00992855 -0.0171283 1e-05
0.0100523 -0.0172219 1e-05
0.0101663 -0.0173062 1e-05
0.0102378 -0.017358 1e-05
0.0103097 -0.0174093 1e-05
0.0103818 -0.0174602 1e-05
0.0104543 -0.0175106 1e-05
0.0105335 -0.0175651 1e-05
0.0105816 -0.0175977 1e-05
0.0106298 -0.0176301 1e-05
0.0106781 -0.0176623 1e-05
0.0107265 -0.0176943 1e-05
0.0107738 -0.0177253 1e-05
0.0108962 -0.0178049 1e-05
[...]
POINT_DATA 12522
 FIELD attributes 1
U 3 12522 float
10.0049 	-0.0505334 	0 9.97914 	-0.0305611 	0 9.95073 	0.000836162 	0 9.92173 	0.0347316 	0 9.89209 	0.071339 	0 9.90391 	0.185234 	0 9.91354 	0.333465 	0 9.84405 	0.481118 	0 9.76915 	0.604985 	0 9.73202 	0.690941 	0 9.69152 	0.77798 	0 9.6476 	0.866116 	0 9.59205 	0.951986 	0 9.47342 	1.01492 	0 9.26586 	1.14327 	0 9.02421 	1.26453 	0 8.75885 	1.38529 	0 8.44999 	1.50823 	0 8.11384 	1.63706 	0 8.03286 	1.70238 	0 7.94748 	1.76832 	0 7.70668 	1.80217 	0 7.44622 	1.83348 	0 7.28983 	1.85164 	0 7.10324 	1.94961 	0 6.91113 	2.05174 	0 6.66294 	2.13852 	0 6.31639 	2.19359 	0 5.93681 	2.25524 	0 5.7418 	2.30916 	0 5.54147 	2.36437 	0 5.34777 	2.4002 	0 5.1764 	2.39116 	0 5.07472 	2.38579 	0 4.72422 	2.5022 	0 4.35416 	2.63101 	0 4.30681 	2.53213 	0 4.26716 	2.40957 	0 4.2411 	2.32183 	0 4.216 	2.32564 	0 4.19207 	2.32898 	0 4.23013 	2.30821 	0 4.26817 	2.28749 	0 4.30618 	2.26683 	0 4.4692 	2.13057 	0 4.62869 	1.99701 	0 4.78461 	1.8662 	0 4.94392 	1.69269 	0 5.2656 	1.34063 	0 5.32879 	1.29926 	0 5.39083 	1.25808 	0 5.45174 	1.21711 	0 5.47221 	1.18714 	0 5.48741 	1.15911 	0 5.55649 	0.985952 	0 5.61211 	0.828429 	0 5.65841 	0.677778 	0 5.64481 	0.605942 	0 5.62662 	0.541791 	0 5.57849 	0.474659 	0 5.52854 	0.407162 	0 5.51802 	0.345609 	0 5.52199 	0.293805 	0 5.52424 	0.24258 	0 5.51213 	0.201019 	0 5.51333 	0.153519 	0 5.53129 	0.0986214 	0 5.55357 	0.0450735 	0 5.58226 	-0.00662699 	0 5.61073 	-0.050964 	0 5.64049 	-0.101585 	0 5.67031 	-0.156474 	0 5.6995 	-0.211381 	0 5.72817 	-0.266394 	0 5.76001 	-0.314739 	0 5.79109 	-0.36488 	0 5.82427 	-0.422432 	0 5.86199 	-0.483966 	0 5.89799 	-0.545494 	0 5.93843 	-0.599746 	0 5.97698 	-0.653517 	0 6.0112 	-0.708708 	0 6.04064 	-0.768299 	0 6.0683 	-0.827756 	0 6.10335 	-0.879856 	0 6.14178 	-0.938189 	0 6.18097 	-0.999394 	0 6.21835 	-1.0601 	0 6.25524 	-1.12448 	0 6.26256 	-1.13402 	0 6.26892 	-1.14408 	0 6.27497 	-1.15428 	0 6.28097 	-1.16446 	0 6.2865 	-1.17388 	0 6.31858 	-1.22866 	0 6.34918 	-1.28279 	0 6.37833 	-1.3363 	0 6.40418 	-1.38793 	0 6.4257 	-1.43746 	0 6.46505 	-1.50136 	0 6.50248 	-1.56441 	0 6.54703 	-1.63449 	0 6.5947 	-1.71423 	0 6.6411 	-1.79432 	0 6.66953 	-1.83493 	0 6.695 	-1.87733 	0 6.7159 	-1.92282 	0 6.7362 	-1.96803 	0 6.75257 	-2.00533 	0 6.77774 	-2.04872 	0 6.80229 	-2.09163 	0 6.82624 	-2.13406 	0 6.84393 	-2.18644 	0 6.85981 	-2.24132 	0 6.91124 	-2.33806 	0 6.96015 	-2.43315 	0 7.03718 	-2.57386 	0 7.11453 	-2.71817 	0 7.19032 	-2.87108 	0 7.1942 	-2.87797 	0 7.19806 	-2.88485 	0 7.19991 	-2.89196 	-2.35204e-22 7.20162 	-2.89907 	-4.85489e-22 7.2033 	-2.90606 	-7.31713e-22 7.2957 	-3.05537 	-1.52942e-21 7.38682 	-3.20201 	-2.22776e-21 7.46803 	-3.35483 	-3.11347e-21 7.50932 	-3.54366 	-5.15097e-21 7.55031 	-3.74016 	-7.181e-21 7.57546 	-3.81268 	-1.81236e-20 7.59844 	-3.88417 	-2.80883e-20 7.58576 	-3.94287 	-2.06821e-20 7.57268 	-4.00114 	-1.31744e-20 7.56081 	-4.0521 	-6.4704e-21 7.62383 	-4.21315 	9.88069e-21 7.68743 	-4.3735 	2.66352e-20 7.73752 	-4.53151 	3.80524e-20 7.70175 	-4.67872 	1.46863e-20 7.66335 	-4.83576 	-1.01746e-20 7.63589 	-4.96838 	-1.33425e-20 7.60843 	-5.10008 	-1.64793e-20 7.54218 	-5.21846 	-1.51246e-20 7.45806 	-5.3301 	-1.16792e-20 7.39041 	-5.41867 	-8.86202e-21 7.40575 	-5.60016 	-8.33106e-21 7.42275 	-5.78208 	-7.79444e-21 7.35981 	-5.93389 	-5.25082e-21 7.24297 	-6.06524 	-1.33187e-21 7.11332 	-6.21282 	3.09507e-21 7.04206 	-6.31806 	4.60676e-21 6.9714 	-6.42325 	6.14813e-21 6.8945 	-6.51882 	7.20877e-21 6.79172 	-6.57732 	6.32369e-21 6.70345 	-6.62762 	5.57718e-21 6.56732 	-6.9711 	-5.95367e-21 6.43667 	-7.32118 	-1.77067e-20 6.19829 	-7.48472 	-1.13825e-20 5.95647 	-7.63187 	-3.8148e-21 5.76558 	-7.67672 	5.1838e-21 5.75006 	-7.76504 	6.34775e-21 5.72106 	-7.82936 	6.86951e-21 5.67495 	-7.8633 	6.57688e-21 5.62902 	-7.89738 	6.29277e-21 5.57924 	-7.93461 	5.99275e-21 5.41971 	-8.05703 	8.35495e-21 5.26255 	-8.18106 	1.07263e-20 5.10782 	-8.30663 	1.31057e-20 4.98717 	-8.38721 	1.27363e-20 4.91199 	-8.41664 	9.9415e-21 4.6962 	-8.67133 	6.33296e-22 4.48415 	-8.93278 	-8.7472e-21 4.31677 	-9.03535 	-5.6497e-21 4.19021 	-8.99719 	8.51558e-21 4.08275 	-8.9647 	2.07589e-20 3.91095 	-9.30909 	3.35361e-20 3.76201 	-9.43771 	3.10831e-20 3.62355 	-9.47735 	2.23158e-20 3.48706 	-9.52095 	1.37438e-20 3.35605 	-9.49732 	1.50314e-21 3.3353 	-9.56222 	-8.99215e-22 3.31282 	-9.57119 	-1.55405e-22 3.29007 	-9.57085 	1.11196e-21 3.26737 	-9.57061 	2.374e-21 3.24273 	-9.57045 	3.74004e-21 3.12124 	-9.58106 	2.7177e-21 3.00063 	-9.59442 	1.8108e-21 2.88092 	-9.61056 	1.02009e-21 2.76806 	-9.62615 	1.25329e-21 2.72954 	-9.60496 	1.21604e-20 2.56346 	-9.60209 	7.78916e-21 2.39611 	-9.59164 	3.82002e-21 2.22747 	-9.57311 	2.69864e-22 2.13963 	-9.47968 	-2.35524e-21 2.06404 	-9.38348 	-4.76686e-21 1.92259 	-9.32118 	-3.12955e-21 1.78067 	-9.26395 	-1.46e-21 1.69089 	-9.13542 	1.46454e-21 1.58773 	-8.95686 	-1.30812e-21 1.48614 	-8.78564 	-4.08702e-21 1.42888 	-8.55327 	2.0669e-21 1.38136 	-8.33468 	1.03714e-20 1.34105 	-8.12617 	2.02668e-20 1.30064 	-7.91795 	3.01537e-20 1.22102 	-7.71228 	4.72525e-20 1.25617 	-7.43804 	7.1992e-20 1.25739 	-7.27981 	5.33777e-20 1.25906 	-7.12087 	3.45767e-20 1.2612 	-6.96117 	1.55772e-20 1.2629 	-6.85793 	3.22175e-21 1.26119 	-6.78654 	-3.98891e-21 1.25955 	-6.71502 	-1.12239e-20 1.25796 	-6.64334 	-1.84838e-20 1.25644 	-6.57151 	-2.57695e-20 1.25286 	-6.54109 	-1.93184e-20 1.27182 	-6.34654 	-1.17348e-20 1.29177 	-6.16281 	-5.98555e-21 1.31271 	-5.97729 	-2.1898e-22 1.32622 	-5.83289 	6.42146e-21 1.32818 	-5.7483 	1.44789e-20 1.34949 	-5.59277 	3.60488e-20 1.37176 	-5.43627 	5.76274e-20 1.37876 	-5.32347 	5.49885e-20 1.37747 	-5.24261 	2.64106e-20 1.37636 	-5.16021 	-3.39199e-21 1.38164 	-5.09248 	-2.34298e-20 1.38512 	-5.03231 	-3.30658e-20 1.3858 	-4.98349 	-2.72626e-20 1.38659 	-4.93461 	-2.13551e-20 1.38737 	-4.89196 	-1.61138e-20 1.388 	-4.84006 	-1.97516e-20 1.38875 	-4.7881 	-2.33704e-20 1.38963 	-4.73606 	-2.69697e-20 1.39057 	-4.68955 	-3.07757e-20 1.39162 	-4.64536 	-3.47116e-20 1.39416 	-4.53752 	-3.51342e-20 1.39733 	-4.42949 	-3.54809e-20 1.40098 	-4.33446 	-2.91709e-20 1.40582 	-4.2471 	-1.6761e-20 1.41173 	-4.15847 	-2.52562e-21 1.41288 	-4.14036 	-2.73312e-21 1.41405 	-4.12225 	-2.94146e-21 1.41436 	-4.10722 	-2.65701e-21 1.41458 	-4.09261 	-2.30522e-21 1.4148 	-4.07863 	-1.96828e-21 1.4191 	-4.00094 	5.03563e-21 1.42397 	-3.92321 	1.21453e-20 1.42814 	-3.84669 	1.73198e-20 1.42585 	-3.77675 	1.15543e-20 1.42393 	-3.70501 	5.64961e-21 1.42364 	-3.66739 	4.64587e-21 1.42349 	-3.62979 	3.64347e-21 1.42328 	-3.59747 	3.03808e-21 1.42314 	-3.56638 	2.52538e-21 1.42311 	-3.53788 	2.05716e-21 1.42103 	-3.49325 	8.47248e-22 1.41912 	-3.44862 	-3.63833e-22 1.41751 	-3.40548 	-1.46104e-21 1.41649 	-3.3669 	-2.20258e-21 1.41562 	-3.32771 	-2.95617e-21 1.41506 	-3.28523 	-2.29512e-21 1.41471 	-3.2428 	-1.6364e-21 1.41522 	-3.20209 	-1.10732e-21 1.41623 	-3.16216 	-6.35831e-22 1.41735 	-3.12644 	-2.16497e-22 1.41657 	-3.1 	3.63443e-22 1.41587 	-3.07358 	9.43946e-22 1.41558 	-3.0476 	1.21338e-21 1.41591 	-3.02234 	9.72952e-22 1.41634 	-2.99673 	7.27468e-22 1.41765 	-2.95354 	2.11607e-21 1.41924 	-2.91042 	3.49457e-21 1.42219 	-2.86911 	3.29202e-21 1.42622 	-2.82914 	1.93654e-21 1.43004 	-2.79423 	7.27896e-22 1.43069 	-2.77232 	8.92823e-22 1.4314 	-2.75042 	1.05714e-21 1.4328 	-2.72934 	1.13369e-21 1.43482 	-2.70901 	1.12903e-21 1.43697 	-2.68832 	1.12317e-21 1.44108 	-2.65241 	6.86231e-22 1.44546 	-2.61657 	2.47237e-22 1.45047 	-2.58129 	0 1.45621 	-2.54673 	0 1.4615 	-2.51654 	0 1.4645 	-2.49248 	0 1.46764 	-2.46846 	0 1.47133 	-2.44497 	0 1.47537 	-2.42176 	0 1.47968 	-2.39787 	0 1.48449 	-2.37345 	0 1.48947 	-2.34908 	0 1.49495 	-2.32506 	0 1.50155 	-2.30187 	0 1.50767 	-2.28096 	0 1.51427 	-2.24805 	0 1.52117 	-2.21525 	0 1.52988 	-2.18375 	-4.85372e-22 1.53925 	-2.15264 	-1.07966e-21 1.54957 	-2.11971 	-1.7149e-21 1.5524 	-2.11129 	-1.74389e-21 1.55526 	-2.10288 	-1.77339e-21 1.55816 	-2.09451 	-1.80337e-21 1.56136 	-2.08656 	-1.83352e-21 1.56447 	-2.07892 	-1.86304e-21 1.57631 	-2.04181 	-2.84061e-21 1.58864 	-2.00494 	-3.84193e-21 1.60253 	-1.96928 	-3.27751e-21 1.61785 	-1.93485 	-1.27298e-21 1.63127 	-1.906 	4.37801e-22 1.63519 	-1.89549 	1.17284e-21 1.63921 	-1.88507 	1.80358e-21 1.6437 	-1.87517 	1.55957e-21 1.64825 	-1.86529 	1.31642e-21 1.653 	-1.85509 	1.06564e-21 1.66281 	-1.83475 	8.94946e-22 1.67283 	-1.81451 	7.25525e-22 1.68304 	-1.79439 	5.57399e-22 1.69452 	-1.77446 	5.89223e-22 1.70531 	-1.75646 	6.50393e-22 1.71921 	-1.72904 	3.25431e-22 1.73347 	-1.70186 	-6.9185e-25 1.74978 	-1.67502 	-2.99917e-22 1.76652 	-1.64841 	-5.93886e-22 1.78231 	-1.62474 	-7.67429e-22 1.78528 	-1.61958 	-1.12926e-21 1.78839 	-1.61445 	-1.31326e-21 1.79173 	-1.60933 	-1.1972e-21 1.79507 	-1.60422 	-1.08147e-21 1.79852 	-1.59898 	-9.62864e-22 1.81125 	-1.58013 	-8.1956e-22 1.82417 	-1.56143 	-6.77789e-22 1.8373 	-1.54287 	-5.37567e-22 1.85119 	-1.52585 	-5.35919e-22 1.8645 	-1.51114 	-6.17077e-22 1.87992 	-1.48847 	-3.41856e-22 1.89561 	-1.46602 	-6.60622e-23 1.91249 	-1.44585 	1.31638e-23 1.93061 	-1.42708 	-6.99281e-23 1.94745 	-1.41017 	-1.5445e-22 1.95656 	-1.39796 	-8.42552e-22 1.96617 	-1.38672 	-9.25029e-22 1.97614 	-1.37615 	-6.02156e-22 1.9862 	-1.36565 	-2.82052e-22 1.99723 	-1.35427 	6.38091e-23 2.004 	-1.3475 	2.77763e-22 2.01079 	-1.34075 	4.90474e-22 2.01762 	-1.33403 	7.01941e-22 2.02453 	-1.32712 	6.74032e-22 2.03137 	-1.31999 	1.90151e-22 2.04783 	-1.30475 	5.03912e-23 2.06479 	-1.28844 	2.81059e-23 2.08198 	-1.27216 	1.81402e-23 2.0996 	-1.25466 	3.36435e-22 2.11645 	-1.23806 	7.00686e-22 2.13291 	-1.22417 	1.92413e-21 2.14954 	-1.2104 	3.10408e-21 2.16658 	-1.19517 	2.70421e-21 2.18396 	-1.1793 	1.87781e-21 2.20083 	-1.16367 	7.26553e-22 2.21286 	-1.15436 	6.20312e-22 2.22511 	-1.14406 	4.4296e-22 2.23745 	-1.13369 	2.54532e-22 2.24987 	-1.12341 	6.52796e-23 2.26382 	-1.11203 	-1.46881e-22 2.26803 	-1.10868 	-2.73976e-22 2.27224 	-1.10534 	-4.00906e-22 2.27647 	-1.10202 	-5.2767e-22 2.28069 	-1.09876 	-6.31725e-22 2.28476 	-1.09652 	-4.02905e-22 2.30151 	-1.08233 	-3.72846e-22 2.31833 	-1.06912 	-3.17828e-22 2.33528 	-1.05606 	-2.63607e-22 2.35218 	-1.04443 	-2.34733e-22 2.36826 	-1.03613 	-2.60428e-22 2.38499 	-1.02174 	-9.22152e-22 2.40183 	-1.00749 	-1.58674e-21 2.41854 	-0.99615 	-1.39565e-21 2.43501 	-0.98811 	-4.38604e-22 2.45105 	-0.980409 	4.91502e-22 2.46765 	-0.966746 	1.80292e-21 2.48428 	-0.953957 	2.80174e-21 2.50068 	-0.944463 	2.47207e-21 2.5171 	-0.935913 	1.71824e-21 2.5331 	-0.928714 	4.5884e-22 2.54955 	-0.915943 	2.07055e-22 2.56575 	-0.906843 	3.82388e-22 2.58202 	-0.897825 	5.57207e-22 2.59837 	-0.888889 	7.31514e-22 2.61443 	-0.880513 	8.87504e-22 2.61657 	-0.87897 	7.51023e-22 2.61868 	-0.877819 	7.85976e-22 2.62079 	-0.876669 	8.20843e-22 2.6229 	-0.875521 	8.55624e-22 2.62506 	-0.874349 	8.91052e-22 2.63902 	-0.866831 	1.26437e-21 2.65303 	-0.859369 	1.63216e-21 2.66709 	-0.851962 	1.99451e-21 2.6812 	-0.844611 	2.35144e-21 2.69245 	-0.834325 	3.00366e-22 2.71105 	-0.829625 	-1.49918e-21 2.72703 	-0.821352 	-1.98131e-21 2.74308 	-0.813147 	-2.45836e-21 2.75753 	-0.803074 	-1.99544e-21 2.76976 	-0.790721 	-3.3602e-22 2.78822 	-0.786482 	1.69376e-21 2.80672 	-0.7823 	3.72427e-21 2.8221 	-0.773816 	3.86614e-21 2.83452 	-0.761658 	2.1204e-21 2.84688 	-0.749703 	3.90154e-22 2.86508 	-0.745818 	1.10546e-21 2.88333 	-0.741985 	1.82166e-21 2.89879 	-0.734417 	1.56527e-21 2.91133 	-0.72265 	4.62821e-22 2.92384 	-0.711057 	-6.3075e-22 2.94175 	-0.707508 	-5.39125e-22 2.95839 	-0.702102 	-3.12658e-22 2.97346 	-0.694419 	7.8925e-23 2.98798 	-0.685868 	4.52135e-22 3.00064 	-0.674599 	7.65692e-22 3.01809 	-0.671156 	2.93037e-21 3.03312 	-0.663767 	2.62235e-21 3.0482 	-0.656444 	2.31908e-21 3.06333 	-0.649186 	2.02048e-21 3.07731 	-0.640173 	7.49426e-22 3.08841 	-0.63691 	5.88402e-22 3.09868 	-0.632076 	4.99653e-22 3.10896 	-0.627269 	4.10726e-22 3.11927 	-0.622491 	3.21624e-22 3.13065 	-0.617262 	2.23346e-22 3.13521 	-0.615185 	1.7341e-22 3.13979 	-0.613113 	1.2349e-22 3.14436 	-0.611047 	7.35874e-23 3.14894 	-0.608986 	2.37014e-23 3.15376 	-0.608004 	0 3.16863 	-0.600243 	4.68619e-23 3.18367 	-0.593516 	1.05571e-22 3.19875 	-0.586845 	1.64435e-22 3.21387 	-0.580228 	2.2345e-22 3.23039 	-0.57823 	4.07124e-22 3.24441 	-0.567605 	1.39621e-21 3.2594 	-0.561194 	1.7093e-21 3.27442 	-0.554834 	2.02079e-21 3.28989 	-0.549554 	2.14716e-21 3.3077 	-0.550204 	1.22777e-21 3.32089 	-0.538854 	7.76877e-22 3.33511 	-0.530655 	6.00688e-22 3.35004 	-0.524608 	6.11558e-22 3.36711 	-0.52287 	6.94446e-22 3.38551 	-0.523976 	8.24286e-22 3.39794 	-0.512742 	-7.09879e-22 3.41056 	-0.501924 	-2.18293e-21 3.42547 	-0.496397 	-2.75889e-21 3.44458 	-0.497964 	-1.43844e-21 3.4636 	-0.49953 	-1.24113e-22 3.47516 	-0.488391 	-4.8179e-23 3.48674 	-0.477302 	2.71029e-23 3.50232 	-0.472727 	1.13409e-22 3.5221 	-0.47472 	2.05501e-22 3.54179 	-0.476708 	2.97188e-22 3.55237 	-0.465634 	2.71341e-21 3.56296 	-0.454606 	5.13017e-21 3.57903 	-0.450566 	4.61949e-21 3.59949 	-0.452943 	1.73412e-21 3.61987 	-0.455313 	-1.14088e-21 3.62941 	-0.444279 	-3.33735e-21 3.64023 	-0.434699 	-5.08495e-21 3.65676 	-0.431461 	-4.8283e-21 3.67654 	-0.432451 	-3.30282e-21 3.69759 	-0.435175 	-1.26018e-21 3.70608 	-0.424183 	-8.3984e-22 3.71871 	-0.417381 	-4.88526e-22 3.73504 	-0.414299 	-1.98707e-22 3.75307 	-0.413158 	0 3.77475 	-0.416219 	0 3.78219 	-0.405322 	0 3.79707 	-0.401247 	-1.48122e-22 3.81317 	-0.398305 	-3.20567e-22 3.82926 	-0.395373 	-4.92905e-22 3.85118 	-0.39836 	-8.02294e-22 3.85925 	-0.388926 	-1.50026e-21 3.87511 	-0.386085 	-1.16527e-21 3.89097 	-0.383253 	-8.31128e-22 3.90683 	-0.38043 	-4.97827e-22 3.92682 	-0.381409 	3.46021e-22 3.93707 	-0.374414 	6.60754e-22 3.95269 	-0.371664 	1.24361e-21 3.9683 	-0.368923 	1.826e-21 3.98391 	-0.366189 	2.40793e-21 4.00158 	-0.365225 	2.9311e-21 4.01217 	-0.360972 	2.27332e-21 4.02539 	-0.35869 	1.82386e-21 4.0386 	-0.356414 	1.37348e-21 4.05181 	-0.354143 	9.22192e-22 4.06661 	-0.351603 	4.15161e-22 4.06844 	-0.351291 	3.641e-22 4.07026 	-0.350978 	3.13006e-22 4.07209 	-0.350666 	2.61879e-22 4.07392 	-0.350354 	2.10719e-22 4.07396 	-0.349472 	3.41356e-23 4.09095 	-0.347511 	-7.74173e-22 4.10609 	-0.344961 	-1.46899e-21 4.12121 	-0.342417 	-2.16158e-21 4.13634 	-0.339879 	-2.85197e-21 4.13399 	-0.33205 	-2.49952e-21 4.16694 	-0.335115 	-2.42373e-21 4.18182 	-0.332657 	-1.90168e-21 4.19669 	-0.330204 	-1.37859e-21 4.21156 	-0.327757 	-8.54469e-22 4.19237 	-0.315489 	-1.18383e-23 4.24214 	-0.323371 	1.67274e-21 4.25675 	-0.321002 	1.74919e-21 4.27136 	-0.318638 	1.82469e-21 4.28595 	-0.316278 	1.89923e-21 4.249 	-0.299734 	4.87276e-22 4.31644 	-0.312257 	4.14441e-22 4.33078 	-0.309978 	2.79191e-22 4.34512 	-0.307703 	1.43952e-22 4.35858 	-0.305203 	2.22527e-23 4.30386 	-0.284746 	9.59629e-22 4.38268 	-0.299844 	1.99156e-21 4.40389 	-0.299551 	2.52606e-21 4.41796 	-0.297356 	2.99824e-21 4.41523 	-0.290925 	3.1079e-21 4.35696 	-0.270471 	2.019e-21 4.43879 	-0.285796 	1.17393e-21 4.47601 	-0.289681 	8.577e-22 4.4898 	-0.287567 	8.19461e-22 4.47016 	-0.277353 	9.67239e-22 4.40825 	-0.256908 	1.35071e-21 4.49314 	-0.272465 	2.82507e-21 4.54704 	-0.280383 	3.5173e-21 4.56055 	-0.278362 	3.18861e-21 4.52328 	-0.26452 	2.03696e-21 4.45769 	-0.2441 	4.2417e-22 4.54567 	-0.259881 	2.36144e-22 4.61691 	-0.271683 	6.86677e-23 4.63013 	-0.269755 	-2.87531e-23 4.57455 	-0.252419 	2.88133e-23 4.50522 	-0.232026 	1.16722e-22 4.59632 	-0.248005 	-6.85512e-24 4.68552 	-0.263533 	-1.24027e-22 4.69706 	-0.261393 	0 4.62391 	-0.240973 	0 4.55084 	-0.220593 	0 4.6451 	-0.236764 	0 4.73924 	-0.252891 	0 4.74837 	-0.250545 	-1.22725e-22 4.67145 	-0.230117 	-4.4904e-22 4.59461 	-0.209729 	-7.75294e-22 4.69209 	-0.226082 	-2.2504e-21 4.78944 	-0.242393 	-3.72557e-21 4.79795 	-0.240213 	-3.8035e-21 4.71721 	-0.219747 	-2.54162e-21 4.63656 	-0.199318 	-1.27793e-21 4.73731 	-0.215887 	-7.68643e-22 4.83794 	-0.232413 	-2.60031e-22 4.84582 	-0.230381 	-1.05525e-22 4.7612 	-0.209826 	-3.09047e-22 4.67667 	-0.189308 	-5.12213e-22 4.78071 	-0.206106 	-3.20892e-22 4.88463 	-0.222861 	-1.2998e-22 4.89187 	-0.220979 	4.39278e-22 4.80333 	-0.200333 	1.0825e-21 4.7149 	-0.179725 	1.72446e-21 4.82226 	-0.196775 	2.91851e-21 4.92947 	-0.213783 	4.1138e-21 4.93607 	-0.212059 	4.52555e-21 4.84364 	-0.191352 	3.99183e-21 4.75131 	-0.170681 	3.45535e-21 4.86202 	-0.187973 	5.67214e-21 4.97259 	-0.205222 	7.89061e-21 4.97856 	-0.203659 	7.48115e-21 4.8822 	-0.182923 	4.68639e-21 4.78596 	-0.162223 	1.88799e-21 4.90009 	-0.179751 	-3.41883e-22 5.00409 	-0.195493 	-2.40251e-21 5.00662 	-0.193501 	-2.75929e-21 4.91912 	-0.175062 	-1.36479e-21 4.81892 	-0.154317 	2.78601e-22 4.93645 	-0.172063 	2.87089e-22 5.02886 	-0.18552 	2.06732e-22 5.03116 	-0.183645 	-1.96476e-22 4.95432 	-0.167691 	-3.07263e-22 4.85014 	-0.146884 	-3.15985e-22 4.97106 	-0.164834 	1.27132e-21 5.0516 	-0.17607 	2.30222e-21 5.05365 	-0.174274 	2.24962e-21 4.98775 	-0.160685 	1.23948e-21 4.87962 	-0.13978 	-3.66469e-22 5.00388 	-0.157881 	-3.75465e-22 5.07232 	-0.166921 	-1.20046e-23 5.07414 	-0.165158 	7.97567e-22 5.0194 	-0.153832 	1.4983e-21 4.90737 	-0.132824 	2.08821e-21 5.03498 	-0.15109 	3.22148e-21 5.09115 	-0.158017 	3.69741e-21 5.09274 	-0.156285 	3.66971e-21 5.04935 	-0.147132 	3.38654e-21 4.93343 	-0.126018 	2.69098e-21 5.06446 	-0.144535 	3.24671e-21 5.10828 	-0.14948 	2.73449e-21 5.10966 	-0.147823 	1.70186e-21 5.07773 	-0.140786 	4.83102e-22 4.9579 	-0.119553 	-1.22722e-21 5.09241 	-0.138363 	-4.29447e-21 5.12379 	-0.141413 	-5.3975e-21 5.12498 	-0.139851 	-5.92471e-21 5.10465 	-0.134877 	-5.96528e-21 4.98085 	-0.1135 	-3.66897e-21 5.11887 	-0.132539 	-4.45487e-21 5.13772 	-0.133735 	-4.3576e-21 5.13874 	-0.132262 	-4.12772e-21 5.13011 	-0.129289 	-3.82884e-21 5.00232 	-0.1078 	-2.68196e-21 5.14383 	-0.127044 	-2.21254e-21 5.15006 	-0.126431 	-1.43227e-21 5.15092 	-0.12503 	-6.39377e-22 5.15183 	-0.123638 	1.53685e-22 5.02237 	-0.102385 	6.05064e-22 5.16026 	-0.120816 	3.13454e-21 5.16092 	-0.119458 	3.25142e-21 5.16163 	-0.118107 	3.36893e-21 5.16239 	-0.116765 	3.48706e-21 5.04106 	-0.0971752 	1.26813e-21 5.16993 	-0.114056 	7.47389e-22 5.17045 	-0.112735 	8.99556e-22 5.17102 	-0.111422 	1.0516e-21 5.17165 	-0.110117 	1.20351e-21 5.05847 	-0.0921199 	1.80248e-21 5.17839 	-0.107508 	4.84039e-21 5.17879 	-0.106239 	5.00058e-21 5.17924 	-0.104977 	5.16151e-21 5.17975 	-0.103722 	5.32318e-21 5.07469 	-0.0872723 	3.01334e-21 5.18578 	-0.101241 	4.23122e-21 5.18607 	-0.100023 	4.21184e-21 5.18641 	-0.0988125 	4.19283e-21 5.18679 	-0.0976087 	4.17419e-21 5.08974 	-0.0826106 	2.91823e-21 5.1921 	-0.0952108 	3.95448e-21 5.19227 	-0.0940167 	3.49201e-21 5.19248 	-0.0928297 	3.02997e-21 5.19275 	-0.0916496 	2.56838e-21 5.10358 	-0.0780059 	7.08397e-22 5.19733 	-0.0893327 	-1.15483e-21 5.19739 	-0.0881708 	-1.2908e-21 5.1975 	-0.0870158 	-1.42738e-21 5.19766 	-0.0858675 	-1.56455e-21 5.11626 	-0.0735229 	1.29944e-22 5.20164 	-0.0837 	2.24363e-21 5.20163 	-0.0826206 	2.40462e-21 5.20166 	-0.0815476 	2.56635e-21 5.20175 	-0.0804809 	2.72884e-21 5.12797 	-0.0694032 	1.14104e-21 5.20521 	-0.0784987 	6.10903e-22 5.20515 	-0.0775236 	2.65313e-22 5.20513 	-0.0765544 	-8.02853e-23 5.20516 	-0.075591 	-4.25892e-22 5.13881 	-0.06573 	-6.01368e-22 5.20807 	-0.0737466 	-8.48375e-22 5.20793 	-0.0728559 	-1.21057e-21 5.20783 	-0.0719705 	-1.57267e-21 5.20778 	-0.0710904 	-1.93467e-21 5.14869 	-0.0624019 	-2.3201e-21 5.21009 	-0.06937 	-3.08474e-21 5.20986 	-0.0685326 	-2.95496e-21 5.20967 	-0.0677003 	-2.82546e-21 5.20953 	-0.066873 	-2.69623e-21 5.15757 	-0.0592846 	-1.92757e-21 5.21127 	-0.0652309 	-2.71712e-21 5.21096 	-0.0644018 	-2.32534e-21 5.21068 	-0.0635777 	-1.9341e-21 5.21045 	-0.0627585 	-1.54338e-21 5.16548 	-0.0561697 	-2.11555e-22 5.2117 	-0.0611088 	-3.76378e-22 5.21131 	-0.0602517 	-6.41478e-22 5.21096 	-0.0593998 	-9.06528e-22 5.21066 	-0.058553 	-1.17153e-21 5.17247 	-0.