# vtk DataFile Version 2.0
track0
ASCII
DATASET POLYDATA
POINTS 12522 double
-0.0205 0.001 1e-05
-0.0202034 0.000998502 1e-05
-0.0199069 0.000997594 1e-05
-0.0196103 0.000997619 1e-05
-0.0193137 0.000998657 1e-05
-0.0190172 0.0010008 1e-05
-0.0187389 0.001006 1e-05
-0.0184608 0.00101536 1e-05
-0.0182263 0.00102682 1e-05
-0.0180805 0.00103584 1e-05
-0.0179349 0.00104618 1e-05
-0.0177893 0.00105787 1e-05
-0.0176439 0.00107092 1e-05
-0.0174976 0.00108544 1e-05
-0.0172058 0.0011167 1e-05
-0.0169146 0.00115264 1e-05
-0.0166239 0.00119336 1e-05
-0.0163341 0.0012392 1e-05
-0.0160387 0.00129193 1e-05
-0.0159124 0.00131742 1e-05
-0.0157863 0.00134413 1e-05
-0.0156605 0.00137212 1e-05
-0.0155351 0.00140146 1e-05
-0.0154624 0.00141936 1e-05
-0.0152975 0.00146123 1e-05
-0.0151335 0.00150625 1e-05
-0.0149704 0.00155466 1e-05
-0.0148085 0.00160664 1e-05
-0.0146381 0.00166581 1e-05
-0.0145463 0.00170066 1e-05
-0.0144553 0.00173728 1e-05
-0.014365 0.0017758 1e-05
-0.0142755 0.00181598 1e-05
-0.0142233 0.00184007 1e-05
-0.0140374 0.0019275 1e-05
-0.0138558 0.00202369 1e-05
-0.0136799 0.00212997 1e-05
-0.0135027 0.00223413 1e-05
-0.013402 0.00229098 1e-05
-0.0133803 0.00230287 1e-05
-0.0133586 0.00231483 1e-05
-0.013337 0.00232685 1e-05
-0.0133153 0.00233871 1e-05
-0.0132934 0.0023504 1e-05
-0.0131324 0.00243517 1e-05
-0.0129681 0.00251348 1e-05
-0.0128011 0.00258557 1e-05
-0.0126315 0.0026517 1e-05
-0.0122736 0.00277425 1e-05
-0.0122194 0.00278805 1e-05
-0.012165 0.0028013 1e-05
-0.0121105 0.00281402 1e-05
-0.012056 0.0028262 1e-05
-0.0120025 0.00283779 1e-05
-0.0117547 0.00289015 1e-05
-0.0115052 0.00293441 1e-05
-0.0112546 0.00297141 1e-05
-0.0110031 0.00300154 1e-05
-0.0107632 0.00302729 1e-05
-0.0105252 0.0030502 1e-05
-0.010287 0.00307047 1e-05
-0.0100486 0.00308803 1e-05
-0.00981 0.00310297 1e-05
-0.00957337 0.00311556 1e-05
-0.00934491 0.00312559 1e-05
-0.00911638 0.00313393 1e-05
-0.00888779 0.00314029 1e-05
-0.00865915 0.00314437 1e-05
-0.00843108 0.00314622 1e-05
-0.00821175 0.00314596 1e-05
-0.00799243 0.00314397 1e-05
-0.00777314 0.00314002 1e-05
-0.00755389 0.00313397 1e-05
-0.00733443 0.00312583 1e-05
-0.00712387 0.00311604 1e-05
-0.00691338 0.00310454 1e-05
-0.00670301 0.00309128 1e-05
-0.00649277 0.00307603 1e-05
-0.0062816 0.0030586 1e-05
-0.00607944 0.0030399 1e-05
-0.00587746 0.0030195 1e-05
-0.00567564 0.00299743 1e-05
-0.00547402 0.00297366 1e-05
-0.00527083 0.00294782 1e-05
-0.00507675 0.00292135 1e-05
-0.00488288 0.0028934 1e-05
-0.00468925 0.00286382 1e-05
-0.00449589 0.00283256 1e-05
-0.00430044 0.00279924 1e-05
-0.00427264 0.00279424 1e-05
-0.00424485 0.00278921 1e-05
-0.00421706 0.00278414 1e-05
-0.00418928 0.00277903 1e-05
-0.00416352 0.00277425 1e-05
-0.00400458 0.00274457 1e-05
-0.00384587 0.00271371 1e-05
-0.00368739 0.00268169 1e-05
-0.00352914 0.00264853 1e-05
-0.00336883 0.00261379 1e-05
-0.00318995 0.00257378 1e-05
-0.0030114 0.00253231 1e-05
-0.00283318 0.00248944 1e-05
-0.00265534 0.00244504 1e-05
-0.00247443 0.00239801 1e-05
-0.0023952 0.0023766 1e-05
-0.00231607 0.00235483 1e-05
-0.00223705 0.00233268 1e-05
-0.00215815 0.00231008 1e-05
-0.00209275 0.00229098 1e-05
-0.00199735 0.00226265 1e-05
-0.0019021 0.00223385 1e-05
-0.00180698 0.00220461 1e-05
-0.001712 0.00217491 1e-05
-0.00161577 0.00214417 1e-05
-0.0014509 0.0020903 1e-05
-0.0012866 0.00203472 1e-05
-0.00112287 0.00197748 1e-05
-0.000959975 0.0019179 1e-05
-0.000791418 0.00185351 1e-05
-0.000784688 0.00185082 1e-05
-0.000777959 0.00184813 1e-05
-0.000771233 0.00184543 1e-05
-0.000764508 0.00184273 1e-05
-0.000757898 0.00184007 1e-05
-0.000606319 0.00177892 1e-05
-0.000455555 0.00171578 1e-05
-0.000305588 0.00165077 1e-05
-0.000156491 0.00158379 1e-05
0 0.00150994 1e-05
3.54973e-05 0.00149236 1e-05
7.08822e-05 0.00147455 1e-05
0.000106155 0.00145652 1e-05
0.000141304 0.00143825 1e-05
0.000172167 0.00142194 1e-05
0.000243411 0.00138376 1e-05
0.000314158 0.00134467 1e-05
0.000384414 0.0013047 1e-05
0.000454163 0.00126385 1e-05
0.000528387 0.00121876 1e-05
0.000586252 0.00118224 1e-05
0.000643604 0.00114493 1e-05
0.000700439 0.00110683 1e-05
0.000756706 0.0010679 1e-05
0.000801341 0.001036 1e-05
0.000853249 0.000997938 1e-05
0.000904589 0.000959115 1e-05
0.000955367 0.00091956 1e-05
0.00100548 0.00087916 1e-05
0.00106088 0.000832762 1e-05
0.0010981 0.000800257 1e-05
0.00113488 0.000767258 1e-05
0.00117122 0.000733775 1e-05
0.00120713 0.000699826 1e-05
0.00123776 0.000670162 1e-05
0.00130756 0.000601146 1e-05
0.00137487 0.000529695 1e-05
0.00143969 0.000455972 1e-05
0.0015023 0.000380368 1e-05
0.00154558 0.000324918 1e-05
0.00155597 0.000311087 1e-05
0.00156626 0.000297185 1e-05
0.00157647 0.000283218 1e-05
0.00158659 0.000269192 1e-05
0.00159752 0.000253858 1e-05
0.00163322 0.000203086 1e-05
0.00166786 0.000151587 1e-05
0.00170144 9.93874e-05 1e-05
0.00173395 4.65167e-05 1e-05
0.00176161 0 1e-05
0.0018043 -7.31508e-05 1e-05
0.00184463 -0.000147627 1e-05
0.00188263 -0.000223322 1e-05
0.00191914 -0.000299745 1e-05
0.00194985 -0.000365683 1e-05
0.00198701 -0.000447275 1e-05
0.00202174 -0.000529932 1e-05
0.00205494 -0.000613214 1e-05
0.00208695 -0.000696957 1e-05
0.002115 -0.000773531 1e-05
0.00211966 -0.000786733 1e-05
0.00212428 -0.000799954 1e-05
0.00212886 -0.000813187 1e-05
0.00213341 -0.000826428 1e-05
0.00213833 -0.000840833 1e-05
0.00216457 -0.000918291 1e-05
0.0021899 -0.000996053 1e-05
0.00221431 -0.00107411 1e-05
0.0022378 -0.00115245 1e-05
0.00225954 -0.00122805 1e-05
0.00228832 -0.00132934 1e-05
0.00231548 -0.00143108 1e-05
0.002341 -0.00153324 1e-05
0.00236487 -0.0016358 1e-05
0.00238711 -0.00173434 1e-05
0.00241192 -0.00184713 1e-05
0.00243525 -0.00196023 1e-05
0.00245705 -0.00207364 1e-05
0.00247806 -0.0021872 1e-05
0.00249773 -0.00229812 1e-05
0.00251897 -0.00242369 1e-05
0.00253995 -0.00254931 1e-05
0.00256078 -0.00267495 1e-05
0.00258152 -0.00280061 1e-05
0.00260211 -0.00292596 1e-05
0.00261835 -0.00302858 1e-05
0.00263565 -0.00313102 1e-05
0.00265334 -0.0032334 1e-05
0.00267143 -0.00333571 1e-05
0.00268334 -0.00340146 1e-05
0.00269159 -0.00344626 1e-05
0.00269991 -0.00349104 1e-05
0.00270831 -0.00353582 1e-05
0.00271678 -0.00358057 1e-05
0.00272537 -0.00362547 1e-05
0.00275523 -0.00378135 1e-05
0.00278641 -0.00393698 1e-05
0.00281897 -0.00409232 1e-05
0.00285302 -0.00424735 1e-05
0.00288889 -0.00440512 1e-05
0.00292904 -0.00457888 1e-05
0.00297087 -0.00475224 1e-05
0.0030145 -0.00492516 1e-05
0.00305922 -0.0050978 1e-05
0.00310556 -0.00527417 1e-05
0.00313096 -0.00536942 1e-05
0.00315678 -0.00546456 1e-05
0.00318294 -0.00555961 1e-05
0.00320935 -0.00565459 1e-05
0.00323259 -0.00573729 1e-05
0.00326125 -0.00583835 1e-05
0.00329021 -0.00593933 1e-05
0.00331947 -0.00604023 1e-05
0.00334905 -0.00614103 1e-05
0.00337919 -0.00624267 1e-05
0.00344382 -0.00645842 1e-05
0.00350997 -0.00667372 1e-05
0.00357773 -0.00688851 1e-05
0.003647 -0.00710282 1e-05
0.00371945 -0.00732169 1e-05
0.00373278 -0.00736096 1e-05
0.00374617 -0.00740021 1e-05
0.00375963 -0.00743944 1e-05
0.00377313 -0.00747866 1e-05
0.00378611 -0.00751619 1e-05
0.00385598 -0.00771762 1e-05
0.00392725 -0.00791855 1e-05
0.00399999 -0.00811896 1e-05
0.00407419 -0.00831883 1e-05
0.00415148 -0.00852354 1e-05
0.00418997 -0.00862369 1e-05
0.0042288 -0.00872371 1e-05
0.00426797 -0.0088236 1e-05
0.00430744 -0.00892337 1e-05
0.00434393 -0.00901482 1e-05
0.00439538 -0.00914273 1e-05
0.00444734 -0.00927044 1e-05
0.0044998 -0.00939795 1e-05
0.00455279 -0.00952523 1e-05
0.00460716 -0.00965447 1e-05
0.00466694 -0.00979501 1e-05
0.00472736 -0.00993528 1e-05
0.00478843 -0.0100753 1e-05
0.00485017 -0.010215 1e-05
0.00490609 -0.0103398 1e-05
0.00494646 -0.0104289 1e-05
0.0049871 -0.0105178 1e-05
0.00502802 -0.0106066 1e-05
0.00506921 -0.0106953 1e-05
0.0051113 -0.0107851 1e-05
0.00518356 -0.010938 1e-05
0.00525674 -0.0110905 1e-05
0.00533087 -0.0112425 1e-05
0.00540597 -0.011394 1e-05
0.00547262 -0.0115262 1e-05
0.00551247 -0.0116041 1e-05
0.00555257 -0.0116818 1e-05
0.00559295 -0.0117594 1e-05
0.0056336 -0.0118368 1e-05
0.00567529 -0.0119155 1e-05
0.00574894 -0.0120533 1e-05
0.00582353 -0.0121906 1e-05
0.00589908 -0.0123274 1e-05
0.00597562 -0.0124636 1e-05
0.00604356 -0.0125824 1e-05
0.00609736 -0.012675 1e-05
0.00615164 -0.0127674 1e-05
0.00620639 -0.0128595 1e-05
0.00626164 -0.0129513 1e-05
0.00631914 -0.0130457 1e-05
0.0063791 -0.0131429 1e-05
0.00643964 -0.0132397 1e-05
0.00650078 -0.0133361 1e-05
0.00656253 -0.0134321 1e-05
0.00661893 -0.0135186 1e-05
0.00670578 -0.01365 1e-05
0.00679376 -0.0137806 1e-05
0.00688292 -0.0139104 1e-05
0.00697329 -0.0140394 1e-05
0.00707072 -0.0141757 1e-05
0.00709633 -0.0142107 1e-05
0.00712204 -0.0142457 1e-05
0.00714785 -0.0142806 1e-05
0.00717375 -0.0143154 1e-05
0.00719878 -0.0143488 1e-05
0.00731565 -0.0145042 1e-05
0.00743442 -0.014658 1e-05
0.00755513 -0.0148103 1e-05
0.00767781 -0.0149611 1e-05
0.00778313 -0.0150871 1e-05
0.00782053 -0.0151307 1e-05
0.00785809 -0.0151743 1e-05
0.00789583 -0.0152177 1e-05
0.00793374 -0.0152609 1e-05
0.00797315 -0.0153055 1e-05
0.00805293 -0.0153951 1e-05
0.00813346 -0.0154839 1e-05
0.00821474 -0.0155721 1e-05
0.00829677 -0.0156596 1e-05
0.00837203 -0.0157384 1e-05
0.00849073 -0.0158606 1e-05
0.00861087 -0.0159814 1e-05
0.00873247 -0.0161008 1e-05
0.00885556 -0.0162187 1e-05
0.00896551 -0.0163213 1e-05
0.00899053 -0.0163441 1e-05
0.00901561 -0.0163668 1e-05
0.00904074 -0.0163895 1e-05
0.00906594 -0.0164121 1e-05
0.00909188 -0.0164353 1e-05
0.00918623 -0.0165192 1e-05
0.00928135 -0.0166022 1e-05
0.00937726 -0.0166843 1e-05
0.00947393 -0.0167655 1e-05
0.0095636 -0.0168394 1e-05
0.00968415 -0.0169371 1e-05
0.00980581 -0.0170334 1e-05
0.00992855 -0.0171283 1e-05
0.0100523 -0.0172219 1e-05
0.0101663 -0.0173062 1e-05
0.0102378 -0.017358 1e-05
0.0103097 -0.0174093 1e-05
0.0103818 -0.0174602 1e-05
0.0104543 -0.0175106 1e-05
0.0105335 -0.0175651 1e-05
0.0105816 -0.0175977 1e-05
0.0106298 -0.0176301 1e-05
0.0106781 -0.0176623 1e-05
0.0107265 -0.0176943 1e-05
0.0107738 -0.0177253 1e-05
0.0108962 -0.0178049 1e-05
[...]
POINT_DATA 12522
 FIELD attributes 2
p 1 12522 float
-45.3104 -46.7037 -48.2063 -49.7311 -51.2803 -53.4248 -54.1253 -53.6137 -53.0452 -53.4082 -53.8358 -54.3293 -54.5949 -52.7781 -49.4063 -46.611 -44.1104 -43.5699 -43.0309 -42.8374 -42.6469 -42.1907 -41.7115 -41.4315 -41.2534 -41.1043 -40.7436 -39.9698 -39.1626 -38.765 -38.3736 -38.1178 -38.1547 -38.1814 -37.0792 -35.9359 -35.7163 -35.6082 -35.6435 -35.5028 -35.3643 -35.3415 -35.3186 -35.2958 -35.108 -34.9185 -34.7276 -34.8389 -35.0589 -35.0273 -34.9967 -34.967 -34.9982 -35.0356 -35.175 -35.3642 -35.574 -35.9302 -36.2779 -36.5934 -36.9086 -37.0783 -37.0924 -37.101 -37.1059 -37.0985 -37.0756 -37.0297 -36.9544 -36.9054 -36.8366 -36.7535 -36.6471 -36.5163 -36.4209 -36.3126 -36.1615 -35.9578 -35.7488 -35.5758 -35.4018 -35.2132 -35.0027 -34.7895 -34.6144 -34.3595 -34.0633 -33.765 -33.4354 -33.3859 -33.3392 -33.2932 -33.2473 -33.2047 -32.9229 -32.6403 -32.3571 -32.1158 -31.9451 -31.6254 -31.3064 -30.9816 -30.6449 -30.3028 -30.089 -29.9154 -29.8071 -29.6998 -29.6116 -29.4417 -29.2721 -29.103 -28.9635 -28.829 -28.6973 -28.5674 -28.2272 -27.8633 -27.4558 -27.44 -27.4243 -27.4177 -27.4117 -27.4059 -27.1213 -26.839 -26.6554 -26.9028 -27.1764 -27.1575 -27.1354 -27.0326 -26.9307 -26.8418 -27.0226 -27.216 -27.3688 -27.2085 -27.0506 -26.7859 -26.5323 -26.342 -26.1877 -26.0742 -26.0219 -25.9827 -25.9557 -25.9431 -25.9476 -25.8257 -25.7145 -25.6541 -25.7598 -25.8598 -25.7213 -25.6288 -25.8306 -26.1161 -26.5002 -26.5109 -26.5807 -26.7245 -26.87 -27.0303 -27.3772 -27.7517 -28.1535 -28.8717 -29.7751 -29.9795 -30.2174 -31.1356 -32.6182 -33.9073 -34.003 -34.622 -35.4672 -36.3275 -37.2832 -37.2998 -37.3803 -37.4718 -37.5637 -37.6641 -38.2572 -38.8618 -39.4778 -40.1269 -41.0142 -40.9522 -41.1713 -41.6824 -42.8249 -43.9948 -43.873 -43.7632 -44.2981 -45.4913 -46.6643 -46.978 -47.3051 -47.6418 -47.9794 -48.2057 -48.3008 -47.9746 -47.6439 -47.3085 -47.0896 -47.0104 -46.9311 -46.8515 -46.7716 -46.6233 -45.834 -44.9534 -44.0706 -43.188 -42.2903 -41.4162 -40.5395 -39.702 -38.8 -37.8746 -37.4871 -37.1153 -36.767 -36.4188 -36.1154 -35.7033 -35.2909 -34.8783 -34.5257 -34.1999 -33.5329 -32.8659 -32.2892 -31.7616 -31.226 -31.1308 -31.0356 -30.9672 -30.9025 -30.8405 -30.411 -29.9811 -29.5606 -29.1927 -28.8153 -28.6585 -28.5017 -28.3727 -28.2502 -28.1378 -27.9183 -27.6984 -27.4941 -27.339 -27.181 -27.0185 -26.8558 -26.7056 -26.5607 -26.4306 -26.3225 -26.2142 -26.1068 -26.001 -25.8934 -25.7289 -25.5638 -25.4144 -25.2762 -25.1548 -25.0569 -24.9588 -24.8713 -24.7937 -24.7144 -24.5789 -24.4426 -24.2924 -24.1249 -23.9771 -23.8778 -23.7781 -23.6618 -23.5372 -23.4081 -23.277 -23.1453 -23.0203 -22.9145 -22.8184 -22.6177 -22.4153 -22.2542 -22.1009 -21.9363 -21.8923 -21.8482 -21.8026 -21.7371 -21.6738 -21.5006 -21.3266 -21.0881 -20.7909 -20.5375 -20.4874 -20.4341 -20.3547 -20.2752 -20.1928 -20.0236 -19.8539 -19.6839 -19.5871 -19.5104 -19.2415 -18.971 -18.8271 -18.6841 -18.5908 -18.5371 -18.4932 -18.4661 -18.4388 -18.4108 -18.3064 -18.2012 -18.0952 -17.9199 -17.717 -17.6532 -17.5899 -17.4207 -17.1588 -16.9148 -16.8844 -16.8064 -16.6967 -16.587 -16.4676 -16.395 -16.3224 -16.2499 -16.2027 -16.2048 -15.9451 -15.7631 -15.5896 -15.5701 -15.5823 -15.3313 -15.0848 -15.0113 -14.9866 -15.0048 -14.8273 -14.7599 -14.7081 -14.656 -14.5973 -14.5795 -14.5616 -14.5436 -14.5228 -14.4599 -14.4398 -14.3705 -14.3006 -14.1739 -13.9302 -13.9731 -14.0164 -13.9134 -13.6685 -13.4308 -13.4768 -13.4903 -13.3653 -13.1905 -12.9585 -12.9965 -12.8783 -12.7605 -12.6432 -12.5109 -12.5135 -12.4988 -12.4841 -12.4694 -12.4543 -12.3571 -12.2602 -12.1636 -12.0673 -12.1111 -11.8696 -11.7639 -11.6586 -11.6402 -11.7331 -11.4948 -11.2565 -11.1846 -11.2791 -11.3728 -11.1403 -10.9076 -10.8397 -10.935 -11.0297 -10.8024 -10.6581 -10.6156 -10.6072 -10.7032 -10.4902 -10.4492 -10.4079 -10.3664 -10.3926 -10.2981 -10.271 -10.2438 -10.2164 -10.1862 -10.1739 -10.1616 -10.1493 -10.137 -10.0932 -10.0861 -10.0474 -10.0085 -9.96924 -9.79878 -9.89277 -9.85538 -9.81776 -9.75084 -9.5188 -9.64212 -9.67052 -9.6343 -9.48152 -9.25266 -9.37834 -9.49336 -9.45298 -9.22584 -8.99976 -9.12793 -9.25629 -9.20778 -8.98317 -8.75949 -8.89018 -9.02103 -8.97509 -8.75276 -8.53124 -8.66429 -8.76277 -8.70622 -8.53386 -8.31439 -8.44953 -8.48473 -8.43103 -8.32568 -8.10828 -8.24521 -8.22065 -8.16961 -8.11875 -7.91229 -8.01844 -7.96974 -7.9212 -7.87283 -7.72578 -7.77754 -7.73117 -7.68496 -7.63889 -7.54803 -7.55461 -7.51655 -7.4786 -7.44076 -7.39845 -7.39325 -7.38804 -7.38284 -7.37764 -7.37837 -7.33006 -7.28777 -7.24561 -7.20359 -7.21628 -7.12164 -7.08127 -7.04102 -7.0009 -7.06118 -6.92303 -6.88447 -6.84603 -6.80771 -6.91275 -6.73363 -6.69677 -6.66003 -6.62569 -6.77062 -6.57103 -6.51768 -6.48254 -6.48929 -6.63453 -6.43696 -6.3468 -6.31314 -6.35855 -6.50404 -6.30825 -6.18335 -6.15108 -6.23301 -6.37888 -6.18489 -6.02726 -5.99634 -6.11277 -6.25894 -6.06676 -5.87826 -5.85144 -5.9976 -6.14398 -5.95356 -5.76309 -5.74098 -5.88729 -6.03384 -5.84523 -5.65656 -5.63534 -5.78163 -5.92814 -5.74099 -5.55378 -5.53339 -5.67988 -5.82658 -5.64099 -5.45533 -5.43569 -5.58209 -5.72872 -5.54418 -5.35958 -5.34062 -5.48731 -5.63422 -5.45088 -5.26747 -5.24919 -5.39601 -5.54305 -5.36069 -5.19345 -5.18056 -5.30784 -5.45523 -5.27421 -5.12973 -5.11722 -5.22326 -5.37053 -5.19053 -5.06738 -5.0552 -5.14127 -5.28859 -5.10983 -5.00701 -4.99509 -5.06205 -5.20909 -5.03113 -4.94733 -4.93561 -4.98465 -5.13174 -4.95472 -4.88895 -4.8774 -4.90939 -5.05629 -4.87974 -4.83093 -4.81957 -4.83553 -4.98271 -4.8069 -4.77425 -4.76306 -4.76375 -4.91088 -4.73566 -4.71828 -4.70721 -4.69611 -4.84053 -4.67423 -4.66328 -4.65229 -4.64129 -4.77152 -4.61941 -4.60854 -4.59764 -4.58671 -4.70372 -4.56511 -4.55429 -4.54344 -4.53257 -4.63691 -4.51076 -4.49994 -4.4891 -4.47824 -4.57083 -4.45641 -4.4455 -4.43458 -4.42363 -4.5051 -4.40136 -4.39032 -4.37926 -4.36817 -4.43941 -4.34573 -4.33459 -4.32343 -4.31225 -4.37393 -4.28961 -4.27844 -4.26725 -4.25603 -4.3089 -4.23353 -4.22234 -4.21112 -4.19989 -4.24434 -4.17742 -4.16624 -4.15504 -4.14382 -4.18039 -4.12152 -4.1103 -4.09907 -4.08782 -4.11678 -4.06515 -4.0538 -4.04244 -4.03106 -4.05302 -4.00803 -3.99652 -3.98499 -3.97345 -3.98896 -3.95013 -3.93852 -3.92688 -3.91523 -3.92488 -3.89187 -3.8802 -3.86851 -3.85681 -3.86101 -3.83332 -3.82157 -3.8098 -3.79802 -3.79713 -3.77432 -3.76241 -3.75049 -3.73855 -3.73292 -3.71452 -3.70245 -3.69036 -3.67825 -3.6683 -3.65935 -3.65257 -3.64578 -3.63899 -3.63168 -3.62635 -3.62101 -3.61568 -3.61034 -3.60295 -3.59269 -3.58037 -3.56803 -3.55568 -3.53689 -3.53095 -3.51853 -3.50609 -3.49365 -3.47079 -3.46884 -3.45643 -3.444 -3.43157 -3.40515 -3.40684 -3.3945 -3.38215 -3.3698 -3.34025 -3.34511 -3.33271 -3.32029 -3.30787 -3.27537 -3.283 -3.27041 -3.25781 -3.2452 -3.20991 -3.22 -3.20728 -3.19456 -3.18182 -3.14416 -3.15652 -3.14387 -3.13122 -3.11855 -3.07905 -3.09331 -3.08061 -3.06791 -3.0552 -3.01404 -3.02981 -3.01686 -3.00389 -2.99092 -2.94809 -2.96503 -2.9518 -2.93857 -2.92533 -2.88108 -2.89897 -2.88568 -2.87239 -2.85909 -2.81396 -2.83259 -2.81931 -2.80601 -2.79272 -2.74703 -2.76608 -2.75255 -2.73901 -2.72547 -2.67914 -2.69821 -2.68429 -2.67037 -2.65644 -2.60959 -2.62846 -2.6143 -2.60013 -2.58595 -2.53906 -2.55759 -2.54325 -2.5289 -2.51455 -2.46786 -2.48579 -2.47124 -2.45669 -2.44214 -2.39586 -2.41308 -2.3985 -2.38393 -2.36934 -2.32387 -2.34015 -2.32549 -2.31082 -2.29615 -2.25169 -2.26679 -2.252 -2.2372 -2.2224 -2.17919 -2.19281 -2.17792 -2.16301 -2.14811 -2.10654 -2.1183 -2.10335 -2.08839 -2.07342 -2.03394 -2.04374 -2.02892 -2.0141 -1.99927 -1.96239 -1.96989 -1.95528 -1.94066 -1.92603 -1.8922 -1.89711 -1.88267 -1.86823 -1.85377 -1.82323 -1.82524 -1.81103 -1.79682 -1.78261 -1.75573 -1.75456 -1.74065 -1.72673 -1.71281 -1.68992 -1.68516 -1.67137 -1.65759 -1.64379 -1.625 -1.61634 -1.60264 -1.58894 -1.57523 -1.56073 -1.55904 -1.55657 -1.55409 -1.55162 -1.5493 -1.53811 -1.52691 -1.51571 -1.50451 -1.49628 -1.47973 -1.46618 -1.45262 -1.43907 -1.43228 -1.41201 -1.39855 -1.3851 -1.37164 -1.36883 -1.34462 -1.33118 -1.31775 -1.30432 -1.30554 -1.2774 -1.26407 -1.25073 -1.2374 -1.24273 -1.21066 -1.19731 -1.18397 -1.17063 -1.17987 -1.14353 -1.12993 -1.11633 -1.10274 -1.11579 -1.07482 -1.06074 -1.04667 -1.03259 -1.04945 -1.00362 -0.989089 -0.974558 -0.960026 -0.980917 -0.92996 -0.914858 -0.899756 -0.884655 -0.909552 -0.853132 -0.837337 -0.821544 -0.805753 -0.834768 -0.773133 -0.756772 -0.740413 -0.724057 -0.757122 -0.690266 -0.673388 -0.656509 -0.639631 -0.676819 -0.604693 -0.587036 -0.569377 -0.551714 -0.592631 -0.514753 -0.495987 -0.477215 -0.458439 -0.503004 -0.419458 -0.399651 -0.379839 -0.360023 -0.408285 -0.319351 -0.298953 -0.278554 -0.258152 -0.310687 -0.216889 -0.196256 -0.175626 -0.154998 -0.211943 -0.112996 -0.0921118 -0.0712393 -0.0503786 -0.111783 -0.0068937 0.0141991 0.0352659 0.056307 -0.0100063 0.101143 0.12198 0.142784 0.163556 0.091551 0.208183 0.228664 0.24913 0.269582 0.192878 0.316707 0.340228 0.363774 0.387346 0.310159 0.443946 0.475611 0.507333 0.539112 0.466387 0.608774 0.64813 0.687544 0.727014 0.658071 0.804938 0.847278 0.889653 0.932061 0.862813 1.01351 1.05567 1.09783 1.14 1.06641 1.22214 1.2632 1.30426 1.34531 1.26532 1.42736 1.468 1.50864 1.54927 1.46268 1.63209 1.67316 1.71423 1.75529 1.66223 1.83922 1.88035 1.92147 1.96159 1.86225 2.04032 2.08613 2.12703 2.16027 2.06173 2.23912 2.2918 2.33283 2.35963 2.26215 2.43881 2.49815 2.53917 2.55944 2.46248 2.63836 2.70407 2.74489 2.7586 2.66214 2.83747 2.9093 2.94975 2.95697 2.86091 3.0355 3.11316 3.15321 3.15407 3.05819 3.23172 3.31519 3.35526 3.35058 3.25556 3.42907 3.51849 3.55879 3.54888 3.45424 3.62889 3.72424 3.76466 3.74954 3.65442 3.83061 3.93192 3.97289 3.95342 3.8584 4.0359 4.14298 4.18491 4.16178 4.06737 4.24466 4.35652 4.39931 4.37319 4.28049 4.45745 4.5739 4.61761 4.58888 4.49842 4.67652 4.79851 4.84343 4.81174 4.72279 4.90252 5.03058 5.07682 5.04173 4.95383 5.13426 5.2681 5.31557 5.2771 5.19086 5.37135 5.51078 5.55946 5.51777 5.4338 5.61441 5.75971 5.80983 5.76517 5.68391 5.86587 6.01815 6.07006 6.02205 5.94297 6.12688 6.2869 6.34114 6.29011 6.21377 6.40039 6.56916 6.62618 6.57191 6.49832 6.6873 6.86504 6.92539 6.86848 6.79886 6.99093 7.17904 7.24336 7.18356 7.11838 7.31319 7.50871 7.57733 7.51857 7.45913 7.65695 7.85549 7.92969 7.87921 7.82805 8.03217 8.23702 8.31691 8.2715 8.22538 8.43377 8.64291 8.73361 8.70547 8.67659 8.90629 9.13676 9.23559 9.20245 9.16847 9.39839 9.62908 9.75201 9.768 9.78296 10.0758 10.3695 10.493 10.4609 10.427 10.651 10.8595 10.9976 11.0986 11.18 11.5406 11.749 11.7846 11.5979 11.2675 11.2227 11.1646 11.0842 10.9622 10.816 10.9074 10.954 10.9364 10.8459 10.7091 10.7835 10.8115 10.7752 10.6662 10.5124 10.5859 10.6162 10.5791 10.4645 10.3098 10.3992 10.4516 10.429 10.3221 10.1821 10.2895 10.365 10.3479 10.2264 10.0775 10.1673 10.24 10.2271 10.1172 9.99364 10.1026 10.2046 10.1883 10.0371 9.88439 9.96379 10.0446 10.0295 9.9216 9.81304 9.94146 10.0715 10.0416 9.85641 9.67063 9.71672 9.76428 9.74499 9.65937 9.5728 9.71697 9.86298 9.81507 9.57762 9.33969 9.31557 9.29286 9.27088 9.24852 9.22496 9.41438 9.606 9.5297 9.19242 8.85518 8.71262 8.57149 8.54441 8.62679 8.7076 8.99831 9.29183 9.17441 8.65813 8.14298 7.81768 7.49383 7.48125 7.75677 8.03322 8.53474 8.9721 8.75354 8.08395 7.28777 6.67453 6.27055 6.29652 6.68 7.28359 8.12832 8.44345 8.09397 7.43277 6.13853 5.00727 4.77208 4.8455 5.13382 6.32828 7.78405 7.47987 6.85361 6.24346 4.19827 2.55615 2.80017 3.07917 3.39017 4.82605 5.38994 3.94168 2.46203 1.75738 1.64123 1.53334 1.43346 1.34135 0