# vtk DataFile Version 2.0
track0
ASCII
DATASET POLYDATA
POINTS 10785 double
-0.0205 0.001 1e-05
-0.0204991 0.00100536 1e-05
-0.0204976 0.00101063 1e-05
-0.0204947 0.00101518 1e-05
-0.0204905 0.00101864 1e-05
-0.0204746 0.00102682 1e-05
-0.0201831 0.00105563 1e-05
-0.0203616 0.00128795 1e-05
-0.0204488 0.00141936 1e-05
-0.0201625 0.0014444 1e-05
-0.0201519 0.00173163 1e-05
-0.0202219 0.00184007 1e-05
-0.0200495 0.00193025 1e-05
-0.0200808 0.00212222 1e-05
-0.0201294 0.00229098 1e-05
-0.0200087 0.00238763 1e-05
-0.0199911 0.00254122 1e-05
-0.0200041 0.00269528 1e-05
-0.0199827 0.00277425 1e-05
-0.019869 0.00287784 1e-05
-0.0198179 0.00302292 1e-05
-0.0198054 0.00317623 1e-05
-0.0197599 0.00329221 1e-05
-0.0196347 0.00340323 1e-05
-0.0195485 0.00354672 1e-05
-0.0194776 0.00369829 1e-05
-0.0193909 0.00384148 1e-05
-0.0193841 0.00384734 1e-05
-0.0193107 0.00390806 1e-05
-0.0192438 0.00397589 1e-05
-0.019179 0.00404567 1e-05
-0.0191112 0.0041126 1e-05
-0.0190172 0.00419774 1e-05
-0.0189564 0.00424665 1e-05
-0.0188938 0.00429328 1e-05
-0.0188296 0.00433759 1e-05
-0.0187639 0.00437958 1e-05
-0.0186583 0.00444232 1e-05
-0.0184262 0.0045652 1e-05
-0.018185 0.00466941 1e-05
-0.0179369 0.00475557 1e-05
-0.0176828 0.0048219 1e-05
-0.0174976 0.00485345 1e-05
-0.0172058 0.00488417 1e-05
-0.0169124 0.00488591 1e-05
-0.0166199 0.00486354 1e-05
-0.0163297 0.00482033 1e-05
-0.0160387 0.00475623 1e-05
-0.0158293 0.00469344 1e-05
-0.0156237 0.00461959 1e-05
-0.0154221 0.00453502 1e-05
-0.0152234 0.00444399 1e-05
-0.0152201 0.00444232 1e-05
-0.0151037 0.00438402 1e-05
-0.0149901 0.00432046 1e-05
-0.0148796 0.00425157 1e-05
-0.0147715 0.00417907 1e-05
-0.0146381 0.00408376 1e-05
-0.0145772 0.00403648 1e-05
-0.0145172 0.0039881 1e-05
-0.0144582 0.00393861 1e-05
-0.0144001 0.003888 1e-05
-0.0143541 0.00384734 1e-05
-0.01423 0.00373631 1e-05
-0.0141124 0.00361838 1e-05
-0.0140024 0.00349339 1e-05
-0.0138983 0.00336341 1e-05
-0.0138438 0.00329221 1e-05
-0.0137666 0.00318862 1e-05
-0.0136969 0.00307983 1e-05
-0.0136336 0.00296725 1e-05
-0.0135741 0.0028526 1e-05
-0.0135369 0.00277425 1e-05
-0.0134938 0.0026776 1e-05
-0.0134578 0.00257807 1e-05
-0.0134259 0.00247718 1e-05
-0.0133985 0.00237496 1e-05
-0.0133805 0.00229098 1e-05
-0.0133654 0.0022008 1e-05
-0.0133563 0.00210981 1e-05
-0.0133526 0.00201846 1e-05
-0.0133548 0.00192705 1e-05
-0.0133633 0.00184007 1e-05
-0.013378 0.00175593 1e-05
-0.0134005 0.0016735 1e-05
-0.0134298 0.00159326 1e-05
-0.0134661 0.00151595 1e-05
-0.0135226 0.00141936 1e-05
-0.01358 0.00134085 1e-05
-0.0136483 0.00127163 1e-05
-0.0137224 0.00120864 1e-05
-0.013801 0.00115139 1e-05
-0.0139947 0.00102682 1e-05
-0.0141234 0.000957341 1e-05
-0.0142588 0.000902232 1e-05
-0.0143976 0.000855977 1e-05
-0.014537 0.000811771 1e-05
-0.0146381 0.000781384 1e-05
-0.0147218 0.000757221 1e-05
-0.014806 0.000734391 1e-05
-0.0148904 0.000712691 1e-05
-0.0149753 0.000693004 1e-05
-0.0151485 0.000660566 1e-05
-0.0153265 0.000637977 1e-05
-0.015505 0.000618813 1e-05
-0.0156837 0.000602313 1e-05
-0.0158626 0.000587808 1e-05
-0.0160387 0.000568109 1e-05
-0.016283 0.000518255 1e-05
-0.0165311 0.000493524 1e-05
-0.0167802 0.000482478 1e-05
-0.0170294 0.000475663 1e-05
-0.0174976 0.00040628 1e-05
-0.0174976 0.00040628 1e-05
-0.0174976 0.00040628 1e-05
-0.0174976 0.00040628 1e-05
-0.0174976 0.00040628 1e-05
-0.0174976 0.00040628 1e-05
-0.0174951 0.000388792 1e-05
-0.0174897 0.000371982 1e-05
-0.0174821 0.000356091 1e-05
-0.0174727 0.000341145 1e-05
-0.0174557 0.000318841 1e-05
-0.0173838 0.000255072 1e-05
-0.0172967 0.000214399 1e-05
-0.0172047 0.000186605 1e-05
-0.0171106 0.000167063 1e-05
-0.0160387 4.45501e-06 1e-05
-0.0160288 3.56401e-06 1e-05
-0.0160188 3.10857e-06 1e-05
-0.0160088 2.69494e-06 1e-05
-0.0159989 2.28131e-06 1e-05
-0.015944 0 1e-05
-0.0205 0.00367778 1e-05
-0.0203955 0.00371169 1e-05
-0.0203045 0.0037732 1e-05
-0.0202171 0.00383976 1e-05
-0.0201979 0.00384734 1e-05
-0.0199618 0.0039343 1e-05
-0.019766 0.00409241 1e-05
-0.0196201 0.00429748 1e-05
-0.0194752 0.00444232 1e-05
-0.0193836 0.00449614 1e-05
-0.0192962 0.00455662 1e-05
-0.0192132 0.00462284 1e-05
-0.0191277 0.00468594 1e-05
-0.0190172 0.00476141 1e-05
-0.018914 0.00482512 1e-05
-0.0188083 0.00488431 1e-05
-0.0187001 0.00493904 1e-05
-0.0185898 0.00498943 1e-05
-0.0183684 0.00508 1e-05
-0.0181942 0.00513499 1e-05
-0.018018 0.00518303 1e-05
-0.0178401 0.00522425 1e-05
-0.0176607 0.00525854 1e-05
-0.0174976 0.00528153 1e-05
-0.0172058 0.00530944 1e-05
-0.0169127 0.00531428 1e-05
-0.0166201 0.00529728 1e-05
-0.0163294 0.00526009 1e-05
-0.0160387 0.00520511 1e-05
-0.0159405 0.00518008 1e-05
-0.0158428 0.00515308 1e-05
-0.0157457 0.00512417 1e-05
-0.0156489 0.00509404 1e-05
-0.0156058 0.00508 1e-05
-0.0154122 0.00501579 1e-05
-0.0152221 0.00494213 1e-05
-0.015036 0.00485867 1e-05
-0.0148543 0.00476617 1e-05
-0.0146381 0.00464636 1e-05
-0.0145719 0.00460555 1e-05
-0.0145062 0.00456386 1e-05
-0.0144411 0.00452128 1e-05
-0.0143766 0.0044779 1e-05
-0.0143242 0.00444232 1e-05
-0.0141506 0.00432332 1e-05
-0.0139836 0.00419531 1e-05
-0.0138244 0.00405779 1e-05
-0.0136697 0.00391505 1e-05
-0.0135993 0.00384734 1e-05
-0.0135381 0.00378738 1e-05
-0.0134791 0.00372535 1e-05
-0.0134215 0.00366191 1e-05
-0.0133648 0.00359769 1e-05
-0.0132934 0.00351443 1e-05
-0.0132568 0.00346999 1e-05
-0.0132207 0.00342517 1e-05
-0.013185 0.00337999 1e-05
-0.0131498 0.00333442 1e-05
-0.0131177 0.00329221 1e-05
-0.0130396 0.00318862 1e-05
-0.0129634 0.0030836 1e-05
-0.01289 0.00297659 1e-05
-0.0128199 0.00286744 1e-05
-0.0127625 0.00277425 1e-05
-0.0127048 0.0026776 1e-05
-0.0126485 0.00258012 1e-05
-0.0125937 0.00248176 1e-05
-0.0125404 0.00238261 1e-05
-0.0124935 0.00229098 1e-05
-0.0124498 0.0022008 1e-05
-0.0124065 0.00211048 1e-05
-0.0123634 0.00202004 1e-05
-0.0123205 0.00192948 1e-05
-0.0122794 0.00184007 1e-05
-0.0122444 0.00175593 1e-05
-0.0122079 0.00167242 1e-05
-0.01217 0.00158949 1e-05
-0.0121307 0.00150726 1e-05
-0.0120864 0.00141936 1e-05
-0.0120696 0.00138714 1e-05
-0.0120516 0.00135561 1e-05
-0.0120324 0.00132473 1e-05
-0.0120122 0.00129458 1e-05
-0.0120025 0.00128131 1e-05
-0.011964 0.00123041 1e-05
-0.0119223 0.00118214 1e-05
-0.0118773 0.00113686 1e-05
-0.0118293 0.00109488 1e-05
-0.011739 0.00102682 1e-05
-0.0116235 0.000953567 1e-05
-0.0115 0.000894574 1e-05
-0.011372 0.000846348 1e-05
-0.0112411 0.000806533 1e-05
-0.0107632 0.000722418 1e-05
-0.0105252 0.000731114 1e-05
-0.0102871 0.00072676 1e-05
-0.010049 0.00072437 1e-05
-0.00981091 0.000723174 1e-05
-0.00957337 0.00072273 1e-05
-0.00934491 0.000732216 1e-05
-0.00911628 0.000728635 1e-05
-0.00888764 0.000726184 1e-05
-0.00865899 0.000724507 1e-05
-0.00843108 0.000723373 1e-05
-0.00821175 0.000732434 1e-05
-0.00799227 0.000728376 1e-05
-0.00777278 0.000725336 1e-05
-0.00755327 0.000723031 1e-05
-0.00733443 0.000721265 1e-05
-0.00712387 0.00072969 1e-05
-0.00691317 0.000725532 1e-05
-0.00670246 0.000722295 1e-05
-0.00649174 0.00071974 1e-05
-0.0062816 0.0007177 1e-05
-0.00607944 0.000725419 1e-05
-0.00587718 0.000721526 1e-05
-0.0056749 0.000718424 1e-05
-0.00547262 0.000715921 1e-05
-0.00527083 0.00071388 1e-05
-0.00507675 0.0007209 1e-05
-0.00488258 0.00071741 1e-05
-0.0046884 0.000714581 1e-05
-0.00449421 0.000712263 1e-05
-0.00430044 0.000710346 1e-05
-0.00411412 0.000716719 1e-05
-0.00392771 0.000713655 1e-05
-0.0037413 0.000711132 1e-05
-0.00355488 0.000709037 1e-05
-0.00336883 0.000707281 1e-05
-0.00318995 0.00071307 1e-05
-0.003011 0.000710381 1e-05
-0.00283204 0.000708143 1e-05
-0.00265308 0.000706266 1e-05
-0.00247443 0.000704682 1e-05
-0.0023027 0.000709967 1e-05
-0.0021309 0.00070763 1e-05
-0.0019591 0.000705674 1e-05
-0.0017873 0.000704027 1e-05
-0.00161577 0.000702634 1e-05
-0.0014509 0.000707524 1e-05
-0.00128597 0.000705553 1e-05
-0.00112104 0.000703911 1e-05
-0.000956097 0.000702541 1e-05
-0.000791418 0.000701397 1e-05
-0.000633135 0.000706017 1e-05
-0.000474793 0.000704334 1e-05
-0.000316448 0.000702954 1e-05
-0.0001581 0.000701825 1e-05
0 0.000700906 1e-05
0.000105677 0.000704043 1e-05
0.0002114 0.000703412 1e-05
0.000317122 0.000702922 1e-05
0.000422846 0.000702559 1e-05
0.000528387 0.000702309 1e-05
0.000634886 0.00070548 1e-05
0.000741432 0.000705203 1e-05
0.000847978 0.000704955 1e-05
0.000954524 0.000704732 1e-05
0.00106088 0.000704532 1e-05
0.00116821 0.000707422 1e-05
0.00127558 0.0007072 1e-05
0.00138294 0.000706985 1e-05
0.00149031 0.000706776 1e-05
0.00159752 0.000706575 1e-05
0.00170568 0.000709146 1e-05
0.00181387 0.000709063 1e-05
0.00192206 0.000709053 1e-05
0.00203026 0.00070911 1e-05
0.00213833 0.000709227 1e-05
0.00224733 0.000711865 1e-05
0.00235636 0.000712247 1e-05
0.00246539 0.000712742 1e-05
0.00257443 0.000713343 1e-05
0.00268334 0.00071404 1e-05
0.00279319 0.000717118 1e-05
0.00290308 0.00071817 1e-05
0.00301296 0.00071936 1e-05
0.00312285 0.000720678 1e-05
0.00323259 0.000722114 1e-05
0.00334329 0.000725959 1e-05
0.00345405 0.000727841 1e-05
0.0035648 0.000729886 1e-05
0.00367555 0.000732085 1e-05
0.00378611 0.000734425 1e-05
0.00389767 0.000739368 1e-05
0.00400931 0.000742285 1e-05
0.00412094 0.000745389 1e-05
0.00423256 0.000748671 1e-05
0.00434393 0.000752114 1e-05
0.00445636 0.000758468 1e-05
0.0045689 0.000762665 1e-05
0.00468142 0.000767071 1e-05
0.00479394 0.000771677 1e-05
0.00490609 0.00077646 1e-05
0.0050194 0.00078449 1e-05
0.00513283 0.000790518 1e-05
0.00524626 0.00079652 1e-05
0.00535968 0.000802749 1e-05
0.00547262 0.000809893 1e-05
0.00558681 0.000819838 1e-05
0.0057011 0.00082844 1e-05
0.00581545 0.000836404 1e-05
0.00592977 0.000844626 1e-05
0.00604356 0.000854422 1e-05
0.00615863 0.000866493 1e-05
0.00627378 0.000877805 1e-05
0.00638901 0.000888359 1e-05
0.00650419 0.000899336 1e-05
0.00661893 0.000911894 1e-05
0.0067349 0.000926239 1e-05
0.00685091 0.000940283 1e-05
0.00696695 0.000954029 1e-05
0.00708293 0.00096824 1e-05
0.00719878 0.000983567 1e-05
0.00731565 0.00100024 1e-05
0.00743252 0.00101692 1e-05
0.00754934 0.00103393 1e-05
[...]
POINT_DATA 10785
 FIELD attributes 2
p 1 10785 float
134.309 149.546 153.893 156.492 157.207 155.068 144.257 781.918 760.498 597.581 666.851 306.397 292.154 268.43 -38.8776 21.8664 114.437 -25.9727 -137.236 -46.268 126.121 -19.2997 -160.304 -93.8946 -34.9814 -60.5737 -202.068 -208.728 -190.601 -185.666 -201.565 -219.216 -245.036 -262.565 -281.238 -301.01 -300.62 -274.267 -319.951 -367.422 -380.394 -382.294 -388.368 -391.934 -395.273 -399.35 -382.02 -359.988 -343.427 -328.795 -307.599 -287.718 -287.402 -274.772 -263.141 -248.662 -233.593 -215.354 -207.53 -199.925 -192.546 -191.908 -192.439 -158.449 -126.601 -117.098 -125.392 -130.323 -95.3779 -71.4698 -63.2059 -62.1472 -71.9272 -42.8233 -35.4861 -28.4139 -21.6518 -24.806 -10.0775 -4.45942 0.766425 5.53229 2.48957 13.2806 15.6909 17.5347 18.7691 -5.00448 17.5351 16.6253 13.2345 0.462677 -78.3469 -75.0995 -86.7289 -127.33 -168.031 -197.49 -219.629 -241.807 -268.042 -302.475 -370.121 -425.824 -482.075 -538.737 -602.486 -672.196 -785.256 -897.326 -1010.7 -1152.82 -1422.19 -1422.19 -1422.19 -1422.19 -1422.19 -1422.19 -1420.65 -1417.41 -1412.85 -1407.31 -1400.77 -1351.83 -1300.03 -1248.16 -1196.78 -694.202 -689.64 -685.659 -682.204 -678.749 -659.692
118.091 117.987 93.2936 15.2046 3.91262 -4.36689 41.6038 -26.0609 -125.613 -121.811 -115.328 -129.186 -144.062 -164.049 -181.828 -200.83 -220.973 -217.451 -210.234 -229.694 -249.868 -268.508 -274.897 -282.439 -288.922 -300.336 -296.742 -286.893 -278.736 -274.983 -271.167 -264.062 -257.122 -254.089 -241.608 -230.597 -218.943 -201.303 -180.928 -174.69 -168.581 -163.51 -162.287 -161.344 -131.207 -100.819 -89.2915 -92.019 -93.6903 -76.1015 -65.0866 -60.1594 -55.283 -49.1093 -46.0863 -43.0879 -40.1152 -38.2113 -38.4998 -24.2608 -15.5524 -6.99461 -5.51395 -6.8273 8.64351 24.1603 30.5085 28.2012 25.9629 41.4307 52.6626 56.784 58.8285 55.6803 69.5435 72.1595 74.7572 77.3322 77.1234 80.6573 80.7922 80.9162 81.0287 81.0741 81.579 82.0753 82.5601 83.0307 79.3879 80.3406 80.6961 80.5522 74.8779 56.0788 51.887 45.7755 39.7672 33.8219 26.6902 23.59 19.2184 14.8964 10.6083 5.52891 4.62514 1.95684 -0.66191 -3.24494 -7.05454 -6.79919 -8.52846 -10.2116 -11.8604 -14.9175 -14.1615 -15.3167 -16.4335 -17.5212 -19.9816 -18.9131 -19.6306 -20.3172 -20.98 -22.9538 -21.674 -22.0946 -22.4906 -22.8671 -24.5224 -23.1611 -23.3605 -23.5403 -23.7044 -25.0726 -23.6148 -23.6567 -23.6825 -23.6951 -24.8986 -23.3827 -23.1366 -22.8781 -22.6093 -23.4392 -21.7387 -21.449 -21.1475 -20.8361 -21.7745 -20.2066 -20.521 -20.8282 -21.1291 -22.9111 -21.7477 -22.1237 -22.4982 -22.8716 -24.4958 -23.3145 -23.144 -22.9733 -22.8023 -23.6049 -22.5419 -22.1732 -21.8026 -21.4303 -21.7652 -20.9668 -20.6593 -20.3497 -20.0382 -20.2255 -19.5705 -19.2647 -18.9571 -18.6478 -18.7144 -18.025 -17.635 -17.2433 -16.85 -16.8167 -16.0211 -15.5563 -15.0897 -14.6215 -14.5942 -13.6815 -13.1762 -12.6691 -12.1603 -12.2551 -11.2851 -10.7119 -10.1883 -9.84972 -9.97471 -9.07045 -8.35555 -7.87943 -7.88602 -8.08917 -7.30471 -6.51761 -6.29626 -6.69823 -7.10506 -6.53622 -5.966 -6.06366 -6.73224 -7.43849 -7.17104 -7.3907 -7.8612 -8.33737 -9.24315 -9.33638 -9.7476 -10.1598 -10.573 -10.9488 -11.2868 -11.6252 -11.9641 -12.3033 -12.6457 -13.4274 -14.3947 -15.3619 -16.3558 -17.3977 -18.2505 -19.1035 -20.2118 -21.4827 -22.761 -23.7699 -24.8033 -25.8737 -26.9441 -28.2901 -28.905 -29.5206 -30.1363 -30.7521 -31.3658 -31.8585 -32.3512 -32.844 -33.3369 -33.7992 -34.7475 -35.8611 -36.9764 -38.0866 -39.1865 -40.0536 -40.9229 -41.9698 -43.0763 -44.1839 -45.0336 -45.8829 -46.722 -47.635 -48.6788 -49.4939 -50.2793 -51.0716 -51.8708 -52.6896 -52.7644 -52.8339 -52.9035 -52.9732 -53.0446 -53.7232 -54.4084 -55.1005 -55.7993 -56.4964 -57.0489 -57.7434 -58.4483 -59.162 -59.8798 -60.3679 -60.9105 -61.5493 -62.1928 -62.8447 -63.2843 -63.7359 -64.275 -64.8482 -65.4334 -65.821 -66.2224 -66.6628 -67.1745 -67.7 -68.0369 -68.3891 -68.7666 -69.2262 -69.7013 -69.9963 -70.3078 -70.6433 -71.0507 -71.4752 -71.7292 -72.0007 -72.2998 -72.652 -73.023 -73.228 -73.4512 -73.7128 -74.0173 -74.342 -74.4942 -74.6653 -74.8814 -75.1476 -75.4351 -75.5399 -75.669 -75.8306 -76.0314 -76.2758 -76.3298 -76.4154 -76.523 -76.6523 -76.8259 -76.8289 -76.8366 -76.8466 -76.859 -76.872 -76.9466 -77.0322 -77.1289 -77.2367 -77.2978 -77.3141 -77.3715 -77.4543 -77.5148 -77.5797 -77.5396 -77.5239 -77.4862 -77.4978 -77.5419 -77.4747 -77.4015 -77.3328 -77.276 -77.2386 -77.2533 -77.271 -77.2919 -77.2954 -77.2755 -77.1611 -77.1008 -77.0726 -76.9785 -76.907 -76.7572 -76.6041 -76.4347 -76.2877 -76.1856 -76.1847 -76.1844 -76.1846 -76.1686 -76.1479 -75.9533 -75.8175 -75.7073 -75.5249 -75.3673 -75.2398 -75.1175 -74.9633 -74.8184 -74.6961 -74.6384 -74.5874 -74.5412 -74.4392 -74.3425 -74.0946 -73.8778 -73.6088 -73.3631 -73.1814 -73.1742 -73.1673 -73.1588 -73.1452 -73.1319 -72.8454 -72.6014 -72.3942 -72.1997 -72.0321 -72.0075 -71.9832 -71.9583 -71.9331 -71.9087 -71.6184 -71.357 -71.1499 -71.0165 -70.9083 -70.8549 -70.8026 -70.76 -70.7259 -70.6936 -70.3807 -70.0931 -69.8778 -69.761 -69.6669 -69.5841 -69.5033 -69.4438 -69.4045 -69.3682 -69.0615 -68.7786 -68.5701 -68.4571 -68.3651 -68.2679 -68.1734 -68.106 -68.066 -68.0299 -67.7209 -67.4354 -67.2258 -67.1077 -67.0099 -66.9055 -66.8042 -66.7334 -66.6959 -66.6626 -66.3441 -66.0498 -65.8273 -65.6865 -65.565 -65.4605 -65.3591 -65.2878 -65.2522 -65.2207 -64.8778 -64.561 -64.3094 -64.1282 -63.9649 -63.8655 -63.7689 -63.6993 -63.6644 -63.6333 -63.2493 -62.8941 -62.5951 -62.354 -62.1278 -62.0416 -61.9575 -61.8932 -61.8568 -61.8234 -61.3654 -60.9401 -60.571 -60.2582 -59.9558 -59.8882 -59.822 -59.7685 -59.7353 -59.7039 -59.1453 -58.6246 -58.1608 -57.7528 -57.3466 -57.3051 -57.264 -57.2294 -57.2065 -57.1842 -56.491 -55.8421 -55.2498 -54.713 -54.1609 -54.155 -54.1492 -54.1439 -54.14 -54.1361 -53.297 -52.5222 -51.8021 -51.1381 -50.5699 -50.4719 -50.3743 -50.2586 -50.1307 -50.0013 -49.1537 -48.3429 -47.5208 -46.6541 -45.8682 -45.5565 -45.2475 -44.8884 -44.5188 -44.1367 -43.4195 -42.7175 -42.0211 -41.2818 -40.5803 -39.6488 -38.7284 -37.7504 -36.777 -35.7232 -35.3512 -34.9811 -34.6131 -34.2302 -33.8531 -32.2212 -30.6052 -28.9566 -27.2997 -25.706 -25.1586 -24.6085 -24.0348 -23.4621 -22.8696 -21.5302 -20.1959 -18.8667 -17.5113 -16.1764 -13.8757 -11.5794 -9.26121 -6.94978 -4.67658 -4.41974 -4.16267 -3.90491 -3.6472 -3.38667 -1.13142 1.12164 3.37242 5.60877 7.80761 10.6673 13.5146 16.3032 19.0909 21.9054 22.4128 22.9134 23.4044 23.8953 24.3894 26.8708 29.3527 31.8349 34.2787 36.6891 39.884 43.0773 46.1423 49.246 52.4791 53.5188 54.5302 55.4899 56.4475 57.3336 59.5546 61.7602 63.9495 66.054 68.1834 71.3399 74.3856 76.9098 79.3208 80.9031 81.0885 81.2729 81.4498 81.6067 81.7653 83.7118 85.4436 86.7402 87.5892 88.0624 88.0766 88.0862 88.0849 88.0783 88.0659 87.9424 87.6724 87.2593 85.7937 84.5988 83.7615 82.724 80.9625 79.0752 77.29 76.5966 75.5929 74.5495 73.4887 71.9321 71.2639 70.5912 69.9141 69.2327 68.891 66.7747 65.0623 63.3292 61.5817 60.9763 58.4064 56.61 55.0875 54.0916 53.6674 51.2895 49.1518 47.8353 47.3784 47.1074 44.9264 42.7097 41.5925 41.4108 41.248 39.2462 37.2154 36.1863 36.0726 35.9757 34.1306 32.2613 31.3107 31.232 31.1687 29.4606 27.732 26.8554 26.7994 26.7574 25.1786 23.5822 22.7814 22.7458 22.7228 21.2667 19.7956 19.0748 19.067 19.0704 17.7341 16.3851 15.7473 15.7738 15.8102 14.5877 13.3544 12.8008 12.8705 12.9491 11.8382 10.7182 10.2692 10.365 10.4892 9.48567 8.55253 8.18174 8.25294 8.42508 7.52482 6.77528 6.47541 6.52247 6.74137 5.93759 5.35958 5.12532 5.14754 5.40927 4.69384 4.27303 4.09787 4.09436 4.39342 3.75747 3.47791 3.35409 3.32349 3.65271 3.08684 2.93158 2.85066 2.7916 3.14333 2.63916 2.59173 2.54597 2.50003 2.82496 2.43505 2.41782 2.40041 2.38284 2.66215 2.37092 2.37636 2.38165 2.38677 2.62458 2.41643 2.43999 2.4634 2.48666 2.68766 2.54928 2.5874 2.62538 2.66321 2.83215 2.75156 2.80064 2.84958 2.89839 3.03888 3.00452 3.06053 3.11643 3.1722 3.28676 3.28799 3.34705 3.406 3.46485 3.55537 3.58329 3.64239 3.70139 3.7603 3.82881 3.84947 3.87959 3.90969 3.93977 3.9678 3.99539 4.02296 4.05051 4.07805 4.09834 4.16049 4.21546 4.27036 4.32517 4.35949 4.43206 4.48442 4.5367 4.58893 4.60968 4.68992 4.73907 4.78816 4.83719 4.8457 4.93078 4.97573 5.02063 5.06548 5.06233 5.14981 5.18998 5.2301 5.27017 5.25654 5.34515 5.38077 5.41636 5.45191 5.42943 5.51822 5.54968 5.58111 5.61251 5.58275 5.67084 5.69831 5.72575 5.75317 5.71713 5.80352 5.82732 5.85109 5.87484 5.83409 5.91876 5.93967 5.96057 5.98145 5.93746 6.02047 6.03923 6.05798 6.07671 6.03065 6.11175 6.1287 6.14564 6.16256 6.1153 6.19405 6.20961 6.22517 6.24072 6.19363 6.27061 6.28569 6.30076 6.31583 6.27003 6.34614 6.3617 6.37725 6.3928 6.349 6.42476 6.44106 6.45735 6.47364 6.43161 6.50589 6.52184 6.53779 6.55374 6.51253 6.58335 6.59707 6.6108 6.62453 6.58264 6.64893 6.66004 6.67115 6.68227 6.64004 6.70366 6.71415 6.72465 6.73514 6.69443 6.75756 6.76932 6.78108 6.79285 6.75493 6.81746 6.83002 6.84257 6.85513 6.81917 6.87898 6.89001 6.90105 6.91208 6.87573 6.93113 6.93906 6.94698 6.95492 6.91672 6.96793 6.9734 6.97887 6.98435 6.94533 6.99365 6.99769 7.00173 7.00578 6.96673 7.01231 7.01446 7.01661 7.01876 6.97876 7.02108 7.02096 7.02084 7.02073 6.97938 7.01889 7.01734 7.01579 7.01424 6.9725 7.00993 7.00755 7.00517 7.0028 6.96119 6.99664 6.99288 6.98912 6.98536 6.94296 6.9759 6.96982 6.96375 6.95768 6.91324 6.94312 6.93455 6.92599 6.91743 6.871 6.8979 6.88704 6.87617 6.86531 6.81737 6.84186 6.82915 6.81644 6.80373 6.75487 6.77879 6.76585 6.75291 6.73998 6.69147 6.71658 6.70468 6.69278 6.68089 6.6331 6.6588 6.64712 6.63545 6.62378 6.57529 6.60028 6.58778 6.57528 6.56278 6.51278 6.53691 6.52356 6.51022 6.49688 6.44581 6.46917 6.45466 6.44015 6.42564 6.37316 6.39553 6.37947 6.36341 6.34735 6.293 6.31481 6.29733 6.27985 6.26237 6.20568 6.2266 6.20689 6.18719 6.1675 6.10695 6.12547 6.10208 6.0787 6.05531 5.98969 6.00561 5.97873 5.95186 5.92499 5.85512 5.87034 5.84189 5.81344 5.78499 5.71254 5.72853 5.69904 5.66955 5.64007 5.56439 5.58008 5.54817 5.51628 5.48438 5.40391 5.41849 5.38348 5.34848 5.31349 5.22791 5.24201 5.20428 5.16655 5.12882 5.03849 5.05334 5.01376 4.97418 4.93461 4.83998 4.85679 4.81623 4.77569 4.73515 4.6364 4.6558 4.61375 4.57171 4.52968 4.42498 4.44605 4.40171 4.35739 4.31307 4.20203 4.2257 4.18016 4.13463 4.08911 3.97305 4.00157 3.95645 3.91134 3.86624 3.74607 3.78091 3.73736 3.69382 3.65029 3.52691 3.56925 3.52862 3.488 3.44739 3.3223 3.37357 3.33668 3.2998 3.26293 3.13669 3.19744 3.16496 3.13249 3.09798 2.97333 3.03998 3.01915 2.99352 2.96042 2.84361 2.91842 2.91252 2.89609 2.86645 2.75881 2.84266 2.85199 2.8448 2.81829 2.71925 2.81125 2.83574 2.83771 2.81433 2.72505 2.82607 2.8661 2.87733 2.85694 2.77699 2.88565 2.94009 2.95952 2.94124 2.87008 2.98468 3.05282 3.08071 3.06582 3.00571 3.12802 3.21057 3.24727 3.23572 3.18561 3.31402 3.40951 3.45432 3.44638 3.4067 3.54065 3.64866 3.70274 3.70086 3.67406 3.81561 3.93712 4.00097 4.00496 3.98978 4.13785 4.27146 4.34477 4.35522 4.35193 4.50674 4.652 4.73449 4.75111 4.75884 4.91976 5.07548 5.16531 5.18615 5.20252 5.36743 5.53125 5.62862 5.656 5.68304 5.85351 6.02364 6.13065 6.16965 6.2089 6.38495 6.56073 6.67889 6.73279 6.78683 6.96874 7.15051 7.28183 7.35439 7.42691 7.61653 7.80618 7.95247 8.04608 8.13937 8.33675 8.53437 8.69914 8.82242 8.945 9.15556 9.36662 9.55141 9.70645 9.86031 10.0835 10.3075 10.5199 10.7324 10.9429 11.2007 11.4592 11.6905 11.9197 12.1467 12.4239 12.6967 12.9481 13.2831 13.652 14.0821 14.4177 14.543 14.4532 14.3125 14.1399 13.9656 13.7529 13.3744 12.9935 12.58 12.1662 11.8381 11.5224 11.206 10.8752 10.5445 10.2929 10.0915 9.89017 9.70162 9.51304 9.36408 9.24246 9.12123 9.03667 8.95189 8.8771 8.8066 8.73665 8.71987 8.70271 8.67057 8.6222 8.57446 8.59081 8.60666 8.58798 8.53789 8.48846 8.50876 8.5285 8.50322 8.43917 8.37582 8.38335 8.3903 8.35165 8.27376 8.1966 8.18914 8.17674 8.12609 8.04307 7.95606 7.93611 7.90609 7.84683 7.76288 7.66972 7.64009 7.59623 7.53213 7.45121 7.35639 7.32155 7.26907 7.20405 7.12923 7.03604 6.99964 6.94116 6.87606 6.80741 6.71488 6.67646 6.60972 6.54208 6.47445 6.38206 6.33301 6.2592 6.18538 6.11157 6.01971 5.95435 5.87032 5.7863 5.70228 5.60748 5.52077 5.42308 5.32539 5.2277 5.12751 5.09694 5.06374 5.03054 4.99734 4.96111 4.88099 4.80088 4.72077 4.64065 4.55694 4.42696 4.29295 4.15895 4.02494 3.881 3.73424 3.5782 3.42217 3.26613 3.09492 2.93092 2.74513 2.55937 2.36934 2.15479 1.94958 1.7505 1.55484 1.3669 1.18522 1.01031 0.828471 0.604326 0.30306 0