# vtk DataFile Version 2.0
track0
ASCII
DATASET POLYDATA
POINTS 10785 double
-0.0205 0.001 1e-05
-0.0204991 0.00100536 1e-05
-0.0204976 0.00101063 1e-05
-0.0204947 0.00101518 1e-05
-0.0204905 0.00101864 1e-05
-0.0204746 0.00102682 1e-05
-0.0201831 0.00105563 1e-05
-0.0203616 0.00128795 1e-05
-0.0204488 0.00141936 1e-05
-0.0201625 0.0014444 1e-05
-0.0201519 0.00173163 1e-05
-0.0202219 0.00184007 1e-05
-0.0200495 0.00193025 1e-05
-0.0200808 0.00212222 1e-05
-0.0201294 0.00229098 1e-05
-0.0200087 0.00238763 1e-05
-0.0199911 0.00254122 1e-05
-0.0200041 0.00269528 1e-05
-0.0199827 0.00277425 1e-05
-0.019869 0.00287784 1e-05
-0.0198179 0.00302292 1e-05
-0.0198054 0.00317623 1e-05
-0.0197599 0.00329221 1e-05
-0.0196347 0.00340323 1e-05
-0.0195485 0.00354672 1e-05
-0.0194776 0.00369829 1e-05
-0.0193909 0.00384148 1e-05
-0.0193841 0.00384734 1e-05
-0.0193107 0.00390806 1e-05
-0.0192438 0.00397589 1e-05
-0.019179 0.00404567 1e-05
-0.0191112 0.0041126 1e-05
-0.0190172 0.00419774 1e-05
-0.0189564 0.00424665 1e-05
-0.0188938 0.00429328 1e-05
-0.0188296 0.00433759 1e-05
-0.0187639 0.00437958 1e-05
-0.0186583 0.00444232 1e-05
-0.0184262 0.0045652 1e-05
-0.018185 0.00466941 1e-05
-0.0179369 0.00475557 1e-05
-0.0176828 0.0048219 1e-05
-0.0174976 0.00485345 1e-05
-0.0172058 0.00488417 1e-05
-0.0169124 0.00488591 1e-05
-0.0166199 0.00486354 1e-05
-0.0163297 0.00482033 1e-05
-0.0160387 0.00475623 1e-05
-0.0158293 0.00469344 1e-05
-0.0156237 0.00461959 1e-05
-0.0154221 0.00453502 1e-05
-0.0152234 0.00444399 1e-05
-0.0152201 0.00444232 1e-05
-0.0151037 0.00438402 1e-05
-0.0149901 0.00432046 1e-05
-0.0148796 0.00425157 1e-05
-0.0147715 0.00417907 1e-05
-0.0146381 0.00408376 1e-05
-0.0145772 0.00403648 1e-05
-0.0145172 0.0039881 1e-05
-0.0144582 0.00393861 1e-05
-0.0144001 0.003888 1e-05
-0.0143541 0.00384734 1e-05
-0.01423 0.00373631 1e-05
-0.0141124 0.00361838 1e-05
-0.0140024 0.00349339 1e-05
-0.0138983 0.00336341 1e-05
-0.0138438 0.00329221 1e-05
-0.0137666 0.00318862 1e-05
-0.0136969 0.00307983 1e-05
-0.0136336 0.00296725 1e-05
-0.0135741 0.0028526 1e-05
-0.0135369 0.00277425 1e-05
-0.0134938 0.0026776 1e-05
-0.0134578 0.00257807 1e-05
-0.0134259 0.00247718 1e-05
-0.0133985 0.00237496 1e-05
-0.0133805 0.00229098 1e-05
-0.0133654 0.0022008 1e-05
-0.0133563 0.00210981 1e-05
-0.0133526 0.00201846 1e-05
-0.0133548 0.00192705 1e-05
-0.0133633 0.00184007 1e-05
-0.013378 0.00175593 1e-05
-0.0134005 0.0016735 1e-05
-0.0134298 0.00159326 1e-05
-0.0134661 0.00151595 1e-05
-0.0135226 0.00141936 1e-05
-0.01358 0.00134085 1e-05
-0.0136483 0.00127163 1e-05
-0.0137224 0.00120864 1e-05
-0.013801 0.00115139 1e-05
-0.0139947 0.00102682 1e-05
-0.0141234 0.000957341 1e-05
-0.0142588 0.000902232 1e-05
-0.0143976 0.000855977 1e-05
-0.014537 0.000811771 1e-05
-0.0146381 0.000781384 1e-05
-0.0147218 0.000757221 1e-05
-0.014806 0.000734391 1e-05
-0.0148904 0.000712691 1e-05
-0.0149753 0.000693004 1e-05
-0.0151485 0.000660566 1e-05
-0.0153265 0.000637977 1e-05
-0.015505 0.000618813 1e-05
-0.0156837 0.000602313 1e-05
-0.0158626 0.000587808 1e-05
-0.0160387 0.000568109 1e-05
-0.016283 0.000518255 1e-05
-0.0165311 0.000493524 1e-05
-0.0167802 0.000482478 1e-05
-0.0170294 0.000475663 1e-05
-0.0174976 0.00040628 1e-05
-0.0174976 0.00040628 1e-05
-0.0174976 0.00040628 1e-05
-0.0174976 0.00040628 1e-05
-0.0174976 0.00040628 1e-05
-0.0174976 0.00040628 1e-05
-0.0174951 0.000388792 1e-05
-0.0174897 0.000371982 1e-05
-0.0174821 0.000356091 1e-05
-0.0174727 0.000341145 1e-05
-0.0174557 0.000318841 1e-05
-0.0173838 0.000255072 1e-05
-0.0172967 0.000214399 1e-05
-0.0172047 0.000186605 1e-05
-0.0171106 0.000167063 1e-05
-0.0160387 4.45501e-06 1e-05
-0.0160288 3.56401e-06 1e-05
-0.0160188 3.10857e-06 1e-05
-0.0160088 2.69494e-06 1e-05
-0.0159989 2.28131e-06 1e-05
-0.015944 0 1e-05
-0.0205 0.00367778 1e-05
-0.0203955 0.00371169 1e-05
-0.0203045 0.0037732 1e-05
-0.0202171 0.00383976 1e-05
-0.0201979 0.00384734 1e-05
-0.0199618 0.0039343 1e-05
-0.019766 0.00409241 1e-05
-0.0196201 0.00429748 1e-05
-0.0194752 0.00444232 1e-05
-0.0193836 0.00449614 1e-05
-0.0192962 0.00455662 1e-05
-0.0192132 0.00462284 1e-05
-0.0191277 0.00468594 1e-05
-0.0190172 0.00476141 1e-05
-0.018914 0.00482512 1e-05
-0.0188083 0.00488431 1e-05
-0.0187001 0.00493904 1e-05
-0.0185898 0.00498943 1e-05
-0.0183684 0.00508 1e-05
-0.0181942 0.00513499 1e-05
-0.018018 0.00518303 1e-05
-0.0178401 0.00522425 1e-05
-0.0176607 0.00525854 1e-05
-0.0174976 0.00528153 1e-05
-0.0172058 0.00530944 1e-05
-0.0169127 0.00531428 1e-05
-0.0166201 0.00529728 1e-05
-0.0163294 0.00526009 1e-05
-0.0160387 0.00520511 1e-05
-0.0159405 0.00518008 1e-05
-0.0158428 0.00515308 1e-05
-0.0157457 0.00512417 1e-05
-0.0156489 0.00509404 1e-05
-0.0156058 0.00508 1e-05
-0.0154122 0.00501579 1e-05
-0.0152221 0.00494213 1e-05
-0.015036 0.00485867 1e-05
-0.0148543 0.00476617 1e-05
-0.0146381 0.00464636 1e-05
-0.0145719 0.00460555 1e-05
-0.0145062 0.00456386 1e-05
-0.0144411 0.00452128 1e-05
-0.0143766 0.0044779 1e-05
-0.0143242 0.00444232 1e-05
-0.0141506 0.00432332 1e-05
-0.0139836 0.00419531 1e-05
-0.0138244 0.00405779 1e-05
-0.0136697 0.00391505 1e-05
-0.0135993 0.00384734 1e-05
-0.0135381 0.00378738 1e-05
-0.0134791 0.00372535 1e-05
-0.0134215 0.00366191 1e-05
-0.0133648 0.00359769 1e-05
-0.0132934 0.00351443 1e-05
-0.0132568 0.00346999 1e-05
-0.0132207 0.00342517 1e-05
-0.013185 0.00337999 1e-05
-0.0131498 0.00333442 1e-05
-0.0131177 0.00329221 1e-05
-0.0130396 0.00318862 1e-05
-0.0129634 0.0030836 1e-05
-0.01289 0.00297659 1e-05
-0.0128199 0.00286744 1e-05
-0.0127625 0.00277425 1e-05
-0.0127048 0.0026776 1e-05
-0.0126485 0.00258012 1e-05
-0.0125937 0.00248176 1e-05
-0.0125404 0.00238261 1e-05
-0.0124935 0.00229098 1e-05
-0.0124498 0.0022008 1e-05
-0.0124065 0.00211048 1e-05
-0.0123634 0.00202004 1e-05
-0.0123205 0.00192948 1e-05
-0.0122794 0.00184007 1e-05
-0.0122444 0.00175593 1e-05
-0.0122079 0.00167242 1e-05
-0.01217 0.00158949 1e-05
-0.0121307 0.00150726 1e-05
-0.0120864 0.00141936 1e-05
-0.0120696 0.00138714 1e-05
-0.0120516 0.00135561 1e-05
-0.0120324 0.00132473 1e-05
-0.0120122 0.00129458 1e-05
-0.0120025 0.00128131 1e-05
-0.011964 0.00123041 1e-05
-0.0119223 0.00118214 1e-05
-0.0118773 0.00113686 1e-05
-0.0118293 0.00109488 1e-05
-0.011739 0.00102682 1e-05
-0.0116235 0.000953567 1e-05
-0.0115 0.000894574 1e-05
-0.011372 0.000846348 1e-05
-0.0112411 0.000806533 1e-05
-0.0107632 0.000722418 1e-05
-0.0105252 0.000731114 1e-05
-0.0102871 0.00072676 1e-05
-0.010049 0.00072437 1e-05
-0.00981091 0.000723174 1e-05
-0.00957337 0.00072273 1e-05
-0.00934491 0.000732216 1e-05
-0.00911628 0.000728635 1e-05
-0.00888764 0.000726184 1e-05
-0.00865899 0.000724507 1e-05
-0.00843108 0.000723373 1e-05
-0.00821175 0.000732434 1e-05
-0.00799227 0.000728376 1e-05
-0.00777278 0.000725336 1e-05
-0.00755327 0.000723031 1e-05
-0.00733443 0.000721265 1e-05
-0.00712387 0.00072969 1e-05
-0.00691317 0.000725532 1e-05
-0.00670246 0.000722295 1e-05
-0.00649174 0.00071974 1e-05
-0.0062816 0.0007177 1e-05
-0.00607944 0.000725419 1e-05
-0.00587718 0.000721526 1e-05
-0.0056749 0.000718424 1e-05
-0.00547262 0.000715921 1e-05
-0.00527083 0.00071388 1e-05
-0.00507675 0.0007209 1e-05
-0.00488258 0.00071741 1e-05
-0.0046884 0.000714581 1e-05
-0.00449421 0.000712263 1e-05
-0.00430044 0.000710346 1e-05
-0.00411412 0.000716719 1e-05
-0.00392771 0.000713655 1e-05
-0.0037413 0.000711132 1e-05
-0.00355488 0.000709037 1e-05
-0.00336883 0.000707281 1e-05
-0.00318995 0.00071307 1e-05
-0.003011 0.000710381 1e-05
-0.00283204 0.000708143 1e-05
-0.00265308 0.000706266 1e-05
-0.00247443 0.000704682 1e-05
-0.0023027 0.000709967 1e-05
-0.0021309 0.00070763 1e-05
-0.0019591 0.000705674 1e-05
-0.0017873 0.000704027 1e-05
-0.00161577 0.000702634 1e-05
-0.0014509 0.000707524 1e-05
-0.00128597 0.000705553 1e-05
-0.00112104 0.000703911 1e-05
-0.000956097 0.000702541 1e-05
-0.000791418 0.000701397 1e-05
-0.000633135 0.000706017 1e-05
-0.000474793 0.000704334 1e-05
-0.000316448 0.000702954 1e-05
-0.0001581 0.000701825 1e-05
0 0.000700906 1e-05
0.000105677 0.000704043 1e-05
0.0002114 0.000703412 1e-05
0.000317122 0.000702922 1e-05
0.000422846 0.000702559 1e-05
0.000528387 0.000702309 1e-05
0.000634886 0.00070548 1e-05
0.000741432 0.000705203 1e-05
0.000847978 0.000704955 1e-05
0.000954524 0.000704732 1e-05
0.00106088 0.000704532 1e-05
0.00116821 0.000707422 1e-05
0.00127558 0.0007072 1e-05
0.00138294 0.000706985 1e-05
0.00149031 0.000706776 1e-05
0.00159752 0.000706575 1e-05
0.00170568 0.000709146 1e-05
0.00181387 0.000709063 1e-05
0.00192206 0.000709053 1e-05
0.00203026 0.00070911 1e-05
0.00213833 0.000709227 1e-05
0.00224733 0.000711865 1e-05
0.00235636 0.000712247 1e-05
0.00246539 0.000712742 1e-05
0.00257443 0.000713343 1e-05
0.00268334 0.00071404 1e-05
0.00279319 0.000717118 1e-05
0.00290308 0.00071817 1e-05
0.00301296 0.00071936 1e-05
0.00312285 0.000720678 1e-05
0.00323259 0.000722114 1e-05
0.00334329 0.000725959 1e-05
0.00345405 0.000727841 1e-05
0.0035648 0.000729886 1e-05
0.00367555 0.000732085 1e-05
0.00378611 0.000734425 1e-05
0.00389767 0.000739368 1e-05
0.00400931 0.000742285 1e-05
0.00412094 0.000745389 1e-05
0.00423256 0.000748671 1e-05
0.00434393 0.000752114 1e-05
0.00445636 0.000758468 1e-05
0.0045689 0.000762665 1e-05
0.00468142 0.000767071 1e-05
0.00479394 0.000771677 1e-05
0.00490609 0.00077646 1e-05
0.0050194 0.00078449 1e-05
0.00513283 0.000790518 1e-05
0.00524626 0.00079652 1e-05
0.00535968 0.000802749 1e-05
0.00547262 0.000809893 1e-05
0.00558681 0.000819838 1e-05
0.0057011 0.00082844 1e-05
0.00581545 0.000836404 1e-05
0.00592977 0.000844626 1e-05
0.00604356 0.000854422 1e-05
0.00615863 0.000866493 1e-05
0.00627378 0.000877805 1e-05
0.00638901 0.000888359 1e-05
0.00650419 0.000899336 1e-05
0.00661893 0.000911894 1e-05
0.0067349 0.000926239 1e-05
0.00685091 0.000940283 1e-05
0.00696695 0.000954029 1e-05
0.00708293 0.00096824 1e-05
0.00719878 0.000983567 1e-05
0.00731565 0.00100024 1e-05
0.00743252 0.00101692 1e-05
0.00754934 0.00103393 1e-05
[...]
POINT_DATA 10785
 FIELD attributes 1
U 3 10785 float
1.13304 	6.39884 	0 1.59193 	5.97925 	0 3.06071 	4.6599 	0 4.29076 	3.52875 	0 5.18162 	2.68005 	0 7.15412 	0.707101 	0 -4.2249 	5.50162 	0 -5.18637 	7.81105 	0 7.56531 	0.661804 	0 0.171696 	4.66626 	0 -9.04904 	14.0256 	0 5.93248 	3.10457 	0 -2.52794 	15.5165 	0 -6.42008 	22.2984 	0 7.16732 	5.74119 	0 1.97874 	17.2213 	0 -2.24821 	26.6787 	0 4.29342 	15.8509 	0 9.07779 	8.27024 	0 6.22549 	17.6658 	0 2.39252 	29.3753 	0 7.49047 	19.1148 	0 11.9526 	10.597 	0 10.9795 	18.2854 	0 10.8664 	23.2127 	0 12.8659 	21.266 	0 16.0845 	13.7044 	0 16.2332 	13.4318 	0 16.3939 	16.6289 	0 16.8112 	18.1004 	0 17.5805 	17.3604 	0 18.3624 	16.6187 	0 19.4189 	15.6302 	0 20.1851 	15.0463 	0 20.9599 	14.4651 	0 21.742 	13.8872 	0 22.0877 	13.1233 	0 22.0719 	11.6836 	0 24.2733 	10.4907 	0 26.3549 	9.15206 	0 27.0765 	7.06595 	0 27.2311 	4.63922 	0 27.3579 	2.88014 	0 28.0774 	0.166479 	0 28.3352 	-2.16637 	0 28.2628 	-4.20835 	0 27.2055 	-5.99313 	0 25.8116 	-7.7411 	0 25.2028 	-9.04926 	0 24.5631 	-10.3079 	0 23.3556 	-10.7011 	0 22.1379 	-11.0703 	0 22.117 	-11.0762 	0 21.4892 	-12.0212 	0 20.8647 	-13.0121 	0 20.0262 	-13.4269 	0 19.1166 	-13.6582 	0 17.9693 	-13.9625 	0 17.5327 	-14.1398 	0 17.0948 	-14.3203 	0 16.6556 	-14.504 	0 16.3235 	-14.4529 	0 16.0747 	-14.3783 	0 14.8196 	-14.8646 	0 13.5224 	-15.3563 	0 12.333 	-15.398 	0 11.4606 	-14.9756 	0 10.9867 	-14.7481 	0 9.6597 	-15.0837 	0 8.54855 	-15.1966 	0 7.77478 	-14.975 	0 6.96152 	-14.6567 	0 6.36938 	-14.2907 	0 5.15952 	-14.2856 	0 4.41482 	-13.9486 	0 3.64808 	-13.6218 	0 2.85813 	-13.307 	0 2.16887 	-12.9677 	0 1.26028 	-12.6078 	0 0.499794 	-12.1975 	0 -0.291286 	-11.8012 	0 -1.11336 	-11.4222 	0 -1.93411 	-11.0393 	0 -2.86932 	-10.5422 	0 -3.68248 	-10.0788 	0 -4.53065 	-9.64467 	0 -5.40908 	-9.24458 	0 -6.41947 	-8.78207 	0 -8.00466 	-8.11087 	0 -8.97608 	-7.6332 	0 -9.92647 	-7.22803 	0 -10.7172 	-6.89336 	0 -11.6248 	-6.27653 	0 -13.1422 	-5.34689 	0 -14.0334 	-4.67903 	0 -13.1738 	-4.17784 	0 -12.3565 	-3.71268 	0 -11.7981 	-3.40373 	0 -12.399 	-3.36451 	0 -13.0321 	-3.34953 	0 -13.8498 	-3.21075 	0 -15.0339 	-2.8163 	0 -17.5186 	-2.22262 	0 -18.2272 	-1.95756 	0 -19.2682 	-1.77904 	0 -20.567 	-1.66778 	0 -19.9117 	-2.22699 	0 -16.3475 	-3.33609 	0 -24.5119 	-2.44338 	0 -37.1353 	-1.64696 	0 -49.5357 	-1.35438 	0 -35.3552 	-5.2396 	0 1.81137 	-13.0836 	0 1.81137 	-13.0836 	0 1.81137 	-13.0836 	0 1.81137 	-13.0836 	0 1.81137 	-13.0836 	0 1.81137 	-13.0836 	0 4.21249 	-13.1211 	0 6.34291 	-13.1077 	0 8.20728 	-13.0534 	0 9.83546 	-12.9675 	0 14.8277 	-13.1454 	0 23.078 	-10.7772 	0 30.004 	-9.06271 	0 38.0125 	-7.8923 	0 46.6084 	-7.07055 	0 0.354122 	-0.0317945 	0 1.18894 	-0.0544029 	0 1.49327 	-0.0620444 	0 1.29457 	-0.0537887 	0 1.09588 	-0.045533 	0 0 	0 	0
9.8331 	3.19111 	0 9.65868 	6.52577 	0 10.0784 	7.67553 	0 11.8162 	4.6811 	0 12.0611 	4.4415 	0 12.963 	10.4682 	0 13.4055 	18.8453 	0 15.3413 	15.3343 	0 17.3404 	10.1871 	0 17.8533 	12.3618 	0 18.3304 	14.6072 	0 18.9084 	13.9583 	0 19.5038 	13.3191 	0 20.2746 	12.5275 	0 21.1501 	11.8336 	0 22.0492 	11.1568 	0 22.9696 	10.4976 	0 23.0573 	9.43004 	0 23.1851 	7.321 	0 24.2111 	6.59929 	0 25.2174 	5.84262 	0 26.0674 	4.98296 	0 26.0992 	3.67854 	0 26.1685 	2.5027 	0 26.779 	0.442493 	0 27.5069 	-1.5977 	0 27.2079 	-3.48069 	0 26.2668 	-4.96847 	0 25.3069 	-6.44792 	0 25.1433 	-6.95258 	0 24.9604 	-7.42911 	0 24.5405 	-7.64067 	0 24.1225 	-7.8494 	0 23.9361 	-7.94155 	0 23.2963 	-9.02466 	0 22.7013 	-10.1832 	0 22.014 	-11.2054 	0 20.8987 	-11.5798 	0 19.5684 	-12.0606 	0 19.2608 	-12.23 	0 18.9555 	-12.4025 	0 18.6635 	-12.5384 	0 18.4194 	-12.5136 	0 18.2215 	-12.4938 	0 17.0634 	-13.0786 	0 15.8976 	-13.727 	0 14.9659 	-13.8167 	0 14.1132 	-13.563 	0 13.7177 	-13.4462 	0 13.0582 	-13.716 	0 12.5283 	-13.808 	0 12.1206 	-13.7324 	0 11.7108 	-13.6607 	0 11.1834 	-13.5739 	0 10.9389 	-13.5536 	0 10.6931 	-13.5349 	0 10.446 	-13.5178 	0 10.2299 	-13.4749 	0 10.093 	-13.383 	0 9.61184 	-13.2473 	0 8.93888 	-13.0379 	0 8.24963 	-12.8355 	0 7.70331 	-12.5161 	0 7.29037 	-12.2067 	0 6.90437 	-11.9485 	0 6.51228 	-11.6939 	0 6.09389 	-11.3331 	0 5.55629 	-10.8632 	0 5.0516 	-10.4361 	0 4.82743 	-10.0498 	0 4.60563 	-9.66261 	0 4.38875 	-9.27367 	0 4.06677 	-8.85586 	0 3.48735 	-8.37453 	0 3.48147 	-7.95565 	0 3.40314 	-7.464 	0 3.33248 	-6.97156 	0 3.27094 	-6.47831 	0 3.06016 	-5.88078 	0 3.2318 	-5.65367 	0 3.37774 	-5.45474 	0 3.52972 	-5.25751 	0 3.68782 	-5.06232 	0 3.76211 	-4.97513 	0 3.98621 	-4.61019 	0 4.22158 	-4.25162 	0 4.46773 	-3.90141 	0 4.72377 	-3.56156 	0 5.30726 	-3.36466 	0 6.47111 	-3.0928 	0 7.55419 	-2.84569 	0 8.57916 	-2.60975 	0 10.238 	-1.8019 	0 15.2526 	0.55738 	0 15.3132 	-0.280007 	0 16.1286 	-0.161896 	0 16.8962 	-0.0848985 	0 17.6349 	-0.0328965 	0 18.8672 	0.783324 	0 18.7334 	-0.293349 	0 19.2675 	-0.206558 	0 19.7765 	-0.145056 	0 20.2685 	-0.100894 	0 21.1814 	0.875112 	0 20.9494 	-0.387401 	0 21.3439 	-0.295538 	0 21.7172 	-0.228075 	0 22.0752 	-0.178181 	0 22.789 	0.911874 	0 22.5246 	-0.444517 	0 22.8393 	-0.350895 	0 23.1354 	-0.280514 	0 23.4178 	-0.227357 	0 24.0065 	0.916639 	0 23.7298 	-0.456689 	0 23.9894 	-0.367911 	0 24.2332 	-0.299836 	0 24.465 	-0.247458 	0 24.9744 	0.903351 	0 24.6881 	-0.443753 	0 24.9062 	-0.362876 	0 25.1109 	-0.299746 	0 25.3055 	-0.250343 	0 25.7646 	0.8813 	0 25.4704 	-0.418693 	0 25.6545 	-0.347142 	0 25.8275 	-0.290369 	0 25.992 	-0.245234 	0 26.4158 	0.854888 	0 26.1148 	-0.392496 	0 26.2765 	-0.328582 	0 26.4289 	-0.277119 	0 26.5738 	-0.235616 	0 26.9783 	0.830257 	0 26.6719 	-0.362886 	0 26.8169 	-0.305329 	0 26.9538 	-0.258343 	0 27.0841 	-0.219934 	0 27.4767 	0.814942 	0 27.1654 	-0.324736 	0 27.3175 	-0.271843 	0 27.4622 	-0.228098 	0 27.6008 	-0.191869 	0 28.0131 	0.817676 	0 27.6688 	-0.294082 	-2.131e-21 27.8293 	-0.24258 	-7.87727e-21 27.9824 	-0.19952 	-1.36004e-20 28.1296 	-0.163467 	-1.93044e-20 28.5838 	0.848622 	-2.26882e-20 28.2258 	-0.168581 	-6.91149e-20 28.3436 	-0.131239 	-6.04568e-20 28.4578 	-0.0977501 	-5.19584e-20 28.5688 	-0.067693 	-4.36024e-20 29.0143 	0.863989 	2.07695e-21 28.6575 	-0.0745194 	-9.13215e-21 28.7361 	-0.0670257 	-1.03865e-20 28.8139 	-0.0602706 	-1.16511e-20 28.8911 	-0.0541794 	-1.29251e-20 29.297 	0.788756 	-7.09255e-21 28.9655 	-0.0600286 	-7.4695e-21 29.0197 	-0.058098 	-2.08837e-20 29.0738 	-0.05635 	-3.42965e-20 29.1277 	-0.0547675 	-4.7708e-20 29.4795 	0.70088 	-6.12332e-20 29.1851 	-0.0223964 	-4.85888e-20 29.2256 	-0.00275976 	-3.74241e-20 29.2643 	0.01527 	-2.62442e-20 29.3014 	0.0318283 	-1.50504e-20 29.6041 	0.716467 	-1.91428e-20 29.341 	0.102728 	-3.83183e-20 29.3758 	0.133513 	-3.1429e-20 29.4078 	0.162034 	-2.46546e-20 29.4373 	0.188461 	-1.79864e-20 29.7191 	0.832748 	1.50799e-20 29.467 	0.282055 	2.12667e-20 29.4957 	0.319296 	2.81233e-20 29.5213 	0.354084 	3.49514e-20 29.5438 	0.386583 	4.1753e-20 29.8283 	1.036 	5.45603e-20 29.5628 	0.502432 	9.71488e-20 29.5817 	0.546313 	9.63664e-20 29.5969 	0.587613 	9.57618e-20 29.6087 	0.626484 	9.53245e-20 29.9141 	1.32559 	4.08399e-20 29.6193 	0.77393 	-2.32086e-20 29.6231 	0.823706 	-3.94771e-20 29.6229 	0.870894 	-5.59599e-20 29.6188 	0.915624 	-7.26465e-20 29.9529 	1.69269 	-2.21861e-20 29.635 	1.10545 	-1.53601e-20 29.6165 	1.15969 	-1.48802e-20 29.5938 	1.21147 	-1.43755e-20 29.5671 	1.2609 	-1.38471e-20 29.9149 	2.12008 	-3.31848e-20 29.6482 	1.57539 	-3.67673e-20 29.5744 	1.56501 	-3.57751e-20 29.5214 	1.6213 	-3.42408e-20 29.546 	1.86874 	-2.98193e-20 29.7588 	2.59185 	-1.82381e-20 29.6353 	2.23055 	-8.8887e-21 29.5332 	2.057 	-2.55832e-21 29.443 	2.11727 	-1.00195e-22 29.4489 	2.53533 	8.51272e-22 29.4739 	3.09179 	1.19028e-21 29.5125 	2.89918 	7.53729e-22 29.5608 	2.70762 	3.20664e-22 29.4569 	2.80725 	2.73434e-22 29.2883 	3.20551 	6.08843e-22 29.1035 	3.60007 	9.35e-22 29.3008 	3.54713 	4.87412e-22 29.5014 	3.49458 	4.11824e-23 29.5111 	3.6159 	-1.32685e-22 29.1561 	3.85757 	-3.47269e-22 28.7702 	4.10493 	-5.66794e-22 29.1022 	4.15329 	1.36547e-20 29.1815 	4.24839 	1.65591e-20 29.1287 	4.3671 	1.36635e-20 29.0703 	4.48566 	1.06776e-20 28.6445 	4.6089 	-3.53442e-22 28.8431 	4.66603 	2.38122e-21 28.8026 	4.7137 	3.53308e-21 28.7612 	4.76131 	4.67934e-21 28.7187 	4.80884 	5.81997e-21 28.6793 	4.85191 	6.84964e-21 28.649 	4.89867 	7.31133e-21 28.618 	4.9454 	7.76172e-21 28.5862 	4.99212 	8.20076e-21 28.5537 	5.03882 	8.62842e-21 28.4772 	5.01424 	9.69334e-21 28.6062 	5.16689 	2.73651e-20 28.5365 	5.2358 	3.1503e-20 28.4654 	5.30475 	3.57077e-20 28.3073 	5.31544 	3.00213e-20 28.0143 	5.23542 	8.82815e-21 28.3063 	5.40161 	5.48995e-21 28.5951 	5.56712 	2.13665e-21 28.5166 	5.59203 	0 28.1295 	5.48811 	0 27.7407 	5.38368 	0 28.0886 	5.52345 	0 28.278 	5.60484 	4.89786e-23 28.2362 	5.60092 	1.69709e-22 28.1942 	5.59696 	2.90458e-22 27.7718 	5.47694 	-6.35539e-21 27.9837 	5.53683 	-4.19972e-20 27.9655 	5.5249 	-2.2459e-20 27.9418 	5.51123 	-1.57635e-21 27.9181 	5.49758 	1.92847e-20 27.8947 	5.48401 	4.00435e-20 27.884 	5.47733 	5.34113e-20 27.8734 	5.47066 	6.67733e-20 27.8628 	5.46399 	8.01294e-20 27.8522 	5.45733 	9.34796e-20 27.7511 	5.42973 	5.77888e-20 27.9269 	5.44087 	4.65304e-20 27.9031 	5.40546 	2.84812e-20 27.8795 	5.37009 	1.04493e-20 27.7477 	5.31023 	-1.1175e-20 27.4544 	5.21388 	-3.813e-20 27.7484 	5.2294 	-1.37181e-19 28.0432 	5.24507 	-2.36216e-19 27.9963 	5.18616 	-2.40253e-19 27.6644 	5.06583 	-1.34245e-19 27.3339 	4.94593 	-2.85437e-20 27.6524 	4.94351 	-1.15e-20 27.8869 	4.9246 	1.10915e-21 27.8667 	4.85572 	4.38661e-22 27.7327 	4.76399 	0 27.3849 	4.62951 	0 27.674 	4.60071 	0 27.6529 	4.51665 	0 27.6333 	4.43284 	0 27.6152 	4.34927 	0 27.5623 	4.2598 	-3.12257e-21 27.5867 	4.25463 	-1.15226e-21 27.5848 	4.24533 	-6.31806e-21 27.5829 	4.23604 	-1.14822e-20 27.5811 	4.22675 	-1.66446e-20 27.5792 	4.21724 	-2.19275e-20 27.5677 	4.13313 	-5.5797e-20 27.5571 	4.04909 	-8.98372e-20 27.5475 	3.96511 	-1.24048e-19 27.5387 	3.88119 	-1.58431e-19 27.3876 	3.76852 	-1.91331e-19 27.5858 	3.70575 	-4.7083e-19 27.5743 	3.6012 	-5.14003e-19 27.5636 	3.49666 	-5.55897e-19 27.4852 	3.38086 	-4.72378e-19 27.2346 	3.23711 	-7.39183e-20 27.4716 	3.16395 	4.29108e-19 27.625 	3.07686 	8.16158e-19 27.6148 	2.96266 	9.78967e-19 27.3933 	2.821 	6.78198e-19 27.1334 	2.67473 	2.89195e-19 27.3723 	2.58648 	6.27795e-19 27.6131 	2.49834 	9.66489e-19 27.5915 	2.37724 	9.6421e-19 27.3251 	2.22926 	6.12006e-19 27.0613 	2.08187 	2.61063e-19 27.2969 	1.97938 	1.56054e-19 27.5344 	1.87694 	5.10654e-20 27.5249 	1.75394 	7.2093e-20 27.2587 	1.60637 	1.824e-19 26.9949 	1.45923 	2.91754e-19 27.2226 	1.34334 	1.92159e-19 27.4519 	1.22744 	9.19022e-20 27.44 	1.1011 	1.29074e-19 27.1773 	0.955339 	2.70384e-19 26.9168 	0.809824 	4.10461e-19 27.1312 	0.682427 	9.72654e-19 27.3472 	0.55496 	1.53398e-18 27.3256 	0.425131 	1.53755e-18 27.0683 	0.281348 	9.79252e-19 26.8131 	0.13758 	4.20536e-19 27.0073 	0.00125281 	2.76584e-19 27.2033 	-0.135211 	1.31641e-19 27.1722 	-0.269592 	5.08718e-20 26.9241 	-0.412547 	1.06882e-19 26.678 	-0.555749 	1.62486e-19 26.8488 	-0.699357 	1.01146e-19 27.0214 	-0.843179 	3.94142e-20 26.9867 	-0.983942 	-5.24111e-20 26.7499 	-1.12574 	-1.31286e-19 26.5151 	-1.26809 	-2.09591e-19 26.6586 	-1.41695 	-8.17126e-19 26.8043 	-1.56612 	-1.42386e-18 26.7751 	-1.71507 	-1.39601e-18 26.553 	-1.85516 	-6.44095e-19 26.3328 	-1.99611 	1.09374e-19 26.4466 	-2.1475 	7.36926e-19 26.5144 	-2.29934 	1.15875e-18 26.4632 	-2.4517 	1.06253e-18 26.3435 	-2.5981 	7.71062e-19 26.1416 	-2.73802 	2.47125e-19 26.2248 	-2.88936 	1.25281e-20 26.172 	-3.04037 	-8.34374e-22 26.1127 	-3.19187 	-5.08901e-22 26.0554 	-3.34391 	-1.86835e-22 25.9472 	-3.49143 	1.93887e-20 25.9588 	-3.5409 	2.82833e-21 25.9356 	-3.58988 	2.11191e-20 25.9126 	-3.63893 	3.94454e-20 25.89 	-3.68806 	5.78073e-20 25.8702 	-3.73143 	7.40246e-20 25.8312 	-3.83465 	9.79744e-20 25.7936 	-3.93824 	1.21727e-19 25.7572 	-4.04219 	1.4528e-19 25.7222 	-4.1465 	1.68634e-19 25.5765 	-4.23545 	2.3544e-19 25.6466 	-4.41334 	5.02271e-19 25.5965 	-4.56585 	6.04935e-19 25.5374 	-4.71669 	6.93171e-19 25.3776 	-4.85362 	5.00822e-19 25.1717 	-4.98622 	1.78837e-19 25.2086 	-5.15747 	-2.52786e-19 25.2476 	-5.32952 	-6.84454e-19 25.1819 	-5.48625 	-5.79246e-19 25.0163 	-5.62126 	-1.4192e-19 24.8326 	-5.7546 	3.54071e-19 24.8365 	-5.86784 	6.39511e-19 24.7916 	-5.97341 	6.8073e-19 24.7271 	-6.07606 	6.19508e-19 24.6638 	-6.17916 	5.56608e-19 24.6119 	-6.26556 	5.02718e-19 24.5894 	-6.31893 	4.93581e-19 24.5672 	-6.37243 	4.84229e-19 24.5453 	-6.42606 	4.74662e-19 24.5041 	-6.47456 	4.53531e-19 24.4378 	-6.51667 	4.17431e-19 24.4445 	-6.69901 	6.86389e-20 24.3822 	-6.85822 	-2.17493e-19 24.3095 	-7.01413 	-4.94327e-19 24.1289 	-7.14044 	-4.27605e-19 23.9445 	-7.26948 	-3.50109e-19 23.9219 	-7.42319 	-5.94809e-19 23.8692 	-7.56823 	-6.60646e-19 23.7701 	-7.69974 	-4.5744e-19 23.673 	-7.83214 	-2.52762e-19 23.5949 	-7.94137 	-8.38148e-20 23.5854 	-7.96422 	-3.37133e-20 23.5758 	-7.9871 	1.64765e-20 23.5664 	-8.01 	6.67545e-20 23.5447 	-8.02827 	4.55208e-20 23.5192 	-8.0452 	2.53193e-21 23.4813 	-8.22418 	-2.73093e-19 23.3987 	-8.38343 	-4.40981e-19 23.3162 	-8.54304 	-5.96355e-19 23.1423 	-8.66575 	-3.59975e-19 22.9675 	-8.79334 	-1.18651e-19 22.9347 	-8.88789 	-1.12019e-19 22.899 	-8.98119 	-1.05422e-19 22.8285 	-9.05849 	-9.77353e-20 22.7588 	-9.13622 	-9.02101e-20 22.6968 	-9.20668 	-8.35753e-20 22.6625 	-9.28413 	-5.54611e-20 22.6289 	-9.362 	-2.72755e-20 22.5946 	-9.43953 	0 22.5149 	-9.49588 	0 22.4348 	-9.5534 	0 22.3735 	-9.72214 	0 22.315 	-9.89243 	0 22.1906 	-10.0272 	-8.05206e-22 22.0632 	-10.1604 	-1.67769e-21 21.958 	-10.2736 	-2.41597e-21 21.9533 	-10.2872 	-2.42287e-21 21.9486 	-10.3007 	-2.42973e-21 21.9419 	-10.3133 	-1.9346e-21 21.9289 	-10.3227 	8.90577e-23 21.9159 	-10.3322 	2.11916e-21 21.8483 	-10.5118 	1.34288e-19 21.7795 	-10.6908 	2.60684e-19 21.6662 	-10.8446 	2.97794e-19 21.5091 	-10.9738 	2.38342e-19 21.3504 	-11.1106 	1.78035e-19 21.3418 	-11.1263 	1.94197e-19 21.3332 	-11.1421 	2.10365e-19 21.3219 	-11.1558 	2.11392e-19 21.309 	-11.1683 	2.03427e-19 21.2963 	-11.1806 	1.95569e-19 21.2178 	-11.3377 	1.25773e-19 21.1432 	-11.4973 	5.54388e-20 21.0426 	-11.6428 	2.26351e-20 20.8937 	-11.7618 	5.59184e-20 20.7427 	-11.8878 	9.04428e-20 20.7262 	-11.916 	8.53241e-20 20.7099 	-11.9443 	8.02115e-20 20.6895 	-11.9696 	7.78089e-20 20.6658 	-11.9924 	7.77425e-20 20.6427 	-12.0146 	7.76872e-20 20.5683 	-12.1621 	4.79813e-20 20.4972 	-12.3118 	1.81695e-20 20.3961 	-12.4447 	-1.88509e-20 20.2464 	-12.5503 	-6.7026e-20 20.0938 	-12.6625 	-1.17385e-19 20.0716 	-12.6993 	-1.17335e-19 20.0497 	-12.7363 	-1.17313e-19 20.022 	-12.7691 	-1.18324e-19 19.9889 	-12.7981 	-1.20307e-19 19.957 	-12.8264 	-1.22262e-19 19.8872 	-12.9707 	-2.53382e-19 19.8204 	-13.1171 	-3.8618e-19 19.718 	-13.2422 	-3.86451e-19 19.5642 	-13.3364 	-1.99011e-19 19.4065 	-13.4369 	-4.03648e-21 19.382 	-13.4803 	5.06002e-20 19.3577 	-13.5239 	1.05163e-19 19.3252 	-13.5616 	1.09323e-19 19.2844 	-13.5934 	6.21238e-20 19.2451 	-13.6243 	1.62091e-20 19.1759 	-13.7681 	-1.20854e-19 19.1096 	-13.914 	-2.59346e-19 19.0027 	-14.0334 	-2.71332e-19 18.8422 	-14.1177 	-1.18762e-19 18.6768 	-14.2084 	4.04189e-20 18.6513 	-14.2556 	3.42461e-20 18.6262 	-14.303 	2.80776e-20 18.5907 	-14.3427 	2.48685e-20 18.5437 	-14.3741 	2.49302e-20 18.4984 	-14.4047 	2.49984e-20 18.4263 	-14.55 	1.51903e-20 18.3569 	-14.6975 	5.36605e-21 18.2422 	-14.8126 	3.85876e-20 18.0727 	-14.8883 	1.23592e-19 17.8967 	-14.9705 	2.13408e-19 17.8713 	-15.0184 	2.14022e-19 17.8461 	-15.0665 	2.14709e-19 17.8095 	-15.1056 	2.0596e-19 17.759 	-15.1339 	1.85848e-19 17.7102 	-15.1617 	1.66353e-19 17.6317 	-15.3099 	7.98782e-20 17.556 	-15.4605 	-6.27349e-21 17.4308 	-15.5722 	-5.41653e-20 17.25 	-15.64 	-5.92405e-20 17.0607 	-15.7147 	-6.41762e-20 17.0364 	-15.76 	-1.2144e-19 17.0124 	-15.8055 	-1.78551e-19 16.9768 	-15.8414 	-1.79277e-19 16.926 	-15.8648 	-1.05815e-19 16.8766 	-15.8877 	-3.39098e-20 16.7885 	-16.04 	1.96819e-19 16.703 	-16.195 	4.29543e-19 16.5643 	-16.3037 	4.29028e-19 16.3698 	-16.364 	1.85064e-19 16.1642 	-16.4317 	-7.46588e-20 16.1423 	-16.471 	-6.79017e-20 16.1205 	-16.5105 	-6.11559e-20 16.0884 	-16.541 	-5.14822e-20 16.0414 	-16.5581 	-3.75402e-20 15.9954 	-16.5751 	-2.38739e-20 15.894 	-16.732 	-8.53709e-22 15.7954 	-16.8922 	2.1737e-20 15.6398 	-16.9976 	3.17594e-21 15.4291 	-17.0502 	-5.53247e-20 15.2035 	-17.1109 	-1.19331e-19 15.1855 	-17.1409 	-8.84828e-20 15.1676 	-17.171 	-5.77204e-20 15.142 	-17.1938 	-6.08246e-20 15.1037 	-17.2044 	-1.19288e-19 15.066 	-17.2149 	-1.77051e-19 14.9473 	-17.3765 	-6.09742e-19 14.8317 	-17.5419 	-1.04579e-18 14.6559 	-17.6429 	-1.12922e-18 14.4264 	-17.6867 	-8.97093e-19 14.1769 	-17.7395 	-6.45622e-19 14.1653 	-17.7571 	-6.58153e-19 14.1538 	-17.7747 	-6.7069e-19 14.1379 	-17.7877 	-6.76762e-19 14.1141 	-17.7923 	-6.70671e-19 14.0904 	-17.7969 	-6.64633e-19 13.9509 	-17.9614 	-6.8195e-19 13.8146 	-18.1306 	-7.00799e-19 13.6152 	-18.2241 	-5.22574e-19 13.3646 	-18.2564 	-1.83116e-19 13.0868 	-18.2986 	1.96285e-19 13.085 	-18.3009 	1.98004e-19 13.0833 	-18.3032 	1.99724e-19 13.0811 	-18.3049 	2.00937e-19 13.0778 	-18.3052 	2.01021e-19 13.0744 	-18.3056 	2.01106e-19 12.9188 	-18.461 	1.22129e-19 12.7528 	-18.6056 	3.95488e-20 12.5342 	-18.6791 	-4.22501e-20 12.2512 	-18.6654 	-1.22809e-19 11.988 	-18.6542 	-1.98563e-19 11.9698 	-18.6669 	-2.18904e-19 11.9517 	-18.6797 	-2.39261e-19 11.9291 	-18.6838 	-2.34679e-19 11.9035 	-18.682 	-2.13169e-19 11.8775 	-18.6803 	-1.91358e-19 11.7186 	-18.7802 	-1.26932e-19 11.5596 	-18.8811 	-6.32649e-20 11.3704 	-18.9278 	-4.89632e-20 11.1305 	-18.8824 	-1.17294e-19 10.9037 	-18.841 	-1.82255e-19 10.8591 	-18.8682 	-2.42613e-19 10.8146 	-18.8955 	-3.03051e-19 10.7574 	-18.8924 	-2.63885e-19 10.6971 	-18.882 	-2.00365e-19 10.6344 	-18.8713 	-1.34428e-19 10.517 	-18.9118 	-8.60074e-20 10.3995 	-18.953 	-3.76907e-20 10.275 	-18.9794 	5.22106e-23 10.1099 	-18.9162 	-2.34687e-20 9.95016 	-18.856 	-4.61717e-20 9.85072 	-18.8916 	-4.4681e-20 9.75147 	-18.9282 	-4.30727e-20 9.62415 	-18.8869 	-1.57895e-20 9.49481 	-18.8404 	1.35883e-20 9.35356 	-18.7907 	4.57859e-20 9.30461 	-18.791 	9.91437e-20 9.25566 	-18.7916 	1.5235e-19 9.2067 	-18.7922 	2.05404e-19 9.14299 	-18.7538 	1.60657e-19 9.07976 	-18.7154 	1.15075e-19 8.94203 	-18.7184 	6.90456e-20 8.80454 	-18.7235 	2.28795e-20 8.64483 	-18.6563 	0 8.43948 	-18.4945 	0 8.23952 	-18.3383 	0 8.19851 	-18.3305 	0 8.15665 	-18.3189 	-4.61288e-22 8.10929 	-18.2811 	-3.9592e-21 8.0619 	-18.2435 	-7.45445e-21 8.01279 	-18.2046 	-1.10734e-20 7.90019 	-18.1317 	-1.36328e-20 7.78729 	-18.0594 	-1.62322e-20 7.67408 	-17.9876 	-1.88725e-20 7.54821 	-17.8578 	-2.45123e-20 7.42163 	-17.7187 	-3.06999e-20 7.28119 	-17.6293 	-1.64381e-20 7.13876 	-17.53 	-2.83369e-21 6.98367 	-17.3448 	5.73591e-21 6.82829 	-17.161 	1.43104e-20 6.66227 	-16.9575 	2.14195e-20 6.64824 	-16.9465 	2.15396e-20 6.63411 	-16.9328 	2.17124e-20 6.61974 	-16.9129 	2.20107e-20 6.60536 	-16.8929 	2.23086e-20 6.59081 	-16.8728 	2.26094e-20 6.45915 	-16.7019 	1.91225e-20 6.32694 	-16.5317 	1.56566e-20 6.19418 	-16.3621 	1.22125e-20 6.05994 	-16.1486 	1.39358e-20 5.92661 	-15.9178 	1.80513e-20 5.79816 	-15.7375 	3.70638e-20 5.67036 	-15.5467 	4.57669e-20 5.54875 	-15.2943 	-2.31547e-21 5.42685 	-15.0425 	-5.03135e-20 5.29525 	-14.7674 	-1.04605e-19 5.27731 	-14.7356 	-1.03483e-19 5.26054 	-14.6995 	-1.0191e-19 5.24546 	-14.6569 	-9.96868e-20 5.23038 	-14.6143 	-9.74635e-20 5.2152 	-14.5714 	-9.52264e-20 5.12603 	-14.351 	-1.48101e-19 5.03675 	-14.1306 	-2.0084e-19 4.94736 	-13.9105 	-2.53438e-19 4.86799 	-13.6713 	-1.71414e-19 4.79625 	-13.4186 	8.41113e-21 4.73052 	-13.1633 	2.27804e-19 4.66514 	-12.9076 	4.47059e-19 4.6334 	-12.6117 	3.70001e-19 4.60437 	-12.2997 	2.27788e-19 4.57341 	-11.9629 	1.7693e-20 4.57305 	-11.8808 	5.8886e-21 4.57734 	-11.7937 	-1.69775e-21 4.59019 	-11.6975 	-1.40352e-21 4.60332 	-11.601 	-1.109