# vtk DataFile Version 2.0
track0
ASCII
DATASET POLYDATA
POINTS 10905 double
-0.0205 0.001 1e-05
-0.0202034 0.00100003 1e-05
-0.0199069 0.00100026 1e-05
-0.0196103 0.00100071 1e-05
-0.0193137 0.00100137 1e-05
-0.0190172 0.00100225 1e-05
-0.0187132 0.00100354 1e-05
-0.0184093 0.0010045 1e-05
-0.0181054 0.00100547 1e-05
-0.0178015 0.00100644 1e-05
-0.0174976 0.00100741 1e-05
-0.0172058 0.00100863 1e-05
-0.016914 0.0010094 1e-05
-0.0166222 0.00101011 1e-05
-0.0163305 0.00101076 1e-05
-0.0160387 0.00101136 1e-05
-0.0157586 0.0010122 1e-05
-0.0154784 0.00101261 1e-05
-0.0151983 0.00101298 1e-05
-0.0149182 0.0010133 1e-05
-0.0146381 0.00101357 1e-05
-0.0143692 0.00101413 1e-05
-0.0141002 0.00101427 1e-05
-0.0138313 0.00101438 1e-05
-0.0135624 0.00101445 1e-05
-0.0132934 0.00101449 1e-05
-0.0130353 0.00101484 1e-05
-0.0127771 0.00101478 1e-05
-0.0125189 0.0010147 1e-05
-0.0122607 0.00101459 1e-05
-0.0120025 0.00101445 1e-05
-0.0117547 0.00101466 1e-05
-0.0115068 0.00101446 1e-05
-0.0112589 0.00101423 1e-05
-0.0110111 0.00101398 1e-05
-0.0107632 0.0010137 1e-05
-0.0105252 0.00101383 1e-05
-0.0102873 0.00101351 1e-05
-0.0100493 0.00101317 1e-05
-0.00981133 0.00101281 1e-05
-0.00957337 0.00101243 1e-05
-0.00934491 0.0010125 1e-05
-0.00911645 0.00101209 1e-05
-0.008888 0.00101166 1e-05
-0.00865954 0.00101121 1e-05
-0.00843108 0.00101074 1e-05
-0.00821175 0.00101078 1e-05
-0.00799242 0.00101028 1e-05
-0.00777309 0.00100977 1e-05
-0.00755376 0.00100923 1e-05
-0.00733443 0.00100868 1e-05
-0.00712387 0.0010087 1e-05
-0.0069133 0.00100812 1e-05
-0.00670273 0.00100753 1e-05
-0.00649217 0.00100692 1e-05
-0.0062816 0.00100629 1e-05
-0.00607944 0.00100629 1e-05
-0.00587729 0.00100565 1e-05
-0.00567514 0.00100498 1e-05
-0.00547299 0.00100429 1e-05
-0.00527083 0.00100358 1e-05
-0.00507675 0.00100359 1e-05
-0.00488268 0.00100287 1e-05
-0.0046886 0.00100213 1e-05
-0.00449452 0.00100136 1e-05
-0.00430044 0.00100058 1e-05
-0.00411412 0.00100057 1e-05
-0.0039278 0.00099978 1e-05
-0.00374148 0.000998962 1e-05
-0.00355516 0.000998118 1e-05
-0.00336883 0.000997249 1e-05
-0.00318995 0.00099724 1e-05
-0.00301107 0.000996363 1e-05
-0.0028322 0.000995459 1e-05
-0.00265332 0.000994525 1e-05
-0.00247443 0.000993563 1e-05
-0.0023027 0.000993536 1e-05
-0.00213097 0.000992562 1e-05
-0.00195924 0.000991555 1e-05
-0.00178751 0.000990515 1e-05
-0.00161577 0.000989441 1e-05
-0.0014509 0.000989386 1e-05
-0.00128603 0.000988295 1e-05
-0.00112117 0.00098716 1e-05
-0.000956301 0.00098598 1e-05
-0.000791418 0.000984753 1e-05
-0.000633135 0.000984622 1e-05
-0.000474856 0.000983343 1e-05
-0.000316578 0.000982015 1e-05
-0.0001583 0.000980635 1e-05
0 0.000979203 1e-05
0.000105677 0.000979051 1e-05
0.00021135 0.000978036 1e-05
0.000317023 0.000976988 1e-05
0.000422695 0.000975907 1e-05
0.000528387 0.000974792 1e-05
0.000634886 0.000974643 1e-05
0.000741379 0.0009735 1e-05
0.000847872 0.000972333 1e-05
0.000954365 0.000971141 1e-05
0.00106088 0.000969924 1e-05
0.00116821 0.000969813 1e-05
0.00127553 0.000968599 1e-05
0.00138285 0.000967363 1e-05
0.00149017 0.000966105 1e-05
0.00159752 0.000964878 1e-05
0.00170568 0.000964806 1e-05
0.00181383 0.000963663 1e-05
0.00192199 0.000962399 1e-05
0.00203014 0.000961117 1e-05
0.00213833 0.000960014 1e-05
0.00224733 0.000959983 1e-05
0.00235633 0.000958974 1e-05
0.00246532 0.000957716 1e-05
0.00257432 0.00095644 1e-05
0.00268334 0.00095546 1e-05
0.00279319 0.000955461 1e-05
0.00290303 0.000954572 1e-05
0.00301288 0.000953333 1e-05
0.00312272 0.000952074 1e-05
0.00323259 0.000951201 1e-05
0.00334329 0.000951219 1e-05
0.00345399 0.000950428 1e-05
0.00356469 0.000949212 1e-05
0.00367539 0.000947975 1e-05
0.00378611 0.000947189 1e-05
0.00389767 0.000947212 1e-05
0.00400923 0.000946499 1e-05
0.00412079 0.000945306 1e-05
0.00423235 0.000944092 1e-05
0.00434393 0.000943376 1e-05
0.00445636 0.000943392 1e-05
0.00456879 0.000942739 1e-05
0.00468122 0.000941567 1e-05
0.00479364 0.000940372 1e-05
0.00490609 0.000939708 1e-05
0.0050194 0.000939708 1e-05
0.0051327 0.000939097 1e-05
0.005246 0.000937938 1e-05
0.0053593 0.000936756 1e-05
0.00547262 0.000936129 1e-05
0.00558681 0.000936103 1e-05
0.00570099 0.000935518 1e-05
0.00581518 0.000934379 1e-05
0.00592936 0.000933232 1e-05
0.00604356 0.000932625 1e-05
0.00615863 0.000932567 1e-05
0.00627371 0.000931996 1e-05
0.00638877 0.000930917 1e-05
0.00650384 0.000929828 1e-05
0.00661893 0.000929232 1e-05
0.0067349 0.000929135 1e-05
0.00685087 0.000928568 1e-05
0.00696683 0.000927534 1e-05
0.0070828 0.00092649 1e-05
0.00719878 0.000925896 1e-05
0.00731565 0.000925755 1e-05
0.00743252 0.000925183 1e-05
0.00754939 0.000924183 1e-05
0.00766625 0.000923171 1e-05
0.00778313 0.000922569 1e-05
0.00790091 0.000922381 1e-05
0.00801869 0.000921796 1e-05
0.00813647 0.000920818 1e-05
0.00825424 0.000919828 1e-05
0.00837203 0.000919211 1e-05
0.00849073 0.000918972 1e-05
0.00860942 0.000918368 1e-05
0.00872811 0.000917403 1e-05
0.00884681 0.000916425 1e-05
0.00896551 0.000915788 1e-05
0.00908513 0.000915495 1e-05
0.00920475 0.000914866 1e-05
0.00932436 0.000913905 1e-05
0.00944398 0.000912931 1e-05
0.0095636 0.000912268 1e-05
0.00968415 0.00091192 1e-05
0.0098047 0.000911262 1e-05
0.00992524 0.000910297 1e-05
0.0100458 0.00090932 1e-05
0.0101663 0.000908627 1e-05
0.0102878 0.00090822 1e-05
0.0104093 0.000907528 1e-05
0.0105308 0.000906553 1e-05
0.0106523 0.000905566 1e-05
0.0107738 0.000904839 1e-05
0.0108962 0.000904371 1e-05
0.0110186 0.000903641 1e-05
0.0111411 0.000902667 1e-05
0.0112635 0.000901686 1e-05
0.0113859 0.00090092 1e-05
0.0115093 0.000900391 1e-05
0.0116327 0.00089962 1e-05
0.0117561 0.00089865 1e-05
0.0118794 0.000897673 1e-05
0.0120028 0.000896865 1e-05
0.0121272 0.000896272 1e-05
0.0122515 0.000895456 1e-05
0.0123759 0.000894482 1e-05
0.0125002 0.0008935 1e-05
0.0126245 0.000892647 1e-05
0.0127498 0.00089199 1e-05
0.0128752 0.000891126 1e-05
0.0130005 0.000890139 1e-05
0.0131258 0.000889145 1e-05
0.0132511 0.000888244 1e-05
0.0133774 0.00088752 1e-05
0.0135036 0.000886607 1e-05
0.0136299 0.0008856 1e-05
0.0137562 0.000884586 1e-05
0.0138825 0.000883635 1e-05
0.0140098 0.000882845 1e-05
0.014137 0.000881879 1e-05
0.0142643 0.000880847 1e-05
0.0143915 0.000879806 1e-05
0.0145188 0.000878804 1e-05
0.0146471 0.000877945 1e-05
0.0147753 0.000876925 1e-05
0.0149036 0.000875862 1e-05
0.0150318 0.000874789 1e-05
0.0151601 0.000873732 1e-05
0.0152893 0.000872806 1e-05
0.0154186 0.000871729 1e-05
0.0155478 0.000870629 1e-05
0.0156771 0.000869521 1e-05
0.0158063 0.000868408 1e-05
0.0159366 0.000867412 1e-05
0.0160668 0.00086628 1e-05
0.0161971 0.000865139 1e-05
0.0163273 0.00086399 1e-05
0.0164576 0.000862831 1e-05
0.0165889 0.000861766 1e-05
0.0167201 0.000860589 1e-05
0.0168514 0.000859404 1e-05
0.0169827 0.00085821 1e-05
0.0171139 0.000857006 1e-05
0.0172462 0.00085587 1e-05
0.0173785 0.000854646 1e-05
0.0175108 0.000853412 1e-05
0.0176431 0.000852169 1e-05
0.0177754 0.000850917 1e-05
0.0179087 0.000849711 1e-05
0.018042 0.000848435 1e-05
0.0181753 0.000847151 1e-05
0.0183087 0.000845856 1e-05
0.018442 0.000844553 1e-05
0.0185763 0.000843275 1e-05
0.0187107 0.000841946 1e-05
0.018845 0.000840607 1e-05
0.0189794 0.000839259 1e-05
0.0191137 0.000837901 1e-05
0.0192491 0.000836553 1e-05
0.0193845 0.000835167 1e-05
0.0195199 0.000833772 1e-05
0.0196553 0.000832368 1e-05
0.0197907 0.000830953 1e-05
0.0199272 0.000829534 1e-05
0.0200636 0.00082809 1e-05
0.0202001 0.000826637 1e-05
0.0203365 0.000825174 1e-05
0.020473 0.000823701 1e-05
0.0205203 0.000823188 1e-05
0.0205676 0.000822673 1e-05
0.0206149 0.000822156 1e-05
0.0206623 0.000821639 1e-05
0.0207087 0.00082113 1e-05
0.0207991 0.000820137 1e-05
0.0208894 0.000819139 1e-05
0.0209798 0.000818138 1e-05
0.0210702 0.000817132 1e-05
0.0211606 0.000816122 1e-05
0.0212991 0.000814561 1e-05
0.0214377 0.000812996 1e-05
0.0215763 0.00081142 1e-05
0.0217149 0.000809834 1e-05
0.0218535 0.000808238 1e-05
0.0219931 0.000806608 1e-05
0.0221328 0.000804978 1e-05
0.0222724 0.000803338 1e-05
0.0224121 0.000801689 1e-05
0.0225517 0.000800029 1e-05
0.0226925 0.000798328 1e-05
0.0228332 0.000796633 1e-05
0.022974 0.000794928 1e-05
0.0231147 0.000793211 1e-05
0.0232555 0.000791484 1e-05
0.0233973 0.000789712 1e-05
0.0235391 0.000787948 1e-05
0.023681 0.000786173 1e-05
0.0238228 0.000784388 1e-05
0.0239647 0.000782591 1e-05
0.0241076 0.000780747 1e-05
0.0242505 0.000778913 1e-05
0.0243935 0.000777069 1e-05
0.0245364 0.000775214 1e-05
0.0246794 0.000773349 1e-05
0.0248234 0.000771434 1e-05
0.0249675 0.000769533 1e-05
0.0251115 0.00076762 1e-05
0.0252556 0.000765696 1e-05
0.0253996 0.000763761 1e-05
0.0255448 0.000761774 1e-05
0.02569 0.000759797 1e-05
0.0258351 0.000757811 1e-05
0.0259803 0.000755813 1e-05
0.0261255 0.000753798 1e-05
0.0262718 0.000751736 1e-05
0.0264181 0.000749679 1e-05
0.0265644 0.000747615 1e-05
0.0267107 0.000745538 1e-05
0.026857 0.000743443 1e-05
0.0270044 0.000741302 1e-05
0.0271519 0.000739164 1e-05
0.0272993 0.00073702 1e-05
0.0274468 0.000734864 1e-05
0.0275942 0.000732688 1e-05
0.0277428 0.000730469 1e-05
0.0278914 0.00072825 1e-05
0.0280399 0.000726026 1e-05
0.0281885 0.000723789 1e-05
0.0283371 0.000721532 1e-05
0.0284869 0.000719236 1e-05
0.0286366 0.000716935 1e-05
0.0287863 0.000714631 1e-05
0.0289361 0.000712313 1e-05
0.0290858 0.000709976 1e-05
0.0292367 0.000707602 1e-05
0.0293876 0.000705221 1e-05
0.0295385 0.000702835 1e-05
0.0296894 0.000700436 1e-05
0.0298403 0.000698019 1e-05
0.0299924 0.000695565 1e-05
0.0301445 0.000693104 1e-05
0.0302966 0.000690634 1e-05
0.0304486 0.000688152 1e-05
0.0306007 0.000685655 1e-05
0.030754 0.000683121 1e-05
0.0309072 0.000680578 1e-05
0.0310605 0.000678025 1e-05
0.0312138 0.000675459 1e-05
0.031367 0.000672879 1e-05
0.0315215 0.000670265 1e-05
0.0316759 0.000667638 1e-05
0.0318304 0.000665 1e-05
0.0319848 0.000662349 1e-05
0.0321393 0.000659685 1e-05
0.0322949 0.000656987 1e-05
0.0324506 0.000654276 1e-05
0.0326062 0.000651549 1e-05
0.0327619 0.000648811 1e-05
0.0329175 0.000646061 1e-05
[...]
POINT_DATA 10905
 FIELD attributes 1
U 3 10905 float
10.0021 	0.00098057 	0 10.0076 	0.00792969 	0 10.013 	0.0151204 	0 10.0184 	0.0223243 	0 10.0239 	0.0295415 	0 10.0305 	0.0425931 	0 10.0339 	0.031928 	0 10.0371 	0.0319491 	0 10.0402 	0.0319704 	0 10.0434 	0.0319917 	0 10.0462 	0.0420083 	0 10.0441 	0.0264599 	0 10.0431 	0.0245071 	0 10.0421 	0.0225282 	0 10.0411 	0.020523 	0 10.0402 	0.030195 	0 10.0366 	0.0146624 	0 10.0343 	0.0130805 	0 10.032 	0.011471 	0 10.0297 	0.00983365 	0 10.0278 	0.0206793 	0 10.0244 	0.00530769 	0 10.0221 	0.00403773 	0 10.0198 	0.00274166 	0 10.0174 	0.00141895 	0 10.0154 	0.0136003 	0 10.0122 	-0.00214243 	0 10.0097 	-0.00320928 	0 10.0073 	-0.0043006 	0 10.0048 	-0.00541696 	0 10.0025 	0.00852846 	0 9.99947 	-0.00826556 	0 9.99695 	-0.00916757 	0 9.99441 	-0.0100917 	0 9.99188 	-0.0110385 	0 9.98938 	0.0052253 	0 9.98654 	-0.0133901 	0 9.98403 	-0.0142139 	0 9.98152 	-0.0150587 	0 9.97899 	-0.0159251 	0 9.97629 	0.00313827 	0 9.97377 	-0.0180066 	0 9.9713 	-0.0188325 	0 9.96883 	-0.0196799 	0 9.96636 	-0.0205493 	0 9.9634 	0.001773 	0 9.96125 	-0.0225122 	0 9.95882 	-0.0233766 	0 9.9564 	-0.0242636 	0 9.95397 	-0.0251739 	0 9.95067 	0.000897541 	0 9.94897 	-0.0270748 	0 9.94661 	-0.0279923 	0 9.94425 	-0.0289338 	0 9.94188 	-0.0298998 	0 9.93819 	0.000404708 	0 9.93705 	-0.0317813 	0 9.93478 	-0.0327746 	0 9.9325 	-0.0337935 	0 9.93022 	-0.0348387 	0 9.92606 	0.000154138 	0 9.92559 	-0.0367639 	0 9.92343 	-0.037879 	0 9.92126 	-0.0390224 	0 9.91908 	-0.0401948 	0 9.91438 	-9.28831e-05 	0 9.91471 	-0.0422819 	0 9.91265 	-0.0435591 	0 9.91058 	-0.0448679 	0 9.9085 	-0.0462092 	0 9.9031 	-0.000514649 	0 9.9043 	-0.048541 	0 9.90235 	-0.0500762 	0 9.90038 	-0.0516486 	0 9.8984 	-0.0532591 	0 9.89221 	-0.00152436 	0 9.89449 	-0.056147 	0 9.89263 	-0.0579982 	0 9.89077 	-0.059893 	0 9.88889 	-0.0618326 	0 9.8817 	-0.00335081 	0 9.88496 	-0.065386 	0 9.88283 	-0.0680337 	0 9.88068 	-0.0707417 	0 9.87851 	-0.0735116 	0 9.86951 	-0.00815846 	0 9.87267 	-0.0797443 	1.1601e-21 9.87026 	-0.0828401 	3.84863e-21 9.86782 	-0.0860062 	6.53528e-21 9.86536 	-0.0892442 	9.22001e-21 9.85554 	-0.0141791 	1.08307e-20 9.85941 	-0.0947304 	-1.47409e-20 9.85705 	-0.0977565 	-1.92568e-20 9.85467 	-0.100829 	-2.37895e-20 9.85228 	-0.103948 	-2.83391e-20 9.84083 	-0.0136993 	5.40508e-22 9.84836 	-0.105715 	-2.1172e-21 9.84632 	-0.107936 	-4.62329e-21 9.84426 	-0.11019 	-7.12784e-21 9.8422 	-0.112479 	-9.63083e-21 9.82674 	-0.0101467 	-1.08194e-20 9.84005 	-0.111336 	-1.00635e-20 9.83811 	-0.113289 	-6.65869e-21 9.83615 	-0.11527 	-3.25291e-21 9.83331 	-0.112408 	-2.71985e-22 9.81184 	-0.00651369 	-6.29429e-21 9.83022 	-0.103928 	-5.47829e-22 9.83003 	-0.11481 	-9.69446e-21 9.82789 	-0.116581 	-2.04094e-20 9.82119 	-0.100105 	-3.08823e-20 9.79452 	-0.00281419 	-4.03304e-20 9.81692 	-0.0908733 	-6.4536e-20 9.82045 	-0.113278 	-6.56693e-20 9.81808 	-0.114997 	-5.95424e-20 9.8063 	-0.088077 	-4.44172e-20 9.77464 	8.49574e-05 	-1.00857e-20 9.80098 	-0.0793744 	-9.83359e-21 9.80923 	-0.110613 	-3.70137e-21 9.80662 	-0.112404 	5.9997e-21 9.7886 	-0.0778005 	1.65085e-20 9.75199 	0.00160098 	2.801e-20 9.78182 	-0.0699139 	8.63044e-20 9.79552 	-0.107588 	1.14641e-19 9.79253 	-0.109432 	1.11258e-19 9.76731 	-0.0693162 	7.32063e-20 9.72601 	0.00197586 	9.36798e-21 9.7589 	-0.0623564 	-6.66145e-20 9.77863 	-0.104552 	-1.18249e-19 9.77523 	-0.10642 	-1.25625e-19 9.74213 	-0.0625084 	-8.48362e-20 9.69658 	0.00142628 	-2.30209e-20 9.73215 	-0.0565254 	-1.44544e-20 9.7584 	-0.101797 	-1.05611e-20 9.75457 	-0.103691 	-2.26762e-20 9.71316 	-0.0573193 	-4.34005e-20 9.66382 	1.63058e-05 	-6.61713e-20 9.70171 	-0.0523119 	-7.86322e-20 9.73482 	-0.0995773 	-8.90774e-20 9.73054 	-0.101493 	-8.24269e-20 9.68056 	-0.0536402 	-6.07139e-20 9.6279 	-0.00215503 	-3.79794e-20 9.66775 	-0.0494971 	-2.46369e-20 9.70696 	-0.0968726 	-1.12254e-20 9.70072 	-0.0974814 	-1.52165e-22 9.64457 	-0.0512054 	-3.29048e-21 9.58906 	-0.00488631 	-6.40809e-21 9.63049 	-0.0477729 	-3.4088e-21 9.6713 	-0.0906925 	-4.2962e-22 9.66406 	-0.0914275 	-5.09746e-22 9.60555 	-0.0497389 	-3.64727e-21 9.54766 	-0.00801026 	-6.76603e-21 9.5903 	-0.0469006 	-3.76678e-21 9.63235 	-0.0858229 	-7.85897e-22 9.62419 	-0.0866417 	-8.02006e-21 9.56379 	-0.0490569 	-1.82225e-20 9.50398 	-0.0114351 	-2.84997e-20 9.5475 	-0.0467379 	-5.46597e-20 9.59046 	-0.0820711 	-8.07488e-20 9.58148 	-0.0829464 	-8.52723e-20 9.51962 	-0.0490415 	-6.97402e-20 9.45832 	-0.0151027 	-5.42361e-20 9.50242 	-0.0471763 	-1.05135e-19 9.54597 	-0.0792785 	-1.56004e-19 9.53627 	-0.0801868 	-1.4589e-19 9.47336 	-0.0495831 	-7.42699e-20 9.41097 	-0.0189483 	-2.58825e-21 9.45536 	-0.0481008 	-2.02762e-21 9.49922 	-0.0772799 	-1.51885e-21 9.48891 	-0.0782027 	2.68052e-21 9.4253 	-0.0505713 	9.70586e-21 9.36218 	-0.0229117 	1.67627e-20 9.40658 	-0.0494191 	9.42996e-21 9.45048 	-0.0759512 	2.0671e-21 9.43966 	-0.0768766 	-2.24796e-21 9.37568 	-0.0519275 	-5.37341e-21 9.31217 	-0.0269527 	-8.48736e-21 9.35634 	-0.051068 	-5.5049e-21 9.40003 	-0.0752061 	-2.53418e-21 9.38881 	-0.0761264 	-1.03698e-21 9.32477 	-0.0535968 	-8.12554e-21 9.26117 	-0.0310439 	-1.52404e-20 9.30489 	-0.052995 	-7.83105e-21 9.34816 	-0.074967 	-3.96146e-22 9.33664 	-0.0758757 	-8.22824e-21 9.27281 	-0.0555302 	-3.00413e-20 9.20939 	-0.0351635 	-5.18747e-20 9.25247 	-0.055153 	-1.40757e-19 9.29174 	-0.0739549 	-2.24033e-19 9.27877 	-0.0743239 	-2.21867e-19 9.22007 	-0.0576805 	-1.34128e-19 9.15706 	-0.0392909 	-3.76809e-20 9.19934 	-0.0575023 	-2.30976e-20 9.23162 	-0.0725783 	-9.68418e-21 9.21883 	-0.0729836 	-1.69949e-21 9.16678 	-0.0600124 	0 9.10438 	-0.0434107 	0 9.14573 	-0.0600111 	0 9.17109 	-0.0718822 	0 9.15847 	-0.0723163 	0 9.1131 	-0.0624948 	0 9.05148 	-0.0475072 	0 9.09179 	-0.0626458 	0 9.11033 	-0.0717625 	3.43281e-21 9.09789 	-0.0722184 	1.17959e-20 9.05918 	-0.0650934 	2.35333e-20 8.99848 	-0.0515646 	3.81161e-20 9.03766 	-0.0653762 	1.34165e-19 9.04955 	-0.0721306 	1.78231e-19 9.03727 	-0.0726027 	1.7606e-19 9.00515 	-0.0677801 	1.34648e-19 8.94548 	-0.0555698 	3.85195e-20 8.98346 	-0.0681755 	2.4047e-20 8.98887 	-0.0729091 	1.97431e-20 8.97677 	-0.0733936 	2.09247e-20 8.95112 	-0.0705315 	2.4896e-20 8.89257 	-0.0595146 	3.56567e-20 8.92929 	-0.0710257 	9.77343e-20 8.92846 	-0.074037 	1.06088e-19 8.91652 	-0.0745308 	9.85306e-20 8.89719 	-0.0733307 	8.08983e-20 8.83985 	-0.063393 	1.13192e-20 8.87527 	-0.0739115 	-6.36889e-20 8.86844 	-0.0754606 	-8.82409e-20 8.85666 	-0.0759609 	-1.06891e-19 8.84346 	-0.0761625 	-1.23456e-19 8.78739 	-0.0672003 	-7.61634e-20 8.82053 	-0.0766277 	-1.58836e-19 8.80892 	-0.0771324 	-1.50699e-19 8.7973 	-0.0776367 	-1.42554e-19 8.78565 	-0.0781406 	-1.34399e-19 8.73529 	-0.0709306 	-5.09155e-20 8.76152 	-0.0785021 	-3.48632e-20 8.75006 	-0.0790081 	-2.40914e-20 8.73858 	-0.0795139 	-1.33207e-20 8.72708 	-0.0800195 	-2.5513e-21 8.68362 	-0.0745764 	0 8.70324 	-0.080541 	7.78743e-22 8.69193 	-0.0810463 	3.58662e-21 8.68059 	-0.0815513 	6.39479e-21 8.66924 	-0.0820562 	9.20326e-21 8.63245 	-0.0781317 	1.20184e-20 8.64575 	-0.0827083 	1.05067e-20 8.63458 	-0.0832111 	1.06545e-20 8.62339 	-0.0837137 	1.08029e-20 8.61217 	-0.0842162 	1.09519e-20 8.58181 	-0.0815936 	1.23998e-20 8.58909 	-0.084974 	1.42134e-20 8.57806 	-0.0854731 	1.98191e-20 8.567 	-0.0859722 	2.5426e-20 8.55593 	-0.0864712 	3.10341e-20 8.53173 	-0.0849613 	3.95081e-20 8.53331 	-0.0873131 	6.78371e-20 8.52241 	-0.0878078 	6.54097e-20 8.51149 	-0.0883025 	6.29723e-20 8.50054 	-0.0887971 	6.05251e-20 8.48224 	-0.0882347 	4.01823e-20 8.47843 	-0.0897044 	3.33681e-20 8.46766 	-0.0901939 	2.81629e-20 8.45687 	-0.0906834 	2.29588e-20 8.44606 	-0.0911729 	1.77559e-20 8.4334 	-0.0914138 	1.29599e-20 8.43146 	-0.0918116 	1.01028e-20 8.4278 	-0.0919781 	6.92159e-21 8.42414 	-0.0921446 	3.74034e-21 8.42048 	-0.0923111 	5.5904e-22 8.41688 	-0.0924746 	-2.56356e-21 8.40971 	-0.0927933 	-8.06679e-21 8.40253 	-0.0931121 	-1.35688e-20 8.39534 	-0.0934308 	-1.90695e-20 8.38814 	-0.0937496 	-2.45689e-20 8.3798 	-0.0943782 	-3.24475e-20 8.37042 	-0.0945786 	-3.93997e-20 8.35964 	-0.0950591 	-4.39081e-20 8.34884 	-0.0955397 	-4.84192e-20 8.33802 	-0.0960204 	-5.2933e-20 8.32456 	-0.0971844 	-5.26704e-20 8.31719 	-0.0970447 	-6.17118e-20 8.30654 	-0.0975235 	-5.46498e-20 8.29586 	-0.0980023 	-4.75958e-20 8.28516 	-0.0984813 	-4.05499e-20 8.27055 	-0.0999124 	-9.08494e-21 8.26499 	-0.0995367 	-6.64992e-21 8.25446 	-0.100033 	-1.03614e-20 8.2439 	-0.100529 	-1.40721e-20 8.23332 	-0.101026 	-1.77821e-20 8.21775 	-0.102666 	-2.18258e-20 8.21383 	-0.102159 	-4.59599e-20 8.20337 	-0.102651 	-5.39969e-20 8.19289 	-0.103144 	-6.20368e-20 8.18238 	-0.103636 	-7.00794e-20 8.16593 	-0.105357 	-4.50118e-20 8.16346 	-0.104735 	1.91693e-20 8.15302 	-0.105195 	3.52787e-20 8.14257 	-0.105654 	5.13985e-20 8.1321 	-0.106115 	6.75289e-20 8.11485 	-0.107845 	1.20858e-20 8.11363 	-0.107122 	2.60859e-21 8.10325 	-0.107597 	1.84682e-21 8.09285 	-0.108072 	1.08493e-21 8.08218 	-0.108592 	3.53083e-22 8.06456 	-0.110353 	4.68624e-22 8.06356 	-0.109801 	3.45711e-22 8.05424 	-0.110205 	-6.87802e-21 8.04391 	-0.110721 	-1.49341e-20 8.03224 	-0.111444 	-2.29718e-20 8.01516 	-0.113005 	-3.09376e-20 8.01381 	-0.112673 	-2.24508e-20 8.00609 	-0.112961 	-1.39406e-20 7.99584 	-0.113492 	-5.42024e-21 7.98329 	-0.114319 	0 7.96671 	-0.115665 	0 7.96507 	-0.115513 	0 7.95886 	-0.115728 	-2.40721e-21 7.9487 	-0.116259 	-6.8768e-21 7.93539 	-0.117114 	-1.11337e-20 7.91927 	-0.118256 	-1.52031e-20 7.91741 	-0.118257 	-4.77987e-20 7.91263 	-0.118444 	-7.10163e-20 7.90258 	-0.118968 	-7.72452e-20 7.88859 	-0.119799 	-6.57231e-20 7.87292 	-0.12076 	-4.67008e-20 7.87086 	-0.120896 	-1.36218e-19 7.86746 	-0.121098 	-2.10472e-19 7.85752 	-0.121616 	-2.10072e-19 7.84293 	-0.122385 	-1.36356e-19 7.82766 	-0.12319 	-5.2263e-20 7.82545 	-0.123448 	-9.95738e-20 7.82323 	-0.123706 	-1.46885e-19 7.81328 	-0.124226 	-1.4199e-19 7.7984 	-0.124898 	-8.13877e-20 7.78349 	-0.125571 	-2.07867e-20 7.78115 	-0.125941 	-1.15748e-20 7.77879 	-0.126311 	-2.36375e-21 7.76952 	-0.126808 	0 7.75496 	-0.127369 	0 7.74038 	-0.127931 	0 7.73793 	-0.128405 	0 7.73546 	-0.128879 	0 7.72684 	-0.12936 	0 7.71257 	-0.12983 	0 7.69828 	-0.1303 	0 7.69574 	-0.130868 	0 7.69318 	-0.131437 	0 7.68521 	-0.13191 	0 7.67118 	-0.132305 	0 7.65714 	-0.132699 	0 7.65453 	-0.133356 	0 7.65188 	-0.134014 	0 7.64454 	-0.134483 	0 7.63074 	-0.134817 	0 7.61691 	-0.135152 	0 7.61423 	-0.135891 	0 7.61152 	-0.13663 	0 7.60476 	-0.137101 	0 7.59117 	-0.137388 	0 7.57753 	-0.137675 	0 7.57479 	-0.138491 	0 7.57139 	-0.139255 	0 7.56451 	-0.139736 	0 7.55241 	-0.140035 	0 7.53893 	-0.140285 	0 7.53614 	-0.141172 	0 7.53192 	-0.141926 	0 7.52506 	-0.14243 	0 7.51441 	-0.142771 	-4.04367e-21 7.50107 	-0.142994 	-1.09672e-20 7.49821 	-0.143948 	-3.45687e-21 7.4932 	-0.144672 	0 7.48634 	-0.145201 	0 7.47709 	-0.145609 	-2.59674e-21 7.46386 	-0.145814 	-9.56549e-21 7.46096 	-0.146829 	-1.99325e-21 7.45515 	-0.147505 	0 7.44828 	-0.14806 	0 7.4404 	-0.148558 	0 7.42726 	-0.148751 	0 7.4243 	-0.149826 	0 7.41769 	-0.150439 	2.07001e-22 7.41081 	-0.151021 	4.28092e-22 7.4039 	-0.151603 	6.49217e-22 7.3912 	-0.151815 	-2.64357e-21 7.38766 	-0.152872 	-2.59842e-20 7.38078 	-0.153482 	-2.46829e-20 7.37387 	-0.154092 	-2.33762e-20 7.36694 	-0.154703 	-2.2064e-20 7.35563 	-0.155011 	-1.1276e-20 7.35125 	-0.156005 	-2.03946e-21 7.34434 	-0.156644 	-1.01242e-20 7.3374 	-0.157283 	-1.82103e-20 7.33043 	-0.157923 	-2.62978e-20 7.32049 	-0.158343 	-3.92474e-20 7.31527 	-0.159263 	-4.37522e-20 7.30832 	-0.159932 	-4.31841e-20 7.30134 	-0.1606 	-4.26134e-20 7.29433 	-0.161269 	-4.20401e-20 7.28574 	-0.161817 	-3.52868e-20 7.27967 	-0.162652 	-2.88738e-20 7.27266 	-0.16335 	-2.16075e-20 7.26563 	-0.164049 	-1.43428e-20 7.25856 	-0.164747 	-7.07964e-21 7.25132 	-0.165434 	0 7.25066 	-0.165524 	0 7.24992 	-0.165601 	0 7.24918 	-0.165677 	0 7.24844 	-0.165754 	0 7.24771 	-0.16583 	0 7.24119 	-0.166482 	0 7.23465 	-0.167134 	0 7.22809 	-0.167786 	0 7.2215 	-0.168438 	0 7.21463 	-0.168904 	0 7.2081 	-0.169837 	0 7.20074 	-0.170596 	0 7.19335 	-0.171354 	0 7.18592 	-0.172113 	0 7.17803 	-0.172492 	0 7.17221 	-0.17364 	-6.83178e-23 7.16477 	-0.174428 	-1.98442e-22 7.1573 	-0.175217 	-3.28533e-22 7.14979 	-0.176006 	-4.5859e-22 7.14175 	-0.176232 	-4.39919e-22 7.13652 	-0.177584 	-2.21881e-20 7.129 	-0.178403 	-2.36423e-20 7.12144 	-0.179222 	-2.51036e-20 7.11384 	-0.180041 	-2.65722e-20 7.10572 	-0.180124 	3.26562e-21 7.10099 	-0.181673 	-3.55591e-22 7.09337 	-0.182521 	6.07477e-21 7.08572 	-0.18337 	1.25034e-20 7.07797 	-0.184105 	1.89289e-20 7.06989 	-0.184167 	2.5345e-20 7.06487 	-0.185724 	1.82965e-20 7.05786 	-0.186782 	1.59319e-20 7.05011 	-0.187659 	1.52589e-20 7.04223 	-0.188242 	1.43133e-20 7.03421 	-0.188358 	1.29414e-20 7.02892 	-0.189921 	1.28874e-20 7.02243 	-0.191183 	1.24078e-20 7.01457 	-0.192089 	1.14298e-20 7.00663 	-0.192526 	1.25173e-20 6.99864 	-0.192695 	1.47815e-20 6.99308 	-0.194266 	1.14735e-20 6.98705 	-0.195723 	8.62988e-21 6.97907 	-0.196658 	7.9426e-21 6.97111 	-0.196955 	1.00493e-20 6.96313 	-0.197174 	1.25e-20 6.95732 	-0.198752 	8.98916e-21 6.95144 	-0.200331 	5.47387e-21 6.94361 	-0.201258 	-5.46626e-22 6.93564 	-0.201525 	-4.25328e-21 6.92765 	-0.201791 	-7.9606e-21 6.92159 	-0.203378 	-4.64777e-21 6.91547 	-0.204966 	-1.33654e-21 6.90818 	-0.205919 	0 6.90018 	-0.206231 	0 6.89216 	-0.206543 	0 6.88587 	-0.208139 	0 6.87952 	-0.209735 	0 6.87276 	-0.210715 	-2.35589e-21 6.86471 	-0.211071 	-5.84333e-21 6.85664 	-0.211427 	-9.3315e-21 6.85013 	-0.213032 	-6.23385e-21 6.84355 	-0.214637 	-3.13777e-21 6.8373 	-0.215637 	-3.1841e-21 6.8292 	-0.216041 	-1.04649e-21 6.82106 	-0.21644 	1.11095e-21 6.81433 	-0.218055 	-2.66982e-20 6.80764 	-0.219527 	-4.78196e-20 6.80125 	-0.220522 	-4.6446e-20 6.79362 	-0.221141 	-2.39405e-20 6.7854 	-0.221582 	8.60751e-21 6.77846 	-0.223206 	-2.51494e-20 6.77171 	-0.224521 	-4.11405e-20 6.76516 	-0.225541 	-4.02433e-20 6.75796 	-0.226369 	-3.02538e-20 6.74964 	-0.226851 	-3.8822e-21 6.7425 	-0.228486 	-7.2015e-21 6.73572 	-0.229649 	-3.01142e-21 6.729 	-0.230695 	3.03947e-21 6.7222 	-0.231726 	9.1568e-21 6.71376 	-0.232249 	1.76108e-20 6.70648 	-0.23384 	1.00066e-20 6.69964 	-0.234912 	1.33949e-20 6.69276 	-0.235984 	1.67863e-20 6.68582 	-0.237056 	2.01808e-20 6.67776 	-0.237776 	2.92045e-20 6.67046 	-0.239213 	3.44129e-20 6.66345 	-0.240311 	3.04868e-20 6.6564 	-0.241409 	2.65558e-20 6.64929 	-0.242507 	2.26197e-20 6.64162 	-0.243435 	1.32786e-20 6.63447 	-0.244699 	1.06797e-20 6.62744 	-0.245799 	8.08761e-21 6.62037 	-0.246899 	5.49652e-21 6.61325 	-0.247999 	2.90646e-21 6.6065 	-0.249035 	4.65914e-22 6.60625 	-0.249072 	3.66212e-22 6.606 	-0.249109 	2.66509e-22 6.60575 	-0.249146 	1.66805e-22 6.60549 	-0.249182 	6.71e-23 6.60525 	-0.249212 	6.48181e-23 6.59763 	-0.250368 	2.55382e-21 6.58994 	-0.251516 	5.13836e-21 6.58221 	-0.252664 	7.72174e-21 6.57442 	-0.253811 	1.0304e-20 6.5668 	-0.254721 	1.70054e-20 6.55946 	-0.25614 	2.27366e-20 6.55158 	-0.257314 	2.64863e-20 6.54364 	-0.258488 	3.02419e-20 6.53565 	-0.259662 	3.40034e-20 6.52804 	-0.260362 	2.76726e-20 6.52097 	-0.26205 	3.61479e-20 6.51288 	-0.263251 	3.68409e-20 6.50473 	-0.264451 	3.75387e-20 6.49654 	-0.265633 	3.79348e-20 6.48896 	-0.266134 	2.69381e-20 6.4819 	-0.267979 	3.74243e-20 6.47382 	-0.269324 	3.43948e-20 6.46546 	-0.27055 	2.81458e-20 6.45731 	-0.271509 	1.75825e-20 6.44954 	-0.272033 	-3.78264e-23 6.44223 	-0.273903 	-2.52625e-21 6.43441 	-0.275532 	-6.59488e-21 6.42583 	-0.276783 	-1.31524e-20 6.41772 	-0.277511 	-2.15525e-20 6.40976 	-0.278057 	-3.05964e-20 6.40221 	-0.279951 	-2.00236e-20 6.39457 	-0.281844 	-9.44447e-21 6.3859 	-0.283068 	-6.80487e-21 6.37776 	-0.283634 	-1.85913e-20 6.3696 	-0.2842 	-3.03787e-20 6.3618 	-0.286118 	1.56139e-21 6.35392 	-0.288036 	3.35025e-20 6.34577 	-0.28929 	3.60513e-20 6.33743 	-0.289875 	8.83229e-21 6.32905 	-0.290461 	-1.83911e-20 6.321 	-0.292402 	-1.14728e-20 6.31287 	-0.294342 	-4.55647e-21 6.30526 	-0.295626 	0 6.2967 	-0.29623 	0 6.2881 	-0.296834 	0 6.2798 	-0.298797 	0 6.27163 	-0.300565 	0 6.26392 	-0.301812 	0 6.25557 	-0.302696 	0 6.24674 	-0.303318 	0 6.23819 	-0.305302 	0 6.23007 	-0.306799 	3.77014e-23 6.22212 	-0.308063 	9.34196e-23 6.21402 	-0.309269 	-2.13106e-23 6.20495 	-0.309909 	-1.81241e-21 6.19622 	-0.311848 	1.59342e-20 6.18809 	-0.313131 	9.57207e-21 6.17989 	-0.314413 	3.19844e-21 6.17164 	-0.315694 	-3.18675e-21 6.16273 	-0.316608 	-2.02751e-20 6.15406 	-0.318261 	-1.53742e-20 6.14567 	-0.319561 	-1.16312e-20 6.13723 	-0.32086 	-7.89054e-21 6.12872 	-0.322159 	-4.15237e-21 6.12008 	-0.323414 	-4.30393e-22 6.11894 	-0.323623 	-3.25351e-22 6.11784 	-0.323792 	2.94954e-22 6.11674 	-0.32396 	9.15296e-22 6.11564 	-0.324129 	1.53567e-21 6.11454 	-0.324296 	2.15117e-21 6.10741 	-0.32545 	8.41964e-21 6.10023 	-0.326603 	1.47e-20 6.093 	-0.327755 	2.09922e-20 6.08573 	-0.328907 	2.72964e-20 6.07819 	-0.329994 	1.5635e-20 6.0707 	-0.33141 	4.97942e-21 6.06224 	-0.332749 	-4.84017e-21 6.05372 	-0.334087 	-1.46687e-20 6.04514 	-0.335424 	-2.45063e-20 6.03598 	-0.33663 	-3.41914e-20 6.02931 	-0.338146 	-5.89269e-20 6.02058 	-0.339501 	-6.29527e-20 6.0118 	-0.340854 	-6.70012e-20 6.00279 	-0.342169 	-6.19482e-20 5.99319 	-0.343365 	-2.84074e-20 5.98633 	-0.344898 	-1.48566e-20 5.97839 	-0.346351 	-4.09217e-21 5.96934 	-0.34772 	3.72595e-21 5.95971 	-0.348982 	8.52994e-21 5.9498 	-0.350196 	1.20008e-20 5.94267 	-0.351742 	3.83652e-20 5.93548 	-0.353286 	6.47268e-20 5.92619 	-0.354658 	6.44403e-20 5.91602 	-0.355888 	3.72657e-20 5.90578 	-0.357118 	1.00843e-20 5.89839 	-0.358677 	5.84095e-21 5.89093 	-0.360234 	1.59533e-21 5.88218 	-0.361641 	-5.00939e-21 5.87167 	-0.362882 	-1.30296e-20 5.86111 	-0.364123 	-2.10556e-20 5.85344 	-0.365695 	-1.45986e-20 5.84561 	-0.367249 	-9.02553e-21 5.83695 	-0.368665 	-1.06356e-20 5.82666 	-0.369956 	-1.70687e-20 5.81575 	-0.371203 	-2.51837e-20 5.8078 	-0.372789 	-1.87009e-20 5.79924 	-0.374276 	-7.6058e-21 5.79026 	-0.375699 	6.52789e-21 5.78095 	-0.3771 	2.02417e-20 5.76969 	-0.37835 	3.09159e-20 5.76135 	-0.37993 	4.65054e-20 5.7521 	-0.381359 	4.68337e-20 5.74278 	-0.382786 	4.71542e-20 5.73339 	-0.384213 	4.74667e-20 5.7229 	-0.385554 	4.05589e-20 5.71637 	-0.38666 	3.86924e-20 5.70943 	-0.387698 	3.34126e-20 5.70246 	-0.388735 	2.81319e-20 5.69544 	-0.389772 	2.28502e-20 5.68868 	-0.390764 	1.77904e-20 5.68607 	-0.391168 	1.55173e-20 5.68346 	-0.391571 	1.32437e-20 5.68083 	-0.391974 	1.09696e-20 5.67821 	-0.392378 	8.69493e-21 5.67559 	-0.392655 	8.25725e-21 5.66643 	-0.394228 	8.49735e-21 5.65698 	-0.395667 	4.15382e-21 5.64745 	-0.397105 	-1.69397e-22 5.63786 	-0.398541 	-4.4722e-21 5.62821 	-0.39941 	-2.63538e-20 5.61958 	-0.401447 	-8.47863e-20 5.60978 	-0.402883 	-9.23614e-20 5.59991 	-0.404318 	-9.99793e-20 5.58996 	-0.405594 	-9.37079e-20 5.57989 	-0.406192 	-2.78574e-20 5.57118 	-0.40832 	3.04545e-20 5.56173 	-0.410109 	6.93028e-20 5.5515 	-0.411538 	8.7506e-20 5.54112 	-0.412375 	6.59932e-20 5.53064 	-0.412991 	2.97345e-20 5.52163 	-0.415089 	6.50073e-20 5.51252 	-0.417185 	1.00279e-19 5.50219 	-0.418534 	1.00438e-19 5.49135 	-0.419166 	6.08137e-20 5.48045 	-0.419796 	2.11721e-20 5.47113 	-0.421862 	1.13588e-20 5.46171 	-0.423925 	1.53775e-21 5.4519 	-0.425311 	4.25906e-22 5.44064 	-0.425958 	7.69704e-21 5.42932 	-0.426603 	1.49664e-20 5.41968 	-0.428639 	4.96719e-20 5.4098 	-0.430361 	6.22585e-20 5.39966 	-0.431653 	4.44959e-20 5.38901 	-0.432754 	1.81109e-20 5.37726 	-0.433409 	-2.86272e-20 5.36728 	-0.435404 	-3.13858e-20 5.35683 	-0.436672 	-4.01977e-20 5.3463 	-0.437938 	-4.90287e-20 5.33569 	-0.439201 	-5.7879e-20 5.32423 	-0.440141 	-6.81936e-20 5.31747 	-0.441209 	-8.17321e-20 5.31051 	-0.442005 	-8.04302e-20 5.30352 	-0.442799 	-7.91253e-20 5.2965 	-0.443593 	-7.78175e-20 5.2897 	-0.444358 	-7.65543e-20 5.28591 	-0.444809 	-7.48172e-20 5.28211 	-0.44526 	-7.30772e-20 5.2783 	-0.445711 	-7.13344e-20 5.27448