# vtk DataFile Version 2.0
track0
ASCII
DATASET POLYDATA
POINTS 10905 double
-0.0205 0.001 1e-05
-0.0202034 0.00100003 1e-05
-0.0199069 0.00100026 1e-05
-0.0196103 0.00100071 1e-05
-0.0193137 0.00100137 1e-05
-0.0190172 0.00100225 1e-05
-0.0187132 0.00100354 1e-05
-0.0184093 0.0010045 1e-05
-0.0181054 0.00100547 1e-05
-0.0178015 0.00100644 1e-05
-0.0174976 0.00100741 1e-05
-0.0172058 0.00100863 1e-05
-0.016914 0.0010094 1e-05
-0.0166222 0.00101011 1e-05
-0.0163305 0.00101076 1e-05
-0.0160387 0.00101136 1e-05
-0.0157586 0.0010122 1e-05
-0.0154784 0.00101261 1e-05
-0.0151983 0.00101298 1e-05
-0.0149182 0.0010133 1e-05
-0.0146381 0.00101357 1e-05
-0.0143692 0.00101413 1e-05
-0.0141002 0.00101427 1e-05
-0.0138313 0.00101438 1e-05
-0.0135624 0.00101445 1e-05
-0.0132934 0.00101449 1e-05
-0.0130353 0.00101484 1e-05
-0.0127771 0.00101478 1e-05
-0.0125189 0.0010147 1e-05
-0.0122607 0.00101459 1e-05
-0.0120025 0.00101445 1e-05
-0.0117547 0.00101466 1e-05
-0.0115068 0.00101446 1e-05
-0.0112589 0.00101423 1e-05
-0.0110111 0.00101398 1e-05
-0.0107632 0.0010137 1e-05
-0.0105252 0.00101383 1e-05
-0.0102873 0.00101351 1e-05
-0.0100493 0.00101317 1e-05
-0.00981133 0.00101281 1e-05
-0.00957337 0.00101243 1e-05
-0.00934491 0.0010125 1e-05
-0.00911645 0.00101209 1e-05
-0.008888 0.00101166 1e-05
-0.00865954 0.00101121 1e-05
-0.00843108 0.00101074 1e-05
-0.00821175 0.00101078 1e-05
-0.00799242 0.00101028 1e-05
-0.00777309 0.00100977 1e-05
-0.00755376 0.00100923 1e-05
-0.00733443 0.00100868 1e-05
-0.00712387 0.0010087 1e-05
-0.0069133 0.00100812 1e-05
-0.00670273 0.00100753 1e-05
-0.00649217 0.00100692 1e-05
-0.0062816 0.00100629 1e-05
-0.00607944 0.00100629 1e-05
-0.00587729 0.00100565 1e-05
-0.00567514 0.00100498 1e-05
-0.00547299 0.00100429 1e-05
-0.00527083 0.00100358 1e-05
-0.00507675 0.00100359 1e-05
-0.00488268 0.00100287 1e-05
-0.0046886 0.00100213 1e-05
-0.00449452 0.00100136 1e-05
-0.00430044 0.00100058 1e-05
-0.00411412 0.00100057 1e-05
-0.0039278 0.00099978 1e-05
-0.00374148 0.000998962 1e-05
-0.00355516 0.000998118 1e-05
-0.00336883 0.000997249 1e-05
-0.00318995 0.00099724 1e-05
-0.00301107 0.000996363 1e-05
-0.0028322 0.000995459 1e-05
-0.00265332 0.000994525 1e-05
-0.00247443 0.000993563 1e-05
-0.0023027 0.000993536 1e-05
-0.00213097 0.000992562 1e-05
-0.00195924 0.000991555 1e-05
-0.00178751 0.000990515 1e-05
-0.00161577 0.000989441 1e-05
-0.0014509 0.000989386 1e-05
-0.00128603 0.000988295 1e-05
-0.00112117 0.00098716 1e-05
-0.000956301 0.00098598 1e-05
-0.000791418 0.000984753 1e-05
-0.000633135 0.000984622 1e-05
-0.000474856 0.000983343 1e-05
-0.000316578 0.000982015 1e-05
-0.0001583 0.000980635 1e-05
0 0.000979203 1e-05
0.000105677 0.000979051 1e-05
0.00021135 0.000978036 1e-05
0.000317023 0.000976988 1e-05
0.000422695 0.000975907 1e-05
0.000528387 0.000974792 1e-05
0.000634886 0.000974643 1e-05
0.000741379 0.0009735 1e-05
0.000847872 0.000972333 1e-05
0.000954365 0.000971141 1e-05
0.00106088 0.000969924 1e-05
0.00116821 0.000969813 1e-05
0.00127553 0.000968599 1e-05
0.00138285 0.000967363 1e-05
0.00149017 0.000966105 1e-05
0.00159752 0.000964878 1e-05
0.00170568 0.000964806 1e-05
0.00181383 0.000963663 1e-05
0.00192199 0.000962399 1e-05
0.00203014 0.000961117 1e-05
0.00213833 0.000960014 1e-05
0.00224733 0.000959983 1e-05
0.00235633 0.000958974 1e-05
0.00246532 0.000957716 1e-05
0.00257432 0.00095644 1e-05
0.00268334 0.00095546 1e-05
0.00279319 0.000955461 1e-05
0.00290303 0.000954572 1e-05
0.00301288 0.000953333 1e-05
0.00312272 0.000952074 1e-05
0.00323259 0.000951201 1e-05
0.00334329 0.000951219 1e-05
0.00345399 0.000950428 1e-05
0.00356469 0.000949212 1e-05
0.00367539 0.000947975 1e-05
0.00378611 0.000947189 1e-05
0.00389767 0.000947212 1e-05
0.00400923 0.000946499 1e-05
0.00412079 0.000945306 1e-05
0.00423235 0.000944092 1e-05
0.00434393 0.000943376 1e-05
0.00445636 0.000943392 1e-05
0.00456879 0.000942739 1e-05
0.00468122 0.000941567 1e-05
0.00479364 0.000940372 1e-05
0.00490609 0.000939708 1e-05
0.0050194 0.000939708 1e-05
0.0051327 0.000939097 1e-05
0.005246 0.000937938 1e-05
0.0053593 0.000936756 1e-05
0.00547262 0.000936129 1e-05
0.00558681 0.000936103 1e-05
0.00570099 0.000935518 1e-05
0.00581518 0.000934379 1e-05
0.00592936 0.000933232 1e-05
0.00604356 0.000932625 1e-05
0.00615863 0.000932567 1e-05
0.00627371 0.000931996 1e-05
0.00638877 0.000930917 1e-05
0.00650384 0.000929828 1e-05
0.00661893 0.000929232 1e-05
0.0067349 0.000929135 1e-05
0.00685087 0.000928568 1e-05
0.00696683 0.000927534 1e-05
0.0070828 0.00092649 1e-05
0.00719878 0.000925896 1e-05
0.00731565 0.000925755 1e-05
0.00743252 0.000925183 1e-05
0.00754939 0.000924183 1e-05
0.00766625 0.000923171 1e-05
0.00778313 0.000922569 1e-05
0.00790091 0.000922381 1e-05
0.00801869 0.000921796 1e-05
0.00813647 0.000920818 1e-05
0.00825424 0.000919828 1e-05
0.00837203 0.000919211 1e-05
0.00849073 0.000918972 1e-05
0.00860942 0.000918368 1e-05
0.00872811 0.000917403 1e-05
0.00884681 0.000916425 1e-05
0.00896551 0.000915788 1e-05
0.00908513 0.000915495 1e-05
0.00920475 0.000914866 1e-05
0.00932436 0.000913905 1e-05
0.00944398 0.000912931 1e-05
0.0095636 0.000912268 1e-05
0.00968415 0.00091192 1e-05
0.0098047 0.000911262 1e-05
0.00992524 0.000910297 1e-05
0.0100458 0.00090932 1e-05
0.0101663 0.000908627 1e-05
0.0102878 0.00090822 1e-05
0.0104093 0.000907528 1e-05
0.0105308 0.000906553 1e-05
0.0106523 0.000905566 1e-05
0.0107738 0.000904839 1e-05
0.0108962 0.000904371 1e-05
0.0110186 0.000903641 1e-05
0.0111411 0.000902667 1e-05
0.0112635 0.000901686 1e-05
0.0113859 0.00090092 1e-05
0.0115093 0.000900391 1e-05
0.0116327 0.00089962 1e-05
0.0117561 0.00089865 1e-05
0.0118794 0.000897673 1e-05
0.0120028 0.000896865 1e-05
0.0121272 0.000896272 1e-05
0.0122515 0.000895456 1e-05
0.0123759 0.000894482 1e-05
0.0125002 0.0008935 1e-05
0.0126245 0.000892647 1e-05
0.0127498 0.00089199 1e-05
0.0128752 0.000891126 1e-05
0.0130005 0.000890139 1e-05
0.0131258 0.000889145 1e-05
0.0132511 0.000888244 1e-05
0.0133774 0.00088752 1e-05
0.0135036 0.000886607 1e-05
0.0136299 0.0008856 1e-05
0.0137562 0.000884586 1e-05
0.0138825 0.000883635 1e-05
0.0140098 0.000882845 1e-05
0.014137 0.000881879 1e-05
0.0142643 0.000880847 1e-05
0.0143915 0.000879806 1e-05
0.0145188 0.000878804 1e-05
0.0146471 0.000877945 1e-05
0.0147753 0.000876925 1e-05
0.0149036 0.000875862 1e-05
0.0150318 0.000874789 1e-05
0.0151601 0.000873732 1e-05
0.0152893 0.000872806 1e-05
0.0154186 0.000871729 1e-05
0.0155478 0.000870629 1e-05
0.0156771 0.000869521 1e-05
0.0158063 0.000868408 1e-05
0.0159366 0.000867412 1e-05
0.0160668 0.00086628 1e-05
0.0161971 0.000865139 1e-05
0.0163273 0.00086399 1e-05
0.0164576 0.000862831 1e-05
0.0165889 0.000861766 1e-05
0.0167201 0.000860589 1e-05
0.0168514 0.000859404 1e-05
0.0169827 0.00085821 1e-05
0.0171139 0.000857006 1e-05
0.0172462 0.00085587 1e-05
0.0173785 0.000854646 1e-05
0.0175108 0.000853412 1e-05
0.0176431 0.000852169 1e-05
0.0177754 0.000850917 1e-05
0.0179087 0.000849711 1e-05
0.018042 0.000848435 1e-05
0.0181753 0.000847151 1e-05
0.0183087 0.000845856 1e-05
0.018442 0.000844553 1e-05
0.0185763 0.000843275 1e-05
0.0187107 0.000841946 1e-05
0.018845 0.000840607 1e-05
0.0189794 0.000839259 1e-05
0.0191137 0.000837901 1e-05
0.0192491 0.000836553 1e-05
0.0193845 0.000835167 1e-05
0.0195199 0.000833772 1e-05
0.0196553 0.000832368 1e-05
0.0197907 0.000830953 1e-05
0.0199272 0.000829534 1e-05
0.0200636 0.00082809 1e-05
0.0202001 0.000826637 1e-05
0.0203365 0.000825174 1e-05
0.020473 0.000823701 1e-05
0.0205203 0.000823188 1e-05
0.0205676 0.000822673 1e-05
0.0206149 0.000822156 1e-05
0.0206623 0.000821639 1e-05
0.0207087 0.00082113 1e-05
0.0207991 0.000820137 1e-05
0.0208894 0.000819139 1e-05
0.0209798 0.000818138 1e-05
0.0210702 0.000817132 1e-05
0.0211606 0.000816122 1e-05
0.0212991 0.000814561 1e-05
0.0214377 0.000812996 1e-05
0.0215763 0.00081142 1e-05
0.0217149 0.000809834 1e-05
0.0218535 0.000808238 1e-05
0.0219931 0.000806608 1e-05
0.0221328 0.000804978 1e-05
0.0222724 0.000803338 1e-05
0.0224121 0.000801689 1e-05
0.0225517 0.000800029 1e-05
0.0226925 0.000798328 1e-05
0.0228332 0.000796633 1e-05
0.022974 0.000794928 1e-05
0.0231147 0.000793211 1e-05
0.0232555 0.000791484 1e-05
0.0233973 0.000789712 1e-05
0.0235391 0.000787948 1e-05
0.023681 0.000786173 1e-05
0.0238228 0.000784388 1e-05
0.0239647 0.000782591 1e-05
0.0241076 0.000780747 1e-05
0.0242505 0.000778913 1e-05
0.0243935 0.000777069 1e-05
0.0245364 0.000775214 1e-05
0.0246794 0.000773349 1e-05
0.0248234 0.000771434 1e-05
0.0249675 0.000769533 1e-05
0.0251115 0.00076762 1e-05
0.0252556 0.000765696 1e-05
0.0253996 0.000763761 1e-05
0.0255448 0.000761774 1e-05
0.02569 0.000759797 1e-05
0.0258351 0.000757811 1e-05
0.0259803 0.000755813 1e-05
0.0261255 0.000753798 1e-05
0.0262718 0.000751736 1e-05
0.0264181 0.000749679 1e-05
0.0265644 0.000747615 1e-05
0.0267107 0.000745538 1e-05
0.026857 0.000743443 1e-05
0.0270044 0.000741302 1e-05
0.0271519 0.000739164 1e-05
0.0272993 0.00073702 1e-05
0.0274468 0.000734864 1e-05
0.0275942 0.000732688 1e-05
0.0277428 0.000730469 1e-05
0.0278914 0.00072825 1e-05
0.0280399 0.000726026 1e-05
0.0281885 0.000723789 1e-05
0.0283371 0.000721532 1e-05
0.0284869 0.000719236 1e-05
0.0286366 0.000716935 1e-05
0.0287863 0.000714631 1e-05
0.0289361 0.000712313 1e-05
0.0290858 0.000709976 1e-05
0.0292367 0.000707602 1e-05
0.0293876 0.000705221 1e-05
0.0295385 0.000702835 1e-05
0.0296894 0.000700436 1e-05
0.0298403 0.000698019 1e-05
0.0299924 0.000695565 1e-05
0.0301445 0.000693104 1e-05
0.0302966 0.000690634 1e-05
0.0304486 0.000688152 1e-05
0.0306007 0.000685655 1e-05
0.030754 0.000683121 1e-05
0.0309072 0.000680578 1e-05
0.0310605 0.000678025 1e-05
0.0312138 0.000675459 1e-05
0.031367 0.000672879 1e-05
0.0315215 0.000670265 1e-05
0.0316759 0.000667638 1e-05
0.0318304 0.000665 1e-05
0.0319848 0.000662349 1e-05
0.0321393 0.000659685 1e-05
0.0322949 0.000656987 1e-05
0.0324506 0.000654276 1e-05
0.0326062 0.000651549 1e-05
0.0327619 0.000648811 1e-05
0.0329175 0.000646061 1e-05
[...]
POINT_DATA 10905
 FIELD attributes 2
p 1 10905 float
-4.82186 -4.87195 -4.93199 -4.99259 -5.05376 -5.17904 -5.25226 -5.33217 -5.41208 -5.49199 -5.57709 -5.5812 -5.60162 -5.622 -5.64232 -5.67435 -5.66359 -5.67256 -5.68147 -5.69032 -5.71544 -5.71133 -5.72438 -5.73738 -5.75032 -5.77933 -5.7746 -5.78616 -5.79766 -5.80912 -5.83727 -5.82984 -5.83932 -5.84875 -5.85815 -5.88604 -5.87698 -5.88614 -5.89527 -5.90436 -5.93424 -5.92327 -5.93246 -5.94161 -5.95072 -5.98334 -5.96961 -5.97861 -5.98757 -5.99649 -6.03218 -6.0152 -6.02409 -6.03295 -6.04177 -6.08118 -6.06072 -6.06987 -6.07898 -6.08805 -6.13211 -6.10795 -6.11754 -6.1271 -6.13661 -6.18595 -6.15754 -6.16765 -6.17771 -6.18773 -6.24309 -6.20999 -6.22057 -6.23111 -6.24159 -6.30347 -6.26467 -6.27553 -6.28634 -6.29708 -6.36643 -6.32081 -6.33124 -6.34158 -6.35185 -6.4293 -6.36763 -6.36961 -6.3715 -6.3733 -6.45026 -6.34092 -6.33239 -6.32377 -6.31508 -6.42444 -6.3027 -6.29708 -6.2914 -6.28567 -6.41195 -6.30552 -6.3051 -6.30464 -6.30948 -6.42732 -6.34177 -6.33421 -6.33487 -6.35282 -6.44752 -6.38179 -6.36761 -6.36969 -6.39681 -6.47761 -6.42926 -6.41375 -6.41837 -6.45213 -6.52185 -6.48501 -6.46903 -6.47525 -6.51284 -6.57382 -6.54452 -6.52819 -6.53559 -6.57617 -6.63127 -6.60751 -6.59105 -6.59965 -6.64287 -6.69393 -6.6741 -6.65726 -6.66681 -6.71222 -6.76016 -6.74301 -6.72594 -6.73719 -6.78268 -6.82807 -6.81281 -6.79765 -6.80985 -6.85329 -6.89661 -6.88278 -6.86908 -6.8819 -6.92355 -6.96506 -6.95234 -6.93976 -6.95296 -6.99299 -7.03285 -7.02109 -7.00948 -7.02289 -7.0614 -7.09976 -7.08883 -7.07806 -7.09153 -7.12862 -7.16556 -7.15539 -7.14539 -7.15879 -7.19448 -7.23003 -7.22063 -7.21138 -7.22461 -7.25889 -7.29301 -7.28437 -7.27587 -7.28886 -7.32171 -7.35442 -7.34652 -7.34003 -7.35312 -7.38285 -7.41416 -7.40699 -7.4034 -7.41598 -7.4423 -7.47224 -7.46581 -7.46488 -7.47699 -7.50014 -7.52876 -7.52307 -7.52455 -7.53624 -7.55644 -7.58377 -7.57878 -7.58243 -7.5937 -7.61118 -7.63726 -7.63296 -7.63855 -7.64945 -7.66444 -7.68933 -7.68571 -7.69304 -7.7036 -7.7163 -7.74003 -7.7371 -7.74595 -7.75618 -7.76682 -7.78942 -7.7874 -7.79733 -7.80728 -7.81723 -7.83758 -7.83763 -7.84731 -7.857 -7.86669 -7.88464 -7.88655 -7.89601 -7.90547 -7.91495 -7.93072 -7.93429 -7.94355 -7.95282 -7.9621 -7.97592 -7.98096 -7.99005 -7.99916 -8.00827 -8.02036 -8.02669 -8.03566 -8.04463 -8.05361 -8.06418 -8.07166 -8.08052 -8.08939 -8.09826 -8.10752 -8.11022 -8.11324 -8.11626 -8.11929 -8.12225 -8.12808 -8.13392 -8.13975 -8.14559 -8.15117 -8.16014 -8.16897 -8.1778 -8.18664 -8.19472 -8.204 -8.2128 -8.22161 -8.23043 -8.23791 -8.24761 -8.2564 -8.2652 -8.274 -8.28079 -8.29096 -8.29969 -8.30843 -8.31717 -8.32318 -8.33391 -8.34244 -8.35097 -8.35951 -8.36435 -8.37534 -8.38368 -8.39203 -8.40023 -8.40412 -8.41517 -8.42359 -8.4317 -8.43886 -8.44212 -8.45296 -8.46153 -8.46921 -8.47507 -8.47774 -8.48833 -8.49715 -8.50447 -8.50913 -8.51146 -8.52193 -8.53121 -8.53833 -8.54196 -8.54412 -8.55458 -8.56445 -8.57146 -8.57414 -8.57621 -8.58668 -8.59715 -8.6039 -8.60593 -8.60797 -8.61845 -8.62893 -8.63547 -8.63749 -8.63952 -8.65002 -8.66053 -8.66689 -8.66892 -8.67095 -8.68147 -8.69198 -8.6982 -8.70024 -8.70229 -8.7128 -8.72331 -8.7294 -8.73145 -8.7335 -8.74399 -8.75449 -8.76045 -8.76251 -8.76456 -8.77502 -8.78476 -8.79055 -8.79337 -8.79542 -8.80581 -8.81461 -8.82037 -8.82396 -8.82599 -8.8363 -8.84414 -8.84986 -8.8542 -8.8562 -8.8664 -8.87327 -8.87893 -8.88402 -8.88597 -8.89605 -8.90192 -8.90751 -8.91311 -8.91522 -8.92453 -8.93002 -8.93551 -8.94101 -8.94386 -8.95211 -8.95747 -8.96285 -8.96823 -8.97181 -8.97898 -8.98421 -8.98945 -8.99469 -8.99899 -9.00508 -9.01015 -9.01523 -9.02032 -9.02532 -9.02593 -9.02645 -9.02696 -9.02748 -9.02799 -9.03243 -9.03687 -9.04132 -9.04578 -9.04904 -9.05495 -9.05972 -9.0645 -9.06928 -9.07156 -9.07853 -9.08308 -9.08765 -9.09223 -9.09301 -9.10099 -9.10532 -9.10966 -9.114 -9.11328 -9.12225 -9.12633 -9.13042 -9.13373 -9.1323 -9.14094 -9.14604 -9.14986 -9.15157 -9.14996 -9.15824 -9.16435 -9.16789 -9.16801 -9.16618 -9.1741 -9.1812 -9.18444 -9.18295 -9.18088 -9.18842 -9.19598 -9.19863 -9.1963 -9.19398 -9.20113 -9.20829 -9.2106 -9.20799 -9.20539 -9.21213 -9.21888 -9.22083 -9.21792 -9.21502 -9.22134 -9.22768 -9.22921 -9.22602 -9.2228 -9.22869 -9.23345 -9.23433 -9.2322 -9.22864 -9.23409 -9.23699 -9.23747 -9.23638 -9.23245 -9.23745 -9.23848 -9.23852 -9.23846 -9.23415 -9.2382 -9.23779 -9.23739 -9.237 -9.23363 -9.23572 -9.23484 -9.23397 -9.23311 -9.23078 -9.2309 -9.22956 -9.22822 -9.2269 -9.22566 -9.22562 -9.22558 -9.22554 -9.2255 -9.22541 -9.22367 -9.2219 -9.22014 -9.21839 -9.21522 -9.21434 -9.21204 -9.20975 -9.20746 -9.20239 -9.20234 -9.19948 -9.19663 -9.19368 -9.18678 -9.18684 -9.18408 -9.18065 -9.1757 -9.16825 -9.16765 -9.16571 -9.16168 -9.15469 -9.14668 -9.14538 -9.1441 -9.13914 -9.13053 -9.12193 -9.1199 -9.1179 -9.1123 -9.10307 -9.09385 -9.09108 -9.08833 -9.08205 -9.07217 -9.0623 -9.05877 -9.05421 -9.04689 -9.0377 -9.02716 -9.02283 -9.01596 -9.00788 -8.99952 -8.98827 -8.98279 -8.97391 -8.96505 -8.95619 -8.9455 -8.93761 -8.92792 -8.91824 -8.90857 -8.8987 -8.89756 -8.89621 -8.89486 -8.89351 -8.89217 -8.88296 -8.87377 -8.86458 -8.85541 -8.84464 -8.83483 -8.82341 -8.81201 -8.80062 -8.78578 -8.77694 -8.76463 -8.75232 -8.739 -8.72243 -8.71272 -8.7013 -8.68807 -8.6719 -8.65444 -8.64371 -8.633 -8.61843 -8.60004 -8.58166 -8.56989 -8.55813 -8.5426 -8.52327 -8.50395 -8.4911 -8.47781 -8.46087 -8.44144 -8.42115 -8.4072 -8.3908 -8.3728 -8.35441 -8.33314 -8.31763 -8.29854 -8.27946 -8.26039 -8.23979 -8.22664 -8.21199 -8.19735 -8.18272 -8.16871 -8.16306 -8.15741 -8.15176 -8.14611 -8.14002 -8.1192 -8.09793 -8.07668 -8.05544 -8.03216 -8.01185 -7.98945 -7.96707 -7.94411 -7.91865 -7.89758 -7.87532 -7.85179 -7.82602 -7.7994 -7.77715 -7.75491 -7.7299 -7.70213 -7.67435 -7.6509 -7.62746 -7.60131 -7.57238 -7.54345 -7.5188 -7.49286 -7.46516 -7.43676 -7.40667 -7.38078 -7.35191 -7.32304 -7.29419 -7.26415 -7.246 -7.22666 -7.20732 -7.18799 -7.16936 -7.15854 -7.14773 -7.13691 -7.1261 -7.11439 -7.08408 -7.05288 -7.0217 -6.99053 -6.956 -6.92666 -6.8945 -6.8621 -6.82799 -6.79159 -6.76098 -6.73011 -6.6963 -6.65878 -6.62126 -6.58942 -6.55758 -6.52236 -6.48369 -6.44501 -6.41188 -6.37744 -6.34053 -6.30264 -6.26288 -6.22845 -6.19033 -6.15222 -6.11412 -6.07484 -6.0586 -6.04124 -6.02388 -6.00652 -5.98958 -5.96763 -5.94568 -5.92373 -5.90179 -5.87874 -5.83954 -5.79921 -5.75889 -5.7184 -5.67514 -5.63581 -5.59535 -5.5539 -5.51027 -5.46591 -5.42544 -5.38498 -5.34205 -5.29663 -5.25119 -5.20959 -5.16746 -5.12304 -5.07756 -5.03108 -4.9884 -4.9431 -4.89761 -4.85214 -4.80572 -4.7871 -4.7676 -4.7481 -4.7286 -4.70953 -4.68247 -4.65542 -4.62837 -4.60132 -4.5727 -4.52683 -4.47939 -4.43195 -4.38385 -4.33284 -4.28688 -4.24022 -4.1918 -4.14003 -4.08808 -4.04108 -3.99409 -3.94421 -3.89139 -3.83854 -3.79052 -3.74067 -3.68929 -3.63792 -3.58429 -3.54578 -3.50515 -3.46452 -3.42389 -3.38486 -3.37287 -3.36088 -3.34889 -3.33691 -3.32446 -3.27179 -3.21866 -3.16554 -3.11241 -3.0568 -3.00445 -2.95129 -2.89726 -2.84117 -2.78466 -2.73139 -2.67813 -2.62286 -2.56551 -2.50813 -2.45396 -2.39842 -2.34184 -2.28527 -2.22728 -2.1937 -2.15882 -2.12394 -2.08906 -2.05529 -2.03255 -2.00981 -1.98708 -1.96434 -1.94044 -1.88346 -1.82532 -1.76718 -1.70826 -1.64682 -1.58998 -1.53305 -1.47363 -1.4115 -1.34931 -1.29166 -1.23373 -1.17293 -1.111 -1.04813 -0.989586 -0.928087 -0.866589 -0.805094 -0.745298 -0.744946 -0.744593 -0.744241 -0.743889 -0.743527 -0.681515 -0.619497 -0.557481 -0.495469 -0.431713 -0.370223 -0.308283 -0.245716 -0.181572 -0.117252 -0.0552357 0.00677921 0.0703014 0.134678 0.199388 0.261833 0.325734 0.389692 0.453651 0.517693 0.51774 0.517788 0.517836 0.517884 0.517931 0.582058 0.646184 0.71031 0.774516 0.841776 0.904293 0.967235 1.03176 1.09899 1.1663 1.22894 1.29197 1.35739 1.42343 1.49061 1.53465 1.58036 1.62626 1.67215 1.71669 1.73636 1.75604 1.77572 1.79541 1.81526 1.88009 1.94516 2.01022 2.07547 2.14106 2.2054 2.26975 2.33441 2.39939 2.46447 2.52834 2.59235 2.65643 2.72051 2.78476 2.79431 2.80388 2.81345 2.82302 2.83253 2.88651 2.94049 2.99448 3.04877 3.10503 3.16626 3.2278 3.29086 3.3561 3.42141 3.48178 3.54285 3.6056 3.66836 3.73259 3.75836 3.78491 3.81166 3.83841 3.86493 3.90019 3.93545 3.97071 4.00567 4.03962 4.10163 4.163 4.22402 4.28282 4.34151 4.40225 4.46257 4.52092 4.57912 4.63649 4.66337 4.68945 4.71525 4.74105 4.76674 4.79824 4.82974 4.86124 4.89317 4.92633 4.98082 5.03632 5.09246 5.15143 5.2105 5.26367 5.31744 5.37355 5.42975 5.48739 5.50905 5.53162 5.55452 5.57741 5.6006 5.6327 5.6648 5.6969 5.7283 5.7577 5.81377 5.86876 5.92274 5.97238 6.02192 6.07672 6.13053 6.18122 6.23186 6.28048 6.30292 6.32416 6.34502 6.36588 6.38697 6.41611 6.44525 6.47438 6.50425 6.53671 6.58331 6.63171 6.68125 6.73621 6.79149 6.83774 6.88473 6.93687 6.98989 7.04496 7.07056 7.0988 7.12774 7.15669 7.18626 7.20944 7.23263 7.25581 7.27839 7.29861 7.35451 7.40722 7.45983 7.50779 7.55415 7.6104 7.66669 7.71741 7.766 7.81338 7.85221 7.88812 7.92325 7.95837 7.99278 8.00918 8.02558 8.04198 8.0591 8.0789 8.12728 8.17964 8.23199 8.29059 8.35332 8.40186 8.45034 8.50722 8.57042 8.63429 8.67168 8.71453 8.75933 8.80416 8.84947 8.8646 8.87973 8.89486 8.90922 8.92151 8.98606 9.0472 9.10838 9.16287 9.21311 9.28045 9.34787 9.40527 9.45829 9.50947 9.55109 9.58804 9.6231 9.65816 9.69257 9.71469 9.7368 9.75891 9.78276 9.81121 9.86102 9.9183 9.97566 10.0446 10.117 10.1666 10.2164 10.2814 10.3503 10.423 10.4524 10.4875 10.5247 10.5619 10.6023 10.6287 10.6552 10.6816 10.7058 10.7235 10.7968 10.8611 10.9252 10.9748 11.0198 11.0945 11.1693 11.221 11.266 11.3052 11.3568 11.3984 11.4387 11.4791 11.5222 11.5347 11.5471 11.5596 11.5722 11.5917 11.6384 11.6887 11.7389 11.7926 11.8584 11.8837 11.9108 11.9604 12.0407 12.1207 12.164 12.2076 12.2561 12.3052 12.3564 12.3628 12.3775 12.3965 12.4154 12.4375 12.4607 12.4839 12.507 12.5258 12.5341 12.594 12.6455 12.6895 12.7001 12.71 12.7633 12.8095 12.8299 12.8484 12.851 12.8783 12.8875 12.8958 12.9042 12.9134 12.9193 12.9253 12.9313 12.9372 12.9555 12.9514 12.9597 12.968 12.9835 13.0254 13.0035 12.9851 12.9853 13.017 13.0504 13.019 12.9864 12.9813 13.0042 13.0282 12.9867 12.9547 12.9433 12.9427 12.9565 12.9045 12.8815 12.8604 12.8395 12.8335 12.799 12.7789 12.7588 12.7387 12.7094 12.7006 12.6917 12.6829 12.6741 12.6568 12.6239 12.5835 12.5433 12.5032 12.424 12.4012 12.356 12.3047 12.2253 12.1283 12.0912 12.0558 11.9838 11.8745 11.7637 11.712 11.6621 11.5714 11.449 11.3223 11.2539 11.1671 11.0579 10.941 10.7992 10.7152 10.5921 10.4653 10.3387 10.1826 10.0675 9.9238 9.78017 9.63664 9.47438 9.33241 9.16447 8.99667 8.829 8.64307 8.47008 8.28465 8.09925 7.91388 7.71881 7.51807 7.29174 7.06558 6.83958 6.59184 6.35602 6.12299 5.88994 5.65688 5.42637 5.15252 4.81927 4.48658 4.15438 3.76853 3.43577 3.17336 2.91175 2.6508 2.45451 2.13518 1.62561 1.11431 0.601544 0