# vtk DataFile Version 2.0
track0
ASCII
DATASET POLYDATA
POINTS 10910 double
-0.0205 0.001 1e-05
-0.0202034 0.00100003 1e-05
-0.0199069 0.00100026 1e-05
-0.0196103 0.00100071 1e-05
-0.0193137 0.00100137 1e-05
-0.0190172 0.00100225 1e-05
-0.0187132 0.00100354 1e-05
-0.0184093 0.0010045 1e-05
-0.0181054 0.00100547 1e-05
-0.0178015 0.00100644 1e-05
-0.0174976 0.0010074 1e-05
-0.0172058 0.00100862 1e-05
-0.016914 0.00100939 1e-05
-0.0166222 0.0010101 1e-05
-0.0163305 0.00101075 1e-05
-0.0160387 0.00101135 1e-05
-0.0157586 0.00101219 1e-05
-0.0154784 0.0010126 1e-05
-0.0151983 0.00101296 1e-05
-0.0149182 0.00101328 1e-05
-0.0146381 0.00101355 1e-05
-0.0143692 0.0010141 1e-05
-0.0141002 0.00101424 1e-05
-0.0138313 0.00101435 1e-05
-0.0135624 0.00101442 1e-05
-0.0132934 0.00101445 1e-05
-0.0130353 0.0010148 1e-05
-0.0127771 0.00101474 1e-05
-0.0125189 0.00101466 1e-05
-0.0122607 0.00101454 1e-05
-0.0120025 0.0010144 1e-05
-0.0117547 0.0010146 1e-05
-0.0115068 0.00101439 1e-05
-0.0112589 0.00101416 1e-05
-0.0110111 0.00101391 1e-05
-0.0107632 0.00101363 1e-05
-0.0105252 0.00101375 1e-05
-0.0102873 0.00101342 1e-05
-0.0100493 0.00101308 1e-05
-0.00981133 0.00101271 1e-05
-0.00957337 0.00101233 1e-05
-0.00934491 0.00101239 1e-05
-0.00911645 0.00101197 1e-05
-0.008888 0.00101153 1e-05
-0.00865954 0.00101107 1e-05
-0.00843108 0.00101059 1e-05
-0.00821175 0.00101063 1e-05
-0.00799242 0.00101012 1e-05
-0.00777309 0.0010096 1e-05
-0.00755376 0.00100905 1e-05
-0.00733443 0.00100849 1e-05
-0.00712387 0.0010085 1e-05
-0.0069133 0.00100792 1e-05
-0.00670273 0.00100731 1e-05
-0.00649217 0.00100669 1e-05
-0.0062816 0.00100604 1e-05
-0.00607944 0.00100605 1e-05
-0.00587729 0.00100539 1e-05
-0.00567514 0.0010047 1e-05
-0.00547299 0.001004 1e-05
-0.00527083 0.00100328 1e-05
-0.00507675 0.00100327 1e-05
-0.00488268 0.00100254 1e-05
-0.0046886 0.00100178 1e-05
-0.00449452 0.001001 1e-05
-0.00430044 0.00100019 1e-05
-0.00411412 0.00100019 1e-05
-0.0039278 0.000999372 1e-05
-0.00374148 0.000998534 1e-05
-0.00355516 0.000997669 1e-05
-0.00336883 0.000996779 1e-05
-0.00318995 0.000996763 1e-05
-0.00301107 0.000995864 1e-05
-0.0028322 0.000994937 1e-05
-0.00265332 0.00099398 1e-05
-0.00247443 0.000992993 1e-05
-0.0023027 0.000992959 1e-05
-0.00213097 0.00099196 1e-05
-0.00195924 0.000990927 1e-05
-0.00178751 0.000989861 1e-05
-0.00161577 0.00098876 1e-05
-0.0014509 0.000988697 1e-05
-0.00128603 0.000987579 1e-05
-0.00112117 0.000986416 1e-05
-0.000956302 0.000985207 1e-05
-0.000791418 0.000983951 1e-05
-0.000633135 0.000983814 1e-05
-0.000474856 0.000982506 1e-05
-0.000316578 0.000981148 1e-05
-0.000158301 0.000979738 1e-05
0 0.000978276 1e-05
0.000105677 0.000978121 1e-05
0.00021135 0.000977085 1e-05
0.000317022 0.000976016 1e-05
0.000422694 0.000974913 1e-05
0.000528387 0.000973776 1e-05
0.000634886 0.000973621 1e-05
0.000741379 0.000972452 1e-05
0.000847872 0.000971257 1e-05
0.000954364 0.000970036 1e-05
0.00106088 0.000968787 1e-05
0.00116821 0.00096866 1e-05
0.00127553 0.000967411 1e-05
0.00138285 0.000966137 1e-05
0.00149017 0.00096484 1e-05
0.00159752 0.000963589 1e-05
0.00170568 0.00096349 1e-05
0.00181383 0.000962318 1e-05
0.00192199 0.000961006 1e-05
0.00203014 0.000959671 1e-05
0.00213833 0.000958532 1e-05
0.00224733 0.000958459 1e-05
0.00235633 0.00095741 1e-05
0.00246532 0.00095609 1e-05
0.00257431 0.000954748 1e-05
0.00268334 0.000953721 1e-05
0.00279319 0.000953666 1e-05
0.00290303 0.000952723 1e-05
0.00301288 0.000951408 1e-05
0.00312272 0.000950071 1e-05
0.00323259 0.000949136 1e-05
0.00334329 0.000949085 1e-05
0.00345399 0.000948228 1e-05
0.00356469 0.000946924 1e-05
0.00367538 0.000945595 1e-05
0.00378611 0.000944736 1e-05
0.00389767 0.000944677 1e-05
0.00400923 0.000943886 1e-05
0.00412079 0.000942593 1e-05
0.00423235 0.000941274 1e-05
0.00434393 0.000940473 1e-05
0.00445636 0.000940394 1e-05
0.00456879 0.000939651 1e-05
0.00468122 0.000938366 1e-05
0.00479364 0.000937055 1e-05
0.00490609 0.000936294 1e-05
0.0050194 0.000936186 1e-05
0.0051327 0.000935473 1e-05
0.005246 0.00093419 1e-05
0.0053593 0.000932881 1e-05
0.00547262 0.000932143 1e-05
0.00558681 0.000931997 1e-05
0.00570099 0.000931298 1e-05
0.00581517 0.000930052 1e-05
0.00592935 0.000928795 1e-05
0.00604356 0.000928067 1e-05
0.00615863 0.000927874 1e-05
0.0062737 0.000927178 1e-05
0.00638877 0.000925981 1e-05
0.00650384 0.000924772 1e-05
0.00661893 0.000924042 1e-05
0.0067349 0.000923797 1e-05
0.00685087 0.000923091 1e-05
0.00696683 0.000921928 1e-05
0.0070828 0.000920751 1e-05
0.00719878 0.000920009 1e-05
0.00731565 0.000919706 1e-05
0.00743252 0.000918982 1e-05
0.00754939 0.000917839 1e-05
0.00766625 0.000916682 1e-05
0.00778313 0.000915919 1e-05
0.00790091 0.000915553 1e-05
0.00801869 0.000914802 1e-05
0.00813647 0.000913668 1e-05
0.00825424 0.000912518 1e-05
0.00837203 0.000911726 1e-05
0.00849073 0.000911293 1e-05
0.00860942 0.000910507 1e-05
0.00872811 0.000909371 1e-05
0.0088468 0.000908219 1e-05
0.00896551 0.000907391 1e-05
0.00908513 0.000906887 1e-05
0.00920475 0.00090606 1e-05
0.00932436 0.000904912 1e-05
0.00944397 0.000903748 1e-05
0.0095636 0.000902876 1e-05
0.00968415 0.000902298 1e-05
0.0098047 0.000901424 1e-05
0.00992524 0.000900255 1e-05
0.0100458 0.000899069 1e-05
0.0101663 0.000898149 1e-05
0.0102878 0.000897493 1e-05
0.0104093 0.000896565 1e-05
0.0105308 0.000895387 1e-05
0.0106523 0.000894201 1e-05
0.0107738 0.000893226 1e-05
0.0108962 0.000892488 1e-05
0.0110186 0.000891501 1e-05
0.0111411 0.000890316 1e-05
0.0112635 0.00088912 1e-05
0.0113859 0.000888085 1e-05
0.0115093 0.000887263 1e-05
0.0116327 0.000886212 1e-05
0.0117561 0.000885006 1e-05
0.0118794 0.00088379 1e-05
0.0120028 0.000882689 1e-05
0.0121272 0.00088178 1e-05
0.0122515 0.000880661 1e-05
0.0123759 0.000879424 1e-05
0.0125002 0.000878177 1e-05
0.0126245 0.000877006 1e-05
0.0127498 0.000876007 1e-05
0.0128752 0.000874814 1e-05
0.0130005 0.000873537 1e-05
0.0131258 0.000872248 1e-05
0.0132511 0.000871004 1e-05
0.0133774 0.000869911 1e-05
0.0135036 0.000868641 1e-05
0.0136299 0.000867315 1e-05
0.0137562 0.000865976 1e-05
0.0138825 0.000864654 1e-05
0.0140098 0.000863465 1e-05
0.014137 0.000862113 1e-05
0.0142643 0.00086073 1e-05
0.0143915 0.000859333 1e-05
0.0145188 0.000857928 1e-05
0.0146471 0.000856641 1e-05
0.0147753 0.000855206 1e-05
0.0149036 0.000853757 1e-05
0.0150318 0.000852294 1e-05
0.0151601 0.000850817 1e-05
0.0152893 0.000849429 1e-05
0.0154186 0.000847923 1e-05
0.0155478 0.000846402 1e-05
0.0156771 0.000844866 1e-05
0.0158063 0.000843316 1e-05
0.0159366 0.000841823 1e-05
0.0160668 0.000840239 1e-05
0.0161971 0.00083864 1e-05
0.0163273 0.000837025 1e-05
0.0164576 0.000835395 1e-05
0.0165889 0.000833797 1e-05
0.0167201 0.000832128 1e-05
0.0168514 0.000830444 1e-05
0.0169827 0.000828744 1e-05
0.0171139 0.000827029 1e-05
0.0172462 0.000825322 1e-05
0.0173785 0.000823564 1e-05
0.0175108 0.00082179 1e-05
0.0176431 0.000819999 1e-05
0.0177754 0.000818192 1e-05
0.0179087 0.000816375 1e-05
0.018042 0.000814523 1e-05
0.0181753 0.000812654 1e-05
0.0183087 0.000810767 1e-05
0.018442 0.000808864 1e-05
0.01849 0.000808175 1e-05
0.018538 0.000807481 1e-05
0.018586 0.000806785 1e-05
0.018634 0.000806088 1e-05
0.0186808 0.000805406 1e-05
0.0187674 0.000804139 1e-05
0.018854 0.000802865 1e-05
0.0189405 0.000801584 1e-05
0.0190271 0.000800296 1e-05
0.0191137 0.000799 1e-05
0.0192491 0.000796956 1e-05
0.0193845 0.0007949 1e-05
0.0195199 0.000792826 1e-05
0.0196553 0.000790735 1e-05
0.0197907 0.000788625 1e-05
0.0199272 0.000786466 1e-05
0.0200636 0.000784302 1e-05
0.0202001 0.00078212 1e-05
0.0203365 0.000779919 1e-05
0.020473 0.0007777 1e-05
0.0206105 0.000775424 1e-05
0.020748 0.000773148 1e-05
0.0208855 0.000770854 1e-05
0.021023 0.000768541 1e-05
0.0211606 0.000766209 1e-05
0.0212991 0.000763815 1e-05
0.0214377 0.000761424 1e-05
0.0215763 0.000759014 1e-05
0.0217149 0.000756586 1e-05
0.0218535 0.000754137 1e-05
0.0219931 0.000751623 1e-05
0.0221328 0.000749114 1e-05
0.0222724 0.000746586 1e-05
0.0224121 0.000744038 1e-05
0.0225517 0.000741468 1e-05
0.0226925 0.000738833 1e-05
0.0228332 0.000736199 1e-05
0.022974 0.000733548 1e-05
0.0231147 0.000730877 1e-05
0.0232555 0.000728179 1e-05
0.0233973 0.000725418 1e-05
0.0235391 0.000722652 1e-05
0.023681 0.000719872 1e-05
0.0238228 0.000717071 1e-05
0.0239647 0.000714242 1e-05
0.0241076 0.000711352 1e-05
0.0242505 0.000708455 1e-05
0.0243935 0.000705545 1e-05
0.0245364 0.000702614 1e-05
0.0246794 0.000699654 1e-05
0.0248234 0.000696637 1e-05
0.0249675 0.00069361 1e-05
0.0251115 0.000690572 1e-05
0.0252556 0.000687511 1e-05
0.0253996 0.00068442 1e-05
0.0255448 0.000681273 1e-05
0.02569 0.000678112 1e-05
0.0258351 0.000674936 1e-05
0.0259803 0.000671738 1e-05
0.0261255 0.00066851 1e-05
0.0262718 0.000665228 1e-05
0.0264181 0.000661928 1e-05
0.0265644 0.000658611 1e-05
0.0267107 0.00065527 1e-05
0.026857 0.000651904 1e-05
0.0270044 0.000648486 1e-05
0.0271519 0.000645047 1e-05
0.0272993 0.000641587 1e-05
0.0274467 0.000638105 1e-05
0.0275942 0.000634601 1e-05
0.0277428 0.000631047 1e-05
0.0278914 0.000627469 1e-05
0.0280399 0.000623869 1e-05
0.0281885 0.000620248 1e-05
0.0283371 0.000616608 1e-05
0.0284869 0.000612918 1e-05
0.0286366 0.000609204 1e-05
0.0287863 0.000605465 1e-05
0.0289361 0.000601707 1e-05
0.0290858 0.00059793 1e-05
0.0292367 0.000594107 1e-05
0.0293876 0.000590257 1e-05
0.0295385 0.000586382 1e-05
0.0296894 0.000582488 1e-05
0.0298403 0.000578578 1e-05
0.0299924 0.000574621 1e-05
0.0301445 0.000570635 1e-05
0.0302966 0.000566626 1e-05
0.0304486 0.000562598 1e-05
0.0306007 0.000558553 1e-05
0.030754 0.000554462 1e-05
0.0309072 0.000550342 1e-05
0.0310605 0.000546199 1e-05
0.0312138 0.000542038 1e-05
0.031367 0.000537858 1e-05
0.0315215 0.000533633 1e-05
0.0316759 0.000529377 1e-05
0.0318304 0.000525101 1e-05
0.0319848 0.000520807 1e-05
0.0321393 0.000516493 1e-05
0.0322949 0.000512132 1e-05
0.0324506 0.000507743 1e-05
0.0326062 0.000503334 1e-05
0.0327619 0.000498906 1e-05
0.0329175 0.000494459 1e-05
[...]
POINT_DATA 10910
 FIELD attributes 1
U 3 10910 float
10.0021 	0.000979863 	0 10.0076 	0.00792577 	0 10.013 	0.0151132 	0 10.0184 	0.0223138 	0 10.0239 	0.0295277 	0 10.0306 	0.0425761 	0 10.0339 	0.0319069 	0 10.0371 	0.031924 	0 10.0403 	0.0319413 	0 10.0435 	0.0319586 	0 10.0462 	0.0419738 	0 10.0442 	0.0264173 	0 10.0432 	0.02446 	0 10.0422 	0.0224766 	0 10.0412 	0.0204667 	0 10.0403 	0.0301432 	0 10.0367 	0.0145941 	0 10.0345 	0.0130065 	0 10.0322 	0.0113913 	0 10.0299 	0.00974816 	0 10.028 	0.0206091 	0 10.0246 	0.00520644 	0 10.0223 	0.00392945 	0 10.02 	0.00262622 	0 10.0177 	0.00129619 	0 10.0156 	0.0135104 	0 10.0124 	-0.00228514 	0 10.01 	-0.00336082 	0 10.0076 	-0.00446118 	0 10.0052 	-0.00558678 	0 10.0029 	0.00841712 	0 9.99988 	-0.00845991 	0 9.99738 	-0.009373 	0 9.99487 	-0.0103085 	0 9.99236 	-0.0112669 	0 9.98989 	0.00509034 	0 9.98708 	-0.0136482 	0 9.9846 	-0.0144858 	0 9.98212 	-0.0153448 	0 9.97963 	-0.0162256 	0 9.97695 	0.00297694 	0 9.97447 	-0.0183426 	0 9.97204 	-0.0191855 	0 9.9696 	-0.0200504 	0 9.96717 	-0.0209377 	0 9.96424 	0.00158203 	0 9.96213 	-0.0229428 	0 9.95975 	-0.0238281 	0 9.95736 	-0.0247366 	0 9.95497 	-0.0256689 	0 9.9517 	0.00067255 	0 9.95005 	-0.0276197 	0 9.94774 	-0.0285626 	0 9.94542 	-0.0295301 	0 9.9431 	-0.0305229 	0 9.93943 	0.00014065 	0 9.93837 	-0.0324627 	0 9.93615 	-0.0334861 	0 9.93392 	-0.034536 	0 9.93168 	-0.0356129 	0 9.92754 	-0.000152902 	0 9.92716 	-0.0376046 	0 9.92505 	-0.0387548 	0 9.92294 	-0.0399341 	0 9.92082 	-0.0411434 	0 9.91612 	-0.000445129 	0 9.91656 	-0.0433054 	0 9.91456 	-0.0446224 	0 9.91256 	-0.0459721 	0 9.91054 	-0.0473554 	0 9.90513 	-0.000911992 	0 9.90647 	-0.0497681 	0 9.90459 	-0.0513471 	0 9.9027 	-0.0529642 	0 9.90079 	-0.0546205 	0 9.89457 	-0.00195961 	0 9.89703 	-0.0575935 	0 9.89526 	-0.0594889 	0 9.89348 	-0.061429 	0 9.89168 	-0.063415 	0 9.88445 	-0.00379994 	0 9.88795 	-0.0670363 	0 9.88593 	-0.0697242 	0 9.88389 	-0.0724734 	0 9.88183 	-0.0752853 	0 9.87277 	-0.00857359 	0 9.87621 	-0.0815912 	8.86061e-22 9.87396 	-0.0847173 	2.9935e-21 9.87168 	-0.0879144 	5.09946e-21 9.86938 	-0.0911841 	7.20391e-21 9.85956 	-0.0144732 	8.466e-21 9.8638 	-0.0966497 	-1.14643e-20 9.86163 	-0.0997582 	-1.49295e-20 9.85944 	-0.102914 	-1.84079e-20 9.85724 	-0.106118 	-2.18997e-20 9.84581 	-0.0143015 	6.96882e-22 9.8538 	-0.108143 	-1.29327e-21 9.85194 	-0.110548 	-3.25699e-21 9.85006 	-0.11299 	-5.21941e-21 9.84817 	-0.115468 	-7.18052e-21 9.83253 	-0.0116111 	-8.21483e-21 9.84637 	-0.114615 	-7.64848e-21 9.84453 	-0.116798 	-5.04635e-21 9.84269 	-0.119013 	-2.4434e-21 9.83961 	-0.11462 	-2.8989e-22 9.818 	-0.00904348 	-4.99497e-21 9.83667 	-0.106526 	-5.08523e-22 9.83691 	-0.11938 	-7.3324e-21 9.83481 	-0.121421 	-1.56016e-20 9.8276 	-0.10341 	-2.36644e-20 9.80056 	-0.00655241 	-3.09548e-20 9.82329 	-0.0945717 	-4.95491e-20 9.8274 	-0.118982 	-5.08833e-20 9.82501 	-0.120982 	-4.61455e-20 9.81234 	-0.0925007 	-3.40065e-20 9.78002 	-0.00487305 	-7.53561e-21 9.80677 	-0.0841866 	-7.38362e-21 9.81585 	-0.117454 	-2.84851e-21 9.81313 	-0.119522 	4.63626e-21 9.79373 	-0.0833099 	1.28275e-20 9.75615 	-0.00451535 	2.1803e-20 9.7865 	-0.0757612 	6.69469e-20 9.80136 	-0.115464 	9.0323e-20 9.79821 	-0.117573 	8.77571e-20 9.771 	-0.0758168 	5.69573e-20 9.72842 	-0.00521571 	7.57072e-21 9.76196 	-0.0691917 	-5.15941e-20 9.7833 	-0.113417 	-9.36866e-20 9.77968 	-0.115545 	-9.9488e-20 9.74387 	-0.0699774 	-6.59369e-20 9.69674 	-0.00680538 	-1.78939e-20 9.73308 	-0.0643209 	-1.12054e-20 9.76148 	-0.111607 	-7.48948e-21 9.75737 	-0.113754 	-1.69097e-20 9.71244 	-0.0657304 	-3.35078e-20 9.66124 	-0.00922452 	-5.13916e-20 9.7 	-0.0610356 	-6.11351e-20 9.73589 	-0.110275 	-7.00244e-20 9.73127 	-0.112435 	-6.48686e-20 9.67686 	-0.062961 	-4.72541e-20 9.62208 	-0.0123753 	-2.94341e-20 9.66287 	-0.0591192 	-1.89258e-20 9.70302 	-0.105899 	-8.36474e-21 9.69598 	-0.106708 	-2.59912e-22 9.63747 	-0.0614103 	-2.79813e-21 9.57961 	-0.0160663 	-5.32008e-21 9.62202 	-0.0582734 	-2.90184e-21 9.66381 	-0.100516 	-4.99606e-22 9.65561 	-0.101454 	-5.67236e-22 9.59456 	-0.0608325 	-3.10515e-21 9.53413 	-0.020168 	-5.6284e-21 9.57777 	-0.0583065 	-3.21061e-21 9.62081 	-0.0964788 	-8.07377e-22 9.61155 	-0.0975068 	-5.61488e-21 9.54846 	-0.0610754 	-1.36734e-20 9.48597 	-0.0246046 	-2.17892e-20 9.53046 	-0.0590882 	-4.2659e-20 9.57437 	-0.0936038 	-6.34742e-20 9.56415 	-0.0946907 	-6.74665e-20 9.49952 	-0.0620154 	-5.49301e-20 9.43545 	-0.029304 	-4.24143e-20 9.48044 	-0.0604973 	-8.25232e-20 9.52487 	-0.0917206 	-1.22609e-19 9.51382 	-0.0928426 	-1.15779e-19 9.44807 	-0.0635385 	-5.92333e-20 9.38284 	-0.0342017 	-2.63969e-21 9.42799 	-0.0624312 	-2.30982e-21 9.47261 	-0.0906885 	-2.01925e-21 9.46083 	-0.0918315 	1.53998e-21 9.39438 	-0.0655595 	7.0591e-21 9.32842 	-0.039258 	1.26019e-20 9.37342 	-0.0648181 	6.8132e-21 9.41792 	-0.090404 	1.00159e-21 9.40554 	-0.0915595 	-2.11063e-21 9.33876 	-0.068017 	-4.66492e-21 9.27244 	-0.0444477 	-7.21049e-21 9.31702 	-0.0676019 	-4.78571e-21 9.36112 	-0.0907797 	-2.37013e-21 9.34826 	-0.091941 	-1.04935e-22 9.28149 	-0.0708581 	-5.70248e-21 9.21514 	-0.0497511 	-1.13196e-20 9.25906 	-0.0707331 	-5.43549e-21 9.29798 	-0.0901197 	-5.25518e-22 9.28344 	-0.090684 	-7.17462e-21 9.22291 	-0.0740288 	-2.3321e-20 9.15683 	-0.0551425 	-4.07012e-20 9.19988 	-0.0741635 	-1.11801e-19 9.23079 	-0.0893953 	-1.67805e-19 9.21636 	-0.0900155 	-1.65877e-19 9.16328 	-0.0774834 	-1.07432e-19 9.09772 	-0.0605975 	-3.03299e-20 9.13972 	-0.0778461 	-1.86825e-20 9.16263 	-0.089533 	-8.81122e-21 9.14833 	-0.0901998 	-2.44659e-21 9.1028 	-0.0811786 	0 9.03797 	-0.0660965 	0 9.07877 	-0.0817443 	0 9.09378 	-0.0904152 	0 9.0796 	-0.0911215 	0 9.04163 	-0.0850807 	0 8.97772 	-0.0716256 	0 9.01721 	-0.0858284 	0 9.02446 	-0.0919423 	4.05339e-21 9.0104 	-0.0926822 	1.0798e-20 8.97996 	-0.0891611 	1.92017e-20 8.91711 	-0.077172 	3.08996e-20 8.95517 	-0.0900691 	1.07994e-19 8.95488 	-0.0940245 	1.26746e-19 8.94093 	-0.0947941 	1.24714e-19 8.91791 	-0.0933942 	1.08426e-19 8.85625 	-0.0827283 	3.12816e-20 8.89282 	-0.0944484 	1.96878e-20 8.88522 	-0.0965918 	1.90933e-20 8.87139 	-0.0973875 	2.00475e-20 8.85562 	-0.097762 	2.13148e-20 8.79526 	-0.0882875 	2.98634e-20 8.82935 	-0.0987589 	7.84341e-20 8.81566 	-0.099577 	7.22422e-20 8.80193 	-0.100395 	6.60421e-20 8.78818 	-0.101212 	5.98339e-20 8.73426 	-0.0938364 	9.87922e-21 8.76 	-0.102081 	-4.25989e-20 8.74641 	-0.102917 	-5.73663e-20 8.73278 	-0.103753 	-7.21256e-20 8.71913 	-0.104589 	-8.68768e-20 8.67337 	-0.0993637 	-6.32243e-20 8.69107 	-0.105705 	-1.07932e-19 8.67758 	-0.106557 	-1.01134e-19 8.66405 	-0.107409 	-9.43247e-20 8.65049 	-0.10826 	-8.75035e-20 8.61265 	-0.104863 	-4.23816e-20 8.62266 	-0.109584 	-3.10718e-20 8.60926 	-0.11045 	-2.24224e-20 8.59582 	-0.111315 	-1.37747e-20 8.58234 	-0.112179 	-5.1286e-21 8.55215 	-0.110329 	0 8.55484 	-0.113675 	1.41821e-21 8.54152 	-0.114551 	3.70777e-21 8.52816 	-0.115427 	5.99776e-21 8.51476 	-0.116303 	8.28816e-21 8.49193 	-0.115755 	1.0581e-20 8.48766 	-0.117938 	1.02227e-20 8.47442 	-0.118822 	1.03721e-20 8.46113 	-0.119706 	1.05223e-20 8.44781 	-0.120591 	1.06734e-20 8.43204 	-0.121134 	1.09616e-20 8.42962 	-0.121764 	1.21924e-20 8.42492 	-0.122082 	1.38176e-20 8.42022 	-0.1224 	1.5443e-20 8.41551 	-0.122718 	1.70686e-20 8.41092 	-0.123027 	1.86515e-20 8.4022 	-0.123602 	2.11875e-20 8.39346 	-0.124177 	2.37228e-20 8.38471 	-0.124752 	2.62572e-20 8.37594 	-0.125327 	2.87909e-20 8.36568 	-0.126305 	3.11103e-20 8.35404 	-0.126844 	2.53529e-20 8.34061 	-0.127739 	2.37099e-20 8.32713 	-0.128635 	2.2057e-20 8.31361 	-0.12953 	2.03943e-20 8.2966 	-0.131305 	2.94317e-20 8.2875 	-0.131427 	2.52831e-20 8.27412 	-0.132323 	2.05216e-20 8.2607 	-0.13322 	1.57582e-20 8.24724 	-0.134117 	1.09929e-20 8.22862 	-0.13621 	9.37268e-21 8.22181 	-0.136054 	1.38939e-20 8.20848 	-0.13695 	7.53575e-21 8.19512 	-0.137847 	1.18195e-21 8.18171 	-0.138745 	-5.16743e-21 8.16173 	-0.141018 	-2.45465e-20 8.15699 	-0.140706 	-4.15744e-20 8.14372 	-0.141604 	-4.51982e-20 8.1304 	-0.142502 	-4.88262e-20 8.11704 	-0.1434 	-5.24584e-20 8.09592 	-0.145738 	-4.28687e-20 8.09309 	-0.145377 	-8.21444e-20 8.07986 	-0.146279 	-7.71921e-20 8.0666 	-0.147182 	-7.22522e-20 8.05283 	-0.148159 	-6.46589e-20 8.03116 	-0.150396 	-1.12531e-20 8.02857 	-0.150229 	-3.08611e-21 8.01692 	-0.150998 	-4.51838e-21 8.0037 	-0.151925 	-7.58144e-21 7.98846 	-0.153124 	-1.075e-20 7.96743 	-0.155109 	-1.42273e-20 7.96438 	-0.155269 	-4.20307e-20 7.9549 	-0.155912 	-5.64544e-20 7.94166 	-0.156837 	-6.31216e-20 7.92503 	-0.158109 	-5.27235e-20 7.90444 	-0.159786 	-2.24132e-20 7.90089 	-0.160129 	3.99202e-20 7.89338 	-0.160693 	8.24719e-20 7.88008 	-0.16158 	9.59685e-20 7.86214 	-0.16282 	6.59093e-20 7.8419 	-0.164235 	1.45567e-20 7.83779 	-0.164682 	6.95134e-21 7.83209 	-0.165206 	5.79965e-22 7.81876 	-0.166105 	1.8459e-22 7.7997 	-0.167356 	2.3617e-22 7.77984 	-0.168653 	3.45192e-22 7.77534 	-0.169319 	2.2611e-22 7.77081 	-0.169984 	1.07011e-22 7.75745 	-0.170919 	-5.66682e-21 7.73799 	-0.172035 	-1.17758e-20 7.71846 	-0.173152 	-1.78827e-20 7.71368 	-0.173987 	-1.11945e-20 7.70887 	-0.174822 	-4.50508e-21 7.69631 	-0.17572 	0 7.67716 	-0.176636 	0 7.65795 	-0.177553 	0 7.65295 	-0.178512 	0 7.6479 	-0.179471 	0 7.63619 	-0.180308 	-1.35109e-21 7.61733 	-0.181037 	-4.53576e-21 7.59843 	-0.181766 	-7.71955e-21 7.59325 	-0.182818 	-3.2785e-20 7.58802 	-0.183871 	-5.78494e-20 7.57719 	-0.18464 	-6.3843e-20 7.55862 	-0.185205 	-4.89938e-20 7.54001 	-0.185771 	-3.41438e-20 7.53468 	-0.186897 	-1.02338e-19 7.52917 	-0.188012 	-1.68744e-19 7.51871 	-0.188708 	-1.72605e-19 7.50106 	-0.189159 	-1.14142e-19 7.48271 	-0.189587 	-4.98665e-20 7.47727 	-0.190773 	-8.58814e-20 7.47046 	-0.191821 	-1.09987e-19 7.46004 	-0.19249 	-1.01824e-19 7.44466 	-0.192928 	-6.92917e-20 7.42654 	-0.193242 	-2.34637e-20 7.421 	-0.19448 	-1.67619e-20 7.41296 	-0.195414 	-1.02617e-20 7.40259 	-0.196061 	-3.95103e-21 7.38938 	-0.196548 	0 7.37148 	-0.196768 	0 7.36585 	-0.198048 	0 7.35663 	-0.198832 	0 7.34628 	-0.199462 	0 7.3352 	-0.200047 	0 7.31749 	-0.200188 	0 7.3117 	-0.201492 	0 7.3014 	-0.202109 	0 7.29108 	-0.202726 	0 7.28071 	-0.203344 	0 7.26451 	-0.203523 	0 7.2575 	-0.204665 	0 7.24722 	-0.20527 	0 7.23691 	-0.205876 	0 7.22656 	-0.206482 	0 7.2125 	-0.206784 	0 7.20431 	-0.207738 	0 7.19403 	-0.208332 	0 7.18372 	-0.208927 	0 7.17337 	-0.209522 	0 7.16141 	-0.209976 	0 7.15434 	-0.210591 	0 7.14637 	-0.211043 	0 7.13838 	-0.211495 	0 7.13037 	-0.211948 	0 7.12258 	-0.212386 	0 7.12013 	-0.212521 	0 7.11767 	-0.212656 	0 7.1152 	-0.21279 	0 7.11274 	-0.212925 	0 7.11018 	-0.212981 	1.13126e-22 7.0999 	-0.213628 	0 7.08926 	-0.214202 	0 7.07859 	-0.214776 	0 7.06788 	-0.21535 	0 7.05677 	-0.215516 	6.13786e-22 7.0477 	-0.216458 	0 7.03704 	-0.217016 	0 7.02635 	-0.217574 	0 7.01562 	-0.218133 	0 7.00438 	-0.217975 	0 6.99634 	-0.219193 	0 6.98565 	-0.219732 	0 6.97493 	-0.220271 	0 6.96418 	-0.22081 	0 6.95293 	-0.220345 	-3.05024e-21 6.94565 	-0.221793 	-8.99018e-23 6.93504 	-0.222338 	9.00086e-23 6.92429 	-0.222854 	1.82815e-22 6.91346 	-0.223155 	2.17788e-22 6.90237 	-0.222607 	2.45591e-23 6.89481 	-0.224003 	2.33419e-20 6.88519 	-0.224817 	3.26462e-20 6.87441 	-0.225306 	3.41127e-20 6.86355 	-0.225285 	2.4968e-20 6.85264 	-0.22474 	4.91531e-21 6.84483 	-0.22608 	2.0954e-21 6.83607 	-0.227146 	-1.41448e-21 6.82525 	-0.227602 	-6.47111e-21 6.81446 	-0.227267 	-1.62619e-20 6.80369 	-0.226717 	-2.73386e-20 6.79566 	-0.227996 	-3.85702e-20 6.78757 	-0.229275 	-4.98019e-20 6.77681 	-0.229635 	-4.99049e-20 6.76615 	-0.229071 	-3.87481e-20 6.75549 	-0.228507 	-2.75905e-20 6.74726 	-0.229721 	-1.65454e-20 6.73898 	-0.230936 	-5.50058e-21 6.72916 	-0.231253 	0 6.71859 	-0.230665 	0 6.70803 	-0.230077 	0 6.69963 	-0.231221 	0 6.69117 	-0.232366 	0 6.68226 	-0.232633 	0 6.67177 	-0.232009 	0 6.6613 	-0.231385 	0 6.65275 	-0.232451 	0 6.64414 	-0.233518 	0 6.63599 	-0.233688 	0 6.6257 	-0.23306 	0 6.61529 	-0.23239 	0 6.60662 	-0.233373 	0 6.59806 	-0.234098 	4.8351e-23 6.58988 	-0.234184 	2.17218e-22 6.58039 	-0.23378 	3.49389e-22 6.57006 	-0.233057 	4.5756e-22 6.56128 	-0.23395 	-1.9677e-20 6.55284 	-0.234317 	-2.55189e-20 6.54463 	-0.23432 	-2.14618e-20 6.53588 	-0.234114 	-1.24963e-20 6.52562 	-0.233313 	1.05056e-20 6.51676 	-0.2341 	7.98923e-21 6.50848 	-0.234092 	5.46719e-21 6.50025 	-0.23399 	2.94461e-21 6.49202 	-0.233888 	4.22185e-22 6.48202 	-0.23306 	4.16146e-21 6.47325 	-0.233545 	-8.73014e-22 6.46505 	-0.23333 	-6.32498e-21 6.45684 	-0.233115 	-1.17771e-20 6.44862 	-0.2329 	-1.72292e-20 6.43937 	-0.232244 	-2.02247e-20 6.43084 	-0.23234 	-1.92727e-20 6.42267 	-0.232008 	-1.72024e-20 6.41451 	-0.231675 	-1.5132e-20 6.40635 	-0.231343 	-1.30615e-20 6.3978 	-0.23084 	-1.11336e-20 6.39239 	-0.230706 	-1.16881e-20 6.38713 	-0.230405 	-1.18235e-20 6.38187 	-0.230104 	-1.19588e-20 6.37662 	-0.229804 	-1.2094e-20 6.37136 	-0.229502 	-1.22294e-20 6.36847 	-0.229343 	-1.20799e-20 6.36558 	-0.229184 	-1.19305e-20 6.3627 	-0.229025 	-1.17811e-20 6.35981 	-0.228866 	-1.16317e-20 6.35698 	-0.228622 	-1.17711e-20 6.34902 	-0.228109 	-1.46393e-20 6.34085 	-0.227509 	-1.55928e-20 6.3327 	-0.22691 	-1.65449e-20 6.32456 	-0.22631 	-1.74958e-20 6.31666 	-0.225387 	-1.10401e-20 6.30941 	-0.224957 	-8.46527e-21 6.30139 	-0.224207 	-5.88881e-21 6.29339 	-0.223457 	-3.31267e-21 6.28541 	-0.222707 	-7.36854e-22 6.2779 	-0.221409 	0 6.27134 	-0.221041 	-4.07566e-22 6.26353 	-0.220144 	-2.5461e-21 6.25574 	-0.219248 	-4.68506e-21 6.24798 	-0.218342 	-6.82465e-21 6.24094 	-0.216694 	-8.98302e-21 6.23483 	-0.21628 	-2.4827e-20 6.22749 	-0.215329 	-2.77799e-20 6.21997 	-0.214286 	-2.85381e-20 6.21271 	-0.21302 	-2.41071e-20 6.20601 	-0.211242 	-7.83416e-21 6.20012 	-0.210658 	1.24507e-20 6.19353 	-0.209757 	2.28909e-20 6.18632 	-0.208573 	2.44687e-20 6.17964 	-0.206964 	1.61568e-20 6.17334 	-0.205063 	1.00843e-21 6.16773 	-0.204321 	-1.10848e-21 6.16187 	-0.203462 	-2.76463e-21 6.15503 	-0.202153 	-2.65534e-21 6.14901 	-0.200239 	3.81681e-21 6.14317 	-0.198237 	1.1228e-20 6.13788 	-0.197363 	5.08273e-21 6.13261 	-0.196489 	-1.06492e-21 6.12645 	-0.195038 	1.8452e-21 6.12105 	-0.192956 	3.98377e-21 6.11573 	-0.190874 	6.12346e-21 6.1108 	-0.189896 	2.10592e-20 6.10591 	-0.188919 	3.59955e-20 6.10082 	-0.187368 	3.33574e-20 6.09597 	-0.185223 	1.08639e-20 6.0912 	-0.183079 	-1.16209e-20 6.08669 	-0.182024 	-7.84619e-21 6.08222 	-0.180969 	-4.06783e-21 6.07819 	-0.179338 	-2.37182e-21 6.07392 	-0.177157 	-4.99118e-21 6.06973 	-0.174977 	-7.60645e-21 6.06567 	-0.17388 	-5.64597e-21 6.06166 	-0.172785 	-3.68356e-21 6.05868 	-0.171105 	3.99305e-21 6.05501 	-0.168924 	8.43133e-21 6.05141 	-0.166745 	1.28667e-20 6.04785 	-0.16565 	8.85211e-21 6.04449 	-0.164474 	6.02714e-21 6.04221 	-0.162775 	1.08365e-20 6.03931 	-0.160719 	2.04983e-20 6.03631 	-0.158576 	3.13597e-20 6.03328 	-0.15752 	3.78658e-20 6.03071 	-0.156254 	4.04822e-20 6.02896 	-0.154611 	3.60876e-20 6.02683 	-0.152729 	2.94706e-20 6.02442 	-0.150661 	2.11297e-20 6.02192 	-0.149678 	2.93867e-20 6.02015 	-0.148375 	3.2731e-20 6.01893 	-0.14683 	3.23327e-20 6.01751 	-0.145149 	2.92408e-20 6.01564 	-0.143203 	2.0896e-20 6.01371 	-0.142325 	2.91745e-20 6.01269 	-0.14104 	3.08635e-20 6.01198 	-0.139634 	3.05573e-20 6.01122 	-0.138179 	2.84855e-20 6.00986 	-0.136399 	1.44192e-20 6.00848 	-0.135656 	1.23163e-20 6.00816 	-0.134444 	8.3622e-21 6.00794 	-0.133212 	4.32341e-21 6.00775 	-0.131981 	2.82993e-22 6.00689 	-0.130433 	-7.06422e-21 6.00619 	-0.129789 	-5.87426e-22 6.00637 	-0.128764 	-4.86132e-21 6.00659 	-0.12774 	-9.13389e-21 6.00684 	-0.126717 	-1.34052e-20 6.00654 	-0.12547 	-2.18444e-20 6.00649 	-0.124952 	-3.76762e-21 6.00708 	-0.124163 	-4.64432e-21 6.00771 	-0.123375 	-5.51475e-21 6.00836 	-0.122587 	-6.37891e-21 6.00857 	-0.121654 	-1.95486e-20 6.0091 	-0.121305 	-1.45198e-20 6.01007 	-0.120775 	-1.0498e-20 6.01106 	-0.120245 	-6.4755e-21 6.01207 	-0.119716 	-2.45225e-21 6.01277 	-0.119103 	0 6.01379 	-0.118962 	0 6.0151 	-0.11871 	0 6.01642 	-0.118458 	0 6.01775 	-0.118206 	0 6.01889 	-0.117915 	0 6.02036 	-0.118014 	1.58492e-23 6.02197 	-0.118055 	3.58628e-23 6.02358 	-0.118096 	5.58765e-23 6.02519 	-0.118138 	7.58902e-23 6.02675 	-0.118171 	-6.07208e-24 6.02735 	-0.118303 	-4.1443e-22 6.02799 	-0.118422 	-2.06117e-21 6.02863 	-0.118541 	-3.70815e-21 6.02927 	-0.118659 	-5.35537e-21 6.0299 	-0.118777 	-6.98469e-21 6.03122 	-0.119003 	-9.99466e-21 6.03254 	-0.11923 	-1.30051e-20 6.03385 	-0.119456 	-1.60161e-20 6.03516 	-0.119682 	-1.90275e-20 6.03648 	-0.119863 	-1.97022e-20 6.03888 	-0.120561 	-2.05147e-20 6.04112 	-0.121226 	-1.7297e-20 6.04334 	-0.121891 	-1.40847e-20 6.04554 	-0.122555 	-1.0878e-20 6.04778 	-0.123106 	2.1093e-21 6.05058 	-0.124185 	1.2656e-20 6.05303 	-0.12519 	1.78504e-20 6.05544 	-0.126194 	2.30533e-20 6.05783 	-0.127196 	2.82646e-20 6.06028 	-0.128025 	1.4918e-20 6.06346 	-0.129492 	5.14774e-21 6.06608 	-0.130856 	-3.80334e-21 6.06866 	-0.132219 	-1.2761e-20 6.0712 	-0.13358 	-2.17253e-20 6.07383 	-0.134716 	-3.08129e-20 6.07737 	-0.13658 	-4.71013e-20 6.08014 	-0.138329 	-4.86755e-20 6.08286 	-0.140076 	-5.02713e-20 6.08553 	-0.141821 	-5.18885e-20 6.08828 	-0.143302 	-2.59599e-20 6.09219 	-0.145574 	-1.26166e-20 6.09507 	-0.147738 	-4.20118e-21 6.0979 	-0.149899 	4.21412e-21 6.10066 	-0.152058 	1.26293e-20 6.10345 	-0.15393 	1.70102e-20 6.10774 	-0.156623 	4.65166e-20 6.11071 	-0.159238 	4.76636e-20 6.11361 	-0.161848 	4.87849e-20 6.11643 	-0.164424 	4.61017e-20 6.11918 	-0.166768 	1.62062e-20 6.12359 	-0.169898 	1.18091e-20 6.12689 	-0.173006 	7.38157e-21 6.12981 	-0.176106 	2.94249e-21 6.13261 	-0.179131 	-3.0223e-21 6.13525 	-0.182015 	-1.19804e-20 6.13974 	-0.185627 	-3.84088e-21 6.14339 	-0.189251 	0 6.14629 	-0.192884 	0 6.14895 	-0.196424 	-5.18043e-21 6.15141 	-0.199891 	-1.42548e-20 6.15594 	-0.204038 	-6.09739e-21 6.15998 	-0.208199 	1.00211e-21 6.16279 	-0.212416 	4.98049e-21 6.16518 	-0.216541 	1.64617e-20 6.16738 	-0.220642 	2.95148e-20 6.1719 	-0.225384 	5.09583e-20 6.17627 	-0.230119 	7.24073e-20 6.17896 	-0.234959 	7.30088e-20 6.18096 	-0.23975 	5.43537e-20 6.18282 	-0.244534 	3.57032e-20 6.18724 	-0.249935 	3.79813e-20 6.19151 	-0.255326 	4.02697e-20 6.19434 	-0.260802 	3.22416e-20 6.19591 	-0.266332 	1.37778e-20 6.19733 	-0.271854 	-4.68134e-21 6.20158 	-0.277982 	-3.58864e-20 6.20565 	-0.284099 	-6.70787e-20 6.20857 	-0.29027 	-7.46661e-20 6.2096 	-0.296592 	-5.00452e-20 6.21046 	-0.302906 	-2.54306e-20 6.21443 	-0.30983 	1.5995e-20 6.21805 	-0.316752 	5.09261e-20 6.22063 	-0.323731 	4.64627e-20 6.22152 	-0.330849 	1.09177e-20 6.22169 	-0.338014 	-3.58685e-20 6.22525 	-0.345808 	-9.03128e-20 6.22793 	-0.353654 	-1.0124e-19 6.22986 	-0.361538 	-7.77417e-20 6.23111 	-0.369453 	-4.46913e-20 6.23043 	-0.377529 	2.39678e-20 6.23342 	-0.386274 	2.57687e-20 6.23479 	-0.395155 	3.20224e-20 6.23591 	-0.404018 	3.83315e-20 6.23678 	-0.412865 	4.46958e-20 6.23601 	-0.421832 	5.56137e-20 6.23739 	-0.43067 	6.51003e-20 6.23778 	-0.439582 	6.4028e-20 6.23795 	-0.448479 	6.2938e-20 6.23788 	-0.45736 	6.18302e-20 6.23765 	-0.464385 	6.09383e-20 6.23764 	-0.465761 	6.0459e-20 6.23762 	-0.467136 	5.99783e-20 6.23759 	-0.468511 	5.94962e-20 6.23756 	-0.469886 	5.90127e-20 6.23747 	-0.471263 	5.96431e-20 6.2376 	-0.482229 	7.27977e-20 6.23726 	-0.493181 	8.16815e-20 6.23662 	-0.504108 	9.0684e-20 6.23567 	-0.515009 	9.98051e-20 6.23388 	-0.525986 	5.61868e-20 6.23412 	-0.538057 	5.21316e-20 6.23242 	-0.550217 	4.36633e-20 6.23038 	-0.562347 	3.51001e-20 6.22767 	-0.574516 	2.33082e-20 6.22385 	-0.586828 	4.37697e-21 6.22294 	-0.600201 	-4.99954e-20 6.22125 	-0.61356 	-9.93717e-20 6.21749 	-0.626971 	-1.2589e-19 6.21191 	-0.640642 	-9.50704e-20 6.20594 	-0.654309 	-6.42734e-20 6.20329 	-0.669084 	-1.00823e-19 6.20022 	-0.683824 	-1.3745e-19 6.19517 	-0.698903 	-1.34498e-19 6.18717 	-0.714153 	-9.90921e-20 6.1787 	-0.729405 	-6.36406e-20 6.174 	-0.745836 	-4.24297e-20 6.1