# vtk DataFile Version 2.0
track0
ASCII
DATASET POLYDATA
POINTS 10910 double
-0.0205 0.001 1e-05
-0.0202034 0.00100003 1e-05
-0.0199069 0.00100026 1e-05
-0.0196103 0.00100071 1e-05
-0.0193137 0.00100137 1e-05
-0.0190172 0.00100225 1e-05
-0.0187132 0.00100354 1e-05
-0.0184093 0.0010045 1e-05
-0.0181054 0.00100547 1e-05
-0.0178015 0.00100644 1e-05
-0.0174976 0.0010074 1e-05
-0.0172058 0.00100862 1e-05
-0.016914 0.00100939 1e-05
-0.0166222 0.0010101 1e-05
-0.0163305 0.00101075 1e-05
-0.0160387 0.00101135 1e-05
-0.0157586 0.00101219 1e-05
-0.0154784 0.0010126 1e-05
-0.0151983 0.00101296 1e-05
-0.0149182 0.00101328 1e-05
-0.0146381 0.00101355 1e-05
-0.0143692 0.0010141 1e-05
-0.0141002 0.00101424 1e-05
-0.0138313 0.00101435 1e-05
-0.0135624 0.00101442 1e-05
-0.0132934 0.00101445 1e-05
-0.0130353 0.0010148 1e-05
-0.0127771 0.00101474 1e-05
-0.0125189 0.00101466 1e-05
-0.0122607 0.00101454 1e-05
-0.0120025 0.0010144 1e-05
-0.0117547 0.0010146 1e-05
-0.0115068 0.00101439 1e-05
-0.0112589 0.00101416 1e-05
-0.0110111 0.00101391 1e-05
-0.0107632 0.00101363 1e-05
-0.0105252 0.00101375 1e-05
-0.0102873 0.00101342 1e-05
-0.0100493 0.00101308 1e-05
-0.00981133 0.00101271 1e-05
-0.00957337 0.00101233 1e-05
-0.00934491 0.00101239 1e-05
-0.00911645 0.00101197 1e-05
-0.008888 0.00101153 1e-05
-0.00865954 0.00101107 1e-05
-0.00843108 0.00101059 1e-05
-0.00821175 0.00101063 1e-05
-0.00799242 0.00101012 1e-05
-0.00777309 0.0010096 1e-05
-0.00755376 0.00100905 1e-05
-0.00733443 0.00100849 1e-05
-0.00712387 0.0010085 1e-05
-0.0069133 0.00100792 1e-05
-0.00670273 0.00100731 1e-05
-0.00649217 0.00100669 1e-05
-0.0062816 0.00100604 1e-05
-0.00607944 0.00100605 1e-05
-0.00587729 0.00100539 1e-05
-0.00567514 0.0010047 1e-05
-0.00547299 0.001004 1e-05
-0.00527083 0.00100328 1e-05
-0.00507675 0.00100327 1e-05
-0.00488268 0.00100254 1e-05
-0.0046886 0.00100178 1e-05
-0.00449452 0.001001 1e-05
-0.00430044 0.00100019 1e-05
-0.00411412 0.00100019 1e-05
-0.0039278 0.000999372 1e-05
-0.00374148 0.000998534 1e-05
-0.00355516 0.000997669 1e-05
-0.00336883 0.000996779 1e-05
-0.00318995 0.000996763 1e-05
-0.00301107 0.000995864 1e-05
-0.0028322 0.000994937 1e-05
-0.00265332 0.00099398 1e-05
-0.00247443 0.000992993 1e-05
-0.0023027 0.000992959 1e-05
-0.00213097 0.00099196 1e-05
-0.00195924 0.000990927 1e-05
-0.00178751 0.000989861 1e-05
-0.00161577 0.00098876 1e-05
-0.0014509 0.000988697 1e-05
-0.00128603 0.000987579 1e-05
-0.00112117 0.000986416 1e-05
-0.000956302 0.000985207 1e-05
-0.000791418 0.000983951 1e-05
-0.000633135 0.000983814 1e-05
-0.000474856 0.000982506 1e-05
-0.000316578 0.000981148 1e-05
-0.000158301 0.000979738 1e-05
0 0.000978276 1e-05
0.000105677 0.000978121 1e-05
0.00021135 0.000977085 1e-05
0.000317022 0.000976016 1e-05
0.000422694 0.000974913 1e-05
0.000528387 0.000973776 1e-05
0.000634886 0.000973621 1e-05
0.000741379 0.000972452 1e-05
0.000847872 0.000971257 1e-05
0.000954364 0.000970036 1e-05
0.00106088 0.000968787 1e-05
0.00116821 0.00096866 1e-05
0.00127553 0.000967411 1e-05
0.00138285 0.000966137 1e-05
0.00149017 0.00096484 1e-05
0.00159752 0.000963589 1e-05
0.00170568 0.00096349 1e-05
0.00181383 0.000962318 1e-05
0.00192199 0.000961006 1e-05
0.00203014 0.000959671 1e-05
0.00213833 0.000958532 1e-05
0.00224733 0.000958459 1e-05
0.00235633 0.00095741 1e-05
0.00246532 0.00095609 1e-05
0.00257431 0.000954748 1e-05
0.00268334 0.000953721 1e-05
0.00279319 0.000953666 1e-05
0.00290303 0.000952723 1e-05
0.00301288 0.000951408 1e-05
0.00312272 0.000950071 1e-05
0.00323259 0.000949136 1e-05
0.00334329 0.000949085 1e-05
0.00345399 0.000948228 1e-05
0.00356469 0.000946924 1e-05
0.00367538 0.000945595 1e-05
0.00378611 0.000944736 1e-05
0.00389767 0.000944677 1e-05
0.00400923 0.000943886 1e-05
0.00412079 0.000942593 1e-05
0.00423235 0.000941274 1e-05
0.00434393 0.000940473 1e-05
0.00445636 0.000940394 1e-05
0.00456879 0.000939651 1e-05
0.00468122 0.000938366 1e-05
0.00479364 0.000937055 1e-05
0.00490609 0.000936294 1e-05
0.0050194 0.000936186 1e-05
0.0051327 0.000935473 1e-05
0.005246 0.00093419 1e-05
0.0053593 0.000932881 1e-05
0.00547262 0.000932143 1e-05
0.00558681 0.000931997 1e-05
0.00570099 0.000931298 1e-05
0.00581517 0.000930052 1e-05
0.00592935 0.000928795 1e-05
0.00604356 0.000928067 1e-05
0.00615863 0.000927874 1e-05
0.0062737 0.000927178 1e-05
0.00638877 0.000925981 1e-05
0.00650384 0.000924772 1e-05
0.00661893 0.000924042 1e-05
0.0067349 0.000923797 1e-05
0.00685087 0.000923091 1e-05
0.00696683 0.000921928 1e-05
0.0070828 0.000920751 1e-05
0.00719878 0.000920009 1e-05
0.00731565 0.000919706 1e-05
0.00743252 0.000918982 1e-05
0.00754939 0.000917839 1e-05
0.00766625 0.000916682 1e-05
0.00778313 0.000915919 1e-05
0.00790091 0.000915553 1e-05
0.00801869 0.000914802 1e-05
0.00813647 0.000913668 1e-05
0.00825424 0.000912518 1e-05
0.00837203 0.000911726 1e-05
0.00849073 0.000911293 1e-05
0.00860942 0.000910507 1e-05
0.00872811 0.000909371 1e-05
0.0088468 0.000908219 1e-05
0.00896551 0.000907391 1e-05
0.00908513 0.000906887 1e-05
0.00920475 0.00090606 1e-05
0.00932436 0.000904912 1e-05
0.00944397 0.000903748 1e-05
0.0095636 0.000902876 1e-05
0.00968415 0.000902298 1e-05
0.0098047 0.000901424 1e-05
0.00992524 0.000900255 1e-05
0.0100458 0.000899069 1e-05
0.0101663 0.000898149 1e-05
0.0102878 0.000897493 1e-05
0.0104093 0.000896565 1e-05
0.0105308 0.000895387 1e-05
0.0106523 0.000894201 1e-05
0.0107738 0.000893226 1e-05
0.0108962 0.000892488 1e-05
0.0110186 0.000891501 1e-05
0.0111411 0.000890316 1e-05
0.0112635 0.00088912 1e-05
0.0113859 0.000888085 1e-05
0.0115093 0.000887263 1e-05
0.0116327 0.000886212 1e-05
0.0117561 0.000885006 1e-05
0.0118794 0.00088379 1e-05
0.0120028 0.000882689 1e-05
0.0121272 0.00088178 1e-05
0.0122515 0.000880661 1e-05
0.0123759 0.000879424 1e-05
0.0125002 0.000878177 1e-05
0.0126245 0.000877006 1e-05
0.0127498 0.000876007 1e-05
0.0128752 0.000874814 1e-05
0.0130005 0.000873537 1e-05
0.0131258 0.000872248 1e-05
0.0132511 0.000871004 1e-05
0.0133774 0.000869911 1e-05
0.0135036 0.000868641 1e-05
0.0136299 0.000867315 1e-05
0.0137562 0.000865976 1e-05
0.0138825 0.000864654 1e-05
0.0140098 0.000863465 1e-05
0.014137 0.000862113 1e-05
0.0142643 0.00086073 1e-05
0.0143915 0.000859333 1e-05
0.0145188 0.000857928 1e-05
0.0146471 0.000856641 1e-05
0.0147753 0.000855206 1e-05
0.0149036 0.000853757 1e-05
0.0150318 0.000852294 1e-05
0.0151601 0.000850817 1e-05
0.0152893 0.000849429 1e-05
0.0154186 0.000847923 1e-05
0.0155478 0.000846402 1e-05
0.0156771 0.000844866 1e-05
0.0158063 0.000843316 1e-05
0.0159366 0.000841823 1e-05
0.0160668 0.000840239 1e-05
0.0161971 0.00083864 1e-05
0.0163273 0.000837025 1e-05
0.0164576 0.000835395 1e-05
0.0165889 0.000833797 1e-05
0.0167201 0.000832128 1e-05
0.0168514 0.000830444 1e-05
0.0169827 0.000828744 1e-05
0.0171139 0.000827029 1e-05
0.0172462 0.000825322 1e-05
0.0173785 0.000823564 1e-05
0.0175108 0.00082179 1e-05
0.0176431 0.000819999 1e-05
0.0177754 0.000818192 1e-05
0.0179087 0.000816375 1e-05
0.018042 0.000814523 1e-05
0.0181753 0.000812654 1e-05
0.0183087 0.000810767 1e-05
0.018442 0.000808864 1e-05
0.01849 0.000808175 1e-05
0.018538 0.000807481 1e-05
0.018586 0.000806785 1e-05
0.018634 0.000806088 1e-05
0.0186808 0.000805406 1e-05
0.0187674 0.000804139 1e-05
0.018854 0.000802865 1e-05
0.0189405 0.000801584 1e-05
0.0190271 0.000800296 1e-05
0.0191137 0.000799 1e-05
0.0192491 0.000796956 1e-05
0.0193845 0.0007949 1e-05
0.0195199 0.000792826 1e-05
0.0196553 0.000790735 1e-05
0.0197907 0.000788625 1e-05
0.0199272 0.000786466 1e-05
0.0200636 0.000784302 1e-05
0.0202001 0.00078212 1e-05
0.0203365 0.000779919 1e-05
0.020473 0.0007777 1e-05
0.0206105 0.000775424 1e-05
0.020748 0.000773148 1e-05
0.0208855 0.000770854 1e-05
0.021023 0.000768541 1e-05
0.0211606 0.000766209 1e-05
0.0212991 0.000763815 1e-05
0.0214377 0.000761424 1e-05
0.0215763 0.000759014 1e-05
0.0217149 0.000756586 1e-05
0.0218535 0.000754137 1e-05
0.0219931 0.000751623 1e-05
0.0221328 0.000749114 1e-05
0.0222724 0.000746586 1e-05
0.0224121 0.000744038 1e-05
0.0225517 0.000741468 1e-05
0.0226925 0.000738833 1e-05
0.0228332 0.000736199 1e-05
0.022974 0.000733548 1e-05
0.0231147 0.000730877 1e-05
0.0232555 0.000728179 1e-05
0.0233973 0.000725418 1e-05
0.0235391 0.000722652 1e-05
0.023681 0.000719872 1e-05
0.0238228 0.000717071 1e-05
0.0239647 0.000714242 1e-05
0.0241076 0.000711352 1e-05
0.0242505 0.000708455 1e-05
0.0243935 0.000705545 1e-05
0.0245364 0.000702614 1e-05
0.0246794 0.000699654 1e-05
0.0248234 0.000696637 1e-05
0.0249675 0.00069361 1e-05
0.0251115 0.000690572 1e-05
0.0252556 0.000687511 1e-05
0.0253996 0.00068442 1e-05
0.0255448 0.000681273 1e-05
0.02569 0.000678112 1e-05
0.0258351 0.000674936 1e-05
0.0259803 0.000671738 1e-05
0.0261255 0.00066851 1e-05
0.0262718 0.000665228 1e-05
0.0264181 0.000661928 1e-05
0.0265644 0.000658611 1e-05
0.0267107 0.00065527 1e-05
0.026857 0.000651904 1e-05
0.0270044 0.000648486 1e-05
0.0271519 0.000645047 1e-05
0.0272993 0.000641587 1e-05
0.0274467 0.000638105 1e-05
0.0275942 0.000634601 1e-05
0.0277428 0.000631047 1e-05
0.0278914 0.000627469 1e-05
0.0280399 0.000623869 1e-05
0.0281885 0.000620248 1e-05
0.0283371 0.000616608 1e-05
0.0284869 0.000612918 1e-05
0.0286366 0.000609204 1e-05
0.0287863 0.000605465 1e-05
0.0289361 0.000601707 1e-05
0.0290858 0.00059793 1e-05
0.0292367 0.000594107 1e-05
0.0293876 0.000590257 1e-05
0.0295385 0.000586382 1e-05
0.0296894 0.000582488 1e-05
0.0298403 0.000578578 1e-05
0.0299924 0.000574621 1e-05
0.0301445 0.000570635 1e-05
0.0302966 0.000566626 1e-05
0.0304486 0.000562598 1e-05
0.0306007 0.000558553 1e-05
0.030754 0.000554462 1e-05
0.0309072 0.000550342 1e-05
0.0310605 0.000546199 1e-05
0.0312138 0.000542038 1e-05
0.031367 0.000537858 1e-05
0.0315215 0.000533633 1e-05
0.0316759 0.000529377 1e-05
0.0318304 0.000525101 1e-05
0.0319848 0.000520807 1e-05
0.0321393 0.000516493 1e-05
0.0322949 0.000512132 1e-05
0.0324506 0.000507743 1e-05
0.0326062 0.000503334 1e-05
0.0327619 0.000498906 1e-05
0.0329175 0.000494459 1e-05
[...]
POINT_DATA 10910
 FIELD attributes 2
p 1 10910 float
-3.24728 -3.29739 -3.35744 -3.41806 -3.47925 -3.60455 -3.67782 -3.7578 -3.83777 -3.91775 -4.00293 -4.00714 -4.02769 -4.04818 -4.06862 -4.10079 -4.09016 -4.0993 -4.10837 -4.11737 -4.14268 -4.13874 -4.15199 -4.1652 -4.17834 -4.2076 -4.20307 -4.21487 -4.22662 -4.23832 -4.26679 -4.25957 -4.26934 -4.27907 -4.28876 -4.31705 -4.30821 -4.31771 -4.32718 -4.33661 -4.36699 -4.35625 -4.36582 -4.37536 -4.38486 -4.41809 -4.40459 -4.41403 -4.42343 -4.4328 -4.46922 -4.45245 -4.46184 -4.4712 -4.48052 -4.5208 -4.50054 -4.51024 -4.51991 -4.52953 -4.57463 -4.55062 -4.56084 -4.57102 -4.58115 -4.63172 -4.60342 -4.61422 -4.62499 -4.6357 -4.69251 -4.65946 -4.67084 -4.68216 -4.69343 -4.75702 -4.71823 -4.73001 -4.74173 -4.75339 -4.82476 -4.77917 -4.79075 -4.80224 -4.81366 -4.89361 -4.83215 -4.83563 -4.83903 -4.84234 -4.92237 -4.81289 -4.80641 -4.79985 -4.7932 -4.90759 -4.78669 -4.78319 -4.77962 -4.77599 -4.90629 -4.79969 -4.80051 -4.80129 -4.80929 -4.92825 -4.84374 -4.83534 -4.83665 -4.85703 -4.95249 -4.88711 -4.87181 -4.87418 -4.90341 -4.98488 -4.93639 -4.91953 -4.92419 -4.95996 -5.03044 -4.993 -4.9754 -4.98158 -5.02146 -5.08357 -5.05348 -5.03534 -5.04277 -5.08613 -5.14274 -5.11802 -5.09948 -5.10817 -5.15476 -5.20768 -5.18677 -5.16752 -5.17727 -5.22673 -5.2769 -5.25868 -5.24056 -5.25267 -5.30075 -5.3487 -5.33238 -5.3162 -5.32943 -5.37565 -5.4217 -5.40677 -5.392 -5.40603 -5.45067 -5.49513 -5.48138 -5.46781 -5.48241 -5.52559 -5.5686 -5.55581 -5.54321 -5.55817 -5.60004 -5.64172 -5.62979 -5.61804 -5.63321 -5.6738 -5.7142 -5.70314 -5.69226 -5.70748 -5.74672 -5.78578 -5.77558 -5.76556 -5.78071 -5.81853 -5.85618 -5.84684 -5.83961 -5.85502 -5.889 -5.92524 -5.91676 -5.91322 -5.92812 -5.95809 -5.99291 -5.98533 -5.98521 -5.99963 -6.02579 -6.0592 -6.0525 -6.05549 -6.06944 -6.09201 -6.12399 -6.11811 -6.12391 -6.13741 -6.15664 -6.18723 -6.18218 -6.19051 -6.2036 -6.21976 -6.249 -6.2448 -6.2554 -6.26809 -6.28142 -6.30931 -6.30626 -6.31856 -6.33087 -6.3432 -6.36817 -6.368 -6.37994 -6.39189 -6.40386 -6.42555 -6.42796 -6.43956 -6.45117 -6.4628 -6.48148 -6.48617 -6.49744 -6.50872 -6.52002 -6.53597 -6.54265 -6.5536 -6.56457 -6.57555 -6.58904 -6.59741 -6.60806 -6.61873 -6.62941 -6.64071 -6.64387 -6.64756 -6.65126 -6.65497 -6.65857 -6.66534 -6.67213 -6.67891 -6.68571 -6.69225 -6.70257 -6.71278 -6.72302 -6.73327 -6.7427 -6.75309 -6.76305 -6.77302 -6.78301 -6.79142 -6.80209 -6.81181 -6.82154 -6.83129 -6.83855 -6.84966 -6.85917 -6.86869 -6.87823 -6.88424 -6.89595 -6.90523 -6.91453 -6.9236 -6.92844 -6.94044 -6.94989 -6.95892 -6.96673 -6.97096 -6.98289 -6.99274 -7.0014 -7.00771 -7.01127 -7.0231 -7.03341 -7.0415 -7.04582 -7.04831 -7.05943 -7.06994 -7.07745 -7.07975 -7.08142 -7.09195 -7.1025 -7.10897 -7.10959 -7.11022 -7.12011 -7.13001 -7.13519 -7.13487 -7.13457 -7.1438 -7.15305 -7.15712 -7.15618 -7.15525 -7.16402 -7.17281 -7.17604 -7.17468 -7.17334 -7.18176 -7.19003 -7.1924 -7.19106 -7.18938 -7.19748 -7.20398 -7.2061 -7.20558 -7.20361 -7.2114 -7.21615 -7.21803 -7.21837 -7.21615 -7.22363 -7.22663 -7.22826 -7.22951 -7.22703 -7.23409 -7.23545 -7.23681 -7.23819 -7.23623 -7.24147 -7.24254 -7.24362 -7.2447 -7.24365 -7.24707 -7.24782 -7.24859 -7.24936 -7.24921 -7.25068 -7.251 -7.25132 -7.25165 -7.25198 -7.25211 -7.25224 -7.25237 -7.2525 -7.25213 -7.25271 -7.25287 -7.25305 -7.25323 -7.25079 -7.25282 -7.25259 -7.25237 -7.25216 -7.24725 -7.25065 -7.24999 -7.24935 -7.24871 -7.2414 -7.24588 -7.24496 -7.24387 -7.24134 -7.2331 -7.23698 -7.23738 -7.23583 -7.23083 -7.22226 -7.22552 -7.22715 -7.22513 -7.2177 -7.20879 -7.21142 -7.21407 -7.21115 -7.2019 -7.19265 -7.19465 -7.19667 -7.19302 -7.18342 -7.17382 -7.1752 -7.1766 -7.1722 -7.16226 -7.15232 -7.1531 -7.15388 -7.1485 -7.1385 -7.12824 -7.12845 -7.12691 -7.12097 -7.11225 -7.10171 -7.10138 -7.09752 -7.0912 -7.08374 -7.073 -7.0722 -7.06621 -7.05962 -7.05302 -7.04254 -7.04027 -7.03347 -7.02668 -7.01988 -7.01078 -7.00662 -6.99973 -6.99285 -6.98596 -6.9782 -6.9748 -6.97035 -6.9659 -6.96145 -6.95699 -6.9546 -6.95221 -6.94982 -6.94743 -6.9445 -6.93827 -6.93161 -6.92495 -6.91829 -6.90962 -6.90484 -6.8985 -6.89216 -6.88581 -6.87611 -6.87282 -6.867 -6.86117 -6.85529 -6.84497 -6.84281 -6.83814 -6.83304 -6.82663 -6.81724 -6.81582 -6.81295 -6.80875 -6.80211 -6.79379 -6.7933 -6.79225 -6.78909 -6.7825 -6.77539 -6.77598 -6.77656 -6.77434 -6.76864 -6.76293 -6.76478 -6.76662 -6.76557 -6.76143 -6.75728 -6.76056 -6.76383 -6.7641 -6.76161 -6.75911 -6.76391 -6.76869 -6.77042 -6.76964 -6.76885 -6.77523 -6.78119 -6.78445 -6.78589 -6.78686 -6.79488 -6.80183 -6.80685 -6.81057 -6.81329 -6.82295 -6.83095 -6.83768 -6.84362 -6.84803 -6.85927 -6.86832 -6.87669 -6.88475 -6.89074 -6.90349 -6.91352 -6.92343 -6.93333 -6.94094 -6.95468 -6.96598 -6.97728 -6.98857 -6.99797 -7.01245 -7.02497 -7.03749 -7.05 -7.06102 -7.07608 -7.08963 -7.10318 -7.11673 -7.12921 -7.14465 -7.15904 -7.17343 -7.18782 -7.20157 -7.21721 -7.23223 -7.24726 -7.26229 -7.27715 -7.28257 -7.28783 -7.29309 -7.29835 -7.30355 -7.31375 -7.32395 -7.33415 -7.34435 -7.35429 -7.37029 -7.38598 -7.40166 -7.41735 -7.43235 -7.44892 -7.46465 -7.48039 -7.49613 -7.51074 -7.52772 -7.5433 -7.55889 -7.57448 -7.58847 -7.60574 -7.62096 -7.63619 -7.65143 -7.66455 -7.68197 -7.69662 -7.71127 -7.72594 -7.73791 -7.75536 -7.76919 -7.78302 -7.7965 -7.80736 -7.82388 -7.83747 -7.8502 -7.86191 -7.87159 -7.8869 -7.90011 -7.91143 -7.92094 -7.92909 -7.94285 -7.95556 -7.9651 -7.97189 -7.97812 -7.98994 -8.00177 -8.00898 -8.0128 -8.01665 -8.02603 -8.03543 -8.04046 -8.04138 -8.04233 -8.04875 -8.0552 -8.05768 -8.05509 -8.05253 -8.05536 -8.05764 -8.0563 -8.051 -8.04429 -8.04284 -8.0389 -8.03298 -8.02589 -8.01426 -8.00765 -7.99626 -7.98493 -7.97365 -7.95872 -7.94528 -7.92935 -7.91348 -7.89766 -7.88517 -7.88282 -7.88047 -7.87812 -7.87577 -7.87297 -7.84944 -7.82525 -7.80117 -7.77721 -7.7491 -7.72364 -7.69111 -7.65873 -7.62432 -7.58513 -7.55147 -7.51636 -7.47443 -7.42519 -7.37601 -7.33211 -7.28838 -7.23774 -7.17736 -7.11703 -7.06161 -7.00188 -6.93946 -6.87725 -6.80861 -6.77438 -6.73741 -6.70052 -6.6637 -6.63148 -6.59702 -6.56264 -6.52834 -6.49412 -6.45707 -6.38559 -6.30853 -6.23186 -6.15286 -6.07116 -5.99378 -5.91682 -5.83583 -5.74924 -5.66257 -5.58026 -5.49545 -5.41036 -5.32579 -5.26024 -5.25607 -5.25189 -5.24771 -5.24346 -5.23901 -5.1481 -5.05679 -4.9662 -4.87163 -4.76891 -4.67091 -4.57364 -4.46042 -4.3346 -4.2061 -4.14727 -4.08224 -4.01009 -3.93814 -3.87485 -3.80253 -3.7306 -3.65906 -3.57876 -3.49105 -3.33209 -3.17456 -2.99294 -2.78689 -2.57722 -2.49555 -2.4115 -2.3148 -2.21843 -2.13429 -2.00316 -1.87325 -1.74457 -1.59115 -1.43071 -1.1944 -0.96113 -0.706435 -0.454665 -0.280487 -0.244248 -0.208116 -0.171205 -0.130014 -0.0883693 0.200686 0.484871 0.756873 1.01733 1.2984 1.30625 1.3141 1.32099 1.32712 1.33321 1.60051 1.86577 2.10699 2.31374 2.5337 2.54965 2.56559 2.5786 2.58894 2.59935 2.80656 3.01425 3.1961 3.33992 3.47917 3.50984 3.54063 3.56195 3.5805 3.60126 3.71638 3.83191 3.94625 4.01989 4.08533 4.16592 4.23936 4.28602 4.3305 4.35269 4.36206 4.35477 4.34844 4.34309 4.31903 4.27555 4.22114 4.16724 4.09918 4.00763 3.91476 3.82169 3.70193 3.57176 3.43078 3.38849 3.34422 3.29444 3.24465 3.19863 3.09223 2.9858 2.87933 2.76215 2.64079 2.46401 2.2886 2.12164 1.95505 1.79102 1.78098 1.77192 1.76437 1.75682 1.74889 1.61171 1.47739 1.34594 1.24024 1.16339 1.07144 0.981933 0.937961 0.94112 0.946507 0.941407 0.938287 0.977615 1.0579 1.14008 1.20858 1.28225 1.38223 1.49415 1.62727 1.69773 1.77684 1.85868 1.94058 1.99701 2.05304 2.109 2.16488 2.2245 2.2916 2.42789 2.56999 2.71757 2.87696 3.04 3.1619 3.28525 3.411 3.53667 3.64445 3.67588 3.7073 3.73872 3.77054 3.8027 3.95284 4.10429 4.25556 4.40451 4.55552 4.65802 4.75947 4.85792 4.95632 5.0485 5.09287 5.13722 5.18157 5.22562 5.26971 5.40565 5.54145 5.67592 5.80769 5.94071 6.00342 6.06564 6.12585 6.18603 6.24437 6.30935 6.37431 6.43926 6.49948 6.55917 6.6791 6.79893 6.90929 7.01745 7.12449 7.13947 7.15433 7.16775 7.18118 7.1945 7.28509 7.37566 7.4662 7.55363 7.6411 7.70963 7.77801 7.84395 7.90989 7.97457 8.00301 8.03145 8.0599 8.08489 8.10976 8.20186 8.29392 8.37856 8.45586 8.53342 8.554 8.57452 8.59214 8.60977 8.62735 8.68559 8.74385 8.80213 8.86092 8.91948 8.97371 9.02798 9.08334 9.13872 9.1959 9.21186 9.22782 9.24378 9.25683 9.26972 9.3416 9.41311 9.47667 9.53121 9.58546 9.61017 9.63441 9.65391 9.67344 9.69342 9.72812 9.76286 9.79764 9.83684 9.87624 9.92429 9.97251 10.0294 10.0862 10.1436 10.1482 10.1529 10.1585 10.164 10.1697 10.2186 10.2675 10.3164 10.3526 10.3848 10.4409 10.4916 10.5296 10.5679 10.6051 10.6065 10.6078 10.6087 10.6097 10.6106 10.646 10.6815 10.7171 10.7625 10.814 10.8403 10.8669 10.9104 10.956 11.006 11.0149 11.0279 11.0438 11.0597 11.0774 11.1021 11.1267 11.1514 11.1706 11.1805 11.2305 11.2776 11.3124 11.3264 11.3403 11.388 11.4258 11.4496 11.4735 11.488 11.5053 11.5145 11.523 11.5315 11.5403 11.5546 11.5688 11.5832 11.5978 11.6285 11.6336 11.6547 11.6765 11.7131 11.7608 11.7638 11.7666 11.7913 11.8377 11.8839 11.8852 11.8909 11.9174 11.9544 11.9993 11.999 12.0217 12.0471 12.0724 12.1084 12.1116 12.1256 12.1396 12.1536 12.171 12.1806 12.1903 12.2 12.2097 12.2111 12.2427 12.2663 12.2899 12.3135 12.308 12.3524 12.3816 12.4045 12.4081 12.4003 12.4438 12.4875 12.5054 12.497 12.4883 12.531 12.5738 12.5906 12.5817 12.5722 12.6141 12.6436 12.6563 12.6623 12.6521 12.6932 12.7077 12.7203 12.733 12.7283 12.7585 12.7709 12.7833 12.7958 12.8012 12.8192 12.8299 12.8407 12.8515 12.8621 12.8638 12.8654 12.8671 12.8687 12.8716 12.8826 12.8948 12.9071 12.9194 12.9411 12.9438 12.9562 12.9686 12.981 13.0093 13.0058 13.0183 13.0307 13.0433 13.0762 13.068 13.0813 13.0945 13.1078 13.1458 13.1357 13.1493 13.163 13.1767 13.216 13.2038 13.2198 13.2358 13.2518 13.2964 13.2893 13.3049 13.3206 13.3363 13.3742 13.3672 13.3827 13.3983 13.414 13.4486 13.4446 13.4457 13.4465 13.4473 13.4599 13.4088 13.3812 13.3626 13.3588 13.3743 13.3272 13.2888 13.2743 13.2882 13.3099 13.2695 13.2285 13.2152 13.2306 13.2467 13.201 13.1547 13.1367 13.1474 13.1588 13.1086 13.0578 13.0361 13.0437 13.0519 12.9983 12.944 12.9188 12.9226 12.9271 12.8687 12.8153 12.7864 12.7793 12.779 12.715 12.6634 12.6292 12.6095 12.604 12.5336 12.4835 12.4437 12.4105 12.3991 12.3218 12.2729 12.2266 12.1804 12.1602 12.0809 12.0273 11.9738 11.9204 11.8837 11.8055 11.7436 11.6818 11.6201 11.5639 11.529 11.4997 11.4704 11.4411 11.405 11.3653 11.3256 11.286 11.2465 11.1979 11.1262 11.0458 10.9657 10.8857 10.7769 10.7116 10.6205 10.5297 10.4286 10.298 10.226 10.1403 10.0365 9.89318 9.74126 9.64732 9.55544 9.43064 9.27249 9.11304 9.01168 8.91256 8.76006 8.56458 8.36394 8.22016 8.06824 7.90194 7.7288 7.54147 7.4123 7.21296 6.99665 6.78114 6.49632 6.26342 6.05635 5.84882 5.64089 5.44878 5.26116 4.92762 4.59592 4.26579 3.83382 3.45958 3.22142 2.98397 2.74711 2.61206 2.34669 1.78572 1.22365 0.660661 0