/*--------------------------------*- C++ -*----------------------------------*\
| =========                 |                                                 |
| \\      /  F ield         | OpenFOAM: The Open Source CFD Toolbox           |
|  \\    /   O peration     | Version:  v1906                                 |
|   \\  /    A nd           | Web:      www.OpenFOAM.com                      |
|    \\/     M anipulation  |                                                 |
\*---------------------------------------------------------------------------*/
FoamFile
{
    version     2.0;
    format      ascii;
    class       volScalarField;
    location    "1200";
    object      epsilon;
}
// * * * * * * * * * * * * * * * * * * * * * * * * * * * * * * * * * * * * * //

dimensions      [0 2 -3 0 0 0 0];


internalField   nonuniform List<scalar> 
12225
(
8534.02
8352.95
7991.39
7605.12
7244.33
6922.43
6639.11
6393.5
6175.01
5988.78
5815.59
5676.6
5565.33
5475.81
5394.38
5336.16
5266.89
5241
612.84
1496.62
1698.53
1689.06
1643.06
1564.99
1507.03
1461.02
1422.77
1390.24
1362.82
1338.71
1320.14
1303.87
1290.24
1279.24
1264.46
1256.1
136.092
458.854
618.697
686.92
717.303
720.67
717.57
710.227
700.272
689.717
679.697
669.704
660.63
652.136
644.084
637.485
629.156
625.308
58.494
196.182
292.429
349.169
383.808
402.636
412.975
418.169
419.61
419.066
417.528
414.778
411.59
408.181
404.546
401.329
396.933
395.252
35.983
104.797
162.954
203.263
231.268
250.091
262.827
271.461
277.085
280.624
282.798
283.88
284.085
283.864
283.255
282.443
280.899
280.842
26.8377
65.6337
102.216
130.425
151.687
167.445
179.14
187.871
194.352
199.138
202.683
205.263
207.063
208.306
209.108
209.595
209.705
210.254
22.3043
46.1291
70.0865
90.024
105.968
118.523
128.394
136.182
142.333
147.194
151.05
154.107
156.514
158.406
159.885
161.04
161.87
162.914
19.7657
35.3024
51.5622
65.8843
77.8827
87.7553
95.8416
102.473
107.92
112.402
116.104
119.167
121.703
123.805
125.547
126.994
128.178
129.432
18.2251
28.7915
40.1556
50.6104
59.7072
67.4548
74.005
79.5369
84.2131
88.1726
91.5344
94.3961
96.8366
98.9217
100.707
102.239
103.562
104.858
17.2354
24.6378
32.7696
40.514
47.4713
53.5695
58.8617
63.4398
67.3989
70.8263
73.7991
76.3831
78.6338
80.598
82.3163
83.8239
85.1601
86.4253
16.5719
21.8684
27.7958
33.6058
38.9715
43.7935
48.0734
51.8526
55.1842
58.1212
60.7134
63.0046
65.0333
66.8327
68.4325
69.8591
71.1437
72.342
16.15
20.118
24.6283
29.1494
33.4183
37.3327
40.871
44.0477
46.8913
49.4345
51.7097
53.7468
55.5732
57.2129
58.6878
60.0186
61.2284
62.3516
15.8382
18.8308
22.2847
25.8209
29.2308
32.4185
35.3506
38.0248
40.4533
42.6544
44.6479
46.4539
48.091
49.5764
50.9262
52.1559
53.2825
54.3278
15.58
17.7731
20.3481
23.0455
25.7066
28.2473
30.6291
32.8386
34.8764
36.7494
38.4681
40.0438
41.4883
42.8129
44.0287
45.1466
46.1783
47.1371
15.3746
16.94
18.8141
20.827
22.8633
24.8529
26.7573
28.557
30.2445
31.819
33.2833
34.6426
35.9028
37.0708
38.1534
39.1575
40.0908
40.9612
15.2202
16.3202
17.6662
19.1522
20.6973
22.2456
23.7612
25.2225
26.6169
27.9382
29.1843
30.3554
31.4536
32.4819
33.4438
34.3434
35.185
35.9729
15.1154
15.9034
16.8899
18.0101
19.2076
20.4384
21.6705
22.8818
24.0573
25.1879
26.2679
27.2947
28.2674
29.1865
30.0534
30.8699
31.6384
32.3606
15.0629
15.6954
16.5005
17.433
18.4493
19.5122
20.5928
21.6692
22.7259
23.7522
24.7412
25.6884
26.5918
27.4504
28.2645
29.0351
29.7636
30.4521
15.079
15.7585
16.6172
17.6041
18.6719
19.7823
20.9057
22.0204
23.1114
24.1684
25.1848
26.1569
27.0827
27.9616
28.7939
29.5805
30.3222
31.0201
15.1988
16.233
17.5008
18.9059
20.3739
21.8524
23.3072
24.7167
26.0682
27.3547
28.5732
29.7233
30.8061
31.8237
32.7786
33.6734
34.5101
35.2898
15.4072
17.0667
19.0414
21.1513
23.2773
25.3488
27.328
29.1965
30.9478
32.582
34.1027
35.5156
36.8273
38.0446
39.174
40.2212
41.1905
42.0825
15.7671
18.5249
21.7123
24.9934
28.1792
31.1794
33.9599
36.5148
38.852
40.9857
42.9324
44.7087
46.3306
47.813
49.1696
50.4118
51.5482
52.5775
16.3868
21.066
26.3183
31.5136
36.3621
40.7672
44.7215
48.2518
51.3979
54.2014
56.7023
58.9366
60.9367
62.7311
64.3453
65.8007
67.1151
68.2802
17.4988
25.6603
34.5309
42.8943
50.3476
56.8497
62.4805
67.3436
71.5449
75.1813
78.336
81.0801
83.4737
85.5674
87.4063
89.0274
90.4685
91.7078
19.6474
34.5755
50.1052
63.8331
75.3837
84.9729
92.9187
99.4901
104.937
109.468
113.247
116.408
119.059
121.285
123.167
124.759
126.147
127.276
24.2998
53.9037
82.4117
105.38
123.266
137.15
147.963
156.31
162.791
167.843
171.774
174.83
177.192
178.998
180.397
181.436
182.295
182.838
36.4922
103.325
158.512
197.274
224.158
242.905
255.961
264.562
270.351
274.156
276.47
277.739
278.218
278.119
277.768
277.021
276.27
275.228
81.6126
262.528
372.084
433.122
466.545
484.627
492.862
493.496
492.267
489.34
485.121
480.469
475.714
470.818
466.226
461.464
457.502
453.145
390.158
975.276
1160.18
1205.52
1197.66
1174.09
1134.76
1094.94
1063.53
1037.64
1015.62
996.509
979.879
965.081
952.22
940.47
930.566
921.148
6457.22
6260.43
5992.3
5735.76
5500.34
5289.58
5101.38
4933.94
4785.11
4652.48
4533.82
4427.09
4330.94
4243.58
4164.63
4091.92
4026.39
3964.71
7.08865
9.31097
15.8734
20.2445
23.5715
25.9611
27.9463
29.5249
30.878
32.0199
33.0206
33.8922
34.6623
35.3362
35.924
36.4266
36.8485
37.1847
37.4353
37.5991
37.626
37.5769
37.3935
36.8931
35.9421
34.562
32.8095
30.6024
27.8757
24.6377
20.984
17.0871
13.3023
10.9077
9.67767
9.47263
9.84081
10.546
10.754
10.3764
9.2304
7.8811
7.33477
7.9538
9.30516
11.3329
14.1153
17.8091
22.7401
28.3333
33.7328
39.1159
44.4706
49.691
54.7581
59.675
64.4461
69.0799
73.5891
77.9888
82.2961
86.529
90.7059
94.8447
98.9626
103.076
107.199
111.344
115.525
119.75
124.029
128.368
132.774
137.251
141.803
146.432
151.14
155.928
160.794
165.738
170.757
175.849
181.009
186.233
191.515
196.848
202.224
207.632
213.064
218.508
223.95
229.38
234.785
240.155
245.481
250.761
255.986
261.147
266.25
271.355
276.483
281.637
286.815
292.003
297.189
302.355
307.479
312.538
317.507
322.37
327.145
331.874
336.534
341.114
345.584
349.898
353.975
357.672
360.651
362.597
364.055
365.606
366.949
368.272
369.298
370.456
371.359
372.378
373.239
374.021
374.735
375.402
375.997
376.44
377.149
377.443
378.226
378.477
379.27
379.645
380.382
380.734
381.584
382.244
382.988
383.781
384.577
385.31
386.428
387.286
388.434
389.534
390.866
392.236
393.68
395.202
396.813
398.601
400.843
404.285
409.018
414.101
418.372
419.181
419.444
419.515
419.312
418.762
417.867
416.607
415.067
413.172
411.104
408.584
406.093
402.842
399.895
395.495
390.533
359.265
21.0966
14.6565
13.5729
13.7201
14.0444
14.4421
14.8252
15.2014
15.5433
15.865
16.1568
16.4241
16.667
16.89
17.0938
17.2788
17.443
17.585
17.7052
17.8077
17.9017
18.0034
18.134
18.3085
18.4811
18.6237
18.7591
19.0406
19.5186
20.153
20.853
21.4731
22.2907
23.3832
24.8053
26.5825
28.654
30.8093
32.6808
33.9029
34.3911
34.4583
34.4231
34.3853
34.3326
34.308
34.3823
34.6283
35.0715
35.6761
36.391
37.2121
38.1188
39.0978
40.1363
41.2236
42.35
43.5073
44.6891
45.8904
47.1075
48.3382
49.5809
50.835
52.1007
53.3782
54.6684
55.9723
57.2908
58.6252
59.9764
61.3457
62.734
64.1422
65.5712
67.0217
68.4945
69.9901
71.5089
73.0513
74.6176
76.2079
77.8221
79.4603
81.1222
82.8077
84.5163
86.2479
88.0021
89.7791
91.5791
93.4033
95.2532
97.1313
99.0401
100.977
102.941
104.94
106.985
109.03
111.073
113.111
115.136
117.142
119.135
121.123
123.115
125.122
127.168
129.301
131.527
133.754
135.96
138.133
140.262
142.33
144.318
146.204
147.968
149.627
151.244
152.843
154.405
155.939
157.442
158.924
160.376
161.8
163.185
164.537
165.858
167.147
168.405
169.64
170.855
172.034
173.204
174.329
175.451
176.528
177.594
178.62
179.651
180.634
181.596
182.524
183.404
184.254
185.061
185.794
186.481
187.1
187.676
188.165
188.578
188.917
189.198
189.459
189.752
190.047
190.191
190.148
189.835
188.999
187.875
186.572
185.099
183.47
181.702
179.808
177.8
175.687
173.473
171.172
168.773
166.302
163.665
161.024
157.496
155.345
42.5002
22.6488
18.2623
16.3436
15.5491
15.1332
14.9622
14.9731
15.0464
15.1711
15.3096
15.4624
15.6221
15.7907
15.9657
16.1461
16.3303
16.5201
16.7228
16.9552
17.2491
17.6355
18.1052
18.6568
19.3041
20.0825
21.0469
22.2635
23.7786
25.6218
27.8103
30.3572
33.085
35.9152
38.7472
41.4281
43.7024
45.2506
45.8497
45.5398
44.4802
42.9703
41.2977
39.6761
38.2478
37.1014
36.2807
35.8218
35.6742
35.7979
36.1633
36.7145
37.4162
38.2287
39.1183
40.0576
41.0257
42.0074
42.9926
43.9754
44.9528
45.9243
46.8907
47.854
48.8164
49.7803
50.7482
51.7221
52.7042
53.6962
54.6998
55.7162
56.7468
57.7926
58.8546
59.9336
61.0304
62.1456
63.2799
64.434
65.6084
66.8037
68.0205
69.2597
70.5219
71.8083
73.1201
74.4592
75.8279
77.2297
78.6693
80.1536
81.6924
83.3007
85.0018
86.7678
88.5692
90.3933
92.2317
94.0773
95.9267
97.7765
99.6215
101.458
103.29
105.122
106.959
108.805
110.664
112.533
114.403
116.258
118.09
119.894
121.663
123.392
125.074
126.708
128.295
129.843
131.362
132.856
134.326
135.777
137.209
138.618
139.997
141.342
142.651
143.922
145.155
146.349
147.503
148.619
149.695
150.728
151.722
152.669
153.574
154.43
155.242
156.002
156.715
157.373
157.975
158.515
158.99
159.394
159.723
159.967
160.122
160.18
160.146
160
159.751
159.4
158.955
158.432
157.846
157.172
156.356
155.365
154.186
152.82
151.328
149.737
148.057
146.3
144.479
142.602
140.668
138.68
136.636
134.55
132.402
130.219
127.92
125.688
123.637
122.712
56.9482
29.3151
22.6369
19.8045
18.2923
17.4614
16.9643
16.7421
16.6376
16.6376
16.6874
16.7894
16.9261
17.1013
17.3095
17.5535
17.8334
18.1555
18.5287
18.971
19.5109
20.1962
21.0223
21.9817
23.0688
24.2788
25.607
27.0446
28.5928
30.2589
32.0488
33.95
35.9262
37.9143
39.7997
41.4174
42.5853
43.1067
42.9844
42.2715
41.1755
39.9167
38.6837
37.613
36.7902
36.2706
36.0596
36.0984
36.3802
36.866
37.528
38.3222
39.2058
40.1439
41.1094
42.0836
43.0543
44.015
44.9631
45.8992
46.8254
47.7452
48.6621
49.5801
50.5029
51.434
52.3757
53.3301
54.2996
55.286
56.2911
57.3165
58.3636
59.4337
60.5279
61.6473
62.7926
63.9648
65.1646
66.3926
67.6493
68.9354
70.2512
71.5972
72.9739
74.3818
75.8213
77.2934
78.7988
80.3387
81.9145
83.5277
85.1798
86.871
88.5983
90.3546
92.1333
93.9307
95.7434
97.5674
99.3989
101.234
103.07
104.905
106.738
108.571
110.404
112.236
114.066
115.89
117.701
119.495
121.266
123.011
124.725
126.407
128.053
129.664
131.241
132.788
134.308
135.804
137.282
138.755
140.227
141.675
143.087
144.458
145.785
147.066
148.301
149.486
150.623
151.708
152.742
153.723
154.648
155.517
156.328
157.078
157.766
158.39
158.947
159.434
159.847
160.183
160.44
160.608
160.681
160.664
160.537
160.302
159.956
159.496
158.922
158.233
157.429
156.509
155.469
154.3
152.998
151.56
149.985
148.287
146.493
144.627
142.713
140.762
138.788
136.8
134.782
132.73
130.641
128.526
126.369
124.186
121.934
119.732
117.659
116.33
79.0701
36.7821
27.4087
23.3777
21.2909
20.0416
19.3113
18.8664
18.6351
18.5404
18.5416
18.6237
18.763
18.9591
19.2073
19.5124
19.8777
20.3095
20.8094
21.3824
22.0387
22.7905
23.6451
24.5997
25.6386
26.7348
27.8578
28.9861
30.1146
31.2549
32.4243
33.6276
34.8235
35.9141
36.8029
37.3947
37.6392
37.6052
37.3567
36.994
36.5992
36.2524
36.0284
35.9598
36.0686
36.3548
36.8058
37.4268
38.1865
39.0481
39.9792
40.9561
41.9588
42.9722
43.9859
44.9934
45.9919
46.9811
47.9624
48.9384
49.9125
50.8882
51.8693
52.8593
53.8614
54.8786
55.9142
56.9711
58.0518
59.1585
60.293
61.4569
62.6517
63.8785
65.1384
66.4322
67.7607
69.1245
70.5242
71.96
73.4323
74.9412
76.4869
78.0692
79.6882
81.3437
83.0355
84.7632
86.5266
88.3251
90.1579
92.0238
93.9212
95.8474
97.7992
99.7733
101.767
103.777
105.803
107.843
109.893
111.951
114.013
116.079
118.147
120.216
122.281
124.34
126.388
128.422
130.436
132.426
134.388
136.32
138.218
140.079
141.901
143.683
145.427
147.132
148.801
150.434
152.034
153.601
155.131
156.616
158.051
159.431
160.753
162.017
163.219
164.359
165.435
166.445
167.387
168.261
169.063
169.792
170.445
171.021
171.516
171.929
172.255
172.495
172.64
172.694
172.657
172.509
172.252
171.878
171.381
170.758
170.007
169.124
168.107
166.956
165.668
164.24
162.67
160.961
159.12
157.152
155.063
152.866
150.588
148.258
145.919
143.579
141.252
138.976
136.698
134.405
132.097
129.788
127.468
125.147
122.803
120.533
118.42
116.802
95.6337
43.976
32.0161
26.8926
24.2828
22.6912
21.7934
21.2269
20.9182
20.7608
20.7266
20.7821
20.924
21.1402
21.4276
21.7787
22.1892
22.653
23.1652
23.72
24.3131
24.9437
25.612
26.3137
27.0377
27.7691
28.4943
29.2057
29.9035
30.5856
31.2429
31.8552
32.4049
32.8871
33.2847
33.5918
33.8209
33.9997
34.1632
34.3494
34.5939
34.9245
35.35
35.8729
36.5012
37.2489
38.1084
39.049
40.0528
41.1024
42.1823
43.28
44.3857
45.4926
46.5964
47.6951
48.7887
49.8787
50.9676
52.0586
53.1554
54.262
55.3821
56.5195
57.6778
58.8604
60.0704
61.3105
62.5833
63.8909
65.2353
66.6183
68.0413
69.5056
71.0124
72.5625
74.1568
75.7958
77.48
79.2096
80.9847
82.8051
84.6705
86.5804
88.5342
90.5309
92.5696
94.6488
96.7672
98.923
101.114
103.338
105.593
107.875
110.181
112.51
114.858
117.224
119.605
121.998
124.401
126.81
129.224
131.639
134.051
136.455
138.848
141.226
143.585
145.919
148.226
150.5
152.738
154.936
157.091
159.199
161.259
163.267
165.225
167.13
168.982
170.782
172.526
174.213
175.84
177.401
178.892
180.311
181.654
182.92
184.107
185.213
186.236
187.174
188.026
188.791
189.465
190.047
190.535
190.926
191.219
191.411
191.498
191.488
191.366
191.137
190.793
190.328
189.735
189.01
188.147
187.143
185.996
184.702
183.261
181.671
179.931
178.038
175.99
173.791
171.449
168.974
166.381
163.688
160.924
158.129
155.374
152.65
149.921
147.187
144.444
141.705
138.983
136.299
133.655
131.054
128.485
126.031
123.744
121.858
114.608
51.0696
36.3958
30.1574
27.1204
25.2649
24.2009
23.53
23.1567
22.9642
22.9112
22.9545
23.0827
23.2799
23.5396
23.8516
24.2089
24.6031
25.0268
25.4726
25.9333
26.4026
26.8754
27.3473
27.8138
28.2699
28.7119
29.1382
29.5457
29.9387
30.3199
30.6921
31.06
31.4303
31.8118
32.2148
32.6545
33.1217
33.612
34.1296
34.6834
35.2914
35.9806
36.775
37.6803
38.6677
39.7188
40.821
41.9628
43.1341
44.3261
45.532
46.7465
47.9662
49.1893
50.4155
51.6457
52.8819
54.1268
55.3837
56.6563
57.9483
59.2635
60.6056
61.9782
63.3847
64.8284
66.3122
67.8389
69.4109
71.0306
72.7
74.4209
76.1948
78.023
79.9067
81.8464
83.8428
85.8959
88.0058
90.1721
92.394
94.6709
97.0013
99.3841
101.817
104.299
106.827
109.399
112.012
114.664
117.35
120.067
122.813
125.584
128.376
131.187
134.014
136.853
139.702
142.556
145.413
148.267
151.115
153.952
156.774
159.577
162.354
165.103
167.817
170.492
173.123
175.705
178.234
180.707
183.118
185.465
187.745
189.955
192.095
194.161
196.152
198.066
199.899
201.647
203.308
204.877
206.352
207.73
209.01
210.189
211.265
212.237
213.103
213.862
214.513
215.052
215.479
215.792
215.99
216.072
216.041
215.885
215.607
215.206
214.681
214.026
213.234
212.3
211.219
209.987
208.599
207.054
205.349
203.484
201.454
199.26
196.898
194.37
191.68
188.838
185.855
182.745
179.526
176.223
172.864
169.471
166.047
162.599
159.143
155.701
152.292
148.949
145.698
142.577
139.551
136.619
133.844
131.252
128.981
126.787
56.7305
39.9714
32.8872
29.4759
27.3873
26.1724
25.4016
24.9641
24.734
24.6623
24.6958
24.8157
24.9994
25.2347
25.5088
25.8119
26.1337
26.4662
26.8023
27.1365
27.4652
27.7861
28.0982
28.4016
28.6976
28.9886
29.2791
29.5748
29.8803
30.2055
30.5634
30.9679
31.4263
31.92
32.4429
32.9935
33.5733
34.1884
34.8495
35.5686
36.3565
37.2205
38.17
39.2004
40.2982
41.452
42.6521
43.8904
45.1599
46.4546
47.77
49.1025
50.4501
51.8119
53.188
54.5797
55.9891
57.4188
58.8722
60.3526
61.8639
63.4099
64.9942
66.6206
68.2928
70.014
71.7877
73.6167
75.504
77.4519
79.4627
81.5381
83.6797
85.8886
88.1654
90.5105
92.9238
95.4052
97.9541
100.569
103.25
105.994
108.8
111.666
114.588
117.565
120.593
123.669
126.789
129.95
133.148
136.379
139.638
142.923
146.228
149.551
152.886
156.231
159.58
162.93
166.276
169.614
172.94
176.248
179.532
182.787
186.007
189.185
192.316
195.395
198.415
201.372
204.26
207.074
209.81
212.463
215.029
217.506
219.89
222.178
224.367
226.454
228.437
230.31
232.072
233.72
235.249
236.66
237.948
239.112
240.151
241.063
241.848
242.504
243.03
243.425
243.688
243.816
243.819
243.688
243.418
243.009
242.465
241.785
240.967
240.006
238.896
237.632
236.209
234.623
232.873
230.955
228.866
226.605
224.169
221.554
218.757
215.779
212.624
209.299
205.815
202.186
198.427
194.558
190.598
186.568
182.484
178.37
174.252
170.159
166.116
162.156
158.294
154.556
150.936
147.491
144.24
141.171
138.349
140.703
61.6924
42.8521
35.0104
31.3009
29.0245
27.6777
26.8141
26.3082
26.029
25.9241
25.9332
26.0344
26.2006
26.4162
26.6657
26.9378
27.2216
27.509
27.7926
28.0679
28.3325
28.5861
28.8301
29.0671
29.3011
29.5375
29.7829
30.0488
30.3485
30.6955
31.1037
31.5813
32.1134
32.6892
33.3008
33.9455
34.6254
35.3457
36.113
36.9373
37.8277
38.7934
39.8413
40.9612
42.1445
43.3835
44.6716
46.0032
47.3734
48.7781
50.2144
51.68
53.1738
54.6958
56.2465
57.8276
59.4411
61.0899
62.777
64.5058
66.2799
68.103
69.979
71.9113
73.9038
75.9597
78.0825
80.2751
82.5403
84.8804
87.2972
89.7924
92.367
95.0217
97.7567
100.572
103.467
106.442
109.496
112.627
115.833
119.112
122.461
125.878
129.359
132.901
136.501
140.153
143.854
147.6
151.385
155.204
159.053
162.926
166.817
170.722
174.635
178.551
182.464
186.37
190.264
194.14
197.989
201.806
205.585
209.32
213.006
216.635
220.201
223.699
227.121
230.461
233.713
236.872
239.931
242.886
245.732
248.465
251.08
253.575
255.945
258.188
260.3
262.277
264.118
265.818
267.376
268.789
270.055
271.173
272.142
272.961
273.63
274.148
274.514
274.728
274.793
274.71
274.477
274.091
273.552
272.863
272.025
271.04
269.906
268.619
267.174
265.567
263.792
261.849
259.733
257.442
254.974
252.324
249.488
246.462
243.241
239.825
236.216
232.42
228.444
224.301
220.003
215.569
211.017
206.372
201.66
196.91
192.151
187.416
182.734
178.135
173.636
169.268
165.029
160.963
157.025
153.28
149.589
144.692
64.4485
44.7152
36.4986
32.5836
30.1698
28.7341
27.8047
27.2523
26.9382
26.8094
26.8016
26.8909
27.0485
27.2568
27.4983
27.7613
28.035
28.3116
28.585
28.8519
29.1107
29.3619
29.6077
29.8523
30.1013
30.3618
30.6425
30.9535
31.3055
31.7091
32.1745
32.7044
33.2868
33.9144
34.5835
35.2937
36.0475
36.849
37.704
38.619
39.601
40.6574
41.7909
42.9947
44.2632
45.5917
46.9758
48.4121
49.8975
51.4298
53.0073
54.629
56.2947
58.005
59.7609
61.5643
63.4173
65.3226
67.2833
69.3026
71.3841
73.5311
75.7474
78.0365
80.4018
82.8465
85.3737
87.986
90.6859
93.4752
96.3554
99.3276
102.392
105.55
108.801
112.144
115.579
119.105
122.72
126.422
130.208
134.074
138.018
142.036
146.122
150.275
154.487
158.756
163.074
167.436
171.837
176.269
180.728
185.206
189.697
194.194
198.692
203.185
207.666
212.127
216.562
220.968
225.339
229.667
233.946
238.167
242.322
246.405
250.407
254.321
258.14
261.856
265.462
268.952
272.319
275.557
278.661
281.626
284.447
287.121
289.644
292.012
294.222
296.27
298.154
299.871
301.42
302.797
304.002
305.034
305.892
306.576
307.087
307.426
307.591
307.587
307.414
307.072
306.563
305.888
305.048
304.047
302.89
301.578
300.11
298.482
296.691
294.733
292.605
290.305
287.831
285.179
282.345
279.323
276.108
272.694
269.075
265.248
261.213
256.974
252.536
247.909
243.106
238.143
233.042
227.826
222.526
217.172
211.796
206.433
201.111
195.866
190.717
185.698
180.803
176.072
171.437
166.975
162.45
151.898
66.2152
45.868
37.3847
33.3104
30.8061
29.3203
28.3607
27.7924
27.472
27.3446
27.3434
27.4449
27.619
27.8477
28.113
28.4029
28.7062
29.0156
29.3253
29.6322
29.9347
30.2337
30.5318
30.8333
31.1437
31.4699
31.8195
32.2004
32.6203
33.0863
33.6038
34.1766
34.8074
35.4913
36.2248
37.0077
37.8416
38.7298
39.6765
40.6872
41.7682
42.9262
44.1585
45.4623
46.8353
48.2754
49.7808
51.3498
52.9815
54.6751
56.4303
58.2473
60.1269
62.0702
64.0788
66.1547
68.3003
70.5183
72.8116
75.1832
77.6364
80.1743
82.8001
85.5171
88.3281
91.2359
94.2429
97.3513
100.563
103.878
107.299
110.826
114.458
118.196
122.038
125.984
130.033
134.181
138.427
142.767
147.197
151.713
156.311
160.987
165.737
170.554
175.434
180.37
185.355
190.383
195.447
200.539
205.652
210.779
215.91
221.039
226.155
231.252
236.324
241.368
246.374
251.332
256.233
261.07
265.835
270.522
275.122
279.627
284.029
288.32
292.491
296.535
300.445
304.211
307.829
311.291
314.592
317.725
320.687
323.473
326.079
328.501
330.737
332.783
334.637
336.296
337.758
339.022
340.087
340.952
341.619
342.088
342.36
342.439
342.325
342.022
341.531
340.856
339.999
338.963
337.753
336.376
334.838
333.143
331.288
329.272
327.091
324.745
322.231
319.548
316.692
313.66
310.447
307.046
303.45
299.652
295.645
291.424
286.987
282.334
277.47
272.401
267.139
261.698
256.1
250.368
244.529
238.616
232.661
226.698
220.76
214.883
209.09
203.418
197.858
192.45
187.111
181.919
176.599
152.979
66.5967
46.2469
37.7458
33.597
31.0603
29.5704
28.6173
28.0658
27.7687
27.6682
27.6996
27.8389
28.0553
28.3312
28.6487
28.9957
29.3613
29.738
30.1197
30.5029
30.886
31.2697
31.6566
32.0504
32.4559
32.8789
33.3252
33.801
34.3125
34.8648
35.4626
36.1093
36.8079
37.5603
38.3691
39.2373
40.1648
41.154
42.2087
43.3346
44.5362
45.8148
47.1709
48.6047
50.1163
51.7061
53.3741
55.1209
56.9469
58.8529
60.8401
62.9095
65.0628
67.3017
69.6283
72.0447
74.5533
77.1567
79.8575
82.6584
85.5621
88.5712
91.6883
94.9158
98.2558
101.71
105.281
108.968
112.774
116.698
120.74
124.899
129.176
133.568
138.075
142.693
147.421
152.255
157.192
162.226
167.354
172.571
177.872
183.252
188.705
194.224
199.801
205.43
211.101
216.808
222.54
228.291
234.051
239.81
245.56
251.292
256.999
262.671
268.298
273.873
279.391
284.845
290.226
295.524
300.731
305.837
310.832
315.707
320.454
325.063
329.525
333.832
337.976
341.949
345.745
349.355
352.774
355.996
359.017
361.832
364.436
366.827
369.002
370.957
372.69
374.199
375.482
376.54
377.371
377.978
378.36
378.522
378.465
378.196
377.711
377.019
376.123
375.03
373.744
372.271
370.617
368.793
366.808
364.665
362.365
359.906
357.288
354.511
351.572
348.472
345.207
341.774
338.167
334.379
330.402
326.227
321.845
317.251
312.44
307.41
302.164
296.707
291.045
285.192
279.164
272.983
266.673
260.264
253.787
247.278
240.768
234.297
227.888
221.581
215.367
209.286
203.247
197.336
191.247
153.265
66.1353
46.0453
37.6685
33.5301
31.0204
29.571
28.6635
28.1648
27.9245
27.8817
27.9774
28.1866
28.4781
28.8349
29.2387
29.6779
30.1411
30.6207
31.1102
31.606
32.1059
32.6103
33.1205
33.6393
34.171
34.7201
35.2917
35.8911
36.5237
37.1941
37.907
38.6663
39.4762
40.3407
41.2637
42.2493
43.3012
44.4234
45.62
46.895
48.2516
49.6929
51.2211
52.8387
54.5478
56.3505
58.2488
60.2449
62.3408
64.5388
66.8409
69.2495
71.7667
74.3949
77.1363
79.9931
82.9675
86.0618
89.2781
92.6182
96.0841
99.6776
103.4
107.253
111.237
115.352
119.6
123.98
128.491
133.132
137.902
142.8
147.822
152.968
158.233
163.615
169.108
174.71
180.414
186.216
192.109
198.089
204.148
210.281
216.479
222.735
229.039
235.383
241.758
248.156
254.567
260.982
267.39
273.779
280.138
286.455
292.725
298.943
305.099
311.179
317.173
323.072
328.865
334.543
340.099
345.523
350.805
355.937
360.911
365.716
370.344
374.786
379.035
383.082
386.92
390.543
393.943
397.115
400.055
402.757
405.219
407.437
409.407
411.127
412.596
413.812
414.775
415.485
415.942
416.15
416.11
415.835
415.312
414.557
413.573
412.366
410.943
409.312
407.48
405.456
403.249
400.874
398.34
395.654
392.819
389.835
386.704
383.427
380.002
376.431
372.711
368.837
364.805
360.607
356.234
351.676
346.924
341.971
336.81
331.439
325.857
320.065
314.07
307.878
301.501
294.955
288.261
281.443
274.528
267.55
260.541
253.541
246.573
239.679
232.85
226.13
219.424
212.826
206.027
151.546
65.1053
45.4527
37.3082
33.2278
30.7865
29.4151
28.586
28.1738
28.0205
28.0704
28.2661
28.5819
28.9862
29.4627
29.9927
30.5649
31.1676
31.793
32.4345
33.0879
33.7504
34.421
35.1003
35.79
36.4929
37.2127
37.9548
38.7249
39.5275
40.367
41.2481
42.1757
43.1549
44.1913
45.2902
46.4573
47.6977
49.0167
50.4195
51.9109
53.4956
55.1781
56.9627
58.8534
60.8544
62.9696
65.2027
67.5575
70.0374
72.6458
75.3858
78.2603
81.2721
84.4235
87.7168
91.1538
94.7361
98.465
102.342
106.367
110.541
114.864
119.336
123.956
128.725
133.639
138.699
143.901
149.243
154.723
160.337
166.082
171.954
177.948
184.06
190.286
196.618
203.052
209.581
216.197
222.895
229.666
236.505
243.401
250.347
257.333
264.349
271.386
278.433
285.481
292.517
299.53
306.51
313.445
320.323
327.13
333.857
340.494
347.034
353.47
359.792
365.99
372.055
377.975
383.742
389.345
394.774
400.021
405.076
409.928
414.571
418.994
423.189
427.15
430.868
434.337
437.552
440.506
443.196
445.617
447.766
449.641
451.238
452.557
453.596
454.354
454.834
455.034
454.959
454.62
454.005
453.128
451.995
450.611
448.985
447.125
445.039
442.739
440.235
437.538
434.662
431.623
428.434
425.104
421.641
418.047
414.327
410.481
406.511
402.419
398.201
393.856
389.377
384.755
379.981
375.043
369.931
364.636
359.152
353.474
347.6
341.53
335.265
328.81
322.171
315.357
308.381
301.26
294.014
286.67
279.258
271.815
264.366
256.953
249.573
242.272
234.961
227.747
220.312
147.567
63.1125
44.3056
36.5765
32.6694
30.3753
29.1409
28.4442
28.1661
28.1397
28.328
28.6689
29.1391
29.7064
30.3554
31.0671
31.8305
32.6335
33.4681
34.3269
35.2052
36.0995
37.0078
37.9293
38.8649
39.8167
40.7885
41.7842
42.8085
43.8657
44.9613
46.1006
47.2889
48.533
49.8404
51.2178
52.6724
54.2108
55.8398
57.5663
59.3968
61.3379
63.3961
65.5775
67.8883
70.3344
72.9214
75.6548
78.5395
81.5802
84.7812
88.1461
91.678
95.3794
99.2523
103.298
107.518
111.911
116.478
121.217
126.128
131.209
136.457
141.871
147.446
153.179
159.067
165.106
171.29
177.616
184.077
190.668
197.384
204.218
211.164
218.215
225.364
232.604
239.926
247.324
254.788
262.31
269.882
277.495
285.139
292.803
300.479
308.154
315.817
323.457
331.062
338.619
346.115
353.538
360.877
368.125
375.273
382.311
389.224
396.002
402.632
409.106
415.413
421.544
427.49
433.242
438.792
444.129
449.247
454.134
458.784
463.188
467.337
471.225
474.845
478.189
481.252
484.029
486.517
488.709
490.604
492.201
493.497
494.487
495.177
495.563
495.639
495.431
494.918
494.106
493.006
491.622
489.961
488.032
485.842
483.4
480.717
477.805
474.678
471.35
467.836
464.153
460.318
456.349
452.259
448.059
443.758
439.36
434.87
430.291
425.625
420.873
416.03
411.091
406.046
400.881
395.584
390.142
384.543
378.777
372.839
366.724
360.431
353.96
347.314
340.495
333.509
326.36
319.057
311.61
304.035
296.351
288.588
280.77
272.94
265.099
257.304
249.473
241.731
233.761
140.845
60.3708
42.7338
35.5935
31.97
29.9223
28.8593
28.341
28.2418
28.404
28.7946
29.3494
30.0488
30.8593
31.7673
32.7529
33.8056
34.9124
36.0658
37.2577
38.4831
39.7375
41.0184
42.3244
43.6556
45.0133
46.3997
47.8168
49.2659
50.7508
52.2781
53.8532
55.4837
57.1796
58.9504
60.8049
62.7509
64.7965
66.9506
69.2223
71.6205
74.1542
76.8319
79.662
82.6526
85.8113
89.1452
92.661
96.3646
100.261
104.354
108.647
113.142
117.841
122.743
127.848
133.154
138.658
144.358
150.248
156.326
162.584
169.018
175.621
182.387
189.308
196.377
203.587
210.93
218.397
225.981
233.672
241.462
249.343
257.305
265.34
273.438
281.59
289.787
298.018
306.275
314.548
322.826
331.1
339.359
347.592
355.788
363.936
372.025
380.044
387.983
395.829
403.569
411.189
418.675
426.016
433.2
440.222
447.072
453.743
460.226
466.512
472.593
478.458
484.101
489.511
494.681
499.6
504.262
508.656
512.776
516.614
520.165
523.421
526.378
529.028
531.369
533.398
535.111
536.503
537.575
538.331
538.761
538.86
538.658
538.131
537.277
536.112
534.635
532.85
530.766
528.39
525.73
522.795
519.595
516.141
512.447
508.529
504.403
500.087
495.599
490.959
486.188
481.308
476.337
471.291
466.183
461.019
455.807
450.555
445.266
439.944
434.585
429.182
423.724
418.196
412.58
406.86
401.019
395.042
388.918
382.638
376.195
369.59
362.821
355.893
348.809
341.572
334.186
326.653
318.979
311.168
303.237
295.197
287.084
278.903
270.718
262.462
254.277
245.854
133.495
57.1306
40.9127
34.4662
31.2304
29.5129
28.7092
28.4393
28.6013
29.0445
29.7397
30.6193
31.6682
32.8517
34.1592
35.5697
37.0746
38.6608
40.3221
42.0502
43.8408
45.6888
47.5917
49.5474
51.5555
53.6155
55.7265
57.8871
60.0971
62.3585
64.6705
67.0349
69.4649
71.9801
74.5903
77.301
80.1193
83.0578
86.1281
89.3426
92.7124
96.2485
99.9613
103.861
107.956
112.256
116.768
121.499
126.453
131.635
137.046
142.687
148.557
154.653
160.971
167.508
174.256
181.208
188.358
195.695
203.21
210.894
218.736
226.725
234.851
243.101
251.465
259.932
268.489
277.126
285.831
294.592
303.4
312.242
321.109
329.989
338.873
347.749
356.607
365.438
374.231
382.976
391.664
400.284
408.826
417.279
425.632
433.874
441.994
449.981
457.825
465.517
473.045
480.4
487.574
494.555
501.335
507.905
514.256
520.378
526.263
531.905
537.296
542.428
547.297
551.894
556.213
560.248
563.991
567.436
570.579
573.415
575.941
578.15
580.037
581.599
582.838
583.753
584.333
584.576
584.494
584.104
583.358
582.286
580.891
579.17
577.124
574.762
572.086
569.101
565.818
562.245
558.39
554.264
549.88
545.25
540.393
535.327
530.072
524.646
519.072
513.374
507.578
501.71
495.792
489.848
483.891
477.926
471.969
466.031
460.12
454.239
448.386
442.554
436.728
430.894
425.03
419.117
413.133
407.057
400.869
394.552
388.091
381.478
374.708
367.781
360.7
353.468
346.092
338.575
330.917
323.117
315.179
307.098
298.892
290.554
282.143
273.598
265.072
256.279
124.701
53.7017
39.0625
33.3982
30.6344
29.3324
28.8673
28.9379
29.4744
30.3181
31.4498
32.7981
34.3558
36.0858
37.983
40.0261
42.2112
44.5265
46.97
49.5337
52.2145
55.0069
57.9092
60.9188
64.0348
67.2542
70.5735
73.9874
77.4916
81.08
84.7464
88.4886
92.3144
96.2419
100.272
104.411
108.674
113.072
117.622
122.336
127.228
132.309
137.589
143.08
148.791
154.729
160.902
167.313
173.963
180.851
187.975
195.33
202.909
210.706
218.709
226.909
235.294
243.852
252.57
261.433
270.428
279.54
288.754
298.054
307.428
316.859
326.335
335.839
345.36
354.883
364.396
373.886
383.341
392.751
402.102
411.387
420.593
429.712
438.733
447.648
456.448
465.126
473.672
482.076
490.332
498.43
506.362
514.121
521.697
529.081
536.267
543.243
550.002
556.536
562.838