/*--------------------------------*- C++ -*----------------------------------*\
| =========                 |                                                 |
| \\      /  F ield         | OpenFOAM: The Open Source CFD Toolbox           |
|  \\    /   O peration     | Version:  v1906                                 |
|   \\  /    A nd           | Web:      www.OpenFOAM.com                      |
|    \\/     M anipulation  |                                                 |
\*---------------------------------------------------------------------------*/
FoamFile
{
    version     2.0;
    format      ascii;
    class       volScalarField;
    location    "1200";
    object      k;
}
// * * * * * * * * * * * * * * * * * * * * * * * * * * * * * * * * * * * * * //

dimensions      [0 2 -2 0 0 0 0];


internalField   nonuniform List<scalar> 
12225
(
2.25874
2.22668
2.16195
2.09171
2.02502
1.96458
1.9106
1.86319
1.82049
1.7837
1.74915
1.72116
1.6986
1.68034
1.66363
1.65164
1.63732
1.63195
2.25029
2.13779
1.98564
1.87243
1.78123
1.71368
1.66066
1.61696
1.58112
1.55029
1.52535
1.50224
1.4855
1.46762
1.45717
1.44239
1.43607
1.42186
2.25785
2.21888
2.1436
2.07155
2.00395
1.94414
1.89182
1.84558
1.80506
1.76893
1.73735
1.70852
1.6838
1.66048
1.64125
1.62191
1.6074
1.59149
2.25839
2.23538
2.18791
2.13577
2.08419
2.03588
1.99183
1.95173
1.91551
1.88261
1.85296
1.8258
1.80144
1.77889
1.75882
1.73984
1.72358
1.70657
2.25891
2.24457
2.21501
2.18006
2.14382
2.10823
2.07435
2.04243
2.01264
1.98489
1.95921
1.93532
1.91326
1.89272
1.87383
1.85612
1.84023
1.82444
2.25905
2.24839
2.22761
2.20199
2.17442
2.14647
2.1191
2.09277
2.06769
2.04397
2.02165
2.00065
1.98097
1.96249
1.94523
1.92903
1.91397
1.89923
2.25918
2.25077
2.23561
2.21657
2.1956
2.17389
2.1522
2.13092
2.11033
2.09054
2.07166
2.05368
2.03662
2.02044
2.00517
1.99073
1.97718
1.96405
2.25922
2.25211
2.24034
2.22547
2.20883
2.19132
2.17352
2.15582
2.13846
2.12159
2.10531
2.08967
2.07469
2.06038
2.04674
2.03377
2.02142
2.00951
2.25927
2.2531
2.24365
2.23178
2.2184
2.20416
2.18953
2.17482
2.16025
2.14595
2.13202
2.11853
2.10551
2.09298
2.08097
2.06947
2.05848
2.04787
2.25929
2.25376
2.24586
2.23607
2.22499
2.21312
2.20081
2.18832
2.17584
2.16349
2.15138
2.13956
2.12808
2.11697
2.10625
2.09592
2.08598
2.07638
2.25932
2.2543
2.24753
2.23929
2.22998
2.21996
2.20951
2.19884
2.1881
2.17742
2.16687
2.15652
2.14641
2.13658
2.12704
2.11782
2.10891
2.10028
2.25934
2.25466
2.24864
2.24143
2.23332
2.22458
2.21543
2.20605
2.19655
2.18706
2.17764
2.16835
2.15924
2.15035
2.14168
2.13327
2.12511
2.11719
2.25937
2.25498
2.24954
2.24315
2.23601
2.22832
2.22024
2.21192
2.20348
2.195
2.18655
2.1782
2.16996
2.1619
2.15401
2.14633
2.13887
2.1316
2.25939
2.25525
2.25032
2.24464
2.23834
2.23156
2.22443
2.21707
2.20957
2.20201
2.19445
2.18693
2.17951
2.1722
2.16504
2.15803
2.1512
2.14455
2.25943
2.25552
2.25102
2.24594
2.24036
2.23438
2.22809
2.22157
2.21492
2.20819
2.20143
2.19469
2.18801
2.18141
2.17492
2.16856
2.16233
2.15625
2.25946
2.25574
2.25157
2.24697
2.24196
2.23661
2.23099
2.22517
2.2192
2.21315
2.20706
2.20096
2.1949
2.1889
2.18297
2.17715
2.17145
2.16586
2.25949
2.25592
2.252
2.24774
2.24315
2.23826
2.23314
2.22782
2.22237
2.21683
2.21123
2.20562
2.20003
2.19447
2.18898
2.18357
2.17825
2.17305
2.25951
2.25603
2.25225
2.24818
2.24381
2.23919
2.23434
2.22932
2.22416
2.21892
2.21361
2.20829
2.20297
2.19769
2.19246
2.18729
2.18221
2.17721
2.2595
2.25599
2.25218
2.24805
2.24363
2.23894
2.23402
2.22892
2.22368
2.21835
2.21296
2.20755
2.20215
2.19678
2.19147
2.18624
2.1811
2.17607
2.25949
2.25585
2.25179
2.24732
2.24248
2.23731
2.23188
2.22626
2.2205
2.21466
2.20877
2.20287
2.197
2.19117
2.18543
2.17976
2.17419
2.16872
2.25943
2.25553
2.25102
2.24592
2.24031
2.23429
2.22796
2.2214
2.21469
2.20791
2.20109
2.19429
2.18754
2.18087
2.17431
2.16788
2.16159
2.1555
2.25941
2.25519
2.25002
2.24399
2.23727
2.23003
2.22243
2.2146
2.20663
2.19862
2.19062
2.18268
2.17485
2.16716
2.15963
2.15228
2.14512
2.1381
2.25935
2.25456
2.24826
2.24066
2.23209
2.22284
2.21316
2.20324
2.19322
2.1832
2.17326
2.16348
2.15388
2.14451
2.13538
2.12651
2.11791
2.10967
2.25935
2.25385
2.24584
2.23594
2.22475
2.21278
2.20039
2.18783
2.17527
2.16284
2.15065
2.13874
2.12717
2.11597
2.10516
2.09475
2.08478
2.07513
2.25927
2.25242
2.24124
2.22717
2.21139
2.1947
2.17766
2.16062
2.14384
2.12747
2.11162
2.09634
2.08166
2.0676
2.05413
2.04125
2.02886
2.01715
2.25924
2.25041
2.23397
2.21363
2.19147
2.16867
2.14591
2.12362
2.10205
2.08135
2.0616
2.0428
2.02496
2.00806
1.99208
1.97698
1.96286
1.94964
2.25889
2.24472
2.21618
2.18219
2.14678
2.11176
2.07806
2.04624
2.01648
1.98877
1.96301
1.9391
1.91689
1.89627
1.87704
1.85919
1.84219
1.82642
2.25872
2.23436
2.18569
2.13367
2.08299
2.03496
1.99028
1.9496
1.91263
1.87901
1.8484
1.82054
1.79504
1.77176
1.75032
1.73072
1.71261
1.6971
2.25333
2.17275
2.05404
1.95318
1.87048
1.80144
1.74472
1.69879
1.66017
1.62711
1.59838
1.57343
1.5513
1.532
1.51454
1.49938
1.48526
1.47205
2.25474
2.20869
2.14517
2.0835
2.02609
1.97399
1.92689
1.88449
1.8464
1.81213
1.78118
1.75312
1.72764
1.70433
1.68312
1.66348
1.64567
1.62882
0.0279353
0.0555825
0.079298
0.0932483
0.103176
0.110005
0.115507
0.119779
0.12337
0.126351
0.128927
0.131142
0.133076
0.134749
0.136194
0.137415
0.138428
0.139222
0.139799
0.140161
0.14018
0.140012
0.139505
0.138208
0.135779
0.13224
0.127694
0.121874
0.114505
0.105448
0.094744
0.0826297
0.0698776
0.0611662
0.0564231
0.0555707
0.0569756
0.0596926
0.0605231
0.0591608
0.0547907
0.0492537
0.0467443
0.0491872
0.0545102
0.0620914
0.0718217
0.0838115
0.0985852
0.114272
0.128405
0.141748
0.154404
0.166258
0.177353
0.187781
0.197614
0.206919
0.215761
0.224202
0.232299
0.240106
0.247674
0.255046
0.262264
0.269364
0.276375
0.283326
0.290239
0.297132
0.304022
0.310921
0.317838
0.32478
0.331754
0.338762
0.345805
0.352884
0.359997
0.367142
0.374315
0.381511
0.388724
0.395947
0.403171
0.410387
0.417584
0.42475
0.431872
0.438936
0.445928
0.452833
0.459638
0.466332
0.472908
0.479363
0.485691
0.491882
0.497948
0.503968
0.509964
0.515942
0.521899
0.527819
0.533687
0.539484
0.545183
0.55076
0.556187
0.56145
0.566575
0.571607
0.576522
0.581309
0.585934
0.590346
0.594454
0.598099
0.600892
0.602548
0.603693
0.604927
0.605947
0.606768
0.607638
0.608144
0.60884
0.609338
0.609781
0.610109
0.610356
0.610538
0.610626
0.610643
0.610818
0.610617
0.610877
0.610616
0.610889
0.610621
0.610901
0.610778
0.611037
0.611162
0.61136
0.611601
0.611837
0.611993
0.612564
0.612857
0.613446
0.61396
0.61472
0.615513
0.616374
0.617306
0.618318
0.61949
0.621091
0.623847
0.627938
0.632397
0.636368
0.636508
0.636077
0.635449
0.634548
0.633294
0.631684
0.629691
0.627403
0.624745
0.621907
0.618602
0.615321
0.611248
0.607499
0.60221
0.596405
0.56346
0.0578
0.118155
0.163745
0.189256
0.208972
0.223972
0.236437
0.246732
0.255713
0.263603
0.270756
0.277279
0.283289
0.288816
0.293898
0.298548
0.302781
0.306587
0.309926
0.312721
0.314865
0.316261
0.316887
0.316851
0.316468
0.316194
0.316624
0.318327
0.322043
0.328115
0.33646
0.346518
0.357475
0.368822
0.38089
0.393961
0.40802
0.422371
0.435411
0.445299
0.451295
0.45454
0.456741
0.458477
0.459595
0.460241
0.460846
0.461837
0.463491
0.466185
0.470592
0.476931
0.485094
0.49478
0.505642
0.517346
0.529601
0.542166
0.554851
0.567516
0.580062
0.592424
0.604568
0.616485
0.628181
0.639677
0.651
0.662184
0.673264
0.684275
0.695252
0.706227
0.717227
0.728278
0.739402
0.750619
0.761945
0.773392
0.784973
0.796694
0.808564
0.820586
0.832763
0.845097
0.857587
0.87023
0.883021
0.895951
0.909008
0.922176
0.935431
0.948744
0.962074
0.975376
0.988599
1.0017
1.01462
1.0273
1.03964
1.0517
1.06362
1.07548
1.08728
1.09903
1.11072
1.12237
1.13397
1.1455
1.15695
1.16828
1.17951
1.19063
1.20165
1.21255
1.22331
1.23388
1.24423
1.2543
1.26405
1.27349
1.28271
1.29172
1.30052
1.30909
1.31744
1.32555
1.33345
1.34114
1.34863
1.3559
1.36296
1.36981
1.37643
1.38282
1.38902
1.39495
1.40069
1.40614
1.41138
1.41631
1.42102
1.4254
1.42952
1.4333
1.43673
1.43979
1.44248
1.44472
1.44661
1.448
1.44889
1.44929
1.44916
1.44836
1.44684
1.44456
1.44147
1.43754
1.43298
1.42862
1.42492
1.42055
1.41432
1.40642
1.39754
1.3878
1.37727
1.36599
1.35406
1.34157
1.32867
1.31545
1.30211
1.28858
1.27531
1.26182
1.24923
1.2356
1.22041
1.18491
0.0922151
0.169523
0.225187
0.255802
0.280258
0.298561
0.314191
0.327356
0.339261
0.350053
0.360189
0.369726
0.378829
0.387538
0.395956
0.404161
0.412265
0.420356
0.428513
0.436781
0.44517
0.453655
0.462255
0.471136
0.480677
0.491438
0.504028
0.518945
0.536381
0.556164
0.577859
0.600914
0.624765
0.648871
0.672697
0.695456
0.715677
0.73124
0.740229
0.74247
0.738904
0.731169
0.721203
0.710708
0.701088
0.693478
0.688864
0.687426
0.689243
0.69444
0.702731
0.713686
0.726774
0.741435
0.757142
0.773432
0.789933
0.806359
0.822511
0.838261
0.853539
0.868321
0.882617
0.896458
0.909891
0.922971
0.935754
0.948298
0.960657
0.972884
0.985024
0.997118
1.0092
1.02131
1.03347
1.0457
1.05802
1.07045
1.08301
1.0957
1.10853
1.12151
1.13464
1.14792
1.16136
1.17496
1.1887
1.20259
1.21661
1.23076
1.24503
1.25939
1.27385
1.28837
1.30293
1.31753
1.33215
1.34677
1.36141
1.3761
1.39084
1.40565
1.42056
1.43556
1.45061
1.46567
1.4807
1.49569
1.5106
1.52543
1.54016
1.55476
1.56921
1.58349
1.59756
1.61141
1.62499
1.63829
1.6513
1.66403
1.67651
1.68873
1.70068
1.71234
1.7237
1.73476
1.74554
1.75602
1.76621
1.7761
1.78569
1.79497
1.80395
1.81262
1.82096
1.82898
1.83666
1.84398
1.85095
1.85754
1.86373
1.86952
1.87488
1.87978
1.88422
1.88816
1.89157
1.89445
1.89672
1.89841
1.89939
1.89969
1.8992
1.89783
1.89556
1.89237
1.88824
1.88313
1.87704
1.87003
1.86204
1.85281
1.84206
1.82976
1.81614
1.80141
1.78573
1.76924
1.75211
1.73445
1.71646
1.69825
1.68001
1.66179
1.64388
1.62608
1.60898
1.59114
1.57157
1.5416
0.112081
0.208693
0.273489
0.30883
0.337685
0.359949
0.379419
0.395947
0.411015
0.424714
0.437718
0.450077
0.462072
0.473743
0.485266
0.496737
0.508328
0.520188
0.532497
0.545413
0.559071
0.573523
0.588742
0.604664
0.621222
0.638349
0.655975
0.674017
0.692442
0.711305
0.73072
0.750718
0.771132
0.791483
0.810838
0.827801
0.840878
0.849001
0.852135
0.851307
0.84774
0.842982
0.838441
0.835302
0.834245
0.835724
0.840086
0.847346
0.857324
0.869723
0.884137
0.900103
0.917146
0.934822
0.95275
0.970629
0.988239
1.00544
1.02214
1.03831
1.05397
1.06914
1.08386
1.0982
1.11221
1.12596
1.13951
1.15292
1.16623
1.17951
1.19279
1.20611
1.21951
1.23302
1.24666
1.26047
1.27446
1.28864
1.30302
1.31763
1.33246
1.34752
1.36281
1.37834
1.39408
1.41005
1.42623
1.44261
1.45919
1.47594
1.49286
1.50994
1.52715
1.5445
1.56197
1.57955
1.59724
1.61504
1.63294
1.65092
1.66897
1.68708
1.7052
1.7233
1.74137
1.75938
1.77731
1.79514
1.81285
1.83042
1.84782
1.86503
1.88203
1.89877
1.91524
1.93141
1.94726
1.96277
1.97794
1.99278
2.00728
2.02143
2.03523
2.04866
2.06172
2.07439
2.08667
2.09855
2.11004
2.12111
2.13177
2.142
2.1518
2.16117
2.17008
2.17854
2.18652
2.19401
2.201
2.20747
2.2134
2.21877
2.22356
2.22775
2.23132
2.23425
2.23649
2.23805
2.23885
2.2389
2.23808
2.23631
2.23352
2.2297
2.22481
2.21882
2.21173
2.20351
2.19414
2.18357
2.17165
2.15826
2.14341
2.12716
2.10968
2.09111
2.07162
2.05137
2.03052
2.00925
1.98773
1.9661
1.94456
1.92316
1.90213
1.88134
1.86101
1.83998
1.81722
1.78693
0.139504
0.252001
0.323625
0.362504
0.394469
0.419684
0.442189
0.461859
0.479956
0.496517
0.512209
0.527195
0.541828
0.556195
0.570455
0.584663
0.598921
0.613294
0.627879
0.642757
0.658035
0.673827
0.690194
0.707067
0.724231
0.741345
0.75806
0.774157
0.789645
0.80472
0.819614
0.834424
0.84899
0.862861
0.875391
0.885971
0.894283
0.900438
0.904931
0.908493
0.911933
0.916019
0.921384
0.928473
0.937527
0.948608
0.961637
0.976422
0.992696
1.01014
1.02844
1.04725
1.06631
1.08535
1.10421
1.12275
1.14089
1.15857
1.17579
1.19256
1.20892
1.22491
1.24058
1.25599
1.2712
1.28627
1.30125
1.3162
1.33116
1.34618
1.3613
1.37655
1.39197
1.40758
1.42342
1.43949
1.45581
1.47241
1.48928
1.50644
1.52388
1.54162
1.55964
1.57796
1.59655
1.61541
1.63454
1.65392
1.67354
1.69339
1.71344
1.73369
1.75412
1.77471
1.79544
1.81631
1.83729
1.85838
1.87956
1.90082
1.92213
1.94348
1.96482
1.98614
2.0074
2.02858
2.04964
2.07055
2.09128
2.1118
2.13207
2.15207
2.17176
2.19112
2.21012
2.22874
2.24695
2.26474
2.2821
2.29903
2.31552
2.33157
2.34717
2.36231
2.37698
2.39116
2.40484
2.41802
2.43066
2.44278
2.45435
2.46537
2.47583
2.48572
2.49503
2.50374
2.51185
2.51933
2.52617
2.53235
2.53785
2.54265
2.54671
2.55002
2.55257
2.55436
2.55533
2.55551
2.55479
2.55307
2.55029
2.54641
2.54137
2.53514
2.52769
2.51898
2.50898
2.49764
2.48493
2.47081
2.45528
2.43832
2.41997
2.40027
2.37938
2.35745
2.33466
2.31118
2.28721
2.26293
2.2385
2.21405
2.18975
2.16564
2.1419
2.11836
2.09507
2.07095
2.04483
2.01252
0.15839
0.286646
0.366928
0.410162
0.445365
0.473389
0.498504
0.520772
0.541426
0.560525
0.578592
0.595769
0.61241
0.628667
0.644724
0.660636
0.676457
0.692187
0.707817
0.723302
0.738608
0.75373
0.768684
0.783425
0.79783
0.811739
0.825025
0.837653
0.849691
0.861267
0.87249
0.883386
0.893894
0.903909
0.913362
0.922296
0.930887
0.939423
0.948252
0.957729
0.968175
0.979842
0.992884
1.00735
1.02319
1.04028
1.05847
1.07754
1.09728
1.11746
1.13788
1.15836
1.17874
1.19891
1.21876
1.23825
1.25734
1.27604
1.29435
1.31231
1.32997
1.34736
1.36456
1.38162
1.39859
1.41553
1.43248
1.44951
1.46666
1.48396
1.50146
1.51918
1.53715
1.55541
1.57397
1.59285
1.61206
1.63162
1.65154
1.6718
1.69243
1.71342
1.73476
1.75644
1.77846
1.8008
1.82345
1.84639
1.86961
1.89308
1.91678
1.9407
1.9648
1.98908
2.0135
2.03804
2.0627
2.08743
2.11223
2.13707
2.16192
2.18675
2.21153
2.23623
2.2608
2.28521
2.30943
2.3334
2.35711
2.38052
2.4036
2.42631
2.44862
2.4705
2.49193
2.51287
2.53331
2.55323
2.57262
2.59147
2.60977
2.62752
2.64469
2.66128
2.67727
2.69265
2.7074
2.72152
2.73498
2.74778
2.7599
2.77134
2.78209
2.79214
2.80147
2.81008
2.81796
2.82508
2.83143
2.83699
2.84173
2.84564
2.84868
2.85085
2.85215
2.85261
2.85218
2.85076
2.84825
2.84462
2.83981
2.83376
2.82645
2.81782
2.80785
2.79652
2.78376
2.76955
2.75384
2.73662
2.7179
2.69773
2.67618
2.65335
2.62938
2.60444
2.57872
2.5524
2.52567
2.4987
2.47165
2.44464
2.4178
2.39116
2.36482
2.33857
2.31234
2.28505
2.25573
2.22091
0.178722
0.318648
0.406215
0.452822
0.490539
0.520774
0.547908
0.57215
0.594725
0.615711
0.635574
0.654413
0.672483
0.689896
0.706809
0.723287
0.739383
0.755096
0.770408
0.785281
0.799667
0.813518
0.826805
0.839504
0.851593
0.863055
0.873898
0.884164
0.893937
0.903333
0.912479
0.921509
0.930565
0.939805
0.949415
0.959594
0.970543
0.982437
0.995406
1.00953
1.02484
1.04129
1.05884
1.07738
1.09679
1.11694
1.1377
1.15891
1.18041
1.20209
1.2238
1.24544
1.26692
1.28818
1.30916
1.32985
1.35024
1.37034
1.39017
1.40978
1.4292
1.4485
1.46771
1.48689
1.5061
1.52539
1.54481
1.5644
1.58421
1.60427
1.62463
1.64531
1.66635
1.68776
1.70957
1.7318
1.75444
1.77752
1.80103
1.82498
1.84936
1.87416
1.89937
1.92498
1.95097
1.97733
2.00403
2.03104
2.05835
2.08593
2.11375
2.14177
2.16998
2.19834
2.22682
2.2554
2.28404
2.31272
2.34141
2.37007
2.39868
2.4272
2.45559
2.48381
2.51181
2.53957
2.56704
2.59419
2.62098
2.64737
2.67332
2.6988
2.72378
2.74823
2.7721
2.79538
2.81805
2.84007
2.86145
2.88215
2.90218
2.92152
2.94015
2.95806
2.97524
2.99168
3.00735
3.02224
3.03635
3.04966
3.06217
3.07385
3.08472
3.09475
3.10395
3.11229
3.11977
3.12637
3.13209
3.13689
3.14077
3.14368
3.14562
3.1466
3.14667
3.14578
3.14382
3.14074
3.13648
3.13099
3.12422
3.11611
3.10663
3.09575
3.08343
3.06963
3.0543
3.03742
3.01896
2.99893
2.97737
2.95434
2.92992
2.90422
2.87739
2.84961
2.82108
2.79198
2.7625
2.7328
2.70304
2.67335
2.64386
2.61457
2.58555
2.55651
2.52732
2.4969
2.46446
2.42731
0.191206
0.341219
0.436291
0.486262
0.526299
0.558352
0.587053
0.61272
0.636644
0.658944
0.680083
0.700124
0.719271
0.737585
0.755163
0.772031
0.788219
0.803719
0.818524
0.832618
0.845993
0.858652
0.87061
0.881898
0.89256
0.90265
0.912243
0.921434
0.930349
0.939146
0.948011
0.957149
0.966776
0.977106
0.98833
1.0006
1.01401
1.02859
1.04435
1.06121
1.07909
1.09791
1.11755
1.13791
1.1589
1.18041
1.20234
1.22459
1.24706
1.26965
1.29229
1.31489
1.3374
1.35977
1.38197
1.404
1.42586
1.44756
1.46913
1.49062
1.51205
1.53348
1.55496
1.57654
1.59827
1.6202
1.64237
1.66483
1.68762
1.71078
1.73434
1.75834
1.78279
1.80771
1.83312
1.85903
1.88545
1.91236
1.93978
1.96769
1.99608
2.02494
2.05426
2.084
2.11415
2.14468
2.17557
2.20678
2.23828
2.27005
2.30204
2.33422
2.36657
2.39904
2.43159
2.4642
2.49683
2.52944
2.56199
2.59445
2.62679
2.65895
2.6909
2.72261
2.75404
2.78514
2.81585
2.84615
2.87599
2.90532
2.93411
2.96231
2.98991
3.01685
3.0431
3.06864
3.09345
3.11748
3.14074
3.1632
3.18484
3.20566
3.22563
3.24475
3.26299
3.28035
3.29681
3.31237
3.327
3.3407
3.35347
3.3653
3.37618
3.38611
3.39508
3.40308
3.41012
3.41617
3.42122
3.42527
3.4283
3.43027
3.4312
3.43114
3.43003
3.42784
3.42451
3.41997
3.41418
3.40709
3.39864
3.38879
3.37751
3.36475
3.35048
3.33465
3.31721
3.29814
3.2774
3.25502
3.23104
3.20552
3.17856
3.15028
3.12081
3.09035
3.05908
3.02719
2.99487
2.96231
2.92969
2.89713
2.86477
2.83259
2.80064
2.76859
2.73629
2.70267
2.66729
2.62784
0.204929
0.360691
0.460756
0.512903
0.554345
0.587527
0.617128
0.643589
0.668205
0.691153
0.712898
0.733519
0.7532
0.771977
0.789927
0.807062
0.823397
0.838919
0.853625
0.867511
0.88059
0.892895
0.904475
0.915397
0.925745
0.935617
0.945132
0.954429
0.963672
0.973047
0.982757
0.993007
1.00399
1.01587
1.02878
1.04278
1.0579
1.0741
1.09133
1.1095
1.12854
1.14836
1.16886
1.18999
1.21166
1.23381
1.25637
1.27924
1.30238
1.32569
1.34913
1.37264
1.39617
1.41971
1.44323
1.46673
1.49022
1.51371
1.53724
1.56084
1.58454
1.60839
1.63243
1.65672
1.68128
1.70618
1.73145
1.75713
1.78326
1.80986
1.83698
1.86462
1.89282
1.92157
1.95088
1.98077
2.01122
2.04224
2.07381
2.10592
2.13856
2.17171
2.20534
2.23942
2.27393
2.30883
2.3441
2.37969
2.41557
2.45171
2.48805
2.52457
2.56122
2.59795
2.63473
2.6715
2.70823
2.74487
2.78138
2.8177
2.85381
2.88966
2.92521
2.9604
2.99518
3.02951
3.06336
3.09667
3.1294
3.16152
3.19299
3.22376
3.25379
3.28305
3.3115
3.33911
3.36585
3.3917
3.41663
3.44062
3.46367
3.48574
3.50684
3.52694
3.54603
3.5641
3.58114
3.59714
3.61209
3.62599
3.63883
3.65061
3.66133
3.67099
3.67958
3.68711
3.69357
3.69896
3.70326
3.70647
3.70859
3.7096
3.70954
3.70838
3.70611
3.70269
3.69807
3.6922
3.68503
3.67651
3.66659
3.65524
3.64241
3.62806
3.61213
3.59458
3.57536
3.55443
3.53178
3.5074
3.48135
3.45367
3.42447
3.39384
3.36194
3.32894
3.29504
3.26042
3.2253
3.18987
3.15432
3.11879
3.08341
3.04818
3.01312
2.97791
2.94241
2.90559
2.86728
2.8256
0.208787
0.370405
0.475298
0.529703
0.572793
0.607113
0.637631
0.664801
0.690015
0.713465
0.735654
0.756672
0.776715
0.79582
0.81406
0.831443
0.84799
0.863702
0.878588
0.892659
0.90595
0.918514
0.930416
0.941742
0.952595
0.963094
0.973377
0.983596
0.993918
1.00452
1.01557
1.02725
1.03968
1.05297
1.06719
1.08237
1.09851
1.11557
1.13351
1.15227
1.1718
1.19203
1.21292
1.23441
1.25646
1.27901
1.30202
1.32541
1.34914
1.37317
1.39743
1.42191
1.44656
1.47137
1.49634
1.52146
1.54675
1.57221
1.59788
1.62379
1.64996
1.67645
1.70327
1.73049
1.75812
1.78622
1.81481
1.84394
1.87362
1.90389
1.93476
1.96624
1.99836
2.0311
2.06448
2.09848
2.13311
2.16835
2.20419
2.2406
2.27757
2.31507
2.35305
2.3915
2.43037
2.46963
2.50923
2.54914
2.58932
2.62971
2.67028
2.71097
2.75174
2.79253
2.8333
2.874
2.91457
2.95497
2.99516
3.03508
3.07467
3.1139
3.15273
3.19113
3.22904
3.26641
3.30319
3.33934
3.3748
3.40953
3.44349
3.47663
3.50891
3.54029
3.57073
3.6002
3.62867
3.65611
3.6825
3.70782
3.73205
3.75517
3.77718
3.79805
3.81778
3.83636
3.85378
3.87003
3.88512
3.89903
3.91177
3.92334
3.93374
3.94299
3.95108
3.95802
3.9638
3.96844
3.97192
3.97426
3.97545
3.97551
3.97444
3.97224
3.96889
3.96436
3.95861
3.95159
3.94324
3.93353
3.92242
3.90985
3.89578
3.88016
3.86292
3.84401
3.82337
3.80096
3.77675
3.75074
3.72296
3.69346
3.66232
3.62965
3.59558
3.56029
3.52395
3.48678
3.44898
3.41075
3.37229
3.33374
3.29526
3.25685
3.21855
3.18003
3.14119
3.10106
3.05978
3.01548
0.215674
0.380528
0.485705
0.540565
0.584272
0.619099
0.650092
0.677676
0.703276
0.727082
0.749618
0.770979
0.791372
0.81084
0.829465
0.84726
0.864252
0.880449
0.895873
0.910548
0.924511
0.937819
0.950546
0.962785
0.974646
0.986249
0.997729
1.00923
1.0209
1.03288
1.04531
1.0583
1.07196
1.08636
1.10154
1.11753
1.13433
1.15193
1.1703
1.18943
1.20928
1.22982
1.25103
1.27287
1.29531
1.31831
1.34183
1.36584
1.39031
1.41518
1.44044
1.46607
1.49204
1.51835
1.545
1.57198
1.59931
1.62701
1.65509
1.68359
1.71252
1.74192
1.77182
1.80225
1.83325
1.86483
1.89703
1.92987
1.96338
1.99755
2.03242
2.06797
2.10421
2.14114
2.17876
2.21705
2.256
2.29559
2.33579
2.37659
2.41794
2.45981
2.50217
2.54497
2.58818
2.63176
2.67566
2.71984
2.76425
2.80884
2.85355
2.89833
2.94313
2.9879
3.03257
3.07709
3.1214
3.16544
3.20916
3.25251
3.29547
3.33797
3.37995
3.42135
3.46213
3.50224
3.54163
3.58027
3.61809
3.65506
3.69112
3.72624
3.76037
3.79347
3.8255
3.85643
3.88622
3.91486
3.9423
3.96854
3.99355
4.01733
4.03985
4.06112
4.08111
4.09983
4.11727
4.13342
4.14828
4.16187
4.17418
4.18521
4.19499
4.20353
4.21083
4.2169
4.22176
4.22541
4.22787
4.22914
4.22924
4.2282
4.226
4.22267
4.21818
4.21252
4.20564
4.19749
4.18803
4.17722
4.16501
4.15136
4.13619
4.11947
4.10111
4.08104
4.05921
4.03556
4.01005
3.98268
3.95346
3.92244
3.88966
3.85525
3.81931
3.78201
3.74352
3.70404
3.66377
3.62292
3.58168
3.54022
3.4987
3.45713
3.41557
3.37372
3.33154
3.28812
3.24378
3.19668
0.216692
0.383692
0.489213
0.544579
0.588903
0.624198
0.655643
0.683621
0.709611
0.73379
0.75671
0.778462
0.799274
0.819191
0.838309
0.856647
0.874246
0.89112
0.907298
0.922806
0.937687
0.951993
0.9658
0.979199
0.992294
1.0052
1.01803
1.03091
1.04395
1.05727
1.07098
1.08516
1.0999
1.11524
1.13125
1.14794
1.16533
1.18345
1.20229
1.22184
1.24211
1.26309
1.28475
1.3071
1.3301
1.35374
1.378
1.40286
1.42829
1.45427
1.4808
1.50785
1.53543
1.56353
1.59214
1.62128
1.65095
1.68117
1.71195
1.74332
1.77528
1.80788
1.84111
1.87502
1.90961
1.94491
1.98094
2.01769
2.05519
2.09344
2.13243
2.17217
2.21264
2.25384
2.29575
2.33835
2.38163
2.42554
2.47007
2.51518
2.56083
2.60697
2.65358
2.70061
2.74801
2.79574
2.84375
2.89198
2.94038
2.98889
3.03744
3.08599
3.13447
3.18282
3.23099
3.2789
3.32651
3.37375
3.42057
3.4669
3.5127
3.55793
3.60254
3.64649
3.68972
3.73217
3.77379
3.81452
3.85432
3.89314
3.93092
3.96762
4.0032
4.03762
4.07084
4.10282
4.13353
4.16295
4.19105
4.21781
4.24321
4.26724
4.2899
4.31117
4.33104
4.34952
4.36659
4.38227
4.39656
4.40947
4.421
4.43118
4.44002
4.44754
4.45376
4.45869
4.46237
4.46481
4.46602
4.46604
4.4649
4.46258
4.45913
4.45457
4.44889
4.44205
4.43402
4.42476
4.41423
4.40237
4.38915
4.3745
4.35837
4.34067
4.32134
4.30029
4.27746
4.25278
4.2262
4.19772
4.16732
4.13505
4.10095
4.0651
4.02762
3.98863
3.94831
3.90682
3.86437
3.82114
3.77734
3.73314
3.6887
3.64405
3.59929
3.55414
3.50861
3.46188
3.41443
3.36437
0.216958
0.383825
0.488376
0.543718
0.588314
0.623893
0.655689
0.684032
0.710428
0.735032
0.758418
0.780668
0.802026
0.822538
0.842308
0.861358
0.879738
0.897462
0.914562
0.931064
0.947011
0.962457
0.977475
0.992139
1.00654
1.02078
1.03495
1.04917
1.06352
1.07811
1.09302
1.10833
1.1241
1.14038
1.15724
1.17471
1.19283
1.21163
1.23113
1.25133
1.27227
1.29394
1.31634
1.33949
1.36337
1.38798
1.41331
1.43937
1.46614
1.49361
1.52179
1.55067
1.58024
1.61052
1.6415
1.67318
1.70559
1.73871
1.77257
1.80718
1.84254
1.87867
1.91558
1.95328
1.99177
2.03107
2.07118
2.11209
2.15381
2.19632
2.23962
2.28369
2.32852
2.37409
2.42037
2.46733
2.51495
2.56319
2.61202
2.66138
2.71125
2.76158
2.81231
2.86341
2.91482
2.9665
3.01838
3.0704
3.1225
3.17464
3.22674
3.27874
3.33059
3.38222
3.43355
3.48451
3.53503
3.58508
3.63462
3.68357
3.73188
3.77948
3.8263
3.8723
3.91743
3.96163
4.00486
4.04706
4.0882
4.12821
4.16705
4.20469
4.24107
4.27616
4.30992
4.34231
4.37331
4.40289
4.43101
4.45768
4.48286
4.50655
4.52874
4.54942
4.5686
4.58626
4.60242
4.61708
4.63025
4.64195
4.6522
4.66102
4.66845
4.67449
4.6792
4.68259
4.68468
4.68552
4.68514
4.68361
4.68088
4.67702
4.67207
4.66604
4.65896
4.65078
4.64147
4.63099
4.6193
4.60635
4.59208
4.57644
4.55935
4.54073
4.52048
4.49854
4.47481
4.44923
4.42175
4.39234
4.36099
4.32773
4.29259
4.25564
4.21697
4.17667
4.1349
4.09179
4.04753
4.00229
3.95626
3.9096
3.8625
3.815
3.7672
3.71889
3.67015
3.62021
3.56968
3.51676
0.215323
0.380277
0.483484
0.538635
0.583403
0.619197
0.651311
0.680003
0.706824
0.731899
0.755824
0.778666
0.800685
0.821921
0.842491
0.862414
0.881735
0.900461
0.918628
0.936264
0.953412
0.970117
0.986439
1.00244
1.01821
1.03382
1.04936
1.06493
1.08062
1.09651
1.11268
1.12919
1.1461
1.16348
1.18138
1.19986
1.21897
1.23874
1.25921
1.28042
1.30239
1.32514
1.34868
1.37305
1.39824
1.42428
1.45116
1.47889
1.50748
1.53694
1.56726
1.59845
1.63052
1.66347
1.69729
1.73199
1.76758
1.80405
1.84141
1.87966
1.91879
1.95882
1.99973
2.04152
2.08419
2.12773
2.17213
2.21738
2.26347
2.31036
2.35805
2.40651
2.45571
2.50561
2.5562
2.60744
2.65927
2.71168
2.7646
2.818
2.87183
2.92603
2.98057
3.03538
3.09042
3.14562
3.20093
3.25629
3.31163
3.36688
3.42199
3.47689
3.53151
3.58577
3.63962
3.69297
3.74576
3.79793
3.8494
3.90016
3.95014
3.99929
4.04756
4.09489
4.14123
4.18651
4.23069
4.27372
4.31555
4.35612
4.39539
4.43332
4.46986
4.50497
4.53863
4.57078
4.60141
4.6305
4.65801
4.68393
4.70826
4.73097
4.75208
4.77156
4.78943
4.80569
4.82035
4.83342
4.84493
4.85489
4.86334
4.87031
4.87582
4.87994
4.88267
4.88407
4.88417
4.88307
4.88074
4.87725
4.87262
4.86693
4.86021
4.85249
4.8438
4.8341
4.82336
4.81156
4.79865
4.78457
4.76926
4.75265
4.73465
4.71517
4.69412
4.67139
4.6469
4.62056
4.59233
4.56216
4.53006
4.49602
4.4601
4.42233
4.38279
4.34157
4.29876
4.25448
4.20886
4.16204
4.11418
4.06544
4.01598
3.96589
3.91529
3.86402
3.81225
3.75929
3.70589
3.65028
0.211522
0.373274
0.474577
0.529368
0.574223
0.610227
0.642711
0.671852
0.699238
0.724945
0.74959
0.77322
0.796107
0.818274
0.839837
0.860804
0.88124
0.90116
0.920592
0.939553
0.958081
0.976216
0.994006
1.01151
1.02879
1.04592
1.06299
1.08009
1.09729
1.11468
1.13232
1.15027
1.16861
1.18739
1.20668
1.22656
1.24707
1.26826
1.29019
1.3129
1.33643
1.36081
1.38608
1.41225
1.43937
1.46745
1.49651
1.52656
1.55763
1.58972
1.62283
1.65699
1.69218
1.72841
1.76569
1.80399
1.84332
1.88368
1.92504
1.96741
2.01076
2.05509
2.10037
2.14659
2.19373
2.24177
2.29068
2.34044
2.39102
2.44239
2.49451
2.54736
2.60089
2.65506
2.70984
2.76519
2.82105
2.87738
2.93413
2.99125
3.0487
3.1064
3.16433
3.22241
3.28059
3.33881
3.39701
3.45513
3.51309
3.57083
3.62828
3.68537
3.74202
3.79816
3.85373
3.90868
3.96296
4.01651
4.06924
4.12111
4.17203
4.22197
4.27086
4.31865
4.3653
4.41074
4.45493
4.49783
4.53939
4.57956
4.61829
4.65555
4.6913
4.72549
4.7581
4.7891
4.81845
4.84614
4.87215
4.89646
4.91908
4.93998
4.95918
4.97667
4.99246
5.00656
5.01899
5.02977
5.03892
5.04648
5.05249
5.05697
5.05999
5.06159
5.06179
5.06073
5.05836
5.05477
5.05001
5.04415
5.03724
5.02935
5.02053
5.01083
5.00025
4.9888
4.97646
4.96319
4.94896
4.93369
4.91733
4.89978
4.88096
4.86075
4.83904
4.81571
4.79067
4.76381
4.73507
4.70439
4.67177
4.63721
4.60074
4.56242
4.52231
4.48049
4.43704
4.39203
4.34556
4.29772
4.24861
4.19833
4.14702
4.09477
4.04174
3.98784
3.93333
3.87765
3.82165
3.76365
0.205035
0.362427
0.461674
0.516043
0.560973
0.597239
0.630185
0.659873
0.687948
0.714432
0.739973
0.764591
0.788572
0.811924
0.834777
0.857129
0.879036
0.900484
0.92151
0.942135
0.962398
0.98233
1.00198
1.02138
1.04062
1.05975
1.07884
1.09798
1.11721
1.1366
1.15625
1.17621
1.19654
1.21734
1.23869
1.26066
1.2833
1.30669
1.33086
1.35588
1.38181
1.40867
1.43653
1.46542
1.49537
1.52642
1.55858
1.59189
1.62636
1.662
1.69882
1.73682
1.776
1.81636
1.85788
1.90055
1.94435
1.98926
2.03526
2.08231
2.1304
2.17948
2.22954
2.28053
2.33241
2.38517
2.43874
2.49311
2.54821
2.60402
2.66049
2.71757
2.77521
2.83338
2.89202
2.95108
3.01051
3.07026
3.13028
3.19052
3.25091
3.31141
3.37195
3.43249
3.49296
3.5533
3.61345
3.67335
3.73293
3.79213
3.85088
3.90912
3.96678
4.02377
4.08002
4.13546
4.19003
4.24369
4.29638
4.34806
4.39867
4.44817
4.49648
4.54358
4.58939
4.63388
4.67699
4.71868
4.75889
4.79759
4.83473
4.87027
4.90417
4.93641
4.96695
4.99577
5.02285
5.04816
5.0717
5.09346
5.11344
5.13162
5.14803
5.16267
5.17554
5.18667
5.19608
5.20379
5.20985
5.21428
5.21715
5.21849
5.21835
5.2169
5.21402
5.20984
5.20443
5.19785
5.19019
5.18152
5.17192
5.16145
5.15019
5.13818
5.12546
5.11203
5.09789
5.08302
5.06737
5.05088
5.03345
5.01502
4.99546
4.97467
4.9525
4.92884
4.90355
4.87651
4.84762
4.81681
4.78404
4.7493
4.71261
4.67402
4.6336
4.59142
4.54758
4.50214
4.45519
4.40677
4.35694
4.30572
4.25319
4.19939
4.14446
4.08838
4.03146
3.97332
3.91489
3.85459
0.197834
0.349962
0.446235
0.499888
0.544797
0.581335
0.614834
0.645208
0.674153
0.701627
0.728319
0.754205
0.779598
0.804479
0.828988
0.853105
0.876889
0.900321
0.92342
0.946223
0.968783
0.991136
1.01332
1.03538
1.05737
1.07935
1.10137
1.12346
1.14569
1.16812
1.1908
1.21375
1.2371
1.26099
1.28551
1.31071
1.33664
1.36337
1.39097
1.4195
1.44902
1.47959
1.51125
1.54406
1.57804
1.61323
1.64965
1.68733
1.72628
1.7665
1.808
1.85077
1.89479
1.94004
1.98651
2.03415
2.08294
2.13284
2.18381
2.2358
2.28878
2.34269
2.39749
2.45313
2.50957
2.56675
2.62463
2.68314
2.74225
2.8019
2.86204
2.92261
2.98357
3.04486
3.10643
3.16822
3.23019
3.29229
3.35445
3.41662
3.47876
3.54081
3.6027
3.66439
3.72583
3.78694
3.84768
3.90797
3.96775
4.02697
4.08555
4.14344
4.20057
4.25689
4.31232
4.36681
4.4203
4.47274
4.52407
4.57423
4.62319
4.67087
4.71725
4.76225
4.80585
4.84799
4.88863
4.92773
4.96525
5.00116
5.0354
5.06796
5.0988
5.1279
5.15522
5.18075
5.20448
5.22639
5.24647
5.26472
5.28113
5.29572
5.3085
5.31947
5.32865
5.33608
5.34176
5.34573
5.34808
5.34878
5.34799
5.34572
5.34197
5.33686
5.33042
5.32274
5.31392
5.30403
5.29317
5.28143
5.26891
5.25569
5.24184
5.22744
5.21252
5.19711
5.18121
5.16479
5.14781
5.1302
5.1119
5.0928
5.0728
5.05175
5.02951
5.00591
4.98082
4.95408
4.92559
4.89524
4.86296
4.82869
4.79242