/*--------------------------------*- C++ -*----------------------------------*\
| =========                 |                                                 |
| \\      /  F ield         | OpenFOAM: The Open Source CFD Toolbox           |
|  \\    /   O peration     | Version:  v1906                                 |
|   \\  /    A nd           | Web:      www.OpenFOAM.com                      |
|    \\/     M anipulation  |                                                 |
\*---------------------------------------------------------------------------*/
FoamFile
{
    version     2.0;
    format      ascii;
    class       volScalarField;
    location    "1200";
    object      nut;
}
// * * * * * * * * * * * * * * * * * * * * * * * * * * * * * * * * * * * * * //

dimensions      [0 2 -1 0 0 0 0];


internalField   nonuniform List<scalar> 
12225
(
5.38048e-05
5.34216e-05
5.26394e-05
5.17772e-05
5.09451e-05
5.01791e-05
4.9485e-05
4.88671e-05
4.83039e-05
4.78134e-05
4.73479e-05
4.69677e-05
4.66588e-05
4.64072e-05
4.6176e-05
4.60093e-05
4.58093e-05
4.57341e-05
0.000743659
0.000274828
0.000208916
0.000186814
0.000173792
0.000168885
0.000164696
0.000161059
0.00015814
0.000155589
0.000153653
0.000151717
0.00015044
0.000148673
0.000148113
0.000146371
0.000146787
0.000144854
0.00337131
0.000965689
0.000668427
0.000562249
0.000503863
0.000472022
0.00044889
0.000431631
0.000418753
0.000408311
0.000399668
0.000392282
0.000386246
0.000380515
0.000376402
0.000371385
0.0003696
0.000364548
0.00784749
0.00229238
0.00147326
0.00117576
0.0010186
0.000926478
0.000864613
0.000819844
0.000786985
0.000761169
0.000740094
0.000723322
0.000709603
0.00069773
0.000688204
0.000678829
0.000673578
0.000663156
0.0127627
0.00432673
0.00270975
0.00210437
0.00178857
0.00159949
0.00147345
0.00138303
0.00131571
0.00126355
0.0012216
0.00118744
0.00115969
0.00113581
0.00111564
0.00109781
0.00108502
0.00106669
0.0171139
0.006932
0.00436917
0.00334591
0.0028053
0.00247639
0.00225607
0.00209809
0.00197982
0.00188815
0.00181483
0.00175498
0.00170566
0.00166402
0.0016286
0.00159786
0.00157219
0.00154402
0.0205947
0.00988396
0.006418
0.00491188
0.00409428
0.00358853
0.00324684
0.00300094
0.00281602
0.00267222
0.00255717
0.00246311
0.0023851
0.00231934
0.00226326
0.00221478
0.00217354
0.00213104
0.0232407
0.0129306
0.00876068
0.00676559
0.00563803
0.0049247
0.00443625
0.00408188
0.00381368
0.00360405
0.00343581
0.00329791
0.00318306
0.00308602
0.00300306
0.00293132
0.00286908
0.0028079
0.0252064
0.0158686
0.0112825
0.00885742
0.00741815
0.0064821
0.0058302
0.00535207
0.00498736
0.00470054
0.00446933
0.00427915
0.00412019
0.0039855
0.00387003
0.00377001
0.00368243
0.00359951
0.0266541
0.0185549
0.0138527
0.0111073
0.00938574
0.00822876
0.00740583
0.00679363
0.00632181
0.00594782
0.00564448
0.00539377
0.00518332
0.00500433
0.00485036
0.00471655
0.0045986
0.00448969
0.0277221
0.0209147
0.0163559
0.0134292
0.0114841
0.010128
0.00913963
0.00839185
0.00780843
0.00734161
0.00696024
0.00664319
0.00637576
0.00614737
0.0059502
0.00577825
0.00562629
0.0054879
0.0284467
0.0227416
0.0184776
0.0155118
0.0134326
0.0119303
0.010808
0.00994372
0.0092605
0.00870831
0.00825359
0.00787317
0.00755059
0.00727387
0.00703404
0.00682414
0.0066382
0.00647018
0.0290075
0.024303
0.0204373
0.0175384
0.015394
0.0137849
0.01255
0.0115802
0.0108021
0.010166
0.00963744
0.00919208
0.0088122
0.00848472
0.00819971
0.0079494
0.00772725
0.00752719
0.0294889
0.0257556
0.0223979
0.0196766
0.0175408
0.0158665
0.0145394
0.0134715
0.0125988
0.0118749
0.0112666
0.0107493
0.0103047
0.00991898
0.00958156
0.00928395
0.00901916
0.00878115
0.0298837
0.0270285
0.0242392
0.0217978
0.0197579
0.0180792
0.016698
0.0155543
0.0145986
0.013792
0.0131046
0.0125135
0.0120008
0.0115527
0.0111583
0.0108086
0.0104965
0.0102157
0.0301876
0.0280603
0.0258269
0.0237255
0.0218567
0.0202385
0.0188525
0.0176677
0.0166525
0.0157785
0.0150217
0.0143625
0.0137848
0.0132755
0.012824
0.0124216
0.012061
0.0117362
0.0303978
0.0288005
0.0270243
0.0252475
0.0235767
0.0220606
0.0207111
0.0195215
0.0184769
0.0175596
0.0167527
0.0160408
0.0154104
0.0148498
0.0143494
0.0139008
0.0134972
0.013133
0.0305044
0.0291849
0.027668
0.0260933
0.0245604
0.0231268
0.0218186
0.0206416
0.0195909
0.018656
0.0178249
0.0170851
0.0164253
0.0158353
0.015306
0.0148298
0.0143996
0.0140097
0.0304715
0.029067
0.0274719
0.0258371
0.0242637
0.0228061
0.0214859
0.0203052
0.0192558
0.0183255
0.0175006
0.0167679
0.0161155
0.015533
0.0150111
0.0145423
0.0141199
0.0137386
0.030231
0.028214
0.0260761
0.0240423
0.0222139
0.0206156
0.0192352
0.018047
0.017023
0.0161371
0.0153668
0.0146934
0.0141015
0.0135783
0.0131136
0.0126991
0.012328
0.0119949
0.0298206
0.0268281
0.0239497
0.0214631
0.0194056
0.0177241
0.0163474
0.0152113
0.014264
0.0134656
0.0127859
0.0122014
0.0116946
0.0112515
0.0108615
0.0105162
0.0102092
0.00993654
0.0291396
0.0247088
0.020985
0.0181325
0.0159864
0.0143547
0.0130898
0.0120883
0.0112795
0.0106147
0.0100598
0.00959028
0.00918828
0.00884054
0.00853699
0.00827004
0.00803397
0.00782523
0.028036
0.0217163
0.0172853
0.0143383
0.0123315
0.0109081
0.0098572
0.00905426
0.00842288
0.0079144
0.00749665
0.00714764
0.00685185
0.00659807
0.00637789
0.00618511
0.00601501
0.00586646
0.0262543
0.0178168
0.013146
0.0104897
0.00884762
0.0077516
0.00697425
0.00639693
0.00595235
0.00559994
0.00531398
0.00507745
0.00487864
0.00470927
0.00456319
0.00443591
0.00432379
0.00422599
0.0233814
0.013206
0.00902268
0.00699365
0.00583841
0.00510166
0.00459322
0.00422298
0.00394182
0.00372119
0.00354361
0.00339768
0.00327567
0.00317224
0.00308321
0.0030058
0.00293676
0.00287721
0.0189046
0.00845563
0.00545014
0.00418496
0.00350645
0.00308626
0.00280101
0.00259662
0.00244285
0.0023229
0.00222685
0.00214822
0.00208272
0.00202745
0.00197982
0.00193876
0.00190215
0.00187105
0.0125845
0.00438896
0.00278862
0.0021725
0.0018504
0.00165232
0.0015184
0.00142439
0.00135364
0.00129842
0.00125441
0.00121845
0.00118864
0.00116362
0.00114158
0.00112299
0.00110555
0.00109081
0.00562612
0.00171149
0.00115553
0.00094599
0.000836996
0.000769035
0.000723349
0.000693189
0.000668809
0.000649366
0.00063385
0.000620838
0.000609599
0.000600065
0.000591402
0.000584198
0.000576984
0.00057203
0.00117126
0.000435645
0.000327292
0.000284809
0.000262914
0.00024876
0.000241427
0.000237208
0.000233237
0.000229629
0.000226399
0.000223592
0.000221036
0.000218875
0.000216803
0.00021514
0.000213355
0.000211718
7.08579e-05
7.01306e-05
6.91148e-05
6.81141e-05
6.71691e-05
6.63e-05
6.55042e-05
6.47795e-05
6.41215e-05
6.35235e-05
6.29788e-05
6.24807e-05
6.20251e-05
6.16052e-05
6.12208e-05
6.08624e-05
6.05357e-05
6.02251e-05
9.90796e-06
2.98623e-05
3.56532e-05
3.8656e-05
4.06457e-05
4.19513e-05
4.29672e-05
4.37335e-05
4.43622e-05
4.48726e-05
4.53048e-05
4.56692e-05
4.59814e-05
4.62463e-05
4.64701e-05
4.66545e-05
4.68025e-05
4.69129e-05
4.69865e-05
4.70237e-05
4.70034e-05
4.69515e-05
4.68409e-05
4.65976e-05
4.61644e-05
4.55378e-05
4.47284e-05
4.36824e-05
4.23318e-05
4.06183e-05
3.84998e-05
3.59621e-05
3.30363e-05
3.08697e-05
2.96064e-05
2.93402e-05
2.96886e-05
3.04087e-05
3.0656e-05
3.03573e-05
2.92709e-05
2.77034e-05
2.6811e-05
2.73761e-05
2.87392e-05
3.0617e-05
3.289e-05
3.54984e-05
3.84656e-05
4.14785e-05
4.39903e-05
4.62296e-05
4.82486e-05
5.00647e-05
5.16975e-05
5.31806e-05
5.45356e-05
5.57816e-05
5.69344e-05
5.8008e-05
5.90143e-05
5.99636e-05
6.08648e-05
6.17258e-05
6.25532e-05
6.33525e-05
6.41286e-05
6.48855e-05
6.56264e-05
6.63539e-05
6.70704e-05
6.77774e-05
6.84764e-05
6.91683e-05
6.98538e-05
7.05334e-05
7.12074e-05
7.1876e-05
7.2539e-05
7.31965e-05
7.3848e-05
7.44933e-05
7.51319e-05
7.57632e-05
7.63866e-05
7.70013e-05
7.76065e-05
7.82013e-05
7.87848e-05
7.93558e-05
7.99135e-05
8.04568e-05
8.09848e-05
8.1497e-05
8.1993e-05
8.24731e-05
8.29368e-05
8.33836e-05
8.3815e-05
8.42383e-05
8.4655e-05
8.50657e-05
8.547e-05
8.58668e-05
8.62549e-05
8.66328e-05
8.69986e-05
8.73504e-05
8.76863e-05
8.80057e-05
8.83114e-05
8.86062e-05
8.88885e-05
8.91574e-05
8.941e-05
8.96425e-05
8.98476e-05
9.00127e-05
9.01047e-05
9.01159e-05
9.00963e-05
9.00814e-05
9.00546e-05
8.99742e-05
8.99818e-05
8.98501e-05
8.98369e-05
8.97377e-05
8.96611e-05
8.95696e-05
8.94714e-05
8.93658e-05
8.92503e-05
8.915e-05
8.90335e-05
8.89056e-05
8.87971e-05
8.86623e-05
8.85563e-05
8.83911e-05
8.83009e-05
8.81836e-05
8.80617e-05
8.79455e-05
8.78315e-05
8.77193e-05
8.76055e-05
8.74833e-05
8.73931e-05
8.72829e-05
8.71924e-05
8.70918e-05
8.70102e-05
8.693e-05
8.68536e-05
8.67809e-05
8.67122e-05
8.66508e-05
8.66121e-05
8.66386e-05
8.67628e-05
8.69191e-05
8.71157e-05
8.69859e-05
8.68138e-05
8.66278e-05
8.64241e-05
8.61958e-05
8.59416e-05
8.56586e-05
8.53526e-05
8.50194e-05
8.46724e-05
8.42915e-05
8.39112e-05
8.34724e-05
8.30591e-05
8.25272e-05
8.19724e-05
7.95341e-05
1.42523e-05
8.57273e-05
0.00017779
0.000234955
0.000279844
0.000312607
0.000339368
0.000360421
0.000378619
0.00039419
0.000408361
0.000421304
0.000433356
0.000444485
0.000454775
0.000464257
0.000473021
0.00048107
0.000488268
0.000494254
0.00049842
0.000500011
0.000498377
0.000493515
0.000487723
0.000483153
0.000480968
0.000478969
0.000478211
0.00048079
0.000488586
0.000503266
0.000515954
0.000523567
0.000526377
0.000525478
0.000522901
0.000521133
0.000522093
0.000526391
0.000532988
0.000539625
0.000545422
0.000550179
0.000553716
0.000555671
0.00055593
0.000554357
0.000551278
0.000548254
0.000547693
0.000550136
0.000555589
0.000563527
0.000573313
0.000584332
0.000596056
0.000608057
0.000620003
0.000631652
0.000642837
0.000653457
0.000663467
0.00067286
0.000681662
0.000689922
0.000697698
0.000705061
0.000712079
0.00071882
0.000725349
0.000731723
0.000737994
0.000744206
0.000750397
0.0007566
0.000762841
0.000769141
0.000775517
0.000781984
0.000788551
0.000795226
0.000802015
0.00080892
0.000815942
0.000823076
0.000830317
0.00083765
0.000845055
0.000852502
0.000859944
0.000867318
0.000874541
0.00088151
0.00088812
0.000894317
0.00090003
0.000905091
0.000909255
0.000913018
0.000916663
0.000920324
0.000924092
0.000927994
0.000931995
0.000936033
0.000940023
0.000943847
0.000947305
0.000950027
0.000951987
0.00095387
0.00095584
0.000957948
0.000960225
0.000962707
0.000965436
0.000968467
0.00097185
0.000975492
0.00097908
0.00098251
0.000985862
0.000989071
0.000992161
0.000995044
0.000997826
0.00100049
0.0010031
0.00100563
0.00100804
0.00101033
0.0010125
0.00101449
0.00101632
0.00101799
0.00101946
0.00102077
0.00102182
0.0010227
0.00102333
0.00102374
0.00102375
0.00102357
0.00102303
0.00102217
0.00102106
0.00101952
0.00101772
0.00101566
0.00101315
0.00101037
0.00100708
0.00100336
0.000999064
0.000994131
0.000988411
0.000981672
0.000973946
0.000966532
0.000960801
0.000955135
0.000948332
0.00094192
0.000935631
0.00092908
0.000922312
0.00091532
0.000908154
0.000900858
0.00089361
0.000886447
0.000879645
0.000873036
0.000867308
0.000861662
0.000858172
0.000853306
0.000851111
0.00081343
1.80076e-05
0.000114197
0.000249904
0.000360331
0.000454622
0.000530123
0.00059379
0.000644127
0.00068846
0.000726932
0.000762676
0.000795656
0.000826781
0.00085599
0.000883788
0.000910508
0.000936702
0.00096264
0.000988237
0.00101267
0.00103401
0.00105028
0.00106219
0.00107077
0.00107721
0.00108234
0.00108633
0.00108866
0.00108894
0.00108652
0.00108064
0.00107055
0.00106181
0.00105507
0.00105109
0.00105072
0.0010548
0.0010635
0.00107557
0.00108946
0.00110472
0.00111972
0.00113353
0.00114577
0.0011566
0.00116659
0.00117716
0.00118726
0.00119849
0.00121242
0.001229
0.00124859
0.00127052
0.00129419
0.00131892
0.00134401
0.00136888
0.00139307
0.00141622
0.00143811
0.00145859
0.00147761
0.0014952
0.00151142
0.00152636
0.00154014
0.00155291
0.00156479
0.00157592
0.00158643
0.00159643
0.00160603
0.00161532
0.00162437
0.00163326
0.00164204
0.00165076
0.00165946
0.00166817
0.0016769
0.00168568
0.00169451
0.0017034
0.00171233
0.00172129
0.00173026
0.0017392
0.00174806
0.00175678
0.00176525
0.00177335
0.00178092
0.0017877
0.00179338
0.00179746
0.00180056
0.00180328
0.0018059
0.0018086
0.00181157
0.00181491
0.00181872
0.00182309
0.00182809
0.00183352
0.00183916
0.00184485
0.00185043
0.00185583
0.00186101
0.0018661
0.00187131
0.00187668
0.00188223
0.00188799
0.00189395
0.00190011
0.00190643
0.00191287
0.00191932
0.00192568
0.00193189
0.00193788
0.00194356
0.00194887
0.0019539
0.00195876
0.0019635
0.00196813
0.00197265
0.00197708
0.00198139
0.00198559
0.00198966
0.0019936
0.0019974
0.00200102
0.00200451
0.00200777
0.00201087
0.00201372
0.00201638
0.00201872
0.00202083
0.00202264
0.00202418
0.00202544
0.00202646
0.00202713
0.00202763
0.00202777
0.00202769
0.00202706
0.00202598
0.00202429
0.00202193
0.00201875
0.00201446
0.00200888
0.00200246
0.00199575
0.00198862
0.00198064
0.00197174
0.00196167
0.00195048
0.00193841
0.00192563
0.00191232
0.00189863
0.00188502
0.00187169
0.0018591
0.00184718
0.0018369
0.00182749
0.0018214
0.00181286
0.00179789
0.001743
1.98531e-05
0.000133711
0.000297377
0.000433429
0.000561044
0.000667797
0.00076374
0.000842765
0.000913833
0.000975765
0.00103334
0.00108588
0.00113528
0.00118114
0.00122438
0.00126512
0.00130406
0.00134139
0.00137731
0.00141125
0.00144178
0.0014658
0.00148393
0.00149696
0.0015056
0.00151054
0.00151237
0.00151184
0.00150922
0.00150488
0.00149945
0.00149402
0.00148967
0.00148704
0.00148673
0.00148906
0.00149434
0.00150492
0.00152037
0.00154301
0.00157083
0.00160223
0.00163554
0.00166952
0.00170254
0.00173306
0.00176145
0.00179009
0.00181831
0.00184662
0.00187468
0.00190273
0.00193094
0.00195921
0.00198728
0.00201482
0.0020415
0.00206705
0.00209125
0.00211395
0.0021351
0.00215466
0.00217269
0.00218925
0.00220445
0.0022184
0.00223126
0.00224319
0.00225432
0.00226479
0.00227472
0.0022842
0.00229334
0.00230222
0.00231092
0.0023195
0.002328
0.00233648
0.00234496
0.00235348
0.00236205
0.00237068
0.00237937
0.00238812
0.00239691
0.00240572
0.00241452
0.00242326
0.0024319
0.00244038
0.00244862
0.00245657
0.00246417
0.00247141
0.00247835
0.0024852
0.00249211
0.0024992
0.00250652
0.00251414
0.00252209
0.00253037
0.00253897
0.00254783
0.00255685
0.00256595
0.00257504
0.00258407
0.00259303
0.00260194
0.00261084
0.00261979
0.00262878
0.00263782
0.00264689
0.00265596
0.00266502
0.00267401
0.00268288
0.00269155
0.00269995
0.002708
0.00271554
0.0027223
0.00272816
0.00273357
0.00273873
0.00274373
0.00274859
0.00275332
0.00275791
0.00276236
0.00276667
0.00277083
0.00277482
0.00277865
0.00278229
0.00278574
0.00278898
0.00279201
0.00279479
0.00279732
0.00279956
0.00280152
0.00280324
0.0028047
0.00280585
0.00280682
0.00280754
0.00280798
0.00280813
0.00280781
0.00280688
0.00280534
0.00280314
0.00280022
0.00279654
0.0027921
0.00278694
0.00278105
0.00277419
0.0027661
0.00275678
0.00274624
0.00273437
0.00272111
0.00270645
0.00269056
0.00267367
0.00265597
0.00263829
0.00262112
0.002605
0.00258991
0.00257681
0.00256509
0.00255631
0.00254484
0.002526
0.00247041
2.21514e-05
0.000155386
0.000343906
0.000505902
0.000657769
0.000790963
0.000911267
0.00101759
0.00111254
0.00119671
0.00127348
0.00134313
0.0014082
0.00146852
0.00152482
0.00157668
0.00162411
0.00166679
0.00170504
0.00173892
0.0017683
0.00179302
0.00181319
0.00182908
0.0018412
0.00185015
0.00185653
0.00186085
0.0018635
0.00186472
0.00186462
0.00186346
0.00186284
0.00186577
0.00187398
0.00188917
0.00191228
0.00194044
0.0019729
0.00200796
0.00204502
0.00208312
0.0021207
0.00215757
0.00219321
0.00222768
0.00226125
0.00229264
0.00232255
0.00235185
0.00238103
0.00241006
0.00243884
0.00246716
0.0024948
0.00252152
0.0025471
0.00257137
0.00259419
0.00261551
0.0026353
0.00265359
0.00267044
0.00268593
0.00270019
0.00271334
0.00272548
0.00273672
0.00274717
0.00275696
0.00276618
0.00277495
0.00278336
0.0027915
0.00279944
0.00280725
0.00281499
0.00282271
0.00283046
0.00283826
0.00284615
0.00285414
0.00286224
0.00287047
0.00287881
0.00288727
0.00289582
0.00290446
0.00291318
0.00292194
0.00293074
0.00293958
0.00294847
0.00295744
0.00296654
0.00297583
0.00298533
0.00299507
0.00300507
0.00301531
0.0030258
0.00303652
0.00304743
0.0030585
0.00306964
0.00308082
0.003092
0.00310316
0.0031143
0.00312543
0.00313653
0.00314762
0.00315867
0.00316968
0.00318061
0.00319145
0.00320216
0.00321271
0.00322305
0.00323313
0.00324291
0.00325232
0.00326131
0.00326982
0.00327789
0.00328567
0.00329322
0.00330057
0.00330775
0.00331475
0.00332157
0.00332822
0.0033347
0.00334099
0.00334711
0.00335304
0.00335877
0.00336431
0.00336964
0.00337476
0.00337964
0.00338428
0.00338866
0.00339276
0.0033967
0.00340038
0.00340371
0.0034071
0.00341027
0.00341309
0.00341555
0.00341757
0.0034191
0.00342013
0.00342061
0.00342051
0.00341979
0.00341842
0.00341636
0.00341351
0.00340973
0.00340491
0.00339902
0.00339197
0.00338362
0.00337372
0.00336184
0.00334824
0.00333321
0.00331624
0.00329908
0.00328248
0.0032669
0.00325222
0.00323921
0.00322715
0.00321683
0.00320241
0.00317786
0.00312086
2.36096e-05
0.000168158
0.000378474
0.000563015
0.000735151
0.000888838
0.00102626
0.00114988
0.00126124
0.00136203
0.00145365
0.00153712
0.00161317
0.00168258
0.00174589
0.00180358
0.00185601
0.00190355
0.00194647
0.00198503
0.00201943
0.00204981
0.00207632
0.00209921
0.00211882
0.00213557
0.00214991
0.00216224
0.00217292
0.00218274
0.00219286
0.00220477
0.00221924
0.00223597
0.00225571
0.00227903
0.00230595
0.00233609
0.00236882
0.0024033
0.00243866
0.00247414
0.00250986
0.00254587
0.00258135
0.00261477
0.00264592
0.00267607
0.00270546
0.00273425
0.00276252
0.00279025
0.00281734
0.00284363
0.00286899
0.00289325
0.00291629
0.00293802
0.00295836
0.0029773
0.00299485
0.00301104
0.00302594
0.00303963
0.0030522
0.00306376
0.00307441
0.00308427
0.00309344
0.00310204
0.00311017
0.00311792
0.00312539
0.00313266
0.0031398
0.00314688
0.00315396
0.00316109
0.00316832
0.00317567
0.00318319
0.0031909
0.00319881
0.00320693
0.00321528
0.00322386
0.00323268
0.00324172
0.00325099
0.00326049
0.00327021
0.00328018
0.00329039
0.00330086
0.00331159
0.0033226
0.00333388
0.00334542
0.00335721
0.00336922
0.00338143
0.00339381
0.00340632
0.00341893
0.00343162
0.00344434
0.00345708
0.00346982
0.00348254
0.00349522
0.00350786
0.00352044
0.00353294
0.00354535
0.00355764
0.00356978
0.00358177
0.00359355
0.00360513
0.00361645
0.0036275
0.00363825
0.00364869
0.00365882
0.00366868
0.0036783
0.00368772
0.00369694
0.00370599
0.00371486
0.00372356
0.00373208
0.00374043
0.00374861
0.00375661
0.00376445
0.0037721
0.00377957
0.00378686
0.00379395
0.00380082
0.00380746
0.00381387
0.00381988
0.0038258
0.00383164
0.00383738
0.00384291
0.00384815
0.00385308
0.00385765
0.00386185
0.00386563
0.00386899
0.00387187
0.00387427
0.00387615
0.00387748
0.00387822
0.00387831
0.0038777
0.0038763
0.00387408
0.00387092
0.00386658
0.00386064
0.00385188
0.00384098
0.00382941
0.00381769
0.00380642
0.00379565
0.00378549
0.00377543
0.00376576
0.00375572
0.00374537
0.00372869
0.00370077
0.00364293
2.50831e-05
0.000178938
0.000408039
0.000611934
0.000798535
0.000966102
0.00111642
0.0012521
0.00137467
0.00148575
0.00158682
0.00167911
0.00176327
0.00184004
0.00191006
0.00197399
0.00203239
0.00208572
0.00213441
0.00217881
0.00221923
0.00225596
0.00228925
0.00231938
0.00234664
0.00237135
0.00239387
0.0024146
0.00243423
0.00245304
0.0024715
0.00249009
0.00250919
0.00252912
0.00255015
0.00257254
0.00259615
0.00262264
0.00265307
0.00268751
0.00272539
0.00276516
0.00280437
0.00284069
0.00287325
0.00290374
0.00293293
0.00296111
0.00298845
0.00301504
0.0030409
0.00306599
0.00309025
0.00311358
0.00313589
0.00315708
0.0031771
0.00319588
0.00321342
0.0032297
0.00324476
0.00325864
0.0032714
0.00328313
0.00329392
0.00330385
0.00331304
0.00332157
0.00332957
0.00333711
0.00334431
0.00335124
0.003358
0.00336465
0.00337128
0.00337795
0.00338471
0.00339161
0.0033987
0.00340602
0.00341359
0.00342145
0.00342961
0.00343808
0.00344689
0.00345603
0.00346552
0.00347535
0.00348552
0.00349603
0.00350689
0.00351809
0.00352963
0.0035415
0.00355368
0.00356618
0.00357896
0.00359201
0.0036053
0.00361879
0.00363247
0.00364629
0.00366023
0.00367426
0.00368834
0.00370244
0.00371654
0.00373063
0.00374468
0.00375867
0.0037726
0.00378644
0.00380017
0.00381378
0.00382725
0.00384056
0.0038537
0.00386664
0.00387938
0.00389189
0.00390417
0.00391621
0.003928
0.00393956
0.00395089
0.00396203
0.00397298
0.00398376
0.00399435
0.00400478
0.00401505
0.00402515
0.00403508
0.00404487
0.00405449
0.00406396
0.00407327
0.00408243
0.00409142
0.00410023
0.0041088
0.00411703
0.00412509
0.00413298
0.00414087
0.00414862
0.00415615
0.00416341
0.0041704
0.00417708
0.00418343
0.00418944
0.00419507
0.00420031
0.00420515
0.00420957
0.00421355
0.00421709
0.00422017
0.00422279
0.00422493
0.00422659
0.00422775
0.00422838
0.00422841
0.00422775
0.00422647
0.00422511
0.00422405
0.00422346
0.00422335
0.00422353
0.00422359
0.00422271
0.00421988
0.00421507
0.00420776
0.00419225
0.00416467
0.0041112
2.59518e-05
0.000184711
0.000428594
0.000647078
0.000845748
0.0010245
0.00118509
0.00133017
0.00146123
0.00157996
0.00168784
0.00178636
0.0018763
0.00195856
0.00203388
0.00210292
0.00216629
0.00222459
0.00227831
0.00232789
0.00237368
0.00241598
0.00245506
0.00249116
0.00252449
0.00255527
0.00258366
0.00260983
0.00263398
0.00265659
0.00267783
0.00269774
0.00271633
0.00273422
0.00275413
0.00277743
0.00280476
0.00283619
0.00287112
0.00290834
0.00294642
0.00298397
0.00301991
0.00305309
0.00308351
0.00311189
0.00313873
0.00316435
0.00318895
0.00321263
0.00323544
0.00325736
0.00327838
0.00329844
0.0033175
0.00333552
0.00335246
0.00336831
0.00338307
0.00339675
0.0034094
0.00342108
0.00343183
0.00344175
0.00345092
0.00345942
0.00346736
0.00347482
0.0034819
0.00348869
0.00349527
0.00350174
0.00350817
0.00351463
0.00352119
0.00352792
0.00353486
0.00354206
0.00354957
0.00355741
0.00356561
0.0035742
0.00358319
0.00359259
0.00360241
0.00361266
0.00362334
0.00363444
0.00364595
0.00365788
0.00367021
0.00368293
0.00369602
0.00370947
0.00372325
0.00373735
0.00375173
0.00376636
0.00378122
0.00379626
0.00381146
0.00382677
0.00384217
0.00385762
0.00387311
0.00388859
0.00390406
0.00391949
0.00393486
0.00395015
0.00396534
0.00398043
0.00399538
0.00401019
0.00402484
0.00403933
0.00405363
0.00406774
0.00408165
0.00409535
0.00410883
0.0041221
0.00413515
0.004148
0.00416065
0.00417311
0.00418539
0.0041975
0.00420944
0.00422121
0.00423283
0.00424429
0.00425561
0.00426678
0.00427782
0.00428872
0.00429948
0.0043101
0.0043206
0.00433077
0.00434075
0.00435057
0.00436026
0.00436988
0.00437934
0.0043886
0.00439761
0.00440635
0.00441481
0.00442297
0.00443079
0.00443827
0.00444538
0.00445212
0.00445848
0.00446444
0.00447003
0.00447526
0.00448015
0.00448476
0.00448912
0.00449328
0.00449732
0.00450131
0.00450536
0.00450961
0.00451427
0.00451956
0.0045256
0.00453237
0.00453974
0.00454743
0.00455499
0.00456189
0.00456742
0.00457053
0.00456878
0.00455768
0.00453562
0.00449228
2.68626e-05
0.000189793
0.000445875
0.000676263
0.00088358
0.00107037
0.00123841
0.00139026
0.00152747
0.0016517
0.00176439
0.00186728
0.00196117
0.0020471
0.00212591
0.00219838
0.00226517
0.00232685
0.00238398
0.00243704
0.00248646
0.00253255
0.00257561
0.00261587
0.00265353
0.00268877
0.00272178
0.00275272
0.00278146
0.00280784
0.00283178
0.00285322
0.00287257
0.00289225
0.00291396
0.00293883
0.00296719
0.00299871
0.0030326
0.00306786
0.00310323
0.00313752
0.00316965
0.00319886
0.00322577
0.00325088
0.00327454
0.00329699
0.00331838
0.00333882
0.00335834
0.00337696
0.00339468
0.00341149
0.00342736
0.00344228
0.00345626
0.0034693
0.00348142
0.00349266
0.00350307
0.00351271
0.00352165
0.00352997
0.00353775
0.00354508
0.00355204
0.00355873
0.00356524
0.00357164
0.00357802
0.00358446
0.00359103
0.0035978
0.00360482
0.00361214
0.00361982
0.00362788
0.00363636
0.00364528
0.00365466
0.00366451
0.00367485
0.00368567
0.00369698
0.00370878
0.00372105
0.00373378
0.00374697
0.0037606
0.00377465
0.0037891
0.00380393
0.00381912
0.00383464
0.00385046
0.00386656
0.00388288
0.00389941
0.00391611
0.00393294
0.00394985
0.00396683
0.00398385
0.00400087
0.00401788
0.00403484
0.00405173
0.00406853
0.00408522
0.0041018
0.00411823
0.00413451
0.00415062
0.00416656
0.00418231
0.00419786
0.00421322
0.00422837
0.00424331
0.00425803
0.00427254
0.00428685
0.00430095
0.00431486
0.00432857
0.00434211
0.00435547
0.00436867
0.00438171
0.00439461
0.00440736
0.00441997
0.00443246
0.00444483
0.00445708
0.00446923
0.00448121
0.004493
0.00450463
0.00451613
0.00452749
0.00453877
0.00454991
0.00456084
0.00457155
0.004582
0.00459217
0.00460205
0.0046116
0.00462081
0.00462965
0.00463811
0.00464617
0.00465383
0.00466111
0.00466803
0.00467462
0.00468095
0.0046871
0.00469314
0.0046992
0.00470541
0.0047119
0.00471887
0.00472648
0.00473491
0.00474427
0.00475462
0.00476591
0.004778
0.00479066
0.00480348
0.00481597
0.00482726
0.00483622
0.00484085
0.00483886
0.00482724
0.00480355
2.71148e-05
0.000191594
0.000454693
0.000691879
0.000906231
0.00109953
0.00127345
0.00143056
0.00157238
0.00170066
0.00181678
0.00192264
0.00201911
0.00210731
0.00218817
0.00226256
0.00233122
0.0023948
0.00245385
0.00250885
0.00256022
0.00260832
0.00265347
0.00269589
0.00273578
0.00277329
0.00280852
0.00284152
0.00287232
0.00290094
0.00292741
0.00295176
0.00297462
0.00299778
0.00302233
0.00304879
0.00307719
0.00310716
0.00313812
0.00316931
0.00319997
0.00322931
0.0032566
0.00328156
0.00330465
0.00332621
0.00334649
0.00336565
0.00338381
0.00340102
0.00341735
0.0034328
0.0034474
0.00346115
0.00347406
0.00348616
0.00349745
0.00350798
0.00351778
0.00352691
0.00353542
0.0035434
0.00355091
0.00355803
0.00356486
0.00357146
0.00357793
0.00358435
0.00359081
0.00359737
0.00360412
0.00361111
0.00361842
0.00362608
0.00363416
0.00364268
0.00365168
0.00366119
0.00367121
0.00368177
0.00369287
0.00370452
0.00371672
0.00372947
0.00374274
0.00375654
0.00377084
0.00378563
0.00380089
0.00381659
0.00383273
0.00384926
0.00386617
0.00388342
0.00390098
0.00391882
0.00393691
0.0039552
0.00397366
0.00399225
0.00401093
0.00402968
0.00404844
0.0040672
0.00408591
0.00410457
0.00412314
0.00414161
0.00415996
0.00417816
0.00419621
0.00421409
0.00423179
0.0042493
0.0042666
0.0042837
0.00430058
0.00431724
0.00433368
0.00434989
0.00436588
0.00438165
0.0043972
0.00441254
0.00442768
0.00444263
0.00445739
0.00447198
0.0044864
0.00450068
0.00451482
0.00452883
0.00454272
0.0045565
0.00457018
0.00458379
0.00459725
0.00461061
0.00462385
0.00463698
0.00465001
0.00466294
0.00467578
0.00468845
0.0047009
0.00471313
0.00472509
0.00473676
0.00474811
0.00475912
0.00476975
0.00477997
0.00478977
0.00479912
0.00480803
0.00481651
0.00482459
0.00483233
0.0048398
0.0048471
0.00485435
0.00486168
0.00486925
0.00487726
0.00488588
0.0048953
0.00490567
0.00491711
0.00492968
0.00494337
0.00495807
0.00497359
0.00498957
0.00500552
0.00502059
0.00503382
0.00504359
0.00504846
0.00504628
0.00503774
2.75604e-05
0.000196815
0.000462891
0.000703468
0.000922343
0.00111976
0.00129725
0.00145737
0.00160165
0.00173189
0.00184949
0.00195648
0.00205373
0.00214242
0.00222357
0.00229809
0.0023668
0.00243038
0.00248945
0.00254452
0.00259599
0.00264427
0.00268966
0.00273243
0.00277279
0.0028109
0.0028469
0.00288091
0.00291303
0.00294342
0.00297223
0.00299968
0.00302604
0.00305155
0.00307698
0.00310283
0.00312918
0.0031559
0.00318268
0.00320912
0.00323472
0.00325896
0.00328136
0.00330214
0.00332152
0.00333966
0.00335671
0.00337275
0.00338785
0.00340206
0.00341543
0.00342799
0.00343977
0.0034508
0.00346111
0.00347075
0.00347976
0.00348819
0.00349611
0.00350358
0.00351068
0.00351749
0.00352408
0.00353055
0.00353696
0.00354342
0.00354998
0.00355674
0.00356376
0.0035711
0.00357884
0.00358701
0.00359567
0.00360486
0.0036146
0.00362492
0.00363583
0.00364734
0.00365947
0.00367222
0.00368558
0.00369954
0.00371409
0.00372921
0.00374489
0.0037611
0.00377782
0.00379503
0.0038127
0.00383081
0.00384932
0.0038682
0.00388743
0.00390697
0.00392679
0.00394684
0.00396711
0.00398754
0.00400811
0.00402876
0.00404945
0.00407016
0.00409086
0.00411152
0.00413211
0.0041526
0.00417298
0.00419322
0.00421329
0.00423319
0.0042529
0.0042724
0.00429168
0.00431074
0.00432956
0.00434814
0.00436648
0.00438457
0.00440241
0.00442
0.00443735
0.00445446
0.00447133
0.00448798
0.00450441
0.00452064
0.00453669
0.00455256
0.00456827
0.00458384
0.00459929
0.00461462
0.00462986
0.00464501
0.00466009
0.00467509
0.00469002
0.0047049
0.00471971
0.00473446
0.00474914
0.0047638
0.00477834
0.00479271
0.00480688
0.00482082
0.0048345
0.00484788
0.00486093
0.0048736
0.00488584
0.00489763
0.00490892
0.00491969
0.00492993
0.00493966
0.00494889
0.00495769
0.00496612
0.0049743
0.00498236
0.00499044
0.00499871
0.00500738
0.00501662
0.00502664
0.0050376
0.00504966
0.00506289
0.00507734
0.00509294
0.00510957
0.00512688
0.00514446
0.00516155
0.00517735
0.00519058
0.00520042
0.00520556
0.00520779
2.76248e-05
0.000198955
0.000465753
0.000707124
0.00092903
0.00112897
0.00130834
0.00146975
0.00161475
0.00174514
0.0018626
0.00196899
0.0020653
0.00215277
0.00223247
0.00230538
0.00237234
0.00243411
0.00249133
0.00254456
0.00259428
0.00264088
0.00268468
0.00272597
0.00276497
0.0028019
0.00283691
0.00287017
0.00290182
0.00293199
0.00296085
0.00298856
0.00301528
0.00304118
0.00306639
0.00309098
0.0031149
0.00313831
0.00316116
0.00318325
0.00320427
0.00322401
0.00324248
0.00325976
0.00327593
0.00329106
0.00330522
0.00331847
0.00333086
0.00334244
0.00335325
0.00336335
0.00337277
0.00338158
0.00338984
0.0033976
0.00340493
0.00341192
0.00341863
0.00342515
0.00343155
0.00343794
0.00344438
0.00345096
0.00345776
0.00346486
0.00347232
0.0034802
0.00348857
0.00349748
0.00350697
0.00351707
0.00352782
0.00353923
0.00355132
0.00356409
0.00357756
0.00359171
0.00360653
0.00362202
0.00363816
0.00365494
0.00367231
0.00369027
0.00370878
0.00372781
0.00374735
0.00376735
0.00378779
0.00380865
0.00382987
0.00385144
0.00387331
0.00389546
0.00391784
0.00394041
0.00396314
0.00398599
0.00400891
0.00403187
0.00405484
0.00407778
0.00410064
0.00412342
0.00414607
0.00416857
0.00419091
0.00421306
0.00423501
0.00425674
0.00427823
0.00429947
0.00432046
0.00434118
0.00436163
0.00438179
0.00440168
0.00442128
0.00444061
0.00445965
0.00447842
0.00449693
0.00451518
0.00453319
0.00455097
0.00456854
0.00458592