/*--------------------------------*- C++ -*----------------------------------*\
| =========                 |                                                 |
| \\      /  F ield         | OpenFOAM: The Open Source CFD Toolbox           |
|  \\    /   O peration     | Version:  v1906                                 |
|   \\  /    A nd           | Web:      www.OpenFOAM.com                      |
|    \\/     M anipulation  |                                                 |
\*---------------------------------------------------------------------------*/
FoamFile
{
    version     2.0;
    format      ascii;
    class       volScalarField;
    location    "1200";
    object      p;
}
// * * * * * * * * * * * * * * * * * * * * * * * * * * * * * * * * * * * * * //

dimensions      [0 2 -2 0 0 0 0];


internalField   nonuniform List<scalar> 
12225
(
-3.27198
-4.47442
-4.52464
-4.52986
-4.66558
-4.80366
-4.90959
-5.00366
-5.09429
-5.17983
-5.25931
-5.33701
-5.41668
-5.49992
-5.58694
-5.68324
-5.79832
-5.94487
-5.0325
-5.5474
-5.7052
-5.69105
-5.74648
-5.81137
-5.85968
-5.90852
-5.96282
-6.01878
-6.07459
-6.13196
-6.19417
-6.26077
-6.33316
-6.41364
-6.50231
-6.63229
-4.44747
-5.22796
-5.36748
-5.33589
-5.36888
-5.41824
-5.45937
-5.50228
-5.54992
-5.59906
-5.64856
-5.69939
-5.75416
-5.81216
-5.87535
-5.94164
-6.01275
-6.06702
-5.10264
-5.56926
-5.78705
-5.86122
-5.95379
-6.03756
-6.09927
-6.15352
-6.20715
-6.25977
-6.31168
-6.36448
-6.42012
-6.4789
-6.54107
-6.60648
-6.67285
-6.74837
-4.91172
-5.37038
-5.58566
-5.6464
-5.70876
-5.76378
-5.80536
-5.84466
-5.88562
-5.92729
-5.96934
-6.01263
-6.05803
-6.10601
-6.15491
-6.2059
-6.2469
-6.27877
-5.28908
-5.59102
-5.7972
-5.90009
-6.00376
-6.09611
-6.17139
-6.23837
-6.30143
-6.36134
-6.41899
-6.47583
-6.53294
-6.59095
-6.64879
-6.70712
-6.76188
-6.82188
-5.22364
-5.47119
-5.67122
-5.76965
-5.85649
-5.92752
-5.9833
-6.03248
-6.07902
-6.12373
-6.16724
-6.2104
-6.25357
-6.29701
-6.33889
-6.37933
-6.40878
-6.42602
-5.46446
-5.64812
-5.82302
-5.9307
-6.03499
-6.12727
-6.20692
-6.27927
-6.34695
-6.41092
-6.472
-6.53118
-6.58898
-6.64574
-6.70066
-6.75381
-6.80455
-6.85687
-5.4517
-5.57847
-5.73922
-5.84117
-5.93485
-6.01349
-6.07922
-6.1373
-6.1905
-6.24013
-6.28707
-6.33205
-6.37526
-6.41675
-6.45509
-6.48989
-6.51485
-6.52929
-5.61318
-5.72284
-5.86233
-5.96218
-6.06105
-6.14985
-6.22961
-6.30322
-6.37218
-6.43731
-6.49926
-6.55861
-6.61562
-6.67038
-6.72265
-6.77224
-6.82064
-6.86801
-5.62306
-5.68778
-5.80801
-5.89917
-5.98875
-6.06766
-6.13738
-6.20033
-6.25799
-6.31139
-6.36124
-6.40804
-6.45189
-6.49277
-6.52974
-6.56245
-6.58727
-6.60467
-5.72578
-5.79232
-5.90032
-5.9875
-6.07698
-6.15949
-6.23586
-6.30722
-6.37427
-6.43757
-6.49753
-6.55446
-6.60851
-6.65967
-6.708
-6.75314
-6.79698
-6.83766
-5.74287
-5.78004
-5.86999
-5.9483
-6.02958
-6.10489
-6.17432
-6.23852
-6.29801
-6.35332
-6.40486
-6.45291
-6.49755
-6.53871
-6.57596
-6.60904
-6.6366
-6.65904
-5.82748
-5.87122
-5.95322
-6.02785
-6.10678
-6.18281
-6.25528
-6.32423
-6.3896
-6.45153
-6.51017
-6.56562
-6.61797
-6.66718
-6.71349
-6.75655
-6.79749
-6.83421
-5.84986
-5.87214
-5.93508
-5.99928
-6.06895
-6.13779
-6.20398
-6.26698
-6.32643
-6.38231
-6.43469
-6.4836
-6.52909
-6.57113
-6.60976
-6.64482
-6.67689
-6.70547
-5.91705
-5.94433
-6.00201
-6.06219
-6.12735
-6.19321
-6.25766
-6.3199
-6.37932
-6.43559
-6.48857
-6.53818
-6.58437
-6.62714
-6.66634
-6.7021
-6.73362
-6.76182
-5.94222
-5.96162
-6.00896
-6.06378
-6.12504
-6.18929
-6.25387
-6.31755
-6.37948
-6.43917
-6.49636
-6.55089
-6.6028
-6.65191
-6.69872
-6.74252
-6.78554
-6.82394
-5.95251
-5.96688
-6.00514
-6.05052
-6.10032
-6.15189
-6.2026
-6.25113
-6.29661
-6.33851
-6.37651
-6.41055
-6.44049
-6.46669
-6.48865
-6.50786
-6.5218
-6.53656
-5.99267
-6.02075
-6.07519
-6.13765
-6.20691
-6.28094
-6.35712
-6.43417
-6.51124
-6.58769
-6.66312
-6.73717
-6.80969
-6.88012
-6.94865
-7.01365
-7.07686
-7.13251
-5.85754
-5.86459
-5.89945
-5.94081
-5.98406
-6.02651
-6.06547
-6.09991
-6.12939
-6.15375
-6.17298
-6.18729
-6.19676
-6.20201
-6.20287
-6.20148
-6.19588
-6.19419
-5.88577
-5.93144
-6.00697
-6.08297
-6.16269
-6.24429
-6.32519
-6.40474
-6.48266
-6.55878
-6.63318
-6.70603
-6.77783
-6.84879
-6.92002
-6.99058
-7.06372
-7.13182
-5.70094
-5.71997
-5.78472
-5.84416
-5.89883
-5.94739
-5.98787
-6.02102
-6.04789
-6.06917
-6.08531
-6.09664
-6.10307
-6.10461
-6.09997
-6.08977
-6.06916
-6.04606
-5.72878
-5.8106
-5.9255
-6.02293
-6.11846
-6.21183
-6.2997
-6.38242
-6.46083
-6.5353
-6.60628
-6.67441
-6.74067
-6.80607
-6.87298
-6.94273
-7.02291
-7.10973
-5.46566
-5.54024
-5.66349
-5.74351
-5.80527
-5.85482
-5.89154
-5.91931
-5.94162
-5.95988
-5.97468
-5.98641
-5.99502
-6.00021
-6.00007
-5.99303
-5.96934
-5.92854
-5.52969
-5.68848
-5.85912
-5.9762
-6.08427
-6.1866
-6.27598
-6.35469
-6.42628
-6.49199
-6.5526
-6.6091
-6.66259
-6.714
-6.76549
-6.81948
-6.88757
-6.9776
-5.11597
-5.35832
-5.54563
-5.61536
-5.65909
-5.69535
-5.71966
-5.73794
-5.75549
-5.77266
-5.78876
-5.80371
-5.81746
-5.82985
-5.83979
-5.84597
-5.83766
-5.80227
-5.30778
-5.609
-5.83967
-5.95495
-6.05957
-6.15546
-6.22767
-6.28491
-6.33582
-6.38232
-6.42491
-6.46454
-6.50206
-6.53787
-6.57274
-6.60757
-6.65177
-6.72202
-4.57139
-5.17637
-5.34083
-5.32076
-5.3265
-5.3557
-5.37959
-5.4018
-5.42785
-5.45542
-5.48226
-5.5081
-5.53294
-5.55665
-5.57895
-5.60003
-5.61382
-5.60505
-5.19629
-5.58282
-5.80659
-5.81912
-5.85926
-5.90784
-5.9407
-5.96999
-6.00303
-6.03792
-6.07236
-6.10604
-6.13905
-6.17117
-6.20215
-6.23207
-6.26556
-6.31724
-3.32558
-4.4463
-4.51671
-4.49659
-4.59576
-4.71428
-4.80596
-4.88335
-4.95672
-5.02535
-5.08793
-5.14524
-5.19823
-5.24723
-5.29232
-5.33321
-5.36838
-5.39624
-6.24407
-6.26903
-6.29341
-6.32331
-6.35806
-6.39579
-6.43381
-6.47245
-6.51111
-6.54978
-6.588
-6.6256
-6.66231
-6.69797
-6.73239
-6.76537
-6.79661
-6.82575
-6.85225
-6.87563
-6.89519
-6.90989
-6.91884
-6.92219
-6.92058
-6.9139
-6.90169
-6.88382
-6.86061
-6.83318
-6.80348
-6.77372
-6.74717
-6.72792
-6.71792
-6.71603
-6.71945
-6.72473
-6.72795
-6.72608
-6.7183
-6.70726
-6.69953
-6.69911
-6.70603
-6.7201
-6.74199
-6.77225
-6.80995
-6.8522
-6.8968
-6.94298
-6.98979
-7.03602
-7.08082
-7.12359
-7.16386
-7.20134
-7.23587
-7.26743
-7.29606
-7.32188
-7.34503
-7.36567
-7.38397
-7.40007
-7.41409
-7.42616
-7.43635
-7.44473
-7.45133
-7.45617
-7.45925
-7.46054
-7.46
-7.4576
-7.45325
-7.44689
-7.43843
-7.42778
-7.41483
-7.39948
-7.38161
-7.3611
-7.33783
-7.31166
-7.28245
-7.25007
-7.21437
-7.17519
-7.13239
-7.08581
-7.03528
-6.98066
-6.92178
-6.85855
-6.79092
-6.71859
-6.64084
-6.55758
-6.46916
-6.37552
-6.27644
-6.17189
-6.06191
-5.94648
-5.82552
-5.69894
-5.56666
-5.42859
-5.28471
-5.135
-4.9794
-4.81787
-4.65041
-4.47699
-4.29761
-4.11223
-3.92064
-3.72265
-3.51846
-3.30844
-3.09265
-2.87108
-2.64377
-2.41067
-2.17194
-1.92771
-1.67799
-1.42275
-1.16207
-0.896034
-0.624598
-0.347854
-0.0659633
0.22117
0.513388
0.810695
1.11302
1.42028
1.73248
2.04948
2.37111
2.69718
3.0278
3.3625
3.7012
4.0436
4.38887
4.73683
5.08673
5.43764
5.78917
6.14026
6.48987
6.83688
7.1801
7.51818
7.84949
8.17415
8.49289
8.80405
9.10582
9.39606
9.67244
9.93427
10.1811
10.4122
10.6271
10.8254
11.0072
11.172
11.3207
11.4532
11.5721
11.6769
11.7763
11.8668
11.9924
12.1322
-6.30276
-6.36796
-6.40617
-6.4561
-6.49741
-6.54009
-6.57811
-6.6176
-6.65463
-6.69179
-6.72743
-6.7624
-6.79597
-6.82846
-6.85954
-6.88928
-6.91738
-6.94363
-6.96764
-6.98903
-7.00748
-7.02274
-7.03516
-7.04316
-7.04483
-7.03956
-7.02593
-7.00287
-6.97052
-6.93038
-6.88609
-6.84235
-6.80321
-6.77191
-6.75075
-6.73979
-6.73729
-6.74024
-6.74533
-6.75014
-6.75018
-6.74309
-6.73784
-6.74159
-6.75426
-6.77602
-6.80688
-6.84625
-6.89247
-6.94328
-6.99686
-7.05168
-7.10625
-7.15928
-7.20991
-7.25758
-7.30197
-7.34298
-7.38062
-7.41505
-7.44643
-7.475
-7.50097
-7.52455
-7.54594
-7.5653
-7.58276
-7.59844
-7.61241
-7.62472
-7.63538
-7.64442
-7.65179
-7.65747
-7.6614
-7.66351
-7.66372
-7.66194
-7.65806
-7.65197
-7.64356
-7.63269
-7.61925
-7.6031
-7.58409
-7.56209
-7.53695
-7.50852
-7.47664
-7.44116
-7.4019
-7.35869
-7.31133
-7.25962
-7.20331
-7.14219
-7.0759
-7.00405
-6.92741
-6.84671
-6.76153
-6.67168
-6.57722
-6.47805
-6.37388
-6.26444
-6.14956
-6.02907
-5.90286
-5.7708
-5.63282
-5.48887
-5.33891
-5.18287
-5.02072
-4.85238
-4.67782
-4.49695
-4.30968
-4.11613
-3.91671
-3.71151
-3.50045
-3.28356
-3.0608
-2.83228
-2.59813
-2.35836
-2.11295
-1.86195
-1.60549
-1.3436
-1.07623
-0.803715
-0.525804
-0.242764
0.0455233
0.338886
0.637368
0.940832
1.24932
1.56264
1.88064
2.20349
2.53087
2.86265
3.19874
3.53832
3.88149
4.22774
4.57626
4.92658
5.27789
5.62954
5.98046
6.32967
6.67612
7.01841
7.35492
7.68264
7.99928
8.30539
8.60213
8.88949
9.16558
9.42853
9.67751
9.91178
10.1308
10.3341
10.5215
10.6928
10.8486
10.9887
11.1159
11.2288
11.3372
11.4339
11.5595
11.6695
-6.31943
-6.4111
-6.43112
-6.48522
-6.50889
-6.5527
-6.58018
-6.61639
-6.64626
-6.68082
-6.71213
-6.74468
-6.7751
-6.80531
-6.83398
-6.86189
-6.88826
-6.91297
-6.93522
-6.95438
-6.96954
-6.97983
-6.98571
-6.98845
-6.98914
-6.98818
-6.98441
-6.97546
-6.95906
-6.93445
-6.90328
-6.86913
-6.83561
-6.80572
-6.78151
-6.76362
-6.75356
-6.75153
-6.7544
-6.76061
-6.76855
-6.77658
-6.78582
-6.79856
-6.8162
-6.83956
-6.86878
-6.90285
-6.94061
-6.98111
-7.02317
-7.06564
-7.10757
-7.14824
-7.18715
-7.22399
-7.25858
-7.29086
-7.32083
-7.34853
-7.37404
-7.39744
-7.41882
-7.43829
-7.45593
-7.47182
-7.48603
-7.49862
-7.50962
-7.51906
-7.52695
-7.53328
-7.53804
-7.54118
-7.54266
-7.54243
-7.54041
-7.53653
-7.53069
-7.52281
-7.51277
-7.50047
-7.48579
-7.46859
-7.44876
-7.42615
-7.40062
-7.37203
-7.34021
-7.30501
-7.26628
-7.22384
-7.17753
-7.1272
-7.07268
-7.01386
-6.95058
-6.88256
-6.80985
-6.73237
-6.65004
-6.56276
-6.47005
-6.37161
-6.26772
-6.15841
-6.04363
-5.92331
-5.79735
-5.66569
-5.52826
-5.38499
-5.23581
-5.08069
-4.91958
-4.75245
-4.57927
-4.40002
-4.21465
-4.02318
-3.82575
-3.62246
-3.41333
-3.19842
-2.97769
-2.75121
-2.51907
-2.28138
-2.03811
-1.7893
-1.53504
-1.27537
-1.01028
-0.739912
-0.464324
-0.183489
0.10242
0.393508
0.689559
0.990687
1.29666
1.60755
1.92299
2.24319
2.56785
2.89681
3.22997
3.56685
3.90694
4.25006
4.59545
4.94261
5.29069
5.63885
5.98617
6.33159
6.67402
7.01223
7.34542
7.67272
7.99249
8.30376
8.60475
8.89483
9.17318
9.43867
9.69046
9.92772
10.1499
10.3563
10.5469
10.7213
10.8804
11.0236
11.1541
11.2697
11.3816
11.4783
11.6021
11.6879
-6.32929
-6.44714
-6.46926
-6.53939
-6.55895
-6.61112
-6.6372
-6.68233
-6.71231
-6.75126
-6.78223
-6.81695
-6.84674
-6.87764
-6.90586
-6.93425
-6.96094
-6.98684
-7.01062
-7.03221
-7.04997
-7.06346
-7.07255
-7.07842
-7.08185
-7.08319
-7.08112
-7.07341
-7.0576
-7.03279
-7.00064
-6.9648
-6.92877
-6.89569
-6.86876
-6.84973
-6.83887
-6.83533
-6.83758
-6.84411
-6.85347
-6.86512
-6.87996
-6.89876
-6.92141
-6.94786
-6.97815
-7.01179
-7.04815
-7.0867
-7.12678
-7.16779
-7.20908
-7.25009
-7.29028
-7.32924
-7.36664
-7.40226
-7.43594
-7.46763
-7.49732
-7.52503
-7.55083
-7.57479
-7.59699
-7.6175
-7.63638
-7.65369
-7.66946
-7.68371
-7.69644
-7.70763
-7.71726
-7.72528
-7.73162
-7.73621
-7.73895
-7.73976
-7.73852
-7.73512
-7.72942
-7.7213
-7.71061
-7.6972
-7.68094
-7.66167
-7.63923
-7.61346
-7.58421
-7.55131
-7.5146
-7.47393
-7.42912
-7.38003
-7.32648
-7.26835
-7.2055
-7.13786
-7.06554
-6.98859
-6.90689
-6.82029
-6.72879
-6.6328
-6.53174
-6.4254
-6.31359
-6.19615
-6.07299
-5.94398
-5.80905
-5.66815
-5.5212
-5.36817
-5.20901
-5.0437
-4.87221
-4.69454
-4.51069
-4.32074
-4.12481
-3.92294
-3.71518
-3.50157
-3.28211
-3.05688
-2.82594
-2.58933
-2.34712
-2.09935
-1.84609
-1.58739
-1.32329
-1.05388
-0.779181
-0.499253
-0.214142
0.0761175
0.371451
0.671831
0.977172
1.28741
1.60241
1.92219
2.24662
2.57552
2.90875
3.24576
3.58636
3.92993
4.27599
4.62405
4.97324
5.32277
5.67169
6.01901
6.36364
6.70429
7.03966
7.36824
7.68869
8.00044
8.30281
8.59497
8.87574
9.14383
9.39833
9.63839
9.86346
10.0729
10.2667
10.4441
10.6063
10.7521
10.8851
11.0019
11.1141
11.2072
11.3207
11.384
-6.29906
-6.44135
-6.4627
-6.54072
-6.55424
-6.60744
-6.62808
-6.67036
-6.69707
-6.73532
-6.76416
-6.79704
-6.82469
-6.85393
-6.88023
-6.90711
-6.93217
-6.95673
-6.97926
-6.99987
-7.01698
-7.02989
-7.03866
-7.04467
-7.04922
-7.05312
-7.05562
-7.0549
-7.04904
-7.03709
-7.01957
-6.99834
-6.97578
-6.95442
-6.93639
-6.92309
-6.91535
-6.91325
-6.91628
-6.92349
-6.93379
-6.94642
-6.96119
-6.97822
-6.99756
-7.01919
-7.04321
-7.06947
-7.09775
-7.12781
-7.15924
-7.1916
-7.22438
-7.25714
-7.28944
-7.32093
-7.35135
-7.3805
-7.40823
-7.43447
-7.45915
-7.48227
-7.50383
-7.52384
-7.54233
-7.55931
-7.57481
-7.58884
-7.6014
-7.6125
-7.62212
-7.63023
-7.6368
-7.6418
-7.64517
-7.64683
-7.64673
-7.64479
-7.6409
-7.63499
-7.62694
-7.61666
-7.60402
-7.58891
-7.5712
-7.55076
-7.52747
-7.50117
-7.47172
-7.43898
-7.40281
-7.36303
-7.31949
-7.27204
-7.22052
-7.16475
-7.10457
-7.03978
-6.97027
-6.89593
-6.81663
-6.73224
-6.64266
-6.54758
-6.44712
-6.34124
-6.22988
-6.11294
-5.99033
-5.86197
-5.72778
-5.58768
-5.44164
-5.28958
-5.13149
-4.96733
-4.79708
-4.62075
-4.43833
-4.24986
-4.0554
-3.855
-3.64871
-3.43657
-3.21861
-2.99488
-2.76545
-2.53039
-2.28972
-2.0435
-1.7918
-1.53466
-1.27213
-1.0043
-0.731198
-0.452872
-0.169394
0.119224
0.412887
0.711588
1.01521
1.32373
1.63698
1.95501
2.27769
2.60479
2.93621
3.27142
3.61021
3.95214
4.29649
4.64287
4.99045
5.33839
5.68578
6.03158
6.37477
6.71433
7.04937
7.37882
7.70125
8.01537
8.31977
8.61358
8.89581
9.1654
9.42149
9.6632
9.89002
10.1013
10.297
10.4764
10.6408
10.7887
10.9243
11.043
11.1574
11.2501
11.36
11.4179
-6.25873
-6.4289
-6.45891
-6.54879
-6.56437
-6.62255
-6.64468
-6.68969
-6.71722
-6.75633
-6.78712
-6.8231
-6.85343
-6.88482
-6.91319
-6.94186
-6.96864
-6.99502
-7.01963
-7.04297
-7.06378
-7.08106
-7.0945
-7.10448
-7.11129
-7.11519
-7.11585
-7.11273
-7.10532
-7.09368
-7.07859
-7.06149
-7.04401
-7.02782
-7.01439
-7.00481
-6.99969
-6.99909
-7.00267
-7.00988
-7.02012
-7.03297
-7.04821
-7.0658
-7.08571
-7.10795
-7.13254
-7.15938
-7.18827
-7.21896
-7.25109
-7.28427
-7.31809
-7.35213
-7.38601
-7.4194
-7.45203
-7.48367
-7.51416
-7.54339
-7.57129
-7.5978
-7.62292
-7.64665
-7.66898
-7.68994
-7.70953
-7.72775
-7.74461
-7.76009
-7.77417
-7.78682
-7.79798
-7.80761
-7.81564
-7.82198
-7.82654
-7.82923
-7.82992
-7.82851
-7.82486
-7.81884
-7.8103
-7.7991
-7.78508
-7.76808
-7.74794
-7.72451
-7.69761
-7.66709
-7.6328
-7.59456
-7.55225
-7.50572
-7.45484
-7.3995
-7.33961
-7.2751
-7.20592
-7.13203
-7.05336
-6.96986
-6.88155
-6.78791
-6.68897
-6.58453
-6.4745
-6.35876
-6.23723
-6.10981
-5.97644
-5.83706
-5.69161
-5.54005
-5.38236
-5.21851
-5.04849
-4.87233
-4.69003
-4.50165
-4.30722
-4.10681
-3.90044
-3.68818
-3.47005
-3.24612
-3.01645
-2.78108
-2.54009
-2.29352
-2.04144
-1.7839
-1.52096
-1.25267
-0.97907
-0.700219
-0.416161
-0.126935
0.1674
0.466807
0.771215
1.08055
1.39473
1.71377
2.03758
2.36596
2.69871
3.0355
3.37587
3.71952
4.06582
4.41428
4.76405
5.11434
5.46418
5.81262
6.15854
6.5007
6.83793
7.16902
7.49277
7.80823
8.11429
8.40996
8.69411
8.96562
9.22363
9.46726
9.69596
9.909
10.1064
10.2873
10.4529
10.6014
10.7371
10.8544
10.9663
11.0528
11.1532
11.1959
-6.20389
-6.39807
-6.43355
-6.53111
-6.54641
-6.60603
-6.62729
-6.67101
-6.69693
-6.73392
-6.76246
-6.79571
-6.82475
-6.85539
-6.88296
-6.9102
-6.93559
-6.96019
-6.98292
-7.00424
-7.02352
-7.04081
-7.05562
-7.06813
-7.07839
-7.08653
-7.09235
-7.09558
-7.09592
-7.09338
-7.08838
-7.08174
-7.0745
-7.06781
-7.06268
-7.0599
-7.05992
-7.06285
-7.0686
-7.07689
-7.08742
-7.09996
-7.1144
-7.1307
-7.14884
-7.16881
-7.19055
-7.21395
-7.23886
-7.26505
-7.29228
-7.32026
-7.34869
-7.37729
-7.4058
-7.43398
-7.46162
-7.48855
-7.51465
-7.53979
-7.56391
-7.58694
-7.60884
-7.62956
-7.6491
-7.66741
-7.68448
-7.70029
-7.7148
-7.72799
-7.73981
-7.75024
-7.7592
-7.76665
-7.77251
-7.77672
-7.77919
-7.77984
-7.77857
-7.77528
-7.76987
-7.76222
-7.75223
-7.73976
-7.72469
-7.70689
-7.68624
-7.66257
-7.63577
-7.60568
-7.57215
-7.53503
-7.49416
-7.4494
-7.40056
-7.3475
-7.29004
-7.22801
-7.16125
-7.08961
-7.01289
-6.93093
-6.84358
-6.75134
-6.65376
-6.55081
-6.44233
-6.32821
-6.20835
-6.08265
-5.95102
-5.81341
-5.66976
-5.52001
-5.36414
-5.20213
-5.03396
-4.85965
-4.67921
-4.49267
-4.30007
-4.10144
-3.89684
-3.6863
-3.46989
-3.24765
-3.01964
-2.78593
-2.54657
-2.30162
-2.05115
-1.7952
-1.53385
-1.26714
-0.995131
-0.717865
-0.435398
-0.147765
0.144977
0.442794
0.745615
1.05337
1.36597
1.68347
2.00573
2.33266
2.66394
2.99936
3.3385
3.68103
4.02632
4.37382
4.72278
5.07247
5.42192
5.77016
6.11618
6.45891
6.79726
7.12998
7.45575
7.77336
8.08157
8.37938
8.6657
8.93951
9.19995
9.44616
9.67763
9.8936
10.0941
10.2783
10.4474
10.5993
10.7387
10.859
10.9738
11.0614
11.1609
11.2032
-6.16014
-6.37156
-6.41559
-6.52209
-6.53966
-6.60344
-6.62604
-6.67181
-6.69832
-6.73604
-6.76489
-6.79891
-6.8285
-6.8599
-6.88893
-6.91828
-6.94562
-6.97201
-6.99662
-7.0196
-7.0403
-7.05867
-7.07444
-7.08768
-7.0984
-7.10674
-7.11273
-7.11648
-7.11814
-7.11802
-7.11659
-7.11451
-7.11247
-7.11118
-7.11126
-7.11312
-7.11704
-7.12309
-7.13128
-7.14153
-7.15374
-7.16784
-7.18378
-7.20154
-7.22109
-7.24239
-7.26537
-7.2899
-7.31584
-7.343
-7.37115
-7.40008
-7.42954
-7.45928
-7.48908
-7.51873
-7.54804
-7.57685
-7.60502
-7.63244
-7.65903
-7.68471
-7.70943
-7.73315
-7.75583
-7.77743
-7.79793
-7.8173
-7.8355
-7.85248
-7.86821
-7.88262
-7.89566
-7.90726
-7.91734
-7.92581
-7.93258
-7.93753
-7.94056
-7.94153
-7.94033
-7.93681
-7.93083
-7.92224
-7.91088
-7.89659
-7.8792
-7.85857
-7.83451
-7.80687
-7.77548
-7.74021
-7.70089
-7.6574
-7.60961
-7.55741
-7.5007
-7.43941
-7.37345
-7.30278
-7.22729
-7.14706
-7.06144
-6.97018
-6.8734
-6.77095
-6.66279
-6.54883
-6.429
-6.30321
-6.17141
-6.03353
-5.88954
-5.73939
-5.58305
-5.42052
-5.25179
-5.07688
-4.8958
-4.70859
-4.51528
-4.31591
-4.11053
-3.89919
-3.68194
-3.45883
-3.22993
-2.9953
-2.755
-2.50909
-2.25765
-2.00072
-1.73837
-1.47064
-1.19758
-0.919256
-0.635703
-0.346966
-0.0530929
0.245877
0.549888
0.85884
1.17269
1.4915
1.81517
2.1435
2.47635
2.81336
3.15417
3.4984
3.8455
4.19494
4.5459
4.89762
5.24916
5.59954
5.94768
6.29237
6.63249
6.9668
7.2941
7.61328
7.92316
8.22268
8.51073
8.78626
9.0484
9.29627
9.52936
9.74683
9.94877
10.1341
10.3041
10.4564
10.5958
10.7148
10.8278
10.9108
11.0051
11.0379
-6.11985
-6.3403
-6.39056
-6.50135
-6.52014
-6.58497
-6.60804
-6.6536
-6.67976
-6.71638
-6.74399
-6.7762
-6.80402
-6.83352
-6.86047
-6.88752
-6.91302
-6.93807
-6.96155
-6.98387
-7.00478
-7.02418
-7.0419
-7.05794
-7.07226
-7.08489
-7.09582
-7.10514
-7.11296
-7.1195
-7.12506
-7.13005
-7.1349
-7.14005
-7.14588
-7.15268
-7.16068
-7.17
-7.18073
-7.19289
-7.20649
-7.22152
-7.23797
-7.25583
-7.27506
-7.29561
-7.31741
-7.34034
-7.3643
-7.38914
-7.4147
-7.44081
-7.46732
-7.49404
-7.52082
-7.5475
-7.57395
-7.60003
-7.62564
-7.65068
-7.67507
-7.69873
-7.7216
-7.74362
-7.76473
-7.78488
-7.80403
-7.82211
-7.83907
-7.85487
-7.86943
-7.8827
-7.8946
-7.90507
-7.91401
-7.92135
-7.92699
-7.93082
-7.93275
-7.93266
-7.93045
-7.92599
-7.91916
-7.90983
-7.89787
-7.88314
-7.86552
-7.84485
-7.821
-7.79382
-7.76316
-7.72889
-7.69083
-7.64885
-7.60278
-7.55246
-7.49772
-7.4384
-7.37427
-7.30519
-7.23084
-7.15124
-7.06691
-6.97742
-6.88262
-6.78235
-6.67646
-6.56482
-6.44733
-6.32389
-6.19442
-6.05884
-5.91711
-5.76918
-5.61501
-5.45461
-5.28795
-5.11506
-4.93595
-4.75065
-4.55919
-4.36162
-4.15797
-3.9483
-3.73267
-3.51114
-3.28377
-3.05063
-2.81178
-2.5673
-2.31724
-2.06168
-1.80065
-1.53423
-1.26247
-0.98541
-0.703114
-0.415618
-0.122967
0.17482
0.477674
0.785492
1.09824
1.41595
1.73859
2.06599
2.39798
2.73426
3.07444
3.41816
3.76487
4.11405
4.46495
4.81683
5.16875
5.51975
5.86879
6.21471
6.55636
6.89249
7.22182
7.54318
7.85536
8.15732
8.44797
8.7263
8.99147
9.2426
9.47919
9.70039
9.9063
10.0957
10.27
10.4265
10.5701
10.6926
10.8089
10.8935
10.9888
11.0207
-6.10043
-6.32852
-6.381
-6.49764
-6.5159
-6.58432
-6.60718
-6.65495
-6.68126
-6.71921
-6.74707
-6.78011
-6.80829
-6.83848
-6.86607
-6.894
-6.92
-6.94533
-6.96921
-6.99209
-7.01322
-7.03279
-7.05083
-7.06732
-7.08232
-7.09593
-7.10823
-7.11937
-7.1295
-7.13884
-7.14761
-7.15611
-7.16461
-7.1734
-7.18272
-7.19277
-7.20373
-7.21572
-7.22884
-7.24316
-7.25871
-7.27553
-7.29363
-7.31299
-7.33361
-7.35543
-7.37839
-7.40241
-7.4274
-7.45322
-7.47977
-7.50689
-7.53445
-7.5623
-7.59031
-7.61833
-7.64624
-7.67392
-7.70127
-7.7282
-7.75462
-7.78046
-7.80564
-7.83012
-7.85382
-7.87669
-7.89868
-7.91973
-7.93978
-7.95877
-7.97664
-7.99332
-8.00873
-8.0228
-8.03542
-8.04652
-8.05597
-8.06366
-8.06948
-8.0733
-8.07499
-8.07442
-8.07143
-8.06587
-8.05758
-8.04639
-8.03214
-8.01467
-7.9938
-7.96937
-7.94121
-7.90917
-7.87309
-7.83283
-7.78827
-7.73928
-7.68579
-7.62768
-7.56489
-7.49743
-7.42512
-7.34726
-7.26383
-7.17479
-7.0801
-6.97967
-6.87343
-6.76131
-6.64322
-6.51911
-6.38889
-6.25252
-6.10996
-5.96116
-5.8061
-5.64477
-5.47718
-5.30333
-5.12325
-4.93695
-4.74449
-4.54589
-4.34121
-4.13049
-3.9138
-3.69119
-3.46273
-3.22849
-2.98854
-2.74295
-2.49179
-2.2351
-1.97297
-1.70543
-1.43254
-1.15436
-0.870945
-0.582327
-0.288555
0.0103354
0.31428
0.623197
0.93704
1.2559
1.5797
1.90828
2.24144
2.5789
2.92033
3.26534
3.61341
3.964
4.31636
4.66974
5.02318
5.37572
5.72624
6.07361
6.41663
6.75409
7.08476
7.40748
7.72109
8.02448
8.3166
8.59641
8.86308
9.11572
9.35385
9.57656
9.78398
9.97479
10.1505
10.308
10.4526
10.5752
10.6915
10.7744
10.8689
10.8956
-6.08365
-6.3208
-6.36844
-6.48756
-6.50417
-6.57393
-6.59584
-6.64405
-6.66952
-6.7073
-6.73424
-6.76668
-6.79386
-6.82326
-6.84989
-6.87712
-6.90265
-6.928
-6.95197
-6.97544
-6.99781
-7.01902
-7.03892
-7.05787
-7.07575
-7.09257
-7.10835
-7.12321
-7.1372
-7.15048
-7.16321
-7.17559
-7.18782
-7.20012
-7.21268
-7.22567
-7.23925
-7.25354
-7.26864
-7.28464
-7.30158
-7.31951
-7.33844
-7.35837
-7.37929
-7.40117
-7.42395
-7.44756
-7.47192
-7.49696
-7.52256
-7.54864
-7.57506
-7.60175
-7.62857
-7.65543
-7.68223
-7.70888
-7.73528
-7.76136
-7.78703
-7.81222
-7.83687
-7.86089
-7.88422
-7.9068
-7.92855
-7.94941
-7.9693
-7.98816
-8.0059
-8.02245
-8.03773
-8.05164
-8.06409
-8.07498
-8.0842
-8.09162
-8.09715
-8.10065
-8.10202
-8.10111
-8.0978
-8.09195
-8.08341
-8.07203
-8.05768
-8.04021
-8.01948
-7.99534
-7.96766
-7.93627
-7.90103
-7.86179
-7.81842
-7.77072
-7.71857
-7.66176
-7.59999
-7.53308
-7.46145
-7.38493
-7.30328
-7.21633
-7.12392
-7.0259
-6.92212
-6.81247
-6.69683
-6.57512
-6.44725
-6.31316
-6.17278
-6.02609
-5.87305
-5.71366
-5.54791
-5.37582
-5.19741
-5.01271
-4.82175
-4.62458
-4.42124
-4.2118
-3.99631
-3.77485
-3.54748
-3.31427
-3.0753
-2.83065
-2.58038
-2.32455
-2.06323
-1.79647
-1.52433
-1.24687
-0.964145
-0.676197
-0.383074
-0.0847959
0.218552
0.526888
0.840195
1.15853
1.48186
1.81004
2.14289
2.48014
2.82144
3.16642
3.51458
3.86538
4.21811
4.57201
4.92617
5.27958
5.63119
5.97982
6.32431
6.6634
6.99587
7.32054
7.63625
7.94193
8.23653
8.51905
8.78869
9.04455
9.28615
9.51258
9.72394
9.91882
10.0987
10.2603
10.4088
10.5348
10.6544
10.7389
10.8356
10.8608
-6.08704
-6.32826
-6.37204
-6.49361
-6.50881
-6.58095
-6.60229
-6.65226
-6.67763
-6.71664
-6.74373
-6.77702
-6.8044
-6.83436
-6.8612
-6.88882
-6.91454
-6.94015
-6.96436
-6.98801
-7.01034
-7.03201
-7.05272
-7.0723
-7.09076
-7.10847
-7.12543
-7.14164
-7.15717
-7.17217
-7.18676
-7.20111
-7.21537
-7.22972
-7.24431
-7.25929
-7.27477
-7.29089
-7.30773
-7.32536
-7.34384
-7.36322
-7.38352
-7.40474
-7.42689
-7.44993
-7.47383
-7.49854
-7.52399
-7.55011
-7.57681
-7.60401
-7.63162
-7.65954
-7.68767
-7.71592
-7.74421
-7.77244
-7.80052
-7.82839
-7.85596
-7.88315
-7.9099
-7.93614
-7.96179
-7.98679
-8.01106
-8.03453
-8.05713
-8.07879
-8.09942
-8.11895
-8.13728
-8.15433
-8.16998
-8.18414
-8.19668
-8.20749
-8.21644
-8.22341
-8.22826
-8.23085
-8.23104
-8.22865
-8.22353
-8.21552
-8.20443
-8.19012
-8.17242
-8.15115
-8.12614
-8.09723
-8.06424
-8.02706
-7.98553
-7.93951
-7.88903
-7.83386
-7.774
-7.70885
-7.6383
-7.5623
-7.48076
-7.39359
-7.30072
-7.20204
-7.09748
-6.98694
-6.87035
-6.74764
-6.61873
-6.48357
-6.34212
-6.19434
-6.04022
-5.87972
-5.71288
-5.53968
-5.36016
-5.17435
-4.98228
-4.784
-4.57954
-4.36898
-4.15236
-3.92977
-3.70127
-3.46693
-3.22683
-2.98105
-2.72966
-2.47271
-2.21029
-1.94243
-1.66922
-1.39069
-1.10693
-0.817955
-0.523819
-0.224561
0.0797707
0.389108
0.703412
1.02273
1.347
1.67613
2.00991
2.34809
2.69034
3.03629
3.38544
3.73725
4.09101
4.44594
4.80114
5.15558
5.50819
5.85779
6.20322
6.54324
6.87666
7.2023
7.51902
7.82573
8.12143
8.40511
8.67598
8.93316
9.17618
9.40413
9.61711
9.81368
9.99533
10.1586
10.3089
10.4363
10.5573
10.642
10.7405
10.7634
-6.09733
-6.33631
-6.37464
-6.49534
-6.50802
-6.58037
-6.60004
-6.65038
-6.67476
-6.71409
-6.7406
-6.77413
-6.80124
-6.83146
-6.85833
-6.88631
-6.91235
-6.9386
-6.96356
-6.9882
-7.01176
-7.03464
-7.05647
-7.07779
-7.09845
-7.11815
-7.13696
-7.15524
-7.17278
-7.18983
-7.20646
-7.22285
-7.23912
-7.25541
-7.27186
-7.28859
-7.30572
-7.32336
-7.3416
-7.36051
-7.38015
-7.40056
-7.42177
-7.44379
-7.46663
-7.49025
-7.51463
-7.53974
-7.56551
-7.59188
-7.61879
-7.64617
-7.67394
-7.70201
-7.73032
-7.75877
-7.7873
-7.81581
-7.84424
-7.8725
-7.90053
-7.92824
-7.95556
-7.98241
-8.00872
-8.0344
-8.05939
-8.08359
-8.10693
-8.12931
-8.15065
-8.17086
-8.18984
-8.20749
-8.22369
-8.23834
-8.25131
-8.26248
-8.27173
-8.27892
-8.28393
-8.28661
-8.28682
-8.2844
-8.2792
-8.27108
-8.25987
-8.24545
-8.22766
-8.20635
-8.18138
-8.15259
-8.11984
-8.08298
-8.04191
-7.9964
-7.9463
-7.89156
-7.83218
-7.76805
-7.69889
-7.62459
-7.54495
-7.45982
-7.36906
-7.27253
-7.17009
-7.06164
-6.94709
-6.82632
-6.69928
-6.5659
-6.42612
-6.2799
-6.12724
-5.9681
-5.80251
-5.63048
-5.45202
-5.26718
-5.07599
-4.87849
-4.67475
-4.46483
-4.2488
-4.02672
-3.79868
-3.56475
-3.325
-3.07954
-2.82841
-2.57169
-2.30946
-2.04175
-1.76867
-1.49023
-1.20653
-0.917621
-0.62352
-0.324279
-0.0199266
0.289454
0.60382
0.923204
1.24757
1.57682
1.91076
2.24915
2.59166
2.93792
3.28745
3.63971
3.994
4.34956
4.70546
5.06071
5.41422
5.76482
6.11134
6.45256
6.78729
7.11436
7.43266
7.74111
8.03873
8.32454
8.59778
8.85757
9.10345
9.33447
9.55073
9.75072
9.93586
10.1026
10.2562
10.3866
10.5104
10.5968
10.6979
10.7196
-6.11771
-6.35167
-6.38531
-6.50518
-6.51633
-6.5896
-6.60839
-6.65987
-6.68386
-6.72423
-6.75072
-6.78515
-6.81248
-6.84342
-6.87061
-6.89929
-6.92584
-6.95271
-6.97815
-7.00334
-7.02743
-7.05097
-7.07355
-7.09541
-7.11636
-7.13689
-7.15699
-7.17629
-7.19479
-7.21299
-7.23075
-7.24835
-7.26588
-7.28344
-7.30116
-7.31917
-7.33758
-7.35648
-7.37597
-7.39612
-7.41698
-7.43859
-7.461
-7.48421
-7.50824
-7.53306
-7.55866
-7.58499
-7.61203
-7.6397
-7.66796
-7.69674
-7.72596
-7.75555
-7.78544
-7.81555
-7.8458
-7.87611
-7.90641
-7.93662
-7.96667
-7.99647
-8.02594
-8.05501
-8.08361
-8.11163
-8.13902
-8.16567
-8.19151
-8.21644
-8.24038
-8.26323
-8.28489
-8.30525
-8.32421
-8.34165
-8.35744
-8.37147
-8.38361
-8.39371
-8.40166
-8.40729
-8.41046
-8.41101
-8.40878
-8.4036
-8.39532
-8.38378
-8.3688
-8.35022
-8.32786
-8.30157
-8.27116
-8.23653
-8.19748
-8.15389
-8.10542
-8.05196
-7.99324
-7.92937
-7.86009
-7.78536
-7.70506
-7.61908
-7.52733
-7.42971
-7.32611
-7.21646
-7.10065
-6.97863
-6.85031
-6.71564
-6.57458
-6.42708
-6.27314
-6.11274
-5.94588
-5.77258
-5.59286
-5.40676
-5.21431
-5.01556
-4.81057
-4.59939
-4.3821
-4.15877
-3.92949
-3.69431
-3.45331
-3.20661
-2.95426
-2.69633
-2.4329
-2.16399
-1.88972
-1.61017
-1.32533
-1.0353
-0.740094
-0.439742
-0.134317
0.176116
0.491525
0.811919
1.13725
1.46742
1.80224
2.14148
2.48481
2.83187
3.18216
3.53515
3.89015
4.24637
4.6029
4.95873
5.31277
5.66386
6.01084
6.35249
6.68765
7.01517
7.33394
7.64292
7.94112
8.22762
8.50164
8.76237
9.00932
9.24159
9.45927
9.66085
9.84773
10.0163
10.1719
10.304
10.4298
10.5174
10.621
10.642
-6.14276
-6.36645
-6.39476
-6.51152
-6.52037
-6.59308
-6.61016
-6.66184
-6.68472
-6.72556
-6.75152
-6.78654
-6.81384
-6.84554
-6.87312
-6.90262
-6.92979
-6.95769
-6.98414
-7.01058
-7.03588
-7.06075
-7.08467
-7.10797
-7.13048
-7.15224
-7.17358
-7.19451
-7.21451
-7.23389
-7.25303
-7.2721
-7.29104
-7.30993
-7.32899
-7.34825
-7.3679
-7.388
-7.40866
-7.42995
-7.45194
-7.47466
-7.49815
-7.52244
-7.54753
-7.57342
-7.60007
-7.62748
-7.65558
-7.68435
-7.71371
-7.74362
-7.77399
-7.80477
-7.83587
-7.86723
-7.89876
-7.93039
-7.96203
-7.99361
-8.02505
-8.05625
-8.08714
-8.11764
-8.14764
-8.17708
-8.20584
-8.23385
-8.261
-8.28721
-8.31236
-8.33636
-8.3591
-8.38046
-8.40033
-8.41859
-8.43511
-8.44976
-8.46241
-8.47291
-8.48113
-8.48692
-8.49013
-8.49061
-8.48818
-8.48271
-8.47404
-8.46201
-8.44647
-8.42727
-8.40423
-8.37722
-8.34611
-8.31074
-8.27112
-8.22722
-8.17889
-8.12594
-8.06811
-8.00528
-7.93725
-7.86387
-7.78499
-7.70047
-7.61017
-7.51396
-7.41172
-7.30336
-7.18877
-7.06786
-6.94057
-6.80683
-6.6666
-6.51983
-6.36651
-6.20662
-6.04019
-5.86723
-5.68776
-5.50183
-5.30947
-5.11073
-4.90569
-4.69441
-4.47698
-4.25345
-4.02393
-3.78846
-3.54714
-3.30009
-3.04732
-2.78893
-2.52504
-2.25568
-1.98086
-1.70076
-1.41536
-1.12471
-0.828886
-0.527925
-0.221893
0.0891596
0.405195
0.726204
1.05213
1.38288
1.71826
2.05803
2.40189
2.74944
3.10022
3.45367
3.80913
4.1658
4.52278
4.87905
5.23354
5.5851
5.93258
6.27478
6.61056
6.93879
7.25838
7.5683
7.8676
8.15536
8.43083
8.6932
8.942
9.17632
9.39622
9.6002
9.78956
9.96072
10.1187
10.2532
10.3812
10.4705
10.5763
10.5969
-6.17226
-6.38187
-6.40672
-6.51972
-6.52761
-6.60009
-6.61642
-6.66895
-6.69144
-6.73343
-6.75939
-6.79557
-6.82318
-6.85596
-6.8841
-6.91475
-6.94277
-6.97174
-6.99909
-7.0266
-7.05296
-7.07902
-7.10412
-7.12867
-7.15237
-7.1754
-7.19775
-7.21933
-7.24061
-7.26169
-7.28209
-7.30212
-7.32234
-7.34233
-7.36245
-7.38289
-7.40373
-7.42509
-7.44702
-7.46961
-7.49293
-7.51702
-7.54194
-7.56769
-7.5943
-7.62175
-7.65004
-7.67912
-7.70897
-7.73953
-7.77075
-7.80256
-7.83491
-7.86771
-7.90089
-7.93436
-7.96805
-8.00188
-8.03575
-8.06958
-8.10329
-8.13679
-8.16998
-8.20277
-8.23509
-8.26682
-8.29788
-8.32817
-8.3576
-8.38606
-8.41346
-8.43968
-8.46463
-8.48819
-8.51024
-8.53067
-8.54935
-8.56615
-8.58095
-8.5936
-8.60396
-8.6119
-8.61727
-8.6199
-8.61965
-8.61636
-8.60987
-8.60004
-8.58669
-8.56965
-8.54877
-8.52388