/*--------------------------------*- C++ -*----------------------------------*\
| =========                 |                                                 |
| \\      /  F ield         | OpenFOAM: The Open Source CFD Toolbox           |
|  \\    /   O peration     | Version:  v1906                                 |
|   \\  /    A nd           | Web:      www.OpenFOAM.com                      |
|    \\/     M anipulation  |                                                 |
\*---------------------------------------------------------------------------*/
FoamFile
{
    version     2.0;
    format      ascii;
    class       surfaceScalarField;
    location    "1200";
    object      phi;
}
// * * * * * * * * * * * * * * * * * * * * * * * * * * * * * * * * * * * * * //

dimensions      [0 3 -1 0 0 0 0];
oriented        oriented;


internalField   nonuniform List<scalar> 
24170
(
3.08282e-06
1.05582e-07
2.98701e-06
9.58182e-08
2.9207e-06
6.63037e-08
2.8647e-06
5.60067e-08
2.81587e-06
4.88266e-08
2.77303e-06
4.28431e-08
2.73495e-06
3.80776e-08
2.70075e-06
3.41971e-08
2.66994e-06
3.08153e-08
2.64214e-06
2.77927e-08
2.61693e-06
2.52144e-08
2.59389e-06
2.30372e-08
2.57293e-06
2.09594e-08
2.55408e-06
1.88549e-08
2.53765e-06
1.64292e-08
2.52404e-06
1.36101e-08
2.51414e-06
9.89246e-09
-1.51417e-09
2.51566e-06
3.44276e-06
8.00734e-08
3.44404e-06
9.4533e-08
3.43233e-06
7.80171e-08
3.41873e-06
6.96076e-08
3.404e-06
6.3554e-08
3.38921e-06
5.7635e-08
3.37485e-06
5.24392e-08
3.36102e-06
4.80201e-08
3.34777e-06
4.40733e-08
3.33511e-06
4.04513e-08
3.32311e-06
3.72127e-08
3.31182e-06
3.43299e-08
3.30115e-06
3.16248e-08
3.29112e-06
2.88827e-08
3.2816e-06
2.59558e-08
3.27266e-06
2.25472e-08
3.26494e-06
1.76161e-08
7.63679e-09
3.25579e-06
3.67627e-06
6.63182e-08
3.67857e-06
9.22374e-08
3.67279e-06
8.37917e-08
3.66528e-06
7.71218e-08
3.6577e-06
7.11326e-08
3.65054e-06
6.47914e-08
3.64386e-06
5.91182e-08
3.6376e-06
5.42889e-08
3.63167e-06
4.99951e-08
3.62606e-06
4.60692e-08
3.62076e-06
4.25127e-08
3.61581e-06
3.92778e-08
3.61122e-06
3.62122e-08
3.60701e-06
3.30963e-08
3.60314e-06
2.98191e-08
3.5998e-06
2.58929e-08
3.59579e-06
2.16258e-08
1.5061e-08
3.58836e-06
3.93547e-06
5.62413e-08
3.94302e-06
8.46797e-08
3.94511e-06
8.17005e-08
3.94514e-06
7.71005e-08
3.94396e-06
7.2306e-08
3.94196e-06
6.67962e-08
3.93948e-06
6.15945e-08
3.93678e-06
5.69896e-08
3.93399e-06
5.27841e-08
3.93119e-06
4.88654e-08
3.92847e-06
4.52345e-08
3.9259e-06
4.185e-08
3.92353e-06
3.85849e-08
3.92138e-06
3.52443e-08
3.91947e-06
3.17258e-08
3.91775e-06
2.76211e-08
3.91647e-06
2.28997e-08
1.54394e-08
3.91609e-06
4.2181e-06
4.52658e-08
4.22759e-06
7.51965e-08
4.23152e-06
7.7762e-08
4.23289e-06
7.5735e-08
4.23308e-06
7.21172e-08
4.23261e-06
6.72666e-08
4.23182e-06
6.23799e-08
4.23092e-06
5.78942e-08
4.22997e-06
5.37306e-08
4.22902e-06
4.98218e-08
4.22809e-06
4.61626e-08
4.22723e-06
4.27039e-08
4.22648e-06
3.93402e-08
4.22583e-06
3.5896e-08
4.22522e-06
3.23272e-08
4.2246e-06
2.82493e-08
4.22321e-06
2.42834e-08
1.94898e-08
4.21916e-06
4.5171e-06
3.72577e-08
4.52582e-06
6.64687e-08
4.53155e-06
7.20306e-08
4.5356e-06
7.16859e-08
4.53865e-06
6.90731e-08
4.54087e-06
6.50411e-08
4.5425e-06
6.07483e-08
4.54375e-06
5.66521e-08
4.54472e-06
5.27532e-08
4.54552e-06
4.90269e-08
4.54621e-06
4.54746e-08
4.54685e-06
4.20574e-08
4.5475e-06
3.86932e-08
4.54815e-06
3.52484e-08
4.54881e-06
3.16643e-08
4.54935e-06
2.77121e-08
4.55021e-06
2.34208e-08
1.82279e-08
4.55147e-06
4.83986e-06
3.01176e-08
4.84839e-06
5.79363e-08
4.85441e-06
6.60158e-08
4.85857e-06
6.75229e-08
4.86159e-06
6.60552e-08
4.86379e-06
6.28353e-08
4.86548e-06
5.90573e-08
4.86688e-06
5.52524e-08
4.86811e-06
5.15273e-08
4.86922e-06
4.79131e-08
4.87027e-06
4.44281e-08
4.87128e-06
4.10444e-08
4.87227e-06
3.77048e-08
4.87322e-06
3.43044e-08
4.87404e-06
3.08395e-08
4.8746e-06
2.71535e-08
4.87434e-06
2.36812e-08
2.0067e-08
4.8725e-06
5.18533e-06
2.43639e-08
5.19298e-06
5.02955e-08
5.19935e-06
5.96428e-08
5.20462e-06
6.22553e-08
5.2091e-06
6.15727e-08
5.21291e-06
5.9028e-08
5.21619e-06
5.5772e-08
5.2191e-06
5.23395e-08
5.22174e-06
4.88907e-08
5.22417e-06
4.5488e-08
5.22643e-06
4.21597e-08
5.22859e-06
3.88906e-08
5.23065e-06
3.56411e-08
5.23261e-06
3.23423e-08
5.23448e-06
2.89699e-08
5.23619e-06
2.54453e-08
5.23812e-06
2.17557e-08
1.79288e-08
5.24026e-06
5.55573e-06
1.99739e-08
5.56255e-06
4.34695e-08
5.5688e-06
5.33956e-08
5.57404e-06
5.70178e-08
5.57841e-06
5.72031e-08
5.58204e-06
5.53913e-08
5.58514e-06
5.26783e-08
5.58786e-06
4.96158e-08
5.59033e-06
4.64265e-08
5.5926e-06
4.32148e-08
5.59473e-06
4.00321e-08
5.59674e-06
3.68822e-08
5.59862e-06
3.3752e-08
5.60037e-06
3.05989e-08
5.60189e-06
2.74516e-08
5.60306e-06
2.42702e-08
5.60348e-06
2.13336e-08
1.84278e-08
5.60298e-06
5.95382e-06
1.59319e-08
5.9602e-06
3.7084e-08
5.96646e-06
4.71431e-08
5.97217e-06
5.12998e-08
5.97736e-06
5.20179e-08
5.98202e-06
5.07286e-08
5.98624e-06
4.84553e-08
5.99012e-06
4.5737e-08
5.99373e-06
4.28231e-08
5.9971e-06
3.98385e-08
6.00029e-06
3.6845e-08
6.00331e-06
3.38597e-08
6.00618e-06
3.08803e-08
6.0089e-06
2.78872e-08
6.01147e-06
2.48809e-08
6.01388e-06
2.18524e-08
6.01642e-06
1.87936e-08
1.59032e-08
6.01895e-06
6.37948e-06
1.32615e-08
6.3848e-06
3.17651e-08
6.39064e-06
4.13041e-08
6.3962e-06
4.57442e-08
6.40126e-06
4.69578e-08
6.40577e-06
4.62106e-08
6.40982e-06
4.44112e-08
6.41348e-06
4.2072e-08
6.41684e-06
3.94623e-08
6.41995e-06
3.67281e-08
6.42285e-06
3.39493e-08
6.42555e-06
3.11598e-08
6.42805e-06
2.83794e-08
6.43033e-06
2.56072e-08
6.43233e-06
2.28843e-08
6.43397e-06
2.0211e-08
6.43501e-06
1.77494e-08
1.54059e-08
6.43551e-06
5.74324e-06
1.0855e-08
5.7477e-06
2.73081e-08
5.75264e-06
3.63603e-08
5.75752e-06
4.08645e-08
5.76217e-06
4.23044e-08
5.76652e-06
4.18657e-08
5.77056e-06
4.03666e-08
5.77434e-06
3.82926e-08
5.77789e-06
3.59153e-08
5.78123e-06
3.33875e-08
5.78439e-06
3.0795e-08
5.78736e-06
2.81806e-08
5.79018e-06
2.55679e-08
5.79282e-06
2.29683e-08
5.7953e-06
2.03986e-08
5.79763e-06
1.78818e-08
5.79996e-06
1.54149e-08
1.31982e-08
5.80217e-06
6.99986e-06
9.14872e-09
7.00401e-06
2.31603e-08
7.00916e-06
3.12066e-08
7.01452e-06
3.55033e-08
7.01973e-06
3.70994e-08
7.02462e-06
3.69799e-08
7.02915e-06
3.58307e-08
7.03336e-06
3.40858e-08
7.03727e-06
3.20068e-08
7.0409e-06
2.97491e-08
7.04429e-06
2.7406e-08
7.04744e-06
2.50305e-08
7.05035e-06
2.2659e-08
7.05301e-06
2.03139e-08
7.05538e-06
1.80301e-08
7.05743e-06
1.58279e-08
7.05908e-06
1.37637e-08
1.17413e-08
7.06054e-06
8.53319e-06
6.80495e-09
8.53809e-06
1.82607e-08
8.54402e-06
2.52741e-08
8.55031e-06
2.92171e-08
8.55659e-06
3.08192e-08
8.56268e-06
3.08902e-08
8.5685e-06
3.00056e-08
8.57404e-06
2.85455e-08
8.5793e-06
2.67515e-08
8.58428e-06
2.47724e-08
8.58898e-06
2.26997e-08
8.59342e-06
2.0589e-08
8.59761e-06
1.84764e-08
8.60153e-06
1.63878e-08
8.60522e-06
1.43463e-08
8.60866e-06
1.23823e-08
8.61191e-06
1.05114e-08
8.89828e-09
8.61476e-06
1.04007e-05
5.34572e-09
1.04049e-05
1.40069e-08
1.04108e-05
1.9422e-08
1.04174e-05
2.25762e-08
1.04243e-05
2.39529e-08
1.04311e-05
2.41115e-08
1.04376e-05
2.34733e-08
1.04438e-05
2.233e-08
1.04497e-05
2.08791e-08
1.04552e-05
1.92496e-08
1.04604e-05
1.75252e-08
1.04652e-05
1.57613e-08
1.04697e-05
1.39949e-08
1.04738e-05
1.22544e-08
1.04776e-05
1.05558e-08
1.04811e-05
8.92099e-09
1.04843e-05
7.34076e-09
5.80156e-09
1.04873e-05
1.26789e-05
3.23446e-09
1.26839e-05
8.95902e-09
1.26906e-05
1.27329e-08
1.26982e-05
1.50008e-08
1.27061e-05
1.6023e-08
1.27141e-05
1.61546e-08
1.27219e-05
1.56861e-08
1.27294e-05
1.48264e-08
1.27365e-05
1.37236e-08
1.27433e-05
1.24778e-08
1.27497e-05
1.11566e-08
1.27556e-05
9.80577e-09
1.27612e-05
8.4594e-09
1.27663e-05
7.14182e-09
1.2771e-05
5.88098e-09
1.27752e-05
4.69517e-09
1.27789e-05
3.60962e-09
2.66264e-09
1.27821e-05
1.5455e-05
1.45186e-09
1.54599e-05
3.99858e-09
1.54671e-05
5.59611e-09
1.54756e-05
6.46739e-09
1.54849e-05
6.7292e-09
1.54945e-05
6.54408e-09
1.55041e-05
6.0512e-09
1.55136e-05
5.35163e-09
1.55228e-05
4.52053e-09
1.55317e-05
3.61221e-09
1.55402e-05
2.66396e-09
1.55483e-05
1.70483e-09
1.5556e-05
7.51212e-10
1.55633e-05
-1.75929e-10
1.55703e-05
-1.07828e-09
1.55769e-05
-1.92674e-09
1.55832e-05
-2.7527e-09
-3.43665e-09
1.55893e-05
1.88392e-05
-7.7145e-11
1.88439e-05
-7.82968e-10
1.8851e-05
-1.4447e-09
1.88594e-05
-1.95146e-09
1.88685e-05
-2.35134e-09
1.88777e-05
-2.6814e-09
1.88867e-05
-2.96967e-09
1.88953e-05
-3.23615e-09
1.89033e-05
-3.4912e-09
1.89107e-05
-3.73986e-09
1.89173e-05
-3.98349e-09
1.89233e-05
-4.22292e-09
1.89285e-05
-4.45669e-09
1.8933e-05
-4.68704e-09
1.89368e-05
-4.91415e-09
1.894e-05
-5.1415e-09
1.89427e-05
-5.38792e-09
-5.71805e-09
1.89449e-05
2.29673e-05
-4.00966e-09
2.29763e-05
-9.78943e-09
2.29886e-05
-1.37364e-08
2.3003e-05
-1.64285e-08
2.30189e-05
-1.82264e-08
2.30356e-05
-1.93801e-08
2.30527e-05
-2.00904e-08
2.307e-05
-2.05044e-08
2.30872e-05
-2.07205e-08
2.31043e-05
-2.08015e-08
2.31211e-05
-2.07854e-08
2.31376e-05
-2.06901e-08
2.31536e-05
-2.05204e-08
2.31692e-05
-2.02658e-08
2.31842e-05
-1.99118e-08
2.31985e-05
-1.94232e-08
2.32119e-05
-1.87943e-08
-1.76678e-08
2.32238e-05
1.68112e-05
-4.54631e-09
1.68147e-05
-1.32955e-08
1.68203e-05
-1.92755e-08
1.68268e-05
-2.29771e-08
1.68336e-05
-2.50068e-08
1.68401e-05
-2.58858e-08
1.68461e-05
-2.60312e-08
1.68513e-05
-2.573e-08
1.68557e-05
-2.51631e-08
1.68594e-05
-2.4441e-08
1.68622e-05
-2.36282e-08
1.68643e-05
-2.27633e-08
1.68656e-05
-2.18649e-08
1.68663e-05
-2.0954e-08
1.68664e-05
-2.00364e-08
1.68662e-05
-1.91601e-08
1.68657e-05
-1.83233e-08
-1.79959e-08
1.6866e-05
1.46387e-05
-8.65185e-09
1.46468e-05
-2.14199e-08
1.46568e-05
-2.92535e-08
1.46677e-05
-3.38529e-08
1.46789e-05
-3.62963e-08
1.46903e-05
-3.72703e-08
1.47016e-05
-3.73186e-08
1.47127e-05
-3.68206e-08
1.47236e-05
-3.60109e-08
1.47341e-05
-3.5035e-08
1.47445e-05
-3.39871e-08
1.47547e-05
-3.2926e-08
1.47647e-05
-3.1893e-08
1.47746e-05
-3.09063e-08
1.47846e-05
-2.99912e-08
1.47946e-05
-2.91139e-08
1.48045e-05
-2.83088e-08
-2.69368e-08
1.48135e-05
1.27416e-05
-1.01262e-08
1.27468e-05
-2.65668e-08
1.27534e-05
-3.58679e-08
1.27601e-05
-4.05702e-08
1.27662e-05
-4.24595e-08
1.27716e-05
-4.26105e-08
1.27761e-05
-4.17954e-08
1.27797e-05
-4.04995e-08
1.27827e-05
-3.89756e-08
1.2785e-05
-3.73535e-08
1.27867e-05
-3.57011e-08
1.27879e-05
-3.40507e-08
1.27884e-05
-3.24027e-08
1.27882e-05
-3.07503e-08
1.27873e-05
-2.90466e-08
1.27855e-05
-2.72952e-08
1.27825e-05
-2.53823e-08
-2.40329e-08
1.27796e-05
1.10965e-05
-1.57463e-08
1.11062e-05
-3.62221e-08
1.11165e-05
-4.62089e-08
1.11267e-05
-5.0756e-08
1.11366e-05
-5.2304e-08
1.11459e-05
-5.19629e-08
1.11547e-05
-5.05993e-08
1.1163e-05
-4.87794e-08
1.11708e-05
-4.67763e-08
1.11782e-05
-4.47265e-08
1.11852e-05
-4.27143e-08
1.11919e-05
-4.07906e-08
1.11985e-05
-3.89948e-08
1.12051e-05
-3.73567e-08
1.1212e-05
-3.59519e-08
1.12196e-05
-3.48183e-08
1.12284e-05
-3.41959e-08
-3.33199e-08
1.12377e-05
9.65974e-06
-2.02687e-08
9.66816e-06
-4.46477e-08
9.67607e-06
-5.41137e-08
9.68241e-06
-5.7095e-08
9.68727e-06
-5.7164e-08
9.69087e-06
-5.55685e-08
9.69352e-06
-5.32512e-08
9.69551e-06
-5.07675e-08
9.69703e-06
-4.82942e-08
9.69818e-06
-4.58815e-08
9.69903e-06
-4.356e-08
9.69958e-06
-4.13446e-08
9.69981e-06
-3.92229e-08
9.69963e-06
-3.71736e-08
9.69878e-06
-3.50982e-08
9.69686e-06
-3.29068e-08
9.69281e-06
-3.01368e-08
-2.72857e-08
9.68677e-06
8.41352e-06
-2.84341e-08
8.42509e-06
-5.62169e-08
8.43526e-06
-6.42863e-08
8.44402e-06
-6.58595e-08
8.45174e-06
-6.48754e-08
8.45839e-06
-6.22262e-08
8.4641e-06
-5.89579e-08
8.46904e-06
-5.57056e-08
8.47336e-06
-5.26122e-08
8.47717e-06
-4.96919e-08
8.48057e-06
-4.69613e-08
8.48365e-06
-4.44263e-08
8.48651e-06
-4.20862e-08
8.48928e-06
-3.99379e-08
8.49223e-06
-3.80476e-08
8.49581e-06
-3.64918e-08
8.50153e-06
-3.58582e-08
-3.58977e-08
8.51014e-06
7.32785e-06
-3.90025e-08
7.33967e-06
-6.80342e-08
7.34638e-06
-7.09965e-08
7.34965e-06
-6.91287e-08
7.35108e-06
-6.63036e-08
7.3514e-06
-6.25514e-08
7.35114e-06
-5.86976e-08
7.35063e-06
-5.5193e-08
7.35e-06
-5.19824e-08
7.34929e-06
-4.89808e-08
7.3485e-06
-4.61754e-08
7.34764e-06
-4.35661e-08
7.34669e-06
-4.11361e-08
7.34563e-06
-3.88787e-08
7.3443e-06
-3.67178e-08
7.34241e-06
-3.45962e-08
7.33829e-06
-3.17426e-08
-2.7642e-08
7.33004e-06
6.38127e-06
-5.02039e-08
6.39311e-06
-7.98804e-08
6.39988e-06
-7.77625e-08
6.40407e-06
-7.33181e-08
6.4065e-06
-6.87366e-08
6.40744e-06
-6.34869e-08
6.40734e-06
-5.85992e-08
6.40658e-06
-5.44342e-08
6.4054e-06
-5.08029e-08
6.40395e-06
-4.75289e-08
6.40232e-06
-4.45495e-08
6.40059e-06
-4.18332e-08
6.3988e-06
-3.935e-08
6.39699e-06
-3.70684e-08
6.39529e-06
-3.50117e-08
6.39385e-06
-3.31633e-08
6.39438e-06
-3.22705e-08
-3.29174e-08
6.39966e-06
5.563e-06
-6.77375e-08
5.56909e-06
-8.59698e-08
5.56468e-06
-7.33537e-08
5.55724e-06
-6.58814e-08
5.54946e-06
-6.09515e-08
5.54203e-06
-5.60616e-08
5.53517e-06
-5.17387e-08
5.52882e-06
-4.80879e-08
5.52287e-06
-4.48437e-08
5.51721e-06
-4.18739e-08
5.5118e-06
-3.91432e-08
5.50661e-06
-3.66382e-08
5.5016e-06
-3.43364e-08
5.49676e-06
-3.2236e-08
5.49206e-06
-3.03046e-08
5.4875e-06
-2.86043e-08
5.48163e-06
-2.64016e-08
-2.22333e-08
5.47094e-06
4.85296e-06
-9.30943e-08
4.85866e-06
-9.16695e-08
4.84879e-06
-6.34818e-08
4.83769e-06
-5.47841e-08
4.82549e-06
-4.87419e-08
4.81328e-06
-4.38563e-08
4.80156e-06
-4.00201e-08
4.7904e-06
-3.69277e-08
4.77979e-06
-3.42307e-08
4.76967e-06
-3.1757e-08
4.76e-06
-2.94738e-08
4.75074e-06
-2.73746e-08
4.74186e-06
-2.54539e-08
4.73332e-06
-2.37037e-08
4.72518e-06
-2.21582e-08
4.71739e-06
-2.08203e-08
4.71154e-06
-2.05498e-08
-2.17475e-08
4.71106e-06
4.10958e-06
4.01791e-06
3.95443e-06
3.89965e-06
3.8509e-06
3.80705e-06
3.76703e-06
3.7301e-06
3.69587e-06
3.66411e-06
3.63464e-06
3.60726e-06
3.58181e-06
3.55811e-06
3.53595e-06
3.51513e-06
3.49458e-06
3.47283e-06
5.87877e-08
-5.87853e-08
1.39994e-07
-8.12091e-08
2.32776e-07
-9.27824e-08
3.13388e-07
-8.06181e-08
3.86429e-07
-7.30405e-08
4.50188e-07
-6.37631e-08
5.08045e-07
-5.78553e-08
5.6012e-07
-5.20774e-08
6.08004e-07
-4.78802e-08
6.51883e-07
-4.38796e-08
6.9236e-07
-4.04738e-08
7.29569e-07
-3.72069e-08
7.63827e-07
-3.42546e-08
7.95283e-07
-3.14539e-08
8.24111e-07
-2.88247e-08
8.50338e-07
-2.62243e-08
8.73899e-07
-2.35582e-08
8.94589e-07
-2.06875e-08
9.12085e-07
-1.74929e-08
9.25927e-07
-1.38408e-08
9.35605e-07
-9.67409e-09
9.40394e-07
-4.78931e-09
9.39203e-07
1.19423e-09
9.30905e-07
8.29719e-09
9.14532e-07
1.63766e-08
8.88897e-07
2.56367e-08
8.52886e-07
3.6016e-08
8.0572e-07
4.71745e-08
7.47532e-07
5.81943e-08
6.79782e-07
6.7768e-08
6.05052e-07
7.47376e-08
5.2641e-07
7.86602e-08
4.47085e-07
7.93318e-08
3.711e-07
7.59855e-08
3.03304e-07
6.7798e-08
2.48512e-07
5.47676e-08
2.09848e-07
3.86631e-08
1.84581e-07
2.5254e-08
1.63111e-07
2.14749e-08
1.34083e-07
2.90679e-08
8.80058e-08
4.60884e-08
2.20888e-08
6.59919e-08
-5.77882e-08
7.98795e-08
-1.45979e-07
8.82383e-08
-2.41046e-07
9.50517e-08
-3.4121e-07
1.00176e-07
-4.44213e-07
1.02983e-07
-5.4774e-07
1.03519e-07
-6.50063e-07
1.02307e-07
-7.50105e-07
1.00028e-07
-8.46998e-07
9.68814e-08
-9.39887e-07
9.28742e-08
-1.02812e-06
8.82273e-08
-1.11135e-06
8.32191e-08
-1.18942e-06
7.80695e-08
-1.26241e-06
7.29803e-08
-1.33053e-06
6.81182e-08
-1.39413e-06
6.3594e-08
-1.4536e-06
5.94742e-08
-1.50938e-06
5.57826e-08
-1.5619e-06
5.25164e-08
-1.61155e-06
4.96502e-08
-1.65869e-06
4.71487e-08
-1.70366e-06
4.49683e-08
-1.74672e-06
4.30656e-08
-1.78812e-06
4.13963e-08
-1.82804e-06
3.99207e-08
-1.86664e-06
3.86016e-08
-1.90404e-06
3.7407e-08
-1.94035e-06
3.6308e-08
-1.97563e-06
3.5281e-08
-2.00994e-06
3.43048e-08
-2.0433e-06
3.33627e-08
-2.07574e-06
3.24398e-08
-2.10726e-06
3.15249e-08
-2.13787e-06
3.06076e-08
-2.16754e-06
2.96806e-08
-2.19628e-06
2.87367e-08
-2.22405e-06
2.77709e-08
-2.25082e-06
2.67783e-08
-2.27658e-06
2.57551e-08
-2.30127e-06
2.46977e-08
-2.32487e-06
2.36028e-08
-2.34734e-06
2.24674e-08
-2.36862e-06
2.12881e-08
-2.38868e-06
2.00618e-08
-2.40746e-06
1.87844e-08
-2.42491e-06
1.7452e-08
-2.44097e-06
1.60594e-08
-2.45557e-06
1.46013e-08
-2.46864e-06
1.30708e-08
-2.4801e-06
1.14618e-08
-2.48986e-06
9.76818e-09
-2.49785e-06
7.9872e-09
-2.50397e-06
6.12095e-09
-2.50814e-06
4.17869e-09
-2.51032e-06
2.18281e-09
-2.51057e-06
2.4646e-10
-2.50925e-06
-1.31911e-09
-2.50675e-06
-2.49649e-09
-2.50315e-06
-3.59887e-09
-2.49843e-06
-4.71529e-09
-2.49256e-06
-5.87609e-09
-2.48554e-06
-7.01932e-09
-2.47742e-06
-8.12118e-09
-2.46819e-06
-9.22754e-09
-2.45784e-06
-1.03496e-08
-2.44635e-06
-1.1496e-08
-2.43368e-06
-1.26717e-08
-2.4198e-06
-1.38813e-08
-2.40467e-06
-1.51274e-08
-2.38827e-06
-1.64092e-08
-2.37055e-06
-1.77193e-08
-2.3515e-06
-1.90505e-08
-2.33111e-06
-2.03927e-08
-2.30938e-06
-2.17321e-08
-2.28634e-06
-2.30444e-08
-2.26205e-06
-2.42922e-08
-2.2366e-06
-2.54476e-08
-2.21005e-06
-2.65522e-08
-2.18237e-06
-2.76834e-08
-2.15352e-06
-2.88573e-08
-2.12349e-06
-3.00323e-08
-2.09228e-06
-3.12207e-08
-2.05988e-06
-3.23997e-08
-2.0263e-06
-3.35852e-08
-1.99151e-06
-3.47952e-08
-1.95549e-06
-3.60335e-08
-1.91822e-06
-3.72743e-08
-1.87971e-06
-3.85119e-08
-1.83995e-06
-3.9761e-08
-1.79894e-06
-4.10164e-08
-1.75667e-06
-4.22704e-08
-1.71312e-06
-4.35498e-08
-1.66823e-06
-4.48814e-08
-1.62201e-06
-4.62129e-08
-1.57438e-06
-4.76081e-08
-1.52534e-06
-4.90125e-08
-1.47482e-06
-5.04818e-08
-1.42279e-06
-5.19827e-08
-1.36917e-06
-5.35737e-08
-1.3139e-06
-5.52091e-08
-1.25684e-06
-5.70081e-08
-1.19785e-06
-5.89395e-08
-1.13686e-06
-6.09369e-08
-1.0738e-06
-6.30094e-08
-1.00867e-06
-6.5087e-08
-9.41492e-07
-6.71318e-08
-8.72131e-07
-6.9321e-08
-8.00543e-07
-7.1553e-08
-7.26667e-07
-7.38468e-08
-6.50455e-07
-7.61884e-08
-5.71918e-07
-7.85224e-08
-4.91047e-07
-8.08635e-08
-4.07898e-07
-8.31484e-08
-3.22482e-07
-8.54233e-08
-2.34894e-07
-8.76038e-08
-1.45236e-07
-8.96785e-08
-5.37219e-08
-9.15452e-08
4.0182e-08
-9.39346e-08
1.37814e-07
-9.76703e-08
2.38415e-07
-1.00639e-07
3.39716e-07
-1.01351e-07
4.40429e-07
-1.00766e-07
5.40417e-07
-1.00055e-07
6.39756e-07
-9.94106e-08
7.38442e-07
-9.877e-08
8.36367e-07
-9.80143e-08
9.3341e-07
-9.71432e-08
1.02933e-06
-9.60241e-08
1.12395e-06
-9.47364e-08
1.21684e-06
-9.30097e-08
1.30783e-06
-9.11039e-08
1.39601e-06
-8.8313e-08
1.48126e-06
-8.53691e-08
1.56154e-06
-8.04083e-08
1.63601e-06
-7.45834e-08
1.69963e-06
-6.37354e-08
1.73687e-06
-3.73519e-08
1.49228e-08
1.72186e-06
9.20519e-08
-1.50834e-07
1.45529e-07
-1.34686e-07
1.88491e-07
-1.35744e-07
2.19632e-07
-1.1176e-07
2.546e-07
-1.08008e-07
2.8751e-07
-9.66746e-08
3.22913e-07
-9.32576e-08
3.57291e-07
-8.64559e-08
3.91748e-07
-8.23359e-08
4.24403e-07
-7.65352e-08
4.55428e-07
-7.14973e-08
4.84094e-07
-6.58717e-08
5.10685e-07
-6.08439e-08
5.35139e-07
-5.59068e-08
5.57709e-07
-5.13929e-08
5.78363e-07
-4.68769e-08
5.97067e-07
-4.22608e-08
6.13604e-07
-3.72235e-08
6.27814e-07
-3.1702e-08
6.39556e-07
-2.5581e-08
6.49036e-07
-1.91534e-08
6.56932e-07
-1.26835e-08
6.64247e-07
-6.12033e-09
6.71509e-07
1.03492e-09
6.7764e-07
1.02474e-08
6.80358e-07
2.29191e-08
6.76115e-07
4.02605e-08
6.60898e-07
6.23939e-08
6.31544e-07
8.75516e-08
5.86899e-07
1.12418e-07
5.28371e-07
1.3327e-07
4.59257e-07
1.47778e-07
3.83506e-07
1.55086e-07
3.0493e-07
1.54562e-07
2.26328e-07
1.46399e-07
1.47797e-07
1.33295e-07
6.58227e-08
1.20635e-07
-2.48547e-08
1.15931e-07
-1.26639e-07
1.23261e-07
-2.37061e-07
1.39496e-07
-3.50796e-07
1.59829e-07
-4.64423e-07
1.79626e-07
-5.79582e-07
1.95043e-07
-6.96452e-07
2.05113e-07
-8.11567e-07
2.10166e-07
-9.21691e-07
2.103e-07
-1.02459e-06
2.05879e-07
-1.11869e-06
1.97618e-07
-1.20295e-06
1.86557e-07
-1.2767e-06
1.73776e-07
-1.33989e-06
1.60071e-07
-1.39313e-06
1.46113e-07
-1.43743e-06
1.32516e-07
-1.47394e-06
1.19731e-07
-1.50391e-06
1.08033e-07
-1.52849e-06
9.75644e-08
-1.54874e-06
8.83609e-08
-1.56552e-06
8.038e-08
-1.57958e-06
7.35287e-08
-1.59148e-06
6.76844e-08
-1.60168e-06
6.27134e-08
-1.61051e-06
5.84819e-08
-1.61822e-06
5.48648e-08
-1.625e-06
5.17491e-08
-1.63097e-06
4.90366e-08
-1.63622e-06
4.66436e-08
-1.6408e-06
4.45007e-08
-1.64475e-06
4.25508e-08
-1.64809e-06
4.0748e-08
-1.65083e-06
3.90556e-08
-1.653e-06
3.74454e-08
-1.65459e-06
3.58949e-08
-1.65561e-06
3.4388e-08
-1.65608e-06
3.29121e-08
-1.65602e-06
3.14588e-08
-1.65543e-06
3.0022e-08
-1.65435e-06
2.85986e-08
-1.6528e-06
2.71863e-08
-1.65081e-06
2.5785e-08
-1.64843e-06
2.43954e-08
-1.64569e-06
2.30192e-08
-1.64265e-06
2.16588e-08
-1.63936e-06
2.03177e-08
-1.63589e-06
1.89999e-08
-1.63231e-06
1.77104e-08
-1.6287e-06
1.64547e-08
-1.62516e-06
1.52394e-08
-1.62177e-06
1.40711e-08
-1.61867e-06
1.29573e-08
-1.61597e-06
1.19046e-08
-1.61382e-06
1.09191e-08
-1.61236e-06
1.00044e-08
-1.61175e-06
9.16072e-09
-1.61215e-06
8.38173e-09
-1.61368e-06
7.65116e-09
-1.61644e-06
6.94576e-09
-1.6205e-06
6.24031e-09
-1.62573e-06
5.4779e-09
-1.63154e-06
4.48875e-09
-1.63734e-06
3.309e-09
-1.64295e-06
2.00267e-09
-1.64824e-06
5.74706e-10
-1.65306e-06
-1.05159e-09
-1.6571e-06
-2.97678e-09
-1.66012e-06
-5.10022e-09
-1.66203e-06
-7.32802e-09
-1.66275e-06
-9.62914e-09
-1.66227e-06
-1.19778e-08
-1.66058e-06
-1.43633e-08
-1.65768e-06
-1.67802e-08
-1.65358e-06
-1.92241e-08
-1.64831e-06
-2.16848e-08
-1.64188e-06
-2.41496e-08
-1.63433e-06
-2.66031e-08
-1.6257e-06
-2.90274e-08
-1.61603e-06
-3.14033e-08
-1.60536e-06
-3.37104e-08
-1.59372e-06
-3.59325e-08
-1.58109e-06
-3.80877e-08
-1.56737e-06
-4.02679e-08
-1.5525e-06
-4.25607e-08
-1.53643e-06
-4.49347e-08
-1.51914e-06
-4.73283e-08
-1.50062e-06
-4.974e-08
-1.48088e-06
-5.2146e-08
-1.4599e-06
-5.45692e-08
-1.43767e-06
-5.7037e-08
-1.41419e-06
-5.95164e-08
-1.3895e-06
-6.19704e-08
-1.3636e-06
-6.44131e-08
-1.3365e-06
-6.68711e-08
-1.30817e-06
-6.9341e-08
-1.27862e-06
-7.18269e-08
-1.24779e-06
-7.43883e-08
-1.21567e-06
-7.69943e-08
-1.18224e-06
-7.96398e-08
-1.14746e-06
-8.23833e-08
-1.11131e-06
-8.5156e-08
-1.07372e-06
-8.80562e-08
-1.03467e-06
-9.10174e-08
-9.9408e-07
-9.41381e-08
-9.51898e-07
-9.73702e-08
-9.07992e-07
-1.00894e-07
-8.62309e-07
-1.04603e-07
-8.14679e-07
-1.08549e-07
-7.65024e-07
-1.12647e-07
-7.13304e-07
-1.1679e-07
-6.5936e-07
-1.21062e-07
-6.03159e-07
-1.25508e-07
-5.44556e-07
-1.30146e-07
-4.83328e-07
-1.35066e-07
-4.19587e-07
-1.39924e-07
-3.53267e-07
-1.44839e-07
-2.84348e-07
-1.49782e-07
-2.1271e-07
-1.54787e-07
-1.38274e-07
-1.59864e-07
-6.09109e-08
-1.64972e-07
1.94756e-08
-1.70074e-07
1.0284e-07
-1.74921e-07
1.88461e-07
-1.7957e-07
2.74776e-07
-1.84002e-07
3.61927e-07
-1.87808e-07
4.5152e-07
-1.90964e-07
5.43668e-07
-1.92937e-07
6.37313e-07
-1.93727e-07
7.31683e-07
-1.93811e-07
8.26278e-07
-1.93399e-07
9.20766e-07
-1.92541e-07
1.01489e-06
-1.91307e-07
1.10836e-06
-1.89544e-07
1.2009e-06
-1.87327e-07
1.29211e-06
-1.84277e-07
1.3816e-06
-1.8065e-07
1.46873e-06
-1.75498e-07
1.55287e-06
-1.69569e-07
1.63283e-06
-1.60427e-07
1.70745e-06
-1.49261e-07
1.77414e-06
-1.30477e-07
1.83335e-06
-9.66122e-08
-4.11656e-08
1.88939e-06
4.36368e-08
-1.94468e-07
5.94838e-08
-1.50531e-07
7.86487e-08
-1.54909e-07
9.67901e-08
-1.29902e-07
1.20429e-07
-1.31647e-07
1.46839e-07
-1.23086e-07
1.7817e-07
-1.24587e-07
2.11234e-07
-1.1952e-07
2.4594e-07
-1.17041e-07
2.79147e-07
-1.09741e-07
3.1048e-07
-1.0283e-07
3.38966e-07
-9.43567e-08
3.65146e-07
-8.70222e-08
3.89075e-07
-7.98351e-08
4.11177e-07
-7.34936e-08
4.31232e-07
-6.69316e-08
4.48848e-07
-5.9876e-08
4.6322e-07
-5.15941e-08
4.73442e-07
-4.19238e-08
4.78253e-07
-3.03909e-08
4.76375e-07
-1.72742e-08
4.67929e-07
-4.23692e-09
4.54475e-07
7.33341e-09
4.37955e-07
1.7555e-08
4.19632e-07
2.85706e-08
3.99235e-07
4.33157e-08
3.74846e-07
6.46504e-08
3.43868e-07
9.33733e-08
3.04372e-07
1.27049e-07
2.55919e-07
1.60873e-07
1.99526e-07
1.89664e-07
1.37026e-07
2.1028e-07
7.01923e-08
2.2192e-07
-4.12103e-10
2.25167e-07
-7.66396e-08
2.22627e-07
-1.62957e-07
2.19612e-07
-2.63537e-07
2.21215e-07
-3.77201e-07
2.29595e-07
-4.97323e-07
2.43384e-07
-6.17224e-07
2.594e-07
-7.32e-07
2.74608e-07
-8.38587e-07
2.86217e-07
-9.35705e-07
2.92162e-07
-1.02246e-06
2.91869e-07
-1.09801e-06
2.85713e-07
-1.16217e-06
2.74463e-07
-1.21553e-06
2.59236e-07
-1.2593e-06
2.41386e-07
-1.29494e-06
2.22196e-07
-1.32387e-06
2.02712e-07
-1.34762e-06
1.83813e-07
-1.36765e-06
1.66146e-07
-1.38526e-06
1.50117e-07
-1.40144e-06
1.35916e-07
-1.41698e-06
1.23567e-07
-1.4324e-06
1.12981e-07
-1.44804e-06
1.04006e-07
-1.46412e-06
9.64543e-08
-1.48072e-06
9.01331e-08
-1.49789e-06
8.48532e-08
-1.51562e-06
8.04409e-08
-1.53387e-06
7.67406e-08
-1.55263e-06
7.3617e-08
-1.57183e-06
7.09537e-08
-1.59144e-06
6.86527e-08
-1.61143e-06
6.66315e-08
-1.63175e-06
6.48223e-08
-1.65237e-06
6.3169e-08
-1.67325e-06
6.16256e-08
-1.69435e-06
6.01548e-08
-1.71563e-06
5.87265e-08
-1.73705e-06
5.73163e-08
-1.75857e-06
5.59052e-08
-1.78013e-06
5.44779e-08
-1.8017e-06
5.30229e-08
-1.8232e-06
5.15311e-08
-1.8446e-06
4.99965e-08
-1.86583e-06
4.84145e-08
-1.88683e-06
4.67827e-08
-1.90753e-06
4.51002e-08
-1.92788e-06
4.33675e-08
-1.9478e-06
4.15863e-08
-1.96725e-06
3.97598e-08
-1.98614e-06
3.78925e-08
-2.00442e-06
3.59903e-08
-2.02202e-06
3.40606e-08
-2.03889e-06
3.21122e-08
-2.05498e-06
3.01555e-08
-2.07022e-06
2.82015e-08
-2.08458e-06
2.62624e-08
-2.09801e-06
2.43494e-08
-2.11047e-06
2.24722e-08
-2.12195e-06
2.06363e-08
-2.13241e-06
1.88397e-08
-2.14182e-06
1.7067e-08
-2.15016e-06
1.52842e-08
-2.15736e-06
1.34349e-08
-2.1633e-06
1.14185e-08
-2.16792e-06
9.10647e-09
-2.17112e-06
6.51269e-09
-2.17281e-06
3.69499e-09
-2.17291e-06
6.72463e-10
-2.17149e-06
-2.47864e-09
-2.16877e-06
-5.69534e-09
-2.16493e-06
-8.94289e-09
-2.16e-06
-1.22562e-08
-2.154e-06
-1.56331e-08
-2.14691e-06
-1.90658e-08
-2.13873e-06
-2.25467e-08
-2.12944e-06
-2.60694e-08
-2.11904e-06
-2.96278e-08
-2.10751e-06
-3.32115e-08
-2.09486e-06
-3.68051e-08
-2.08107e-06
-4.03902e-08
-2.06615e-06
-4.39486e-08
-2.05009e-06
-4.74636e-08
-2.03288e-06
-5.09253e-08
-2.01448e-06
-5.43362e-08
-1.99484e-06
-5.77299e-08
-1.97393e-06
-6.11765e-08
-1.95178e-06
-6.47174e-08
-1.9284e-06
-6.83157e-08
-1.9038e-06
-7.19403e-08
-1.87795e-06
-7.55881e-08
-1.85086e-06
-7.92478e-08
-1.8225e-06
-8.29324e-08
-1.79289e-06
-8.66505e-08
-1.76203e-06
-9.03807e-08
-1.7299e-06
-9.41107e-08
-1.69646e-06
-9.78551e-08
-1.6617e-06
-1.01632e-07
-1.6256e-06
-1.05446e-07
-1.58812e-06
-1.0931e-07
-1.54926e-06
-1.13259e-07
-1.50898e-06
-1.17277e-07
-1.46723e-06
-1.21391e-07
-1.42399e-06
-1.25619e-07
-1.37919e-06
-1.29954e-07
-1.33279e-06
-1.34446e-07
-1.28471e-06
-1.39084e-07
-1.23492e-06
-1.43924e-07
-1.18329e-06
-1.48989e-07
-1.12978e-06
-1.5439e-07
-1.07429e-06
-1.6009e-07
-1.01671e-06
-1.66121e-07
-9.56971e-07
-1.72383e-07
-8.94932e-07
-1.78824e-07
-8.30454e-07
-1.85536e-07
-7.63452e-07
-1.92506e-07
-6.93818e-07
-1.99776e-07
-6.21579e-07
-2.07303e-07
-5.46721e-07
-2.14779e-07
-4.692e-07
-2.22358e-07
-3.88974e-07
-2.30005e-07
-3.0607e-07
-2.37688e-07
-2.20605e-07
-2.45325e-07
-1.3278e-07
-2.52793e-07
-4.2852e-08
-2.59997e-07
4.90084e-08
-2.6678e-07
1.42737e-07
-2.73297e-07
2.38202e-07
-2.79468e-07
3.35218e-07
-2.84825e-07
4.33362e-07
-2.89111e-07
5.32357e-07
-2.91932e-07
6.32066e-07
-2.93438e-07
7.3229e-07
-2.94035e-07
8.32768e-07
-2.93879e-07
9.33192e-07
-2.92964e-07
1.03323e-06
-2.91344e-07
1.13252e-06
-2.88839e-07
1.2307e-06
-2.85512e-07
1.32734e-06
-2.80915e-07
1.42194e-06
-2.75258e-07
1.51393e-06
-2.67489e-07
1.60253e-06
-2.58179e-07
1.68696e-06
-2.44867e-07
1.76576e-06
-2.28075e-07
1.83795e-06
-2.02675e-07
1.90324e-06
-1.61917e-07
-1.00228e-07
1.96228e-06
1.90303e-08
-2.13496e-07
2.08998e-08
-1.524e-07
2.80042e-08
-1.62012e-07
3.75623e-08
-1.3946e-07
4.47374e-08
-1.38821e-07
5.32497e-08
-1.31598e-07
6.25943e-08
-1.33931e-07
7.5849e-08
-1.32775e-07
9.08811e-08
-1.32072e-07
1.0746e-07
-1.2632e-07
1.23448e-07
-1.18817e-07
1.38275e-07
-1.09183e-07
1.51482e-07
-1.00228e-07
1.63368e-07
-9.17204e-08
1.73835e-07
-8.39593e-08
1.82871e-07
-7.59669e-08
1.90059e-07
-6.70633e-08
1.94939e-07
-5.6473e-08
1.96669e-07
-4.36538e-08
1.93997e-07
-2.77183e-08
1.84911e-07
-8.18684e-09
1.67665e-07
1.30089e-08
1.42215e-07
3.27842e-08
1.09389e-07
5.03804e-08
7.06265e-08
6.73329e-08
2.74743e-08
8.64673e-08
-1.84248e-08
1.10549e-07
-6.52237e-08
1.40172e-07
-1.11283e-07
1.73108e-07
-1.55941e-07
2.05532e-07
-2.00096e-07
2.3382e-07
-2.45806e-07
2.55991e-07
-2.95944e-07
2.72059e-07
-3.54409e-07
2.83632e-07
-4.25095e-07
2.93313e-07
-5.08901e-07
3.03416e-07
-6.02242e-07
3.14556e-07
-6.98537e-07
3.25889e-07
-7.91132e-07
3.3598e-07
-8.75139e-07
3.43408e-07
-9.47544e-07
3.47013e-07
-1.00719e-06
3.45865e-07
-1.05456e-06
3.39529e-07
-1.09101e-06
3.28324e-07
-1.11845e-06
3.13152e-07
-1.13911e-06
2.95125e-07
-1.15528e-06
2.75397e-07
-1.16897e-06
2.55081e-07
-1.18183e-06
2.35055e-07
-1.19506e-06
2.15936e-07
-1.20942e-06
1.98172e-07
-1.22529e-06
1.82013e-07
-1.24273e-06
1.6756e-07
-1.26162e-06
1.54804e-07
-1.28172e-06
1.43661e-07
-1.30275e-06
1.34011e-07
-1.32445e-06
1.25709e-07
-1.3466e-06
1.18603e-07
-1.369e-06
1.12541e-07
-1.39153e-06
1.07379e-07
-1.41407e-06
1.02981e-07
-1.43655e-06
9.92202e-08
-1.45892e-06
9.59838e-08
-1.48113e-06
9.31704e-08
-1.50317e-06
9.06909e-08
-1.52501e-06
8.84681e-08
-1.54662e-06
8.64357e-08
-1.56799e-06
8.45378e-08
-1.58909e-06
8.27279e-08
-1.6099e-06
8.09672e-08
-1.6304e-06
7.92245e-08
-1.65056e-06
7.74746e-08
-1.67035e-06
7.56978e-08
-1.68975e-06
7.38791e-08
-1.70874e-06
7.20076e-08
-1.72728e-06
7.00757e-08
-1.74536e-06
6.80785e-08
-1.76296e-06
6.60136e-08
-1.78006e-06
6.38808e-08
-1.79664e-06
6.16812e-08
-1.81269e-06
5.94179e-08
-1.8282e-06
5.70946e-08
-1.84315e-06
5.47163e-08
-1.85755e-06
5.22888e-08
-1.87138e-06
4.98185e-08
-1.88463e-06
4.73124e-08
-1.89729e-06
4.47781e-08
-1.90936e-06
4.22231e-08
-1.92081e-06
3.96553e-08
-1.93163e-06
3.70809e-08
-1.94179e-06
3.45054e-08
-1.95125e-06
3.19307e-08
-1.95996e-06
2.93553e-08
-1.9679e-06
2.67717e-08
-1.97499e-06
2.41655e-08
-1.98123e-06
2.15151e-08
-1.98658e-06
1.87924e-08
-1.99112e-06
1.59501e-08
-1.99494e-06
1.29266e-08
-1.99813e-06
9.70724e-09
-2.00074e-06
6.2958e-09
-2.00277e-06
2.70165e-09
-2.00416e-06
-1.08167e-09
-2.00482e-06
-5.04474e-09
-2.00452e-06
-9.24053e-09
-2.00318e-06
-1.35944e-08
-2.00075e-06
-1.80642e-08
-1.99719e-06
-2.2629e-08
-1.99247e-06
-2.72698e-08
-1.98657e-06
-3.19721e-08
-1.97947e-06
-3.67227e-08
-1.97118e-06