/*--------------------------------*- C++ -*----------------------------------*\
| =========                 |                                                 |
| \\      /  F ield         | OpenFOAM: The Open Source CFD Toolbox           |
|  \\    /   O peration     | Version:  v1906                                 |
|   \\  /    A nd           | Web:      www.OpenFOAM.com                      |
|    \\/     M anipulation  |                                                 |
\*---------------------------------------------------------------------------*/
FoamFile
{
    version     2.0;
    format      ascii;
    class       volSymmTensorField;
    location    "1200";
    object      R;
}
// * * * * * * * * * * * * * * * * * * * * * * * * * * * * * * * * * * * * * //

dimensions      [0 2 -2 0 0 0 0];


internalField   nonuniform List<symmTensor> 
12225
(
(1.62918 -0.333427 0 1.36079 0 1.52752)
(1.99604 -0.59771 0 0.915073 0 1.54224)
(2.14975 -0.586213 0 0.685671 0 1.48847)
(2.1628 -0.548288 0 0.594794 0 1.42582)
(2.13001 -0.521058 0 0.5498 0 1.37023)
(2.08411 -0.501325 0 0.521812 0 1.32323)
(2.03686 -0.48586 0 0.501252 0 1.28309)
(1.99276 -0.473126 0 0.484925 0 1.24868)
(1.95158 -0.462077 0 0.471126 0 1.21828)
(1.91564 -0.452683 0 0.459605 0 1.19216)
(1.88098 -0.443954 0 0.449211 0 1.16811)
(1.85361 -0.437349 0 0.440617 0 1.1481)
(1.83162 -0.432159 0 0.433648 0 1.13193)
(1.81425 -0.42789 0 0.427931 0 1.11849)
(1.79794 -0.423943 0 0.422779 0 1.10654)
(1.78651 -0.421485 0 0.419283 0 1.09749)
(1.77282 -0.417422 0 0.414356 0 1.08746)
(1.76738 -0.418245 0 0.413797 0 1.08271)
(1.52372 -0.0379489 0 1.4601 0 1.51677)
(1.5765 -0.140431 0 1.18694 0 1.51213)
(1.5867 -0.190035 0 0.92763 0 1.45696)
(1.57202 -0.209342 0 0.773778 0 1.39906)
(1.54343 -0.218154 0 0.6762 0 1.34284)
(1.51873 -0.225226 0 0.611065 0 1.29757)
(1.49703 -0.231415 0 0.564376 0 1.25992)
(1.47755 -0.236832 0 0.529006 0 1.22736)
(1.46099 -0.241808 0 0.5014 0 1.19986)
(1.44628 -0.246069 0 0.479026 0 1.17527)
(1.43463 -0.250313 0 0.460944 0 1.15512)
(1.4236 -0.253578 0 0.445268 0 1.13561)
(1.41642 -0.257712 0 0.433157 0 1.12141)
(1.4088 -0.260007 0 0.421198 0 1.10524)
(1.40457 -0.264217 0 0.413731 0 1.09605)
(1.39978 -0.265274 0 0.403205 0 1.0818)
(1.39628 -0.26919 0 0.39956 0 1.0763)
(1.39185 -0.268912 0 0.389641 0 1.06223)
(1.51161 -0.00809913 0 1.49388 0 1.51021)
(1.53451 -0.0358596 0 1.38468 0 1.51858)
(1.54641 -0.0615092 0 1.23519 0 1.50561)
(1.54333 -0.0798378 0 1.11803 0 1.48175)
(1.52917 -0.0934378 0 1.02644 0 1.45229)
(1.51229 -0.105315 0 0.953001 0 1.42299)
(1.49499 -0.115977 0 0.893181 0 1.39548)
(1.47793 -0.125592 0 0.843498 0 1.36974)
(1.46203 -0.134412 0 0.801716 0 1.34637)
(1.44716 -0.142358 0 0.76599 0 1.3247)
(1.43388 -0.149832 0 0.735333 0 1.30548)
(1.42154 -0.15641 0 0.708298 0 1.2872)
(1.41068 -0.162878 0 0.685224 0 1.27169)
(1.40121 -0.168255 0 0.663698 0 1.25605)
(1.3915 -0.173862 0 0.646891 0 1.24412)
(1.38677 -0.178157 0 0.627244 0 1.2298)
(1.37243 -0.182599 0 0.619713 0 1.22266)
(1.38664 -0.185584 0 0.589911 0 1.20642)
(1.51151 -0.00606596 0 1.49419 0 1.51108)
(1.52717 -0.016275 0 1.42187 0 1.52172)
(1.53967 -0.0294715 0 1.31302 0 1.52313)
(1.54281 -0.0419039 0 1.21365 0 1.51509)
(1.53769 -0.0521935 0 1.12989 0 1.50081)
(1.52861 -0.0612658 0 1.05928 0 1.48387)
(1.51771 -0.0695116 0 0.99974 0 1.4662)
(1.50589 -0.0770754 0 0.949092 0 1.44849)
(1.49397 -0.0841106 0 0.905636 0 1.43142)
(1.48226 -0.0905914 0 0.86796 0 1.415)
(1.4711 -0.096695 0 0.835132 0 1.39968)
(1.46046 -0.102272 0 0.806117 0 1.38502)
(1.45047 -0.107606 0 0.780715 0 1.37169)
(1.44137 -0.112326 0 0.757661 0 1.35874)
(1.43228 -0.116906 0 0.737926 0 1.34743)
(1.42542 -0.120745 0 0.71843 0 1.33583)
(1.41594 -0.124315 0 0.70436 0 1.32685)
(1.41271 -0.127361 0 0.684499 0 1.31593)
(1.50986 -0.00453736 0 1.49823 0 1.50974)
(1.52087 -0.00881978 0 1.44954 0 1.51873)
(1.53212 -0.0149062 0 1.37343 0 1.52448)
(1.53779 -0.0219597 0 1.29855 0 1.52378)
(1.53767 -0.0285841 0 1.232 0 1.51798)
(1.53396 -0.0348802 0 1.17332 0 1.50919)
(1.52812 -0.0409749 0 1.12176 0 1.49881)
(1.52093 -0.0468379 0 1.07636 0 1.48757)
(1.51302 -0.0524627 0 1.0362 0 1.47606)
(1.50477 -0.057797 0 1.00049 0 1.46452)
(1.4965 -0.0628846 0 0.968648 0 1.45328)
(1.48831 -0.0676552 0 0.940028 0 1.44229)
(1.48033 -0.0721884 0 0.914343 0 1.43185)
(1.47274 -0.0763312 0 0.890985 0 1.42172)
(1.46528 -0.080204 0 0.870052 0 1.41233)
(1.45869 -0.0836274 0 0.850443 0 1.40312)
(1.45188 -0.0866264 0 0.833504 0 1.39508)
(1.44693 -0.0894637 0 0.815181 0 1.38676)
(1.50977 -0.00411115 0 1.49855 0 1.50978)
(1.51843 -0.00584347 0 1.46076 0 1.51759)
(1.52821 -0.00837949 0 1.4025 0 1.5245)
(1.53469 -0.0121828 0 1.34203 0 1.52726)
(1.53713 -0.0162393 0 1.28558 0 1.52612)
(1.53662 -0.0203516 0 1.23405 0 1.52226)
(1.53407 -0.0245172 0 1.18753 0 1.51661)
(1.53006 -0.0286606 0 1.14569 0 1.50978)
(1.52509 -0.0327281 0 1.10805 0 1.50225)
(1.51951 -0.0366702 0 1.07411 0 1.49432)
(1.51359 -0.0404801 0 1.04344 0 1.48626)
(1.50749 -0.0441116 0 1.01563 0 1.47817)
(1.50135 -0.0475676 0 0.990361 0 1.47022)
(1.4953 -0.0507757 0 0.967277 0 1.46241)
(1.48932 -0.053741 0 0.946222 0 1.45492)
(1.48372 -0.0564147 0 0.926695 0 1.44764)
(1.47816 -0.0587665 0 0.908936 0 1.44085)
(1.47323 -0.0610787 0 0.891154 0 1.43408)
(1.50946 -0.00338603 0 1.49937 0 1.50953)
(1.51631 -0.0043322 0 1.46916 0 1.51607)
(1.52446 -0.00509037 0 1.42404 0 1.52271)
(1.53071 -0.00677133 0 1.37567 0 1.52677)
(1.53419 -0.00889605 0 1.32906 0 1.52796)
(1.53536 -0.0112877 0 1.28552 0 1.52691)
(1.53478 -0.0139106 0 1.2454 0 1.52421)
(1.53286 -0.0166743 0 1.20867 0 1.52032)
(1.52996 -0.0194977 0 1.1751 0 1.51561)
(1.52637 -0.0223195 0 1.14438 0 1.51034)
(1.52231 -0.0251026 0 1.11627 0 1.50474)
(1.51794 -0.0278004 0 1.09047 0 1.49894)
(1.51339 -0.0303838 0 1.06677 0 1.49307)
(1.50878 -0.0328066 0 1.04491 0 1.4872)
(1.50417 -0.0350441 0 1.02473 0 1.48143)
(1.4997 -0.037087 0 1.00595 0 1.4758)
(1.49541 -0.0389114 0 0.988492 0 1.47045)
(1.49127 -0.0407465 0 0.971666 0 1.46517)
(1.50951 -0.00298892 0 1.49932 0 1.50962)
(1.51529 -0.00360273 0 1.47357 0 1.51536)
(1.5221 -0.00349559 0 1.43715 0 1.52142)
(1.52785 -0.00397969 0 1.39719 0 1.52591)
(1.53171 -0.00492043 0 1.35761 0 1.52835)
(1.53384 -0.00619986 0 1.31978 0 1.52902)
(1.53451 -0.00776785 0 1.28428 0 1.52826)
(1.534 -0.00953474 0 1.25125 0 1.52639)
(1.53257 -0.0114178 0 1.22066 0 1.5237)
(1.53045 -0.0133557 0 1.19234 0 1.52039)
(1.52782 -0.015304 0 1.16615 0 1.51665)
(1.52481 -0.017219 0 1.14191 0 1.51261)
(1.52155 -0.0190647 0 1.11944 0 1.50839)
(1.51813 -0.0208072 0 1.09857 0 1.50406)
(1.51463 -0.0224221 0 1.07913 0 1.49972)
(1.51115 -0.0239104 0 1.06097 0 1.49542)
(1.50766 -0.0252908 0 1.04397 0 1.49121)
(1.50403 -0.0266917 0 1.02794 0 1.48705)
(1.50947 -0.00244807 0 1.49948 0 1.5096)
(1.51437 -0.00304712 0 1.47722 0 1.51462)
(1.52004 -0.00259548 0 1.44728 0 1.51998)
(1.52512 -0.0023725 0 1.41406 0 1.52438)
(1.52893 -0.00249327 0 1.38053 0 1.52734)
(1.53144 -0.00293867 0 1.34796 0 1.52893)
(1.53278 -0.00368234 0 1.31695 0 1.52933)
(1.53312 -0.004654 0 1.28776 0 1.52876)
(1.53266 -0.00578065 0 1.26042 0 1.52742)
(1.53155 -0.00700374 0 1.23486 0 1.52549)
(1.52994 -0.00827603 0 1.211 0 1.5231)
(1.52795 -0.00955472 0 1.18873 0 1.52038)
(1.52568 -0.0108032 0 1.16791 0 1.51743)
(1.52321 -0.0119935 0 1.14844 0 1.51431)
(1.52063 -0.0131065 0 1.13018 0 1.51112)
(1.51799 -0.014149 0 1.11303 0 1.50791)
(1.51529 -0.0151337 0 1.09693 0 1.50473)
(1.51227 -0.0161702 0 1.08192 0 1.50155)
(1.5095 -0.0020929 0 1.49944 0 1.50964)
(1.51384 -0.00271185 0 1.47948 0 1.51421)
(1.51864 -0.00214416 0 1.45412 0 1.51896)
(1.5231 -0.00155816 0 1.42592 0 1.52312)
(1.52669 -0.00120365 0 1.39703 0 1.52626)
(1.52932 -0.00113253 0 1.36856 0 1.52836)
(1.53104 -0.00133946 0 1.34108 0 1.5295)
(1.53193 -0.00177153 0 1.31489 0 1.52981)
(1.53213 -0.00236746 0 1.2901 0 1.52944)
(1.53176 -0.00307452 0 1.26671 0 1.52851)
(1.53092 -0.00384823 0 1.24469 0 1.52715)
(1.52971 -0.00464989 0 1.22397 0 1.52544)
(1.52821 -0.00544715 0 1.20447 0 1.52347)
(1.5265 -0.00621772 0 1.18611 0 1.52132)
(1.52464 -0.00694928 0 1.16881 0 1.51904)
(1.52264 -0.00765082 0 1.15251 0 1.51669)
(1.52046 -0.008352 0 1.1372 0 1.5143)
(1.51789 -0.00910212 0 1.12299 0 1.51188)
(1.50947 -0.0016814 0 1.49956 0 1.50962)
(1.51334 -0.00232498 0 1.48148 0 1.51378)
(1.51742 -0.00178416 0 1.45964 0 1.51799)
(1.52129 -0.00103654 0 1.43548 0 1.52181)
(1.52457 -0.000393021 0 1.41048 0 1.5249)
(1.52714 3.80117e-05 0 1.38556 0 1.52721)
(1.52899 0.000233681 0 1.36127 0 1.52875)
(1.53018 0.000223563 0 1.33788 0 1.52961)
(1.53079 5.27356e-05 0 1.31555 0 1.52987)
(1.5309 -0.00023519 0 1.29431 0 1.52964)
(1.53059 -0.00060115 0 1.27416 0 1.529)
(1.52994 -0.00101128 0 1.25507 0 1.52803)
(1.52902 -0.00143794 0 1.237 0 1.5268)
(1.52788 -0.00186305 0 1.21989 0 1.52538)
(1.52657 -0.0022778 0 1.20369 0 1.52382)
(1.5251 -0.00269 0 1.18837 0 1.52216)
(1.52342 -0.00311436 0 1.17397 0 1.52043)
(1.52128 -0.00361127 0 1.16064 0 1.51864)
(1.50943 -0.00141702 0 1.49966 0 1.50959)
(1.51302 -0.00206277 0 1.48281 0 1.5135)
(1.51661 -0.00158656 0 1.46334 0 1.51732)
(1.52002 -0.00080504 0 1.442 0 1.52084)
(1.523 -4.06899e-05 0 1.41983 0 1.52381)
(1.52544 0.000569708 0 1.39755 0 1.52618)
(1.52732 0.00098547 0 1.37563 0 1.52792)
(1.52865 0.00121946 0 1.35434 0 1.5291)
(1.5295 0.00130416 0 1.33385 0 1.52976)
(1.52991 0.00127506 0 1.31423 0 1.52998)
(1.52995 0.0011654 0 1.29549 0 1.52984)
(1.52969 0.00100394 0 1.27763 0 1.52939)
(1.52917 0.000813553 0 1.26064 0 1.52868)
(1.52843 0.000608391 0 1.24447 0 1.52778)
(1.52751 0.000393961 0 1.22912 0 1.52673)
(1.5264 0.000162959 0 1.21457 0 1.52557)
(1.52502 -0.00010375 0 1.20088 0 1.5243)
(1.52322 -0.000423962 0 1.1882 0 1.52297)
(1.50937 -0.0011439 0 1.49984 0 1.50953)
(1.51269 -0.00175253 0 1.48406 0 1.5132)
(1.51587 -0.00135389 0 1.46652 0 1.51669)
(1.51888 -0.00059476 0 1.44751 0 1.51991)
(1.52157 0.000220282 0 1.42773 0 1.52273)
(1.52384 0.000940839 0 1.40773 0 1.52506)
(1.52567 0.0015119 0 1.3879 0 1.5269)
(1.52706 0.00193076 0 1.36852 0 1.52826)
(1.52804 0.00221728 0 1.34973 0 1.52919)
(1.52866 0.00239807 0 1.33161 0 1.52974)
(1.52895 0.00249984 0 1.31421 0 1.52995)
(1.52896 0.00254609 0 1.29754 0 1.52988)
(1.52874 0.00255524 0 1.28161 0 1.52958)
(1.52832 0.00253887 0 1.26639 0 1.52909)
(1.5277 0.00250123 0 1.25189 0 1.52844)
(1.52688 0.00243937 0 1.23812 0 1.52767)
(1.52579 0.0023454 0 1.22514 0 1.5268)
(1.52428 0.00219077 0 1.2131 0 1.52583)
(1.50928 -0.000915688 0 1.50006 0 1.50944)
(1.51237 -0.00147032 0 1.48522 0 1.51292)
(1.51521 -0.0011568 0 1.46932 0 1.51611)
(1.51785 -0.000465597 0 1.45238 0 1.51905)
(1.52024 0.000333242 0 1.43476 0 1.52168)
(1.52232 0.00108985 0 1.41687 0 1.52393)
(1.52405 0.00174075 0 1.39901 0 1.5258)
(1.52544 0.00227116 0 1.38141 0 1.52728)
(1.52651 0.00268985 0 1.36423 0 1.52841)
(1.52727 0.00301474 0 1.34754 0 1.52921)
(1.52776 0.00326564 0 1.33142 0 1.52972)
(1.528 0.00346042 0 1.31589 0 1.52998)
(1.52803 0.00361293 0 1.30096 0 1.53002)
(1.52786 0.0037313 0 1.28666 0 1.52988)
(1.5275 0.00381786 0 1.27298 0 1.52959)
(1.52693 0.00386884 0 1.25997 0 1.52916)
(1.5261 0.00387454 0 1.24767 0 1.52863)
(1.5249 0.00384626 0 1.23619 0 1.52801)
(1.50917 -0.000642724 0 1.50035 0 1.50933)
(1.51203 -0.00106387 0 1.48643 0 1.51258)
(1.51454 -0.000809415 0 1.472 0 1.5155)
(1.51685 -0.000206803 0 1.45687 0 1.51817)
(1.51894 0.000533279 0 1.4412 0 1.52058)
(1.5208 0.00127939 0 1.42524 0 1.52272)
(1.52241 0.00196738 0 1.40921 0 1.52455)
(1.52375 0.00257399 0 1.39331 0 1.52608)
(1.52484 0.00309791 0 1.37767 0 1.52733)
(1.52569 0.00354804 0 1.36238 0 1.5283)
(1.52631 0.00393666 0 1.34752 0 1.52903)
(1.52672 0.0042758 0 1.33312 0 1.52954)
(1.52694 0.00457502 0 1.31922 0 1.52985)
(1.52698 0.00484075 0 1.30584 0 1.53)
(1.52684 0.00507551 0 1.29301 0 1.53)
(1.52649 0.00527862 0 1.28075 0 1.52987)
(1.52589 0.00544569 0 1.26914 0 1.52962)
(1.52496 0.00554772 0 1.25826 0 1.52927)
(1.50903 -0.000439069 0 1.50069 0 1.5092)
(1.51167 -0.000733356 0 1.48756 0 1.51224)
(1.51394 -0.000537314 0 1.47427 0 1.51494)
(1.51598 -5.37118e-05 0 1.46058 0 1.51738)
(1.51782 0.000566384 0 1.44648 0 1.51961)
(1.51948 0.00121933 0 1.43212 0 1.52161)
(1.52095 0.00184826 0 1.41765 0 1.52338)
(1.52222 0.00242749 0 1.4032 0 1.52491)
(1.52329 0.00294953 0 1.3889 0 1.52621)
(1.52417 0.00341632 0 1.37484 0 1.52729)
(1.52487 0.00383371 0 1.36108 0 1.52816)
(1.52539 0.00420806 0 1.34769 0 1.52885)
(1.52574 0.00454462 0 1.3347 0 1.52936)
(1.52593 0.00484651 0 1.32215 0 1.52971)
(1.52596 0.00511504 0 1.31006 0 1.52993)
(1.52579 0.00535105 0 1.29848 0 1.53003)
(1.52542 0.00555498 0 1.28746 0 1.53002)
(1.52478 0.00575299 0 1.27704 0 1.52991)
(1.50889 -0.000170706 0 1.50104 0 1.50905)
(1.51133 -0.000227708 0 1.4886 0 1.51191)
(1.5134 -1.65256e-06 0 1.47619 0 1.51442)
(1.51523 0.000412454 0 1.46356 0 1.51669)
(1.51689 0.000932811 0 1.45065 0 1.51875)
(1.51838 0.00149728 0 1.4375 0 1.52063)
(1.51973 0.00206796 0 1.42422 0 1.52233)
(1.52092 0.0026249 0 1.4109 0 1.52383)
(1.52195 0.00315938 0 1.39765 0 1.52514)
(1.52283 0.00366902 0 1.38455 0 1.52627)
(1.52356 0.00415442 0 1.37168 0 1.52722)
(1.52413 0.0046171 0 1.3591 0 1.52801)
(1.52457 0.00505808 0 1.34685 0 1.52864)
(1.52485 0.00547746 0 1.33496 0 1.52913)
(1.52498 0.00587348 0 1.32349 0 1.52949)
(1.52495 0.00624193 0 1.31246 0 1.52973)
(1.52473 0.00657588 0 1.30191 0 1.52986)
(1.52431 0.00684718 0 1.29189 0 1.5299)
(1.50877 -8.13518e-06 0 1.50131 0 1.50894)
(1.51109 0.000110257 0 1.4893 0 1.51166)
(1.51306 0.000328613 0 1.47738 0 1.51407)
(1.51479 0.000619119 0 1.46532 0 1.51624)
(1.51636 0.000957967 0 1.45304 0 1.51823)
(1.51777 0.00132474 0 1.44056 0 1.52004)
(1.51905 0.00170516 0 1.42794 0 1.52168)
(1.5202 0.0020899 0 1.41527 0 1.52316)
(1.52122 0.00247306 0 1.40264 0 1.52447)
(1.5221 0.00285093 0 1.39012 0 1.52561)
(1.52285 0.00322111 0 1.37779 0 1.52659)
(1.52346 0.00358187 0 1.36569 0 1.52743)
(1.52395 0.00393193 0 1.35388 0 1.52812)
(1.52431 0.00427073 0 1.3424 0 1.52867)
(1.52453 0.00459834 0 1.33128 0 1.52911)
(1.52462 0.00491784 0 1.32054 0 1.52943)
(1.52455 0.00523279 0 1.31023 0 1.52964)
(1.52431 0.00556775 0 1.30037 0 1.52975)
(1.50879 0.000339591 0 1.50125 0 1.50896)
(1.51114 0.000844255 0 1.48913 0 1.51171)
(1.51314 0.00121787 0 1.47708 0 1.51414)
(1.5149 0.00152338 0 1.46487 0 1.51633)
(1.51649 0.00181128 0 1.45244 0 1.51833)
(1.51792 0.00211426 0 1.43981 0 1.52015)
(1.51921 0.00245031 0 1.42704 0 1.52179)
(1.52035 0.00282652 0 1.41424 0 1.52325)
(1.52135 0.00324288 0 1.40148 0 1.52454)
(1.5222 0.00369535 0 1.38884 0 1.52566)
(1.52291 0.00417769 0 1.37641 0 1.52661)
(1.52349 0.00468261 0 1.36422 0 1.5274)
(1.52394 0.00520218 0 1.35232 0 1.52804)
(1.52427 0.00572798 0 1.34075 0 1.52856)
(1.52448 0.00625079 0 1.32952 0 1.52895)
(1.52458 0.00675955 0 1.31866 0 1.52923)
(1.52458 0.00724101 0 1.30818 0 1.52943)
(1.5245 0.00766958 0 1.29808 0 1.52955)
(1.50903 0.000521904 0 1.50077 0 1.50918)
(1.51171 0.00117443 0 1.48778 0 1.51221)
(1.51401 0.00147921 0 1.4747 0 1.51488)
(1.51608 0.00159402 0 1.46127 0 1.5173)
(1.51796 0.00163596 0 1.44749 0 1.51951)
(1.51966 0.00167964 0 1.43347 0 1.52149)
(1.52117 0.00176588 0 1.41934 0 1.52326)
(1.5225 0.00191113 0 1.40523 0 1.5248)
(1.52365 0.00211701 0 1.39125 0 1.52611)
(1.52461 0.00237704 0 1.37749 0 1.52722)
(1.5254 0.00268075 0 1.36402 0 1.52812)
(1.52602 0.00301599 0 1.35089 0 1.52883)
(1.52648 0.00337048 0 1.33814 0 1.52937)
(1.52679 0.00373268 0 1.3258 0 1.52975)
(1.52696 0.00409383 0 1.3139 0 1.52999)
(1.52699 0.00444913 0 1.30244 0 1.53009)
(1.52687 0.00480288 0 1.29145 0 1.53007)
(1.52658 0.00518195 0 1.28094 0 1.52991)
(1.50921 0.000888308 0 1.5003 0 1.50935)
(1.51221 0.00182806 0 1.48616 0 1.51268)
(1.5149 0.00215875 0 1.47145 0 1.51568)
(1.51737 0.00220981 0 1.45604 0 1.51843)
(1.51962 0.00218418 0 1.44011 0 1.5209)
(1.52161 0.00219262 0 1.4239 0 1.52306)
(1.52334 0.00228788 0 1.40765 0 1.52492)
(1.52479 0.00248518 0 1.39154 0 1.52647)
(1.52598 0.00277959 0 1.3757 0 1.52772)
(1.52691 0.00315776 0 1.36022 0 1.52868)
(1.52761 0.00360412 0 1.34518 0 1.52939)
(1.52808 0.00410399 0 1.33063 0 1.52987)
(1.52836 0.00464519 0 1.31658 0 1.53014)
(1.52846 0.0052192 0 1.30307 0 1.53023)
(1.52839 0.00582083 0 1.29008 0 1.53015)
(1.5282 0.00644818 0 1.27763 0 1.52993)
(1.52789 0.00709667 0 1.26569 0 1.52961)
(1.52755 0.00774207 0 1.25422 0 1.52922)
(1.50941 0.00115502 0 1.49989 0 1.50953)
(1.5128 0.00220625 0 1.4844 0 1.51318)
(1.516 0.0024485 0 1.46745 0 1.51658)
(1.51903 0.00239628 0 1.44923 0 1.51972)
(1.52175 0.00230188 0 1.4303 0 1.52248)
(1.5241 0.00228267 0 1.41116 0 1.52479)
(1.52605 0.0023901 0 1.39217 0 1.52665)
(1.52759 0.00263343 0 1.37355 0 1.52806)
(1.52875 0.00299996 0 1.35545 0 1.52907)
(1.52957 0.00346968 0 1.33795 0 1.52972)
(1.53008 0.00402132 0 1.32111 0 1.53005)
(1.53033 0.00463427 0 1.30493 0 1.5301)
(1.53034 0.00528914 0 1.28943 0 1.52993)
(1.53017 0.00596695 0 1.2746 0 1.52955)
(1.52983 0.00664892 0 1.26042 0 1.52901)
(1.52935 0.00731477 0 1.24687 0 1.52833)
(1.52874 0.00794939 0 1.23396 0 1.52753)
(1.52792 0.00856706 0 1.2217 0 1.52657)
(1.50955 0.00172357 0 1.4995 0 1.50965)
(1.51349 0.00298568 0 1.48186 0 1.51378)
(1.51751 0.00323573 0 1.46118 0 1.51783)
(1.52133 0.0032941 0 1.43849 0 1.52151)
(1.52464 0.0034374 0 1.41498 0 1.52456)
(1.52734 0.0037444 0 1.39143 0 1.52691)
(1.5294 0.00423461 0 1.36833 0 1.52859)
(1.53087 0.00488979 0 1.34596 0 1.52966)
(1.53181 0.00567492 0 1.32445 0 1.53017)
(1.53228 0.00655606 0 1.30389 0 1.53023)
(1.53235 0.00750499 0 1.28429 0 1.52989)
(1.53208 0.00849869 0 1.26566 0 1.52922)
(1.53152 0.00951912 0 1.24797 0 1.52828)
(1.53073 0.010554 0 1.23119 0 1.52711)
(1.52971 0.011598 0 1.21529 0 1.52576)
(1.52852 0.0126577 0 1.20025 0 1.52425)
(1.52718 0.0137492 0 1.18602 0 1.52262)
(1.52586 0.0148803 0 1.17251 0 1.52097)
(1.50958 0.00209393 0 1.49945 0 1.50966)
(1.51415 0.00346176 0 1.47928 0 1.51426)
(1.51922 0.00386682 0 1.45345 0 1.51902)
(1.52396 0.00427875 0 1.42479 0 1.52312)
(1.52778 0.00487698 0 1.39557 0 1.52615)
(1.53058 0.0056687 0 1.36692 0 1.52807)
(1.53241 0.00665896 0 1.33936 0 1.52902)
(1.53339 0.0078243 0 1.31314 0 1.52912)
(1.53365 0.009121 0 1.28835 0 1.52854)
(1.53333 0.0105096 0 1.26495 0 1.52741)
(1.53254 0.0119599 0 1.24292 0 1.52584)
(1.53138 0.0134478 0 1.22216 0 1.52394)
(1.52994 0.0149544 0 1.20263 0 1.52179)
(1.52827 0.0164643 0 1.18422 0 1.51945)
(1.52647 0.0179622 0 1.16686 0 1.51698)
(1.52458 0.0194228 0 1.15049 0 1.51443)
(1.52268 0.0208034 0 1.135 0 1.51187)
(1.52062 0.0220541 0 1.12043 0 1.50922)
(1.50975 0.00299568 0 1.49899 0 1.5098)
(1.51562 0.00467627 0 1.47378 0 1.51543)
(1.52243 0.0057944 0 1.43881 0 1.52124)
(1.52833 0.0073752 0 1.40039 0 1.52562)
(1.53253 0.00928811 0 1.36209 0 1.52816)
(1.53507 0.0113583 0 1.3253 0 1.52903)
(1.53621 0.0135427 0 1.29057 0 1.52853)
(1.53618 0.0158074 0 1.2581 0 1.52696)
(1.53523 0.0181002 0 1.22789 0 1.52456)
(1.53357 0.0203851 0 1.19982 0 1.52154)
(1.53138 0.0226424 0 1.17376 0 1.51809)
(1.52881 0.024858 0 1.14955 0 1.51432)
(1.52594 0.0270202 0 1.12705 0 1.51034)
(1.52287 0.029119 0 1.1061 0 1.50622)
(1.51965 0.0311443 0 1.0866 0 1.50202)
(1.51629 0.0330947 0 1.06843 0 1.49777)
(1.51274 0.0349858 0 1.05152 0 1.49346)
(1.50926 0.0369064 0 1.03581 0 1.48924)
(1.50955 0.00334672 0 1.4994 0 1.50953)
(1.51696 0.00625869 0 1.46777 0 1.51608)
(1.52589 0.00942708 0 1.41961 0 1.52245)
(1.53252 0.0131474 0 1.36895 0 1.52578)
(1.5361 0.0169641 0 1.32079 0 1.52605)
(1.5371 0.0206859 0 1.27627 0 1.52396)
(1.53616 0.0243637 0 1.23548 0 1.52018)
(1.53381 0.0280309 0 1.19819 0 1.51523)
(1.53047 0.031638 0 1.16412 0 1.50951)
(1.52644 0.0351501 0 1.13296 0 1.50331)
(1.52197 0.0385536 0 1.10439 0 1.49683)
(1.51722 0.0418407 0 1.07815 0 1.49023)
(1.51234 0.0450076 0 1.05398 0 1.48362)
(1.5074 0.0480565 0 1.03167 0 1.47706)
(1.5025 0.0509926 0 1.01104 0 1.47062)
(1.49769 0.0538253 0 0.991917 0 1.46435)
(1.49324 0.0565457 0 0.974109 0 1.45836)
(1.48902 0.0589891 0 0.957597 0 1.45267)
(1.51072 0.00497728 0 1.49654 0 1.51053)
(1.52207 0.0113484 0 1.44805 0 1.51932)
(1.5342 0.019935 0 1.37295 0 1.52521)
(1.54098 0.0285774 0 1.29832 0 1.52509)
(1.54244 0.0362574 0 1.23087 0 1.52026)
(1.54002 0.0428765 0 1.17115 0 1.51235)
(1.53505 0.048772 0 1.11851 0 1.50256)
(1.5286 0.0542272 0 1.07208 0 1.49181)
(1.52125 0.0592812 0 1.03107 0 1.48064)
(1.51346 0.0639819 0 0.994674 0 1.46942)
(1.50549 0.0683797 0 0.962198 0 1.45834)
(1.49756 0.0725077 0 0.933081 0 1.44757)
(1.48977 0.0763869 0 0.906848 0 1.43716)
(1.48223 0.0800404 0 0.883118 0 1.42719)
(1.47491 0.0834726 0 0.861549 0 1.41762)
(1.46795 0.086697 0 0.841901 0 1.40853)
(1.46086 0.0896612 0 0.823872 0 1.39964)
(1.45394 0.0924491 0 0.807653 0 1.39124)
(1.50985 0.00579298 0 1.49843 0 1.50915)
(1.52695 0.0254808 0 1.42427 0 1.51751)
(1.54205 0.045627 0 1.31348 0 1.51586)
(1.54568 0.0605934 0 1.21736 0 1.50429)
(1.54105 0.072203 0 1.13753 0 1.4874)
(1.53134 0.0816144 0 1.07061 0 1.46796)
(1.51922 0.0898394 0 1.01358 0 1.44777)
(1.50653 0.0974192 0 0.96457 0 1.42811)
(1.49378 0.104336 0 0.922143 0 1.40932)
(1.48136 0.110656 0 0.885085 0 1.39158)
(1.46944 0.116459 0 0.852461 0 1.37491)
(1.4582 0.121811 0 0.823539 0 1.35934)
(1.44759 0.126751 0 0.797714 0 1.34478)
(1.43772 0.131334 0 0.774554 0 1.33124)
(1.42848 0.135604 0 0.7536 0 1.31856)
(1.4199 0.139566 0 0.734719 0 1.30682)
(1.41214 0.143421 0 0.717302 0 1.29577)
(1.40581 0.146735 0 0.70214 0 1.28625)
(1.5189 0.0284583 0 1.47294 0 1.51483)
(1.5634 0.112015 0 1.26339 0 1.5187)
(1.58322 0.16104 0 1.03772 0 1.48715)
(1.57567 0.181976 0 0.88706 0 1.44363)
(1.55683 0.192585 0 0.784394 0 1.39973)
(1.53313 0.198877 0 0.711483 0 1.35826)
(1.51042 0.204109 0 0.657321 0 1.32169)
(1.49091 0.20919 0 0.615939 0 1.29073)
(1.47355 0.213984 0 0.583048 0 1.26373)
(1.4581 0.218445 0 0.556188 0 1.23993)
(1.44423 0.222544 0 0.53383 0 1.2187)
(1.43206 0.226343 0 0.514937 0 1.19986)
(1.4211 0.229833 0 0.49871 0 1.18279)
(1.41166 0.233069 0 0.484692 0 1.16764)
(1.40299 0.236068 0 0.472396 0 1.15369)
(1.39577 0.23883 0 0.46161 0 1.14137)
(1.38875 0.24146 0 0.452034 0 1.12974)
(1.38188 0.243668 0 0.443282 0 1.11893)
(1.59274 0.291964 0 1.39581 0 1.52093)
(1.91623 0.578695 0 0.968061 0 1.53309)
(2.06904 0.585627 0 0.732305 0 1.48899)
(2.10353 0.552953 0 0.628165 0 1.43529)
(2.09256 0.525588 0 0.573906 0 1.38571)
(2.06469 0.505449 0 0.540735 0 1.34257)
(2.03083 0.489955 0 0.517674 0 1.30527)
(1.99594 0.477419 0 0.500093 0 1.27295)
(1.96235 0.466901 0 0.485809 0 1.24465)
(1.93087 0.457809 0 0.473755 0 1.21962)
(1.90172 0.449794 0 0.463346 0 1.19729)
(1.8748 0.442634 0 0.454209 0 1.17722)
(1.85007 0.436192 0 0.446106 0 1.15911)
(1.82719 0.430346 0 0.438847 0 1.14262)
(1.80628 0.425013 0 0.432305 0 1.12766)
(1.7867 0.420158 0 0.426389 0 1.11387)
(1.76902 0.415606 0 0.420947 0 1.10137)
(1.75197 0.41139 0 0.416088 0 1.08959)
(0.00771836 0.00262745 0 0.0256789 0 0.0224732)
(0.0208777 -0.00018193 0 0.040087 0 0.0502003)
(0.0360723 -0.00195065 0 0.0510326 0 0.0714911)
(0.0475989 -0.00564982 0 0.0558462 0 0.0830515)
(0.0578809 -0.00778766 0 0.0571356 0 0.0913361)
(0.0665705 -0.00925353 0 0.0565209 0 0.096919)
(0.0742339 -0.0102502 0 0.0556417 0 0.101139)
(0.0808347 -0.0111025 0 0.054501 0 0.104222)
(0.086721 -0.0118622 0 0.0533792 0 0.10664)
(0.0919957 -0.0126044 0 0.0521968 0 0.10851)
(0.0968296 -0.0133178 0 0.0510138 0 0.11001)
(0.101275 -0.0140029 0 0.0498105 0 0.111197)
(0.105392 -0.0146478 0 0.0486182 0 0.112141)
(0.109193 -0.0152588 0 0.0474409 0 0.112865)
(0.112705 -0.0158445 0 0.0462912 0 0.113392)
(0.115938 -0.0164172 0 0.0451638 0 0.113729)
(0.11892 -0.0169836 0 0.0440525 0 0.113882)
(0.121647 -0.0175449 0 0.0429479 0 0.113849)
(0.124174 -0.0180941 0 0.0418264 0 0.113598)
(0.126314 -0.0186262 0 0.0407769 0 0.11323)
(0.128888 -0.0192172 0 0.0392963 0 0.112177)
(0.13006 -0.0195925 0 0.0384826 0 0.111481)
(0.131442 -0.0200761 0 0.0373533 0 0.110214)
(0.131733 -0.0199612 0 0.0361712 0 0.108512)
(0.130868 -0.0194739 0 0.0347331 0 0.105958)
(0.128785 -0.0187346 0 0.0330922 0 0.102604)
(0.12557 -0.0177206 0 0.0312738 0 0.0985435)
(0.120953 -0.0164373 0 0.0292354 0 0.0935584)
(0.114621 -0.01489 0 0.0269546 0 0.0874345)
(0.106364 -0.0131104 0 0.0244459 0 0.0800874)
(0.0961631 -0.0111988 0 0.0217422 0 0.0715827)
(0.0842473 -0.00927027 0 0.0188835 0 0.0621285)
(0.0715018 -0.00736695 0 0.0159354 0 0.052318)
(0.0633316 -0.00529736 0 0.0134072 0 0.0455935)
(0.0593911 -0.00320475 0 0.0116224 0 0.0418328)
(0.0594141 -0.00121558 0 0.0107644 0 0.0409628)
(0.0613604 -0.00019521 0 0.010699 0 0.0418918)
(0.0644968 0.000549673 0 0.0110389 0 0.0438495)
(0.065342 0.000310462 0 0.0112072 0 0.044497)
(0.0637524 -0.000275571 0 0.0110322 0 0.0435369)
(0.0586303 -0.00049635 0 0.010444 0 0.0405071)
(0.0520429 -0.000122196 0 0.0097028 0 0.0367616)
(0.0487386 0.000519694 0 0.00950999 0 0.03524)
(0.0511012 0.00180968 0 0.0101536 0 0.0371196)
(0.0563371 0.00346741 0 0.0116296 0 0.0410537)
(0.0638156 0.0052936 0 0.0137619 0 0.0466052)
(0.0735388 0.00719252 0 0.0163984 0 0.0537062)
(0.0857169 0.00913585 0 0.0194319 0 0.0624741)
(0.101051 0.0111393 0 0.0227626 0 0.0733568)
(0.117486 0.0131807 0 0.0260878 0 0.0849703)
(0.132201 0.0152135 0 0.029202 0 0.0954075)
(0.146075 0.0172557 0 0.0321988 0 0.105222)
(0.159281 0.0193534 0 0.0350623 0 0.114463)
(0.171651 0.0214011 0 0.0377768 0 0.123089)
(0.183208 0.0233384 0 0.0403514 0 0.131146)
(0.194065 0.0251715 0 0.0427943 0 0.138703)
(0.204299 0.0269036 0 0.0451152 0 0.145813)
(0.213983 0.0285433 0 0.0473253 0 0.152529)
(0.223185 0.0301007 0 0.0494371 0 0.1589)
(0.231968 0.0315868 0 0.0514632 0 0.164972)
(0.240391 0.0330124 0 0.0534166 0 0.17079)
(0.248508 0.0343875 0 0.0553099 0 0.176394)
(0.25637 0.0357215 0 0.0571547 0 0.181822)
(0.264022 0.0370224 0 0.058962 0 0.187109)
(0.271504 0.0382974 0 0.0607414 0 0.192283)
(0.278854 0.0395522 0 0.0625014 0 0.197372)
(0.286102 0.0407919 0 0.0642496 0 0.202399)
(0.293276 0.0420205 0 0.0659923 0 0.207384)
(0.300398 0.0432409 0 0.0677347 0 0.212345)
(0.307488 0.0444557 0 0.0694814 0 0.217295)
(0.314562 0.0456666 0 0.0712358 0 0.222246)
(0.321633 0.0468748 0 0.0730008 0 0.227208)
(0.328709 0.0480809 0 0.0747786 0 0.232187)
(0.3358 0.0492852 0 0.0765708 0 0.23719)
(0.342909 0.0504876 0 0.0783784 0 0.24222)
(0.350041 0.0516878 0 0.0802021 0 0.24728)
(0.357196 0.052885 0 0.0820421 0 0.252372)
(0.364375 0.0540784 0 0.0838981 0 0.257495)
(0.371576 0.0552668 0 0.0857697 0 0.262649)
(0.378797 0.0564491 0 0.0876561 0 0.267831)
(0.386034 0.0576237 0 0.0895561 0 0.273041)
(0.393281 0.0587891 0 0.0914682 0 0.278273)
(0.400533 0.0599437 0 0.0933909 0 0.283524)
(0.407782 0.0610855 0 0.095322 0 0.28879)
(0.415019 0.0622128 0 0.0972594 0 0.294063)
(0.422234 0.0633235 0 0.0992005 0 0.299339)
(0.429417 0.0644157 0 0.101143 0 0.304608)
(0.436554 0.0654872 0 0.103083 0 0.309863)
(0.443631 0.0665361 0 0.105018 0 0.315095)
(0.450632 0.06756 0 0.106946 0 0.320295)
(0.457542 0.0685567 0 0.108862 0 0.325452)
(0.464342 0.0695237 0 0.110766 0 0.330558)
(0.471018 0.0704578 0 0.112655 0 0.335603)
(0.477556 0.0713551 0 0.114527 0 0.34058)
(0.483945 0.0722094 0 0.116382 0 0.345488)
(0.490182 0.0730133 0 0.118222 0 0.350323)
(0.496256 0.0737609 0 0.120045 0 0.355082)
(0.502152 0.0744483 0 0.121857 0 0.359756)
(0.507875 0.0750678 0 0.12367 0 0.364351)
(0.513508 0.0756543 0 0.125507 0 0.368921)
(0.519074 0.0762242 0 0.127371 0 0.373482)
(0.524581 0.0767688 0 0.129264 0 0.378039)
(0.530021 0.0772852 0 0.131189 0 0.382588)
(0.535388 0.0777657 0 0.133134 0 0.387116)
(0.54067 0.0782103 0 0.135091 0 0.391613)
(0.545851 0.0786197 0 0.137052 0 0.396064)
(0.550906 0.0789937 0 0.139011 0 0.400449)
(0.555809 0.0793317 0 0.140961 0 0.40475)
(0.560531 0.0796341 0 0.142898 0 0.408945)
(0.565059 0.0799035 0 0.144817 0 0.413025)
(0.569418 0.0801405 0 0.146722 0 0.41701)
(0.573657 0.0803389 0 0.148621 0 0.420936)
(0.577755 0.0804919 0 0.150504 0 0.424786)
(0.581698 0.0805951 0 0.152368 0 0.428553)
(0.585454 0.0806397 0 0.1542 0 0.432214)
(0.588968 0.0806134 0 0.155986 0 0.435738)
(0.59214 0.0804959 0 0.1577 0 0.439068)
(0.594785 0.0802444 0 0.159305 0 0.442109)
(0.596485 0.0797412 0 0.160686 0 0.444612)
(0.596767 0.0785498 0 0.161819 0 0.446509)
(0.596325 0.0769272 0 0.162875 0 0.448186)
(0.596033 0.0753089 0 0.163957 0 0.449864)
(0.595404 0.073514 0 0.165033 0 0.451456)
(0.59481 0.0718818 0 0.165956 0 0.452768)
(0.593917 0.0698037 0 0.167069 0 0.454289)
(0.592882 0.0680462 0 0.167961 0 0.455445)
(0.591593 0.0656139 0 0.169151 0 0.456936)
(0.590562 0.0636281 0 0.170079 0 0.458035)
(0.589418 0.0614815 0 0.171028 0 0.459117)
(0.588074 0.0591984 0 0.171986 0 0.460157)
(0.586592 0.0567855 0 0.172958 0 0.461161)
(0.585059 0.0543187 0 0.173913 0 0.462104)
(0.58352 0.0519201 0 0.174801 0 0.462931)
(0.581186 0.0485025 0 0.176057 0 0.464042)
(0.579933 0.0461752 0 0.176921 0 0.464783)
(0.577588 0.0430269 0 0.178018 0 0.465627)
(0.57629 0.0402608 0 0.179023 0 0.466441)
(0.573868 0.0369101 0 0.180153 0 0.467211)
(0.572707 0.034158 0 0.181126 0 0.467946)
(0.569865 0.0298814 0 0.182556 0 0.468821)
(0.568666 0.0269666 0 0.183602 0 0.469534)
(0.566487 0.0232703 0 0.184835 0 0.470233)
(0.564959 0.0196364 0 0.186106 0 0.471009)
(0.563209 0.0157871 0 0.187404 0 0.471711)
(0.561551 0.0118024 0 0.188749 0 0.472419)
(0.560005 0.0077233 0 0.1901 0 0.473098)
(0.558643 0.00377521 0 0.191354 0 0.473677)
(0.556519 -0.00162345 0 0.193058 0 0.474409)
(0.555875 -0.00534222 0 0.194255 0 0.474999)
(0.554264 -0.0107561 0 0.195851 0 0.475599)
(0.553505 -0.0153736 0 0.19722 0 0.476169)
(0.552608 -0.0205571 0 0.198638 0 0.476674)
(0.552119 -0.0257802 0 0.200082 0 0.47724)
(0.55182 -0.0311327 0 0.201478 0 0.477728)
(0.551769 -0.0365883 0 0.202829 0 0.47815)
(0.551975 -0.0421462 0 0.204134 0 0.478503)
(0.55246 -0.0478127 0 0.205395 0 0.47878)
(0.553317 -0.053629 0 0.206648 0 0.479015)
(0.554745 -0.0599474 0 0.208057 0 0.479381)
(0.557588 -0.067171 0 0.209595 0 0.480512)
(0.562384 -0.0746127 0 0.210813 0 0.482678)
(0.568053 -0.0814654 0 0.211681 0 0.485059)
(0.573871 -0.0877326 0 0.211952 0 0.486914)