/*--------------------------------*- C++ -*----------------------------------*\
| =========                 |                                                 |
| \\      /  F ield         | OpenFOAM: The Open Source CFD Toolbox           |
|  \\    /   O peration     | Version:  v1906                                 |
|   \\  /    A nd           | Web:      www.OpenFOAM.com                      |
|    \\/     M anipulation  |                                                 |
\*---------------------------------------------------------------------------*/
FoamFile
{
    version     2.0;
    format      ascii;
    class       volVectorField;
    location    "1200";
    object      U;
}
// * * * * * * * * * * * * * * * * * * * * * * * * * * * * * * * * * * * * * //

dimensions      [0 1 -1 0 0 0 0];


internalField   nonuniform List<vector> 
12225
(
(9.79726 -0.108749 0)
(9.5067 -0.356755 0)
(9.26438 -0.488268 0)
(9.06596 -0.540815 0)
(8.903 -0.559443 0)
(8.76189 -0.565116 0)
(8.63573 -0.565549 0)
(8.52243 -0.563523 0)
(8.42065 -0.560117 0)
(8.32895 -0.555906 0)
(8.24632 -0.550986 0)
(8.17064 -0.545367 0)
(8.10162 -0.539528 0)
(8.03899 -0.533733 0)
(7.98341 -0.528182 0)
(7.93595 -0.524252 0)
(7.898 -0.516749 0)
(7.87564 -0.537043 0)
(10.0492 0.150442 0)
(10.0911 0.259748 0)
(10.0684 0.319247 0)
(10.0256 0.363324 0)
(9.98276 0.392935 0)
(9.93998 0.411576 0)
(9.89717 0.423521 0)
(9.85565 0.431319 0)
(9.81602 0.436161 0)
(9.77806 0.438909 0)
(9.74198 0.440158 0)
(9.70784 0.440354 0)
(9.67576 0.439557 0)
(9.64544 0.438026 0)
(9.61706 0.435277 0)
(9.58961 0.432535 0)
(9.56564 0.424926 0)
(9.54044 0.420786 0)
(10.0166 0.00775809 0)
(10.0499 -0.0105798 0)
(10.0415 -0.0528672 0)
(10.0182 -0.0930463 0)
(9.99669 -0.127453 0)
(9.97701 -0.155822 0)
(9.95816 -0.178136 0)
(9.94041 -0.195514 0)
(9.92379 -0.209295 0)
(9.90809 -0.220483 0)
(9.89314 -0.229591 0)
(9.87917 -0.237088 0)
(9.86603 -0.243368 0)
(9.85415 -0.24908 0)
(9.84292 -0.25434 0)
(9.83311 -0.260532 0)
(9.8241 -0.266792 0)
(9.80814 -0.28213 0)
(10.0096 0.0582928 0)
(10.039 0.0976355 0)
(10.0507 0.115019 0)
(10.0511 0.134089 0)
(10.0492 0.152964 0)
(10.0453 0.169391 0)
(10.0394 0.183378 0)
(10.0326 0.195158 0)
(10.0256 0.204915 0)
(10.0184 0.212951 0)
(10.0113 0.21962 0)
(10.0046 0.225169 0)
(9.9982 0.229682 0)
(9.99246 0.233156 0)
(9.98723 0.235609 0)
(9.98269 0.236694 0)
(9.97861 0.236409 0)
(9.97615 0.233333 0)
(10.0094 0.0199261 0)
(10.0406 0.0291247 0)
(10.0562 0.0219928 0)
(10.0605 0.0109469 0)
(10.0618 -0.00224797 0)
(10.0615 -0.0166631 0)
(10.0598 -0.0306329 0)
(10.0577 -0.0433936 0)
(10.0555 -0.0549238 0)
(10.0532 -0.0653383 0)
(10.0509 -0.0747412 0)
(10.0488 -0.083291 0)
(10.0469 -0.0912193 0)
(10.0452 -0.0988403 0)
(10.0438 -0.106386 0)
(10.0421 -0.114506 0)
(10.041 -0.122851 0)
(10.0339 -0.134116 0)
(10.0058 0.0332856 0)
(10.0286 0.0620043 0)
(10.0451 0.0731019 0)
(10.0548 0.0811743 0)
(10.0625 0.0887186 0)
(10.0684 0.0957586 0)
(10.0726 0.102622 0)
(10.0756 0.10926 0)
(10.0781 0.115441 0)
(10.08 0.121055 0)
(10.0816 0.126103 0)
(10.083 0.130584 0)
(10.0845 0.134456 0)
(10.0859 0.13761 0)
(10.0873 0.140014 0)
(10.0888 0.141403 0)
(10.0899 0.14191 0)
(10.0927 0.141564 0)
(10.0046 0.0160002 0)
(10.0242 0.0297568 0)
(10.0401 0.0320365 0)
(10.0498 0.0302007 0)
(10.057 0.0259026 0)
(10.0623 0.0197423 0)
(10.0662 0.0127371 0)
(10.0693 0.00550892 0)
(10.072 -0.00170272 0)
(10.0744 -0.0087758 0)
(10.0766 -0.0156408 0)
(10.0787 -0.0223096 0)
(10.0808 -0.0288606 0)
(10.0828 -0.035451 0)
(10.0847 -0.0421573 0)
(10.0861 -0.0493018 0)
(10.0871 -0.0564876 0)
(10.0845 -0.0651443 0)
(10.0032 0.0203264 0)
(10.0185 0.0433483 0)
(10.0328 0.0542828 0)
(10.0435 0.0607524 0)
(10.0529 0.0653108 0)
(10.0609 0.0688636 0)
(10.0677 0.0721281 0)
(10.0736 0.0753487 0)
(10.0789 0.0784934 0)
(10.0838 0.0814995 0)
(10.0883 0.0843204 0)
(10.0925 0.0868968 0)
(10.0966 0.0891598 0)
(10.1005 0.0910088 0)
(10.1042 0.0924016 0)
(10.1077 0.0932341 0)
(10.1108 0.0935428 0)
(10.1153 0.0939615 0)
(10.0019 0.011535 0)
(10.0136 0.0247751 0)
(10.0264 0.0300821 0)
(10.0365 0.0315928 0)
(10.0451 0.0307297 0)
(10.0523 0.02817 0)
(10.0583 0.0246214 0)
(10.0634 0.0205095 0)
(10.0681 0.0160443 0)
(10.0723 0.0113548 0)
(10.0763 0.00652262 0)
(10.08 0.00157223 0)
(10.0835 -0.00350745 0)
(10.0868 -0.00877709 0)
(10.0898 -0.0142384 0)
(10.0922 -0.0200085 0)
(10.0941 -0.0258104 0)
(10.0935 -0.0325277 0)
(10.0017 0.0127273 0)
(10.0116 0.0307061 0)
(10.023 0.0409779 0)
(10.0329 0.0472165 0)
(10.0421 0.0511579 0)
(10.0504 0.0537702 0)
(10.0578 0.0557722 0)
(10.0646 0.0575162 0)
(10.0709 0.0591263 0)
(10.0767 0.0606387 0)
(10.0822 0.0620529 0)
(10.0875 0.0633383 0)
(10.0924 0.0644557 0)
(10.0971 0.0653497 0)
(10.1015 0.0660067 0)
(10.1058 0.0664157 0)
(10.1097 0.0665998 0)
(10.1144 0.0672729 0)
(10.0007 0.00802871 0)
(10.0075 0.0191657 0)
(10.0172 0.0249777 0)
(10.0261 0.0276872 0)
(10.0345 0.0282602 0)
(10.042 0.0273316 0)
(10.0487 0.0254391 0)
(10.0547 0.0229083 0)
(10.0602 0.0199228 0)
(10.0653 0.0165971 0)
(10.07 0.0130028 0)
(10.0743 0.00917357 0)
(10.0784 0.00512468 0)
(10.0822 0.000846319 0)
(10.0856 -0.00363911 0)
(10.0884 -0.00837282 0)
(10.0908 -0.013177 0)
(10.0916 -0.0186711 0)
(10.0008 0.00817977 0)
(10.0074 0.0214831 0)
(10.0162 0.0300526 0)
(10.0248 0.0356083 0)
(10.0332 0.0390859 0)
(10.041 0.0412395 0)
(10.0483 0.0426325 0)
(10.0551 0.0435973 0)
(10.0615 0.044311 0)
(10.0675 0.0448647 0)
(10.0731 0.0453015 0)
(10.0785 0.0456313 0)
(10.0835 0.045855 0)
(10.0883 0.04596 0)
(10.0927 0.0459662 0)
(10.097 0.045901 0)
(10.1008 0.0458004 0)
(10.1052 0.046301 0)
(10.0002 0.00572937 0)
(10.0046 0.0146004 0)
(10.0119 0.0198357 0)
(10.0195 0.0227377 0)
(10.0271 0.0238285 0)
(10.0344 0.0236419 0)
(10.0411 0.0225734 0)
(10.0473 0.0208816 0)
(10.0531 0.0187279 0)
(10.0585 0.0162134 0)
(10.0635 0.0134022 0)
(10.0682 0.0103318 0)
(10.0726 0.00702595 0)
(10.0765 0.00350003 0)
(10.0801 -0.000228967 0)
(10.0833 -0.00415922 0)
(10.086 -0.00822553 0)
(10.088 -0.0129295 0)
(10.0005 0.00538042 0)
(10.005 0.0151496 0)
(10.0118 0.0221834 0)
(10.019 0.0272297 0)
(10.0265 0.0306699 0)
(10.0337 0.0330183 0)
(10.0407 0.0346676 0)
(10.0474 0.0358865 0)
(10.0537 0.0368466 0)
(10.0597 0.0376524 0)
(10.0654 0.0383661 0)
(10.0708 0.039021 0)
(10.0758 0.0396417 0)
(10.0806 0.040242 0)
(10.085 0.0408566 0)
(10.0892 0.0415354 0)
(10.0931 0.0422784 0)
(10.0969 0.0436949 0)
(10.0001 0.00340041 0)
(10.0028 0.00896914 0)
(10.008 0.0123711 0)
(10.0141 0.0142238 0)
(10.0207 0.0147533 0)
(10.0273 0.0142841 0)
(10.0338 0.0130618 0)
(10.0399 0.0112586 0)
(10.0457 0.00899294 0)
(10.0512 0.00634399 0)
(10.0564 0.00336402 0)
(10.0612 8.98003e-05 0)
(10.0657 -0.00345609 0)
(10.0698 -0.00725038 0)
(10.0736 -0.0112867 0)
(10.0771 -0.0155583 0)
(10.0803 -0.0200006 0)
(10.0832 -0.0250564 0)
(10.0002 0.00302274 0)
(10.0031 0.0089221 0)
(10.008 0.0137219 0)
(10.0137 0.0175994 0)
(10.0199 0.0206418 0)
(10.0262 0.0230698 0)
(10.0325 0.0250861 0)
(10.0385 0.0268487 0)
(10.0443 0.0284761 0)
(10.0498 0.0300512 0)
(10.055 0.0316318 0)
(10.0599 0.033256 0)
(10.0644 0.0349545 0)
(10.0686 0.0367473 0)
(10.0725 0.0386585 0)
(10.076 0.0407241 0)
(10.0792 0.0428645 0)
(10.0819 0.0456096 0)
(10.0001 0.00100301 0)
(10.0022 0.00247532 0)
(10.0063 0.0029535 0)
(10.0115 0.00263096 0)
(10.0174 0.00157621 0)
(10.0235 -9.99079e-05 0)
(10.0298 -0.00230112 0)
(10.036 -0.00495862 0)
(10.0421 -0.00802116 0)
(10.0479 -0.0114507 0)
(10.0535 -0.0152195 0)
(10.0589 -0.0193021 0)
(10.064 -0.0236792 0)
(10.0689 -0.0283236 0)
(10.0735 -0.0332104 0)
(10.0779 -0.0383143 0)
(10.082 -0.0435106 0)
(10.0863 -0.0491743 0)
(10 0.000963281 0)
(10.0016 0.00305736 0)
(10.0049 0.00522653 0)
(10.0091 0.00746781 0)
(10.0139 0.00976079 0)
(10.0188 0.0121303 0)
(10.0237 0.01461 0)
(10.0284 0.0172305 0)
(10.0328 0.0200187 0)
(10.0369 0.0229953 0)
(10.0406 0.0261735 0)
(10.0439 0.0295601 0)
(10.0469 0.0331549 0)
(10.0495 0.0369539 0)
(10.0517 0.04093 0)
(10.0535 0.0450911 0)
(10.0552 0.049267 0)
(10.0562 0.0539047 0)
(10.0003 -0.00191881 0)
(10.0031 -0.00590041 0)
(10.008 -0.00984887 0)
(10.0139 -0.0137423 0)
(10.0206 -0.0176411 0)
(10.0277 -0.0216197 0)
(10.0351 -0.0257526 0)
(10.0426 -0.0301013 0)
(10.0501 -0.0347087 0)
(10.0576 -0.0396002 0)
(10.065 -0.0447875 0)
(10.0723 -0.0502715 0)
(10.0793 -0.0560447 0)
(10.0863 -0.0620921 0)
(10.0929 -0.0683902 0)
(10.0993 -0.0749164 0)
(10.1053 -0.0815753 0)
(10.1111 -0.0885356 0)
(9.99985 -0.00211111 0)
(10.0009 -0.00538305 0)
(10.0038 -0.00726779 0)
(10.0075 -0.00805328 0)
(10.0116 -0.00793614 0)
(10.0156 -0.00706989 0)
(10.0193 -0.00559353 0)
(10.0227 -0.00361693 0)
(10.0256 -0.00122213 0)
(10.028 0.00153012 0)
(10.0299 0.00459791 0)
(10.0314 0.00795573 0)
(10.0324 0.0115983 0)
(10.033 0.0155321 0)
(10.0332 0.0197915 0)
(10.0331 0.0244111 0)
(10.033 0.0294169 0)
(10.0324 0.0350715 0)
(10.0006 -0.00470907 0)
(10.005 -0.013682 0)
(10.0115 -0.0209368 0)
(10.0187 -0.0267857 0)
(10.0263 -0.031639 0)
(10.0341 -0.0358526 0)
(10.0419 -0.0397299 0)
(10.0496 -0.0434798 0)
(10.0571 -0.0472227 0)
(10.0644 -0.0510206 0)
(10.0715 -0.0549018 0)
(10.0786 -0.0588783 0)
(10.0854 -0.0629611 0)
(10.0923 -0.0671696 0)
(10.099 -0.071554 0)
(10.1059 -0.0761886 0)
(10.1125 -0.0811826 0)
(10.1197 -0.0868931 0)
(9.99993 -0.00474892 0)
(10.0025 -0.0119663 0)
(10.0076 -0.0160307 0)
(10.013 -0.017859 0)
(10.0182 -0.0179952 0)
(10.0227 -0.0167918 0)
(10.0266 -0.0145901 0)
(10.0298 -0.0116744 0)
(10.0324 -0.00825484 0)
(10.0344 -0.00449084 0)
(10.036 -0.00050601 0)
(10.0371 0.00360902 0)
(10.0378 0.00779713 0)
(10.0379 0.0120345 0)
(10.0376 0.0163514 0)
(10.0364 0.0208366 0)
(10.0348 0.0256697 0)
(10.0317 0.0314028 0)
(10.0012 -0.00957686 0)
(10.0087 -0.0254492 0)
(10.0184 -0.0362221 0)
(10.0277 -0.0439791 0)
(10.0367 -0.0501267 0)
(10.0454 -0.0554185 0)
(10.0536 -0.0603636 0)
(10.0613 -0.0652322 0)
(10.0685 -0.070099 0)
(10.0754 -0.0749524 0)
(10.0818 -0.0797546 0)
(10.088 -0.0844622 0)
(10.094 -0.0890335 0)
(10.0999 -0.0934407 0)
(10.1059 -0.0976895 0)
(10.1124 -0.101849 0)
(10.1194 -0.106116 0)
(10.1285 -0.111165 0)
(10.0009 -0.00810321 0)
(10.0084 -0.0182531 0)
(10.0179 -0.0220236 0)
(10.0253 -0.0220746 0)
(10.031 -0.0196031 0)
(10.0353 -0.015179 0)
(10.0385 -0.00949084 0)
(10.0408 -0.00312468 0)
(10.0426 0.00354707 0)
(10.044 0.0102771 0)
(10.045 0.0168859 0)
(10.0457 0.0232492 0)
(10.0462 0.0292821 0)
(10.0462 0.034924 0)
(10.0458 0.0401397 0)
(10.0443 0.0449431 0)
(10.042 0.0494921 0)
(10.0357 0.0545869 0)
(10.0027 -0.0199673 0)
(10.0162 -0.0449006 0)
(10.0301 -0.0584792 0)
(10.0411 -0.0683455 0)
(10.0508 -0.0773166 0)
(10.0594 -0.085926 0)
(10.0667 -0.0944347 0)
(10.073 -0.102873 0)
(10.0785 -0.111066 0)
(10.0833 -0.118847 0)
(10.0875 -0.126132 0)
(10.0914 -0.132881 0)
(10.0949 -0.139069 0)
(10.0982 -0.144674 0)
(10.1015 -0.149655 0)
(10.1054 -0.153975 0)
(10.1099 -0.157628 0)
(10.1194 -0.161177 0)
(10.0045 -0.0117402 0)
(10.0233 -0.0210082 0)
(10.037 -0.0181346 0)
(10.043 -0.00989789 0)
(10.0456 0.00144906 0)
(10.0467 0.014764 0)
(10.0466 0.0285229 0)
(10.046 0.0417258 0)
(10.0452 0.0539934 0)
(10.0443 0.0652168 0)
(10.0432 0.0753746 0)
(10.0421 0.084494 0)
(10.0409 0.0926266 0)
(10.0395 0.0998209 0)
(10.038 0.106088 0)
(10.0357 0.111392 0)
(10.0328 0.115658 0)
(10.0237 0.119369 0)
(10.0057 -0.0439042 0)
(10.0279 -0.081819 0)
(10.0434 -0.101289 0)
(10.051 -0.120674 0)
(10.0557 -0.140544 0)
(10.0584 -0.158893 0)
(10.059 -0.175294 0)
(10.0582 -0.189765 0)
(10.0565 -0.202277 0)
(10.0544 -0.21295 0)
(10.052 -0.222013 0)
(10.0493 -0.229693 0)
(10.0466 -0.236173 0)
(10.0437 -0.241608 0)
(10.0409 -0.246087 0)
(10.0386 -0.249638 0)
(10.0365 -0.252081 0)
(10.0415 -0.253155 0)
(10.0127 -0.0041016 0)
(10.0433 0.00726957 0)
(10.0436 0.0413077 0)
(10.029 0.0774572 0)
(10.0138 0.11068 0)
(10.0003 0.139456 0)
(9.9876 0.163102 0)
(9.97563 0.182052 0)
(9.96454 0.197253 0)
(9.95412 0.209539 0)
(9.94418 0.219493 0)
(9.93462 0.227543 0)
(9.92543 0.23402 0)
(9.91653 0.239176 0)
(9.908 0.243175 0)
(9.8994 0.246116 0)
(9.89131 0.247884 0)
(9.87624 0.248707 0)
(10.0321 -0.126625 0)
(10.0676 -0.225597 0)
(10.0594 -0.280264 0)
(10.0339 -0.322904 0)
(10.008 -0.353515 0)
(9.98309 -0.374037 0)
(9.95834 -0.387998 0)
(9.93444 -0.397644 0)
(9.91184 -0.404169 0)
(9.89043 -0.408336 0)
(9.86996 -0.410706 0)
(9.85036 -0.411694 0)
(9.83156 -0.411592 0)
(9.81354 -0.41063 0)
(9.79621 -0.408964 0)
(9.77991 -0.406841 0)
(9.76426 -0.404203 0)
(9.7579 -0.400589 0)
(9.86117 0.0769212 0)
(9.66243 0.274094 0)
(9.48808 0.393152 0)
(9.34016 0.447737 0)
(9.2173 0.470357 0)
(9.10934 0.479051 0)
(9.01029 0.481313 0)
(8.91871 0.480319 0)
(8.83406 0.477582 0)
(8.75566 0.473821 0)
(8.68289 0.469375 0)
(8.6153 0.464424 0)
(8.5525 0.459072 0)
(8.49407 0.453402 0)
(8.4396 0.447403 0)
(8.3885 0.441242 0)
(8.34045 0.434001 0)
(8.28941 0.426421 0)
(-0.0344815 -0.103869 -3.06533e-19)
(0.0850136 -0.166626 1.69852e-19)
(0.168803 -0.199364 0)
(0.243163 -0.19637 0)
(0.311768 -0.187003 0)
(0.373041 -0.175338 -7.6291e-20)
(0.427017 -0.165042 0)
(0.475773 -0.155416 0)
(0.520258 -0.147064 0)
(0.561218 -0.139544 0)
(0.598954 -0.132902 5.76758e-20)
(0.633767 -0.126909 0)
(0.665847 -0.121527 0)
(0.695401 -0.116617 0)
(0.722577 -0.112101 0)
(0.74746 -0.107856 5.06371e-20)
(0.770068 -0.103772 0)
(0.790204 -0.0997314 0)
(0.80781 -0.0955872 0)
(0.82219 -0.0911922 0)
(0.833254 -0.0862949 0)
(0.840377 -0.0807116 0)
(0.842977 -0.0737217 0)
(0.839223 -0.0646142 4.80973e-20)
(0.828699 -0.0532599 -4.85374e-20)
(0.8106 -0.0396513 4.92671e-20)
(0.783643 -0.0245221 5.03433e-20)
(0.746909 -0.00888215 0)
(0.699965 0.00606987 0)
(0.643431 0.0189254 -5.69324e-20)
(0.579054 0.0284619 -6.07023e-20)
(0.510205 0.0342624 0)
(0.438798 0.0362006 0)
(0.36725 0.033297 -7.91393e-20)
(0.300889 0.0241913 0)
(0.244336 0.00951959 0)
(0.20166 -0.00898424 1.06895e-19)
(0.17416 -0.0284443 0)
(0.15666 -0.0425337 1.19744e-19)
(0.137107 -0.0442551 2.49902e-19)
(0.106859 -0.02936 0)
(0.0580478 -0.00593208 0)
(-0.0141584 0.00787087 0)
(-0.0918063 0.013615 0)
(-0.174357 0.0186974 0)
(-0.263453 0.022262 1.77695e-19)
(-0.356343 0.023515 1.53411e-19)
(-0.451323 0.0228269 1.35128e-19)
(-0.545496 0.0209801 0)
(-0.637498 0.018512 -1.10175e-19)
(-0.727554 0.0152475 0)
(-0.814697 0.0109483 9.44627e-20)
(-0.897758 0.00578235 8.86876e-20)
(-0.97649 -3.77874e-05 0)
(-1.05068 -0.00633985 0)
(-1.12026 -0.0129003 0)
(-1.18537 -0.0195213 7.3559e-20)
(-1.24627 -0.0260612 0)
(-1.3033 -0.0324279 0)
(-1.35684 -0.0385761 0)
(-1.40728 -0.0444927 0)
(-1.455 -0.0501907 0)
(-1.50035 -0.055698 0)
(-1.54363 -0.0610528 0)
(-1.58512 -0.0662966 0)
(-1.62505 -0.0714723 -5.85903e-20)
(-1.66361 -0.0766207 0)
(-1.70096 -0.0817799 0)
(-1.73722 -0.0869834 5.56348e-20)
(-1.7725 -0.0922609 5.47515e-20)
(-1.80686 -0.0976366 0)
(-1.84037 -0.103131 -5.31024e-20)
(-1.87306 -0.108759 5.2328e-20)
(-1.90494 -0.114532 0)
(-1.93605 -0.120456 -5.0863e-20)
(-1.96636 -0.126534 0)
(-1.99589 -0.132766 0)
(-2.02461 -0.139145 4.88378e-20)
(-2.0525 -0.145664 0)
(-2.07954 -0.152311 -4.758e-20)
(-2.1057 -0.159071 0)
(-2.13095 -0.165928 4.63815e-20)
(-2.15525 -0.17286 4.58013e-20)
(-2.17858 -0.179846 4.52323e-20)
(-2.20087 -0.186863 8.93465e-20)
(-2.2221 -0.193883 -8.82466e-20)
(-2.24221 -0.200882 0)
(-2.26115 -0.207831 0)
(-2.27887 -0.214702 0)
(-2.29529 -0.221464 -8.39944e-20)
(-2.31037 -0.228088 -8.29616e-20)
(-2.32401 -0.234535 8.19392e-20)
(-2.33615 -0.240762 0)
(-2.34668 -0.246713 -7.99234e-20)
(-2.35554 -0.25231 -7.89291e-20)
(-2.36263 -0.257447 -7.79426e-20)
(-2.36791 -0.261969 0)
(-2.37132 -0.265664 0)
(-2.37287 -0.268401 0)
(-2.3734 -0.270554 -7.3934e-20)
(-2.37286 -0.272301 0)
(-2.37129 -0.273697 0)
(-2.36864 -0.274853 7.06769e-20)
(-2.3649 -0.275937 0)
(-2.36012 -0.277065 0)
(-2.3543 -0.278276 6.71171e-20)
(-2.34743 -0.279595 0)
(-2.33948 -0.28103 0)
(-2.33042 -0.282583 -6.32032e-20)
(-2.32023 -0.28425 -6.18191e-20)
(-2.30886 -0.286017 0)
(-2.29627 -0.287863 5.89211e-20)
(-2.28243 -0.289767 0)
(-2.26731 -0.291709 -5.581e-20)
(-2.25088 -0.29366 0)
(-2.23315 -0.295587 -5.24631e-20)
(-2.21411 -0.297447 -5.06938e-20)
(-2.19381 -0.2992 0)
(-2.1723 -0.300855 0)
(-2.14966 -0.302557 0)
(-2.12599 -0.304452 0)
(-2.10114 -0.306461 0)
(-2.07508 -0.308538 0)
(-2.04786 -0.310718 0)
(-2.01942 -0.312965 -3.37936e-20)
(-1.98977 -0.315354 3.12951e-20)
(-1.95894 -0.317863 0)
(-1.92684 -0.320446 0)
(-1.89344 -0.323117 0)
(-1.85877 -0.325904 0)
(-1.82283 -0.328826 3.44502e-20)
(-1.78557 -0.331859 0)
(-1.74697 -0.335021 -2.14856e-20)
(-1.70711 -0.338387 1.45794e-20)
(-1.66583 -0.341791 0)
(-1.62308 -0.345495 0)
(-1.57907 -0.349234 0)
(-1.53327 -0.353266 1.63726e-20)
(-1.48629 -0.357378 2.50695e-20)
(-1.43732 -0.361778 0)
(-1.38705 -0.366369 4.38506e-20)
(-1.33473 -0.371266 5.40189e-20)
(-1.28092 -0.376384 -6.47689e-20)
(-1.22474 -0.381701 0)
(-1.16669 -0.38733 0)
(-1.10636 -0.393219 -1.01227e-19)
(-1.04373 -0.399346 0)
(-0.978822 -0.406157 0)
(-0.911976 -0.413088 0)
(-0.842047 -0.420473 0)
(-0.770363 -0.428289 1.8187e-19)
(-0.695579 -0.43654 2.0226e-19)
(-0.61847 -0.445465 0)
(-0.538643 -0.454905 2.49199e-19)
(-0.456291 -0.464972 0)
(-0.37133 -0.475741 0)
(-0.283806 -0.487269 3.4114e-19)
(-0.193804 -0.499352 0)
(-0.101871 -0.511254 4.24801e-19)
(-0.00761436 -0.517341 0)
(0.0907013 -0.511727 0)
(0.1928 -0.501627 4.38479e-19)
(0.297902 -0.491118 0)
(0.402248 -0.479241 4.08661e-19)
(0.506401 -0.467394 0)
(0.610353 -0.456668 0)
(0.71401 -0.446969 0)
(0.817313 -0.438017 -3.63888e-19)
(0.920189 -0.429627 0)
(1.02239 -0.421676 3.45747e-19)
(1.12379 -0.414119 0)
(1.22393 -0.406892 0)
(1.32273 -0.400027 0)
(1.41923 -0.393433 0)
(1.51368 -0.387229 0)
(1.60327 -0.381249 0)
(1.69066 -0.375653 0)
(1.7617 -0.370565 -5.83466e-19)
(1.83989 -0.363425 0)
(1.82611 -0.361827 0)
(-0.056436 -0.199999 4.96272e-19)
(0.130816 -0.20777 -2.33527e-19)
(0.145675 -0.204122 0)
(0.182782 -0.157332 7.63919e-20)
(0.209614 -0.134003 0)
(0.241331 -0.106658 2.95763e-20)
(0.270672 -0.091276 -5.5664e-20)
(0.302603 -0.0765196 -5.2743e-20)
(0.333178 -0.0665755 0)
(0.363478 -0.0568357 -4.86765e-20)
(0.391998 -0.048694 -2.33797e-20)
(0.418819 -0.0406766 0)
(0.443584 -0.0334489 0)
(0.466513 -0.026534 0)
(0.487663 -0.0200786 0)
(0.507177 -0.0136989 -2.11619e-20)
(0.525008 -0.00720341 0)
(0.541046 -0.000272592 4.16005e-20)
(0.555069 0.00726693 0)
(0.566986 0.015638 0)
(0.576624 0.0246009 -4.08218e-20)
(0.584588 0.0343282 0)
(0.591091 0.0449632 4.10555e-20)
(0.598272 0.0564692 -2.05602e-20)
(0.60488 0.068938 2.06559e-20)
(0.609758 0.0831096 -2.07062e-20)
(0.61043 0.0997428 -2.07064e-20)
(0.602926 0.118882 0)
(0.583877 0.138815 0)
(0.551048 0.156891 2.07448e-20)
(0.504339 0.170545 -2.10539e-20)
(0.446241 0.178362 0)
(0.380359 0.179779 0)
(0.310193 0.174155 2.12694e-20)
(0.238904 0.160745 0)
(0.168575 0.138787 0)
(0.097299 0.111511 -2.36709e-20)
(0.0206819 0.0923773 0)
(-0.0662565 0.0937819 2.41928e-20)
(-0.163531 0.112164 -4.58343e-20)
(-0.265771 0.138727 0)
(-0.367983 0.165416 0)
(-0.471998 0.187403 -7.85764e-20)
(-0.578079 0.204604 -7.52864e-20)
(-0.684415 0.217506 -7.25176e-20)
(-0.78757 0.225736 3.5449e-20)
(-0.885166 0.229134 -3.39616e-20)
(-0.9755 0.22808 -1.00649e-19)
(-1.05731 0.223571 6.6443e-20)
(-1.12986 0.216798 3.25934e-20)
(-1.19279 0.208418 0)
(-1.24634 0.198988 -3.20696e-20)
(-1.29129 0.189146 3.23456e-20)
(-1.32867 0.179445 0)
(-1.35957 0.170283 0)
(-1.3851 0.161938 0)
(-1.40628 0.15458 -3.07601e-20)
(-1.42397 0.148282 0)
(-1.4389 0.143051 6.09317e-20)
(-1.45166 0.138837 0)
(-1.46271 0.135563 6.00687e-20)
(-1.47239 0.133135 0)
(-1.48098 0.131455 -5.93407e-20)
(-1.48866 0.13043 0)
(-1.49558 0.129972 5.87318e-20)
(-1.50181 0.130006 -2.93721e-20)
(-1.50743 0.130466 0)
(-1.51247 0.131298 -5.79831e-20)
(-1.51695 0.132456 -2.87409e-20)
(-1.52091 0.133902 -2.86339e-20)
(-1.52433 0.135608 0)
(-1.52723 0.137546 -2.87166e-20)
(-1.52962 0.139699 -2.83209e-20)
(-1.53151 0.142047 0)
(-1.5329 0.144576 2.81063e-20)
(-1.53382 0.147272 -5.6303e-20)
(-1.53427 0.150121 0)
(-1.53428 0.153109 -2.7754e-20)
(-1.53388 0.156222 0)
(-1.5331 0.159443 8.28128e-20)
(-1.53198 0.162754 0)
(-1.53057 0.166136 -8.19389e-20)
(-1.5289 0.169568 -2.70281e-20)
(-1.52704 0.173024 2.72427e-20)
(-1.52504 0.176479 5.41399e-20)
(-1.52299 0.179906 -5.37721e-20)
(-1.52095 0.183272 0)
(-1.51903 0.186547 0)
(-1.51732 0.189695 0)
(-1.51593 0.192679 1.54347e-19)
(-1.51499 0.19546 5.06277e-20)
(-1.51465 0.197995 -5.00851e-20)
(-1.51504 0.20024 0)
(-1.51631 0.202147 -4.99409e-20)
(-1.51861 0.203662 4.83205e-20)
(-1.52206 0.204731 4.76894e-20)
(-1.52672 0.205318 0)
(-1.53256 0.20544 0)
(-1.53958 0.205172 0)
(-1.54663 0.204678 4.49072e-20)
(-1.55358 0.20377 0)
(-1.5603 0.202366 -8.79758e-20)
(-1.56675 0.200427 -1.28899e-19)
(-1.57263 0.198228 8.46756e-20)
(-1.57762 0.196032 0)
(-1.58161 0.193856 4.12689e-20)
(-1.58451 0.191734 0)
(-1.58629 0.189671 7.74443e-20)
(-1.58694 0.187664 -3.85203e-20)
(-1.58644 0.185706 -3.75765e-20)
(-1.58479 0.183787 0)
(-1.58202 0.181902 -1.03687e-19)
(-1.57814 0.180049 6.75957e-20)
(-1.57317 0.178222 3.18892e-20)
(-1.56713 0.176417 0)
(-1.56008 0.174636 2.96197e-20)
(-1.55205 0.172886 8.70955e-20)
(-1.54307 0.171192 0)
(-1.53314 0.169575 5.37713e-20)
(-1.52221 0.168027 5.12221e-20)
(-1.51021 0.166517 4.86158e-20)
(-1.49699 0.165003 0)
(-1.48262 0.163524 0)
(-1.46701 0.16209 0)
(-1.4502 0.160716 -1.98722e-20)
(-1.43217 0.159403 -1.63104e-20)
(-1.41289 0.158103 0)
(-1.39233 0.15681 -2.88159e-20)
(-1.37054 0.155571 -2.57504e-20)
(-1.34754 0.154393 0)
(-1.32331 0.153255 -1.70874e-20)
(-1.29784 0.152152 -3.23371e-20)
(-1.2711 0.151094 1.042e-20)
(-1.24314 0.150064 1.19124e-20)
(-1.21369 0.148973 0)
(-1.18315 0.14798 0)
(-1.15091 0.146881 0)
(-1.1176 0.145881 -7.48699e-21)
(-1.08245 0.144771 5.93822e-21)
(-1.04614 0.143726 2.49404e-20)
(-1.00788 0.142568 -1.91818e-20)
(-0.968366 0.141461 1.7617e-20)
(-0.926749 0.140155 2.74307e-20)
(-0.88352 0.138741 0)
(-0.838175 0.137226 0)
(-0.790815 0.135628 -3.45408e-20)
(-0.741083 0.134011 0)
(-0.689444 0.13251 0)
(-0.634847 0.130775 1.03264e-19)
(-0.578366 0.129061 0)
(-0.518653 0.127162 5.83847e-20)
(-0.456489 0.125245 -7.02728e-20)
(-0.391353 0.12331 0)
(-0.323539 0.121272 7.44403e-20)
(-0.252747 0.119149 0)
(-0.178969 0.11685 0)
(-0.102004 0.114368 -9.93978e-20)
(-0.0217649 0.111527 2.0337e-19)
(0.0619204 0.108013 -1.09623e-19)
(0.148748 0.105039 0)
(0.237414 0.104062 0)
(0.326389 0.104656 1.10261e-19)
(0.417541 0.105068 0)
(0.512261 0.105095 1.14467e-19)
(0.609204 0.105274 0)
(0.707627 0.105858 0)
(0.80685 0.106775 0)
(0.906465 0.107942 1.26538e-19)
(1.00623 0.109273 0)
(1.10582 0.110831 -1.28113e-19)
(1.20503 0.112562 0)
(1.30338 0.11467 0)
(1.40072 0.117003 2.52985e-19)
(1.49601 0.120077 -2.53128e-19)
(1.58956 0.123443 0)
(1.67856 0.128422 0)
(1.7655 0.134397 0)
(1.84065 0.144223 7.59907e-19)
(1.91829 0.163495 0)
(1.96678 0.200052 -5.19838e-19)
(-0.156264 -0.35089 5.71709e-22)
(0.117004 -0.285966 2.63751e-19)
(0.0294622 -0.28668 0)
(0.0957317 -0.241335 -1.12588e-19)
(0.0848633 -0.24629 0)
(0.123865 -0.23018 0)
(0.140243 -0.230238 -1.63304e-22)
(0.174786 -0.217977 3.34958e-20)
(0.202054 -0.210862 3.17051e-20)
(0.234734 -0.198127 3.01098e-20)
(0.262558 -0.186802 0)
(0.29001 -0.173647 0)
(0.314023 -0.162088 -2.72164e-20)
(0.33666 -0.150796 -5.30051e-20)
(0.357164 -0.140747 5.17509e-20)
(0.376285 -0.130839 0)
(0.393358 -0.120927 4.96543e-20)
(0.408052 -0.110229 -2.43036e-20)
(0.419428 -0.0987039 0)
(0.426696 -0.086165 4.73016e-20)
(0.428434 -0.0732842 2.33418e-20)
(0.423841 -0.0609355 -4.65749e-20)
(0.413783 -0.0490476 -2.31643e-20)
(0.400151 -0.0364815 0)
(0.384552 -0.0193297 4.6467e-20)
(0.367592 0.00572289 4.65196e-20)
(0.348264 0.0412664 0)
(0.324192 0.0874014 4.66513e-20)
(0.293074 0.140381 0)
(0.25371 0.192906 4.70175e-20)
(0.20639 0.236745 2.35206e-20)
(0.152528 0.26701 0)
(0.0940587 0.282309 0)
(0.0322571 0.281892 0)
(-0.0332009 0.267671 0)
(-0.105121 0.248844 0)
(-0.189082 0.237643 0)
(-0.287113 0.241456 4.69108e-20)
(-0.394511 0.258926 -6.81377e-20)
(-0.504523 0.284021 0)
(-0.61179 0.310935 0)
(-0.712588 0.334211 0)
(-0.805382 0.349422 -4.1756e-22)
(-0.889418 0.355204 3.92441e-20)
(-0.963626 0.35198 7.76938e-20)
(-1.02754 0.340546 -7.67948e-20)
(-1.08131 0.322233 -3.83277e-20)
(-1.12571 0.298798 3.76681e-20)
(-1.16216 0.272115 4.27257e-22)
(-1.19193 0.243865 3.78616e-20)
(-1.21629 0.215499 0)
(-1.23668 0.188156 3.75532e-20)
(-1.25436 0.162673 2.72037e-22)
(-1.27037 0.139543 0)
(-1.28554 0.118964 0)
(-1.30042 0.100921 -3.65741e-20)
(-1.31543 0.0852565 0)
(-1.33079 0.0717244 0)
(-1.34664 0.0600417 3.58815e-20)
(-1.36303 0.0499172 7.09788e-20)
(-1.37997 0.041075 -3.51256e-20)
(-1.39745 0.0332641 0)
(-1.41543 0.0262659 3.46913e-20)
(-1.43387 0.0198932 0)
(-1.45275 0.0139905 3.45415e-20)
(-1.47203 0.0084294 3.41313e-20)
(-1.49166 0.00310623 -6.81684e-20)
(-1.51162 -0.00206243 -3.40488e-20)
(-1.53188 -0.0071422 0)
(-1.5524 -0.0121848 6.72346e-20)
(-1.57314 -0.0172296 0)
(-1.59408 -0.0223066 9.97998e-20)
(-1.61517 -0.0274373 6.63156e-20)
(-1.63636 -0.0326367 6.59987e-20)
(-1.65763 -0.0379135 -6.56727e-20)
(-1.67891 -0.043272 9.78477e-20)
(-1.70016 -0.048711 0)
(-1.72132 -0.0542261 0)
(-1.74234 -0.0598084 -6.42456e-20)
(-1.76317 -0.0654457 -9.56035e-20)
(-1.78374 -0.0711218 0)
(-1.80399 -0.0768171 3.13237e-20)
(-1.82387 -0.0825082 0)
(-1.84331 -0.0881677 -9.29713e-20)
(-1.86225 -0.0937643 3.96216e-22)
(-1.88064 -0.099263 -4.05232e-22)
(-1.89841 -0.104625 6.06186e-20)
(-1.91552 -0.109808 0)
(-1.9319 -0.114767 -5.95387e-20)
(-1.94752 -0.119456 4.39205e-22)
(-1.96233 -0.123828 0)
(-1.97628 -0.12784 0)
(-1.98936 -0.131453 0)
(-2.00153 -0.13464 5.61452e-20)
(-2.01277 -0.137393 0)
(-2.02305 -0.139729 0)
(-2.03233 -0.141705 0)
(-2.0405 -0.143455 0)
(-2.04749 -0.145149 0)
(-2.05322 -0.146723 5.27413e-20)
(-2.05759 -0.147981 0)
(-2.06052 -0.148845 5.06397e-20)
(-2.06188 -0.149305 4.97876e-20)
(-2.06194 -0.149752 -4.88865e-20)
(-2.06092 -0.150391 0)
(-2.05887 -0.151128 -4.69691e-20)
(-2.0558 -0.15197 0)
(-2.05172 -0.152889 -4.49143e-20)
(-2.0466 -0.153867 4.38393e-20)
(-2.04044 -0.154891 1.29501e-19)
(-2.03322 -0.15595 0)
(-2.02493 -0.157032 1.22593e-19)
(-2.01555 -0.158117 4.05617e-20)
(-2.00509 -0.159182 0)
(-1.99354 -0.160202 7.47044e-20)
(-1.98088 -0.161156 7.20564e-20)
(-1.96711 -0.162033 -1.03278e-19)
(-1.9522 -0.162843 0)
(-1.9361 -0.163629 -3.10863e-20)
(-1.91876 -0.164482 -2.95999e-20)
(-1.90017 -0.16545 -8.5762e-20)
(-1.88037 -0.166469 0)
(-1.85935 -0.167504 0)
(-1.83709 -0.168556 0)
(-1.81359 -0.169618 -2.32906e-20)
(-1.78882 -0.170698 0)
(-1.76278 -0.171793 0)
(-1.73548 -0.172874 1.65558e-20)
(-1.7069 -0.173938 1.47783e-20)
(-1.67699 -0.175 0)
(-1.64574 -0.176068 0)
(-1.61313 -0.177142 1.84858e-20)
(-1.5791 -0.178232 0)
(-1.54364 -0.179366 -1.07686e-20)
(-1.50672 -0.180489 -8.62242e-21)
(-1.46831 -0.181661 0)
(-1.42833 -0.182843 0)
(-1.38677 -0.184069 -3.60616e-21)
(-1.34353 -0.185327 -1.9014e-21)
(-1.29857 -0.186648 -1.92362e-21)
(-1.2518 -0.18802 0)
(-1.20316 -0.189498 -4.37808e-20)
(-1.15254 -0.191098 0)
(-1.09986 -0.192802 0)
(-1.04501 -0.194612 0)
(-0.987881 -0.196478 4.14897e-20)
(-0.928362 -0.198346 0)
(-0.866316 -0.200296 -9.83663e-20)
(-0.801565 -0.202277 -5.63157e-20)
(-0.734039 -0.204461 0)
(-0.663631 -0.206719 -6.66122e-20)
(-0.59041 -0.208861 0)
(-0.51429 -0.210982 0)
(-0.435218 -0.213047 -2.43486e-19)
(-0.353125 -0.215086 1.71792e-19)
(-0.268112 -0.217041 0)
(-0.180271 -0.218875 1.94183e-19)
(-0.0899034 -0.22066 -1.05162e-19)
(0.00282098 -0.222493 0)
(0.0977821 -0.22483 0)
(0.194904 -0.227655 0)
(0.294147 -0.230323 -3.58142e-19)
(0.395082 -0.232094 0)
(0.497364 -0.232796 -1.26712e-19)
(0.600804 -0.232828 0)
(0.705276 -0.23263 0)
(0.810553 -0.232303 0)
(0.916319 -0.231826 0)
(1.02228 -0.231209 0)
(1.12803 -0.230372 0)
(1.23329 -0.22935 -2.79872e-19)
(1.33748 -0.227963 0)
(1.44043 -0.22633 -1.44012e-19)
(1.54102 -0.224014 4.31434e-19)
(1.63959 -0.221329 0)
(1.7333 -0.217187 0)
(1.82497 -0.212154 -2.89504e-19)
(1.9053 -0.203633 -2.93221e-19)
(1.98846 -0.189405 2.93133e-19)
(2.04693 -0.170703 3.03486e-19)
(-0.224475 -0.397031 -7.30073e-19)
(0.120877 -0.286651 -3.59834e-19)
(-0.0341121 -0.297105 -1.34177e-19)
(0.065042 -0.245911 -4.86654e-20)
(0.0138515 -0.243357 0)
(0.0587059 -0.224816 6.61026e-20)
(0.0405053 -0.226813 -2.94426e-20)
(0.0676649 -0.218306 0)
(0.0692545 -0.213469 -2.4997e-20)
(0.0911396 -0.197575 0)
(0.101008 -0.181772 4.53402e-20)
(0.118225 -0.162928 0)
(0.128522 -0.146709 2.09893e-20)
(0.141227 -0.131212 4.07564e-20)
(0.150253 -0.117674 -3.97023e-20)
(0.159744 -0.103644 0)
(0.16669 -0.0883153 -3.80096e-20)
(0.1726 -0.0701294 0)
(0.175638 -0.0486624 0)
(0.175766 -0.0226984 -3.62366e-20)
(0.171085 0.00742381 0)
(0.159677 0.0370523 -1.27843e-22)
(0.140428 0.0617605 0)
(0.114202 0.0810115 0)
(0.081698 0.0978963 1.51939e-22)
(0.0447 0.118264 -3.55807e-20)
(0.00430627 0.148193 -3.58429e-20)
(-0.0376634 0.189542 -3.55107e-20)
(-0.0796552 0.238044 0)
(-0.120332 0.286036 -7.01212e-20)
(-0.159923 0.326093 0)
(-0.199908 0.354006 -3.47295e-20)
(-0.24241 0.369347 0)
(-0.290446 0.375153 0)
(-0.34815 0.377579 3.39267e-20)
(-0.418349 0.383074 0)
(-0.499838 0.394257 -3.30222e-20)
(-0.587378 0.409862 3.81034e-22)
(-0.674333 0.426824 6.32081e-20)
(-0.755378 0.441905 -6.22418e-20)
(-0.82696 0.452445 0)
(-0.887174 0.456195 0)
(-0.935902 0.451818 -2.97026e-20)
(-0.97406 0.439354 0)
(-1.00309 0.419957 -2.81694e-20)
(-1.02499 0.395363 2.79164e-20)
(-1.04184 0.367541 2.77348e-20)
(-1.05562 0.3385 0)
(-1.06804 0.309864 -2.74832e-20)
(-1.08036 0.282772 -2.73808e-20)
(-1.09348 0.258058 5.50917e-20)
(-1.1079 0.236169 -2.71756e-20)
(-1.12382 0.217229 -2.70601e-20)
(-1.14117 0.201134 0)
(-1.15977 0.187652 0)
(-1.17938 0.176485 2.666e-20)
(-1.19975 0.167328 0)
(-1.22066 0.159887 0)
(-1.24191 0.153898 -5.24993e-20)
(-1.26336 0.149129 -5.22487e-20)
(-1.28491 0.14538 0)
(-1.30646 0.14248 0)
(-1.32797 0.140285 0)
(-1.34939 0.138672 0)
(-1.3707 0.137541 -5.12404e-20)
(-1.39187 0.136805 5.1378e-20)
(-1.41289 0.136394 5.09314e-20)
(-1.43373 0.136251 1.01879e-19)
(-1.45437 0.136329 0)
(-1.4748 0.136589 3.11029e-22)
(-1.49499 0.136998 0)
(-1.51491 0.137533 -5.02375e-20)