/*--------------------------------*- C++ -*----------------------------------*\
| =========                 |                                                 |
| \\      /  F ield         | OpenFOAM: The Open Source CFD Toolbox           |
|  \\    /   O peration     | Version:  v1906                                 |
|   \\  /    A nd           | Web:      www.OpenFOAM.com                      |
|    \\/     M anipulation  |                                                 |
\*---------------------------------------------------------------------------*/
FoamFile
{
    version     2.0;
    format      ascii;
    class       volScalarField;
    location    "1000";
    object      epsilon;
}
// * * * * * * * * * * * * * * * * * * * * * * * * * * * * * * * * * * * * * //

dimensions      [0 2 -3 0 0 0 0];


internalField   nonuniform List<scalar> 
12225
(
8534.02
8352.96
7991.42
7605.2
7244.5
6922.67
6639.5
6394
6175.75
5989.64
5816.82
5677.92
5566.84
5477.58
5396.47
5338.65
5269.85
5244.56
612.839
1496.61
1698.51
1689.04
1643.04
1564.93
1506.96
1460.91
1422.65
1390.08
1362.64
1338.47
1319.83
1303.5
1289.72
1278.65
1263.58
1255.21
136.092
458.852
618.691
686.909
717.292
720.649
717.544
710.192
700.229
689.664
679.633
669.629
660.533
652.022
643.935
637.307
628.922
625.011
58.4939
196.181
292.427
349.164
383.803
402.627
412.963
418.154
419.59
419.042
417.5
414.745
411.548
408.132
404.486
401.258
396.844
395.142
35.9829
104.797
162.953
203.26
231.264
250.086
262.819
271.452
277.072
280.608
282.778
283.857
284.055
283.83
283.213
282.392
280.837
280.765
26.8376
65.6334
102.216
130.423
151.685
167.442
179.136
187.865
194.344
199.128
202.67
205.248
207.044
208.283
209.081
209.562
209.666
210.205
22.3043
46.1289
70.086
90.0232
105.966
118.521
128.391
136.179
142.328
147.187
151.041
154.096
156.5
158.389
159.864
161.014
161.839
162.877
19.7657
35.3022
51.5618
65.8837
77.8818
87.7539
95.8396
102.47
107.916
112.397
116.097
119.159
121.693
123.792
125.532
126.975
128.156
129.405
18.225
28.7914
40.1553
50.6099
59.7065
67.4538
74.0036
79.5349
84.2103
88.1689
91.5295
94.3899
96.8288
98.912
100.695
102.225
103.545
104.837
17.2354
24.6376
32.7693
40.5136
47.4707
53.5687
58.8606
63.4382
67.3968
70.8235
73.7954
76.3784
78.6279
80.5907
82.3074
83.813
85.1469
86.4094
16.5719
21.8682
27.7955
33.6054
38.971
43.7928
48.0724
51.8514
55.1825
58.119
60.7105
63.0009
65.0287
66.827
68.4254
69.8506
71.1334
72.3297
16.15
20.1179
24.628
29.1491
33.4178
37.3321
40.8702
44.0466
46.8899
49.4327
51.7073
53.7439
55.5695
57.2083
58.6823
60.0118
61.2203
62.3419
15.8382
18.8306
22.2844
25.8206
29.2303
32.418
35.3499
38.0239
40.4522
42.6529
44.646
46.4515
48.088
49.5727
50.9217
52.1505
53.276
54.3201
15.58
17.7729
20.3479
23.0452
25.7062
28.2469
30.6284
32.8379
34.8754
36.7482
38.4665
40.0419
41.4859
42.81
44.0253
45.1424
46.1733
47.1313
15.3746
16.9399
18.8139
20.8268
22.8629
24.8525
26.7567
28.5564
30.2438
31.818
33.2821
34.6411
35.901
37.0686
38.1507
39.1544
40.087
40.9568
15.2202
16.3202
17.6661
19.152
20.697
22.2452
23.7608
25.222
26.6163
27.9375
29.1834
30.3543
31.4523
32.4802
33.4418
34.3411
35.1823
35.9698
15.1154
15.9033
16.8898
18.01
19.2074
20.4382
21.6702
22.8814
24.0569
25.1873
26.2673
27.2939
28.2664
29.1853
30.052
30.8683
31.6366
32.3585
15.0629
15.6954
16.5005
17.433
18.4492
19.5122
20.5927
21.6691
22.7257
23.752
24.7408
25.688
26.5913
27.4499
28.2639
29.0344
29.7628
30.4513
15.079
15.7585
16.6173
17.6041
18.672
19.7824
20.9057
22.0205
23.1115
24.1684
25.1849
26.157
27.0828
27.9617
28.794
29.5805
30.3223
31.0202
15.1988
16.2331
17.5009
18.9061
20.3741
21.8526
23.3075
24.717
26.0685
27.355
28.5736
29.7238
30.8066
31.8243
32.7793
33.6741
34.511
35.2909
15.4072
17.0668
19.0416
21.1516
23.2776
25.3492
27.3284
29.197
30.9484
32.5826
34.1034
35.5165
36.8283
38.0456
39.1752
40.2226
41.1921
42.0843
15.7671
18.525
21.7125
24.9937
28.1796
31.1799
33.9605
36.5154
38.8528
40.9867
42.9335
44.71
46.3321
47.8148
49.1716
50.4141
51.5509
52.5806
16.3868
21.0661
26.3186
31.514
36.3625
40.7678
44.7222
48.2527
51.399
54.2028
56.7039
58.9386
60.9391
62.7338
64.3484
65.8042
67.1191
68.2846
17.4988
25.6605
34.5311
42.8947
50.3482
56.8505
62.4816
67.345
71.5467
75.1835
78.3387
81.0833
83.4775
85.5718
87.4114
89.0331
90.475
91.715
19.6475
34.5757
50.1056
63.8337
75.3845
84.9741
92.9204
99.4923
104.94
109.471
113.251
116.413
119.065
121.292
123.175
124.768
126.157
127.287
24.2998
53.9039
82.4123
105.381
123.268
137.152
147.966
156.314
162.797
167.85
171.782
174.839
177.203
179.01
180.41
181.451
182.312
182.856
36.4922
103.325
158.513
197.276
224.161
242.91
255.967
264.569
270.36
274.167
276.484
277.754
278.236
278.138
277.789
277.044
276.295
275.254
81.6126
262.53
372.087
433.128
466.553
484.64
492.874
493.515
492.288
489.366
485.152
480.504
475.754
470.862
466.274
461.517
457.56
453.206
390.158
975.283
1160.2
1205.54
1197.69
1174.12
1134.79
1094.99
1063.59
1037.72
1015.71
996.614
979.997
965.212
952.364
940.628
930.739
921.333
6457.22
6260.43
5992.29
5735.72
5500.27
5289.45
5101.2
4933.69
4784.79
4652.07
4533.31
4426.48
4330.22
4242.73
4163.65
4090.8
4025.13
3963.3
7.18712
9.49393
16.4804
20.5213
23.9602
26.4527
28.7137
30.5184
32.1596
33.5439
34.8
35.8835
36.8482
37.6633
38.3494
38.8786
39.2691
39.5118
39.609
39.5923
39.4684
39.1744
38.7245
38.093
37.2207
35.5004
32.7308
28.8233
23.5713
17.322
12.0156
8.06907
5.7293
5.11185
6.26654
8.69878
11.7536
15.1916
18.9795
23.2087
28.1364
32.86
37.3806
41.7783
46.065
50.2223
54.2809
58.2544
62.1506
65.9703
69.7249
73.4231
77.0736
80.6854
84.2666
87.8255
91.3688
94.9031
98.4334
101.964
105.498
109.039
112.587
116.145
119.715
123.297
126.896
130.515
134.159
137.834
141.548
145.308
149.119
152.987
156.913
160.899
164.94
169.031
173.166
177.337
181.532
185.744
189.96
194.17
198.358
202.511
206.614
210.651
214.603
218.46
222.236
225.966
229.649
233.281
236.845
240.321
243.668
246.832
249.744
252.328
254.525
256.351
258.099
259.711
261.196
262.556
263.788
264.89
265.853
266.662
267.365
267.963
268.541
268.984
269.474
270.03
270.424
270.971
271.416
271.964
272.613
273.401
274.367
275.537
276.946
278.616
280.582
282.866
285.494
288.469
291.808
295.514
299.607
304.129
309.387
315.786
323.488
332.588
343.116
355.009
368.058
381.882
395.817
409.159
422.24
435.062
447.536
459.517
470.901
481.565
491.433
500.037
508.311
516.544
524.671
528.916
520.669
478.894
397.102
305.594
232.817
210.88
218.97
251.369
297.914
358.452
424.865
489.661
554.466
625.656
700.127
773.543
806.324
818.677
815.427
798.033
772.833
736.972
708.395
627.867
20.6267
14.4971
13.4702
13.8182
14.3228
14.9149
15.4701
16.012
16.502
16.9617
17.3767
17.7614
18.115
18.4466
18.759
19.0616
19.3605
19.6593
19.954
20.2372
20.5067
20.7667
21.0454
21.413
21.9627
22.6458
23.4075
24.1918
24.9352
25.6754
26.4542
27.2684
28.1564
29.1713
30.2569
31.2547
32.0871
32.7898
33.4369
34.0939
34.8003
35.5532
36.3551
37.2065
38.1148
39.0768
40.0852
41.1311
42.2056
43.3003
44.408
45.5227
46.6395
47.7545
48.8649
49.9687
51.0645
52.1517
53.2306
54.3015
55.3656
56.4244
57.4796
58.5332
59.5872
60.6438
61.7048
62.7716
63.8453
64.9266
66.0153
67.1112
68.2136
69.3216
70.4349
71.553
72.6763
73.8051
74.9402
76.0824
77.2319
78.3886
79.552
80.7208
81.894
83.0712
84.253
85.4426
86.6475
87.8795
89.1484
90.4186
91.6889
92.9552
94.2164
95.4734
96.7305
97.9992
99.3034
100.69
102.182
103.695
105.214
106.729
108.236
109.731
111.212
112.674
114.116
115.537
116.934
118.309
119.661
120.988
122.293
123.57
124.815
126.031
127.213
128.366
129.489
130.582
131.646
132.68
133.686
134.668
135.635
136.599
137.585
138.632
139.807
141.211
143.025
145.501
148.756
152.456
156.436
160.633
164.997
169.479
174.059
178.805
184.097
190.617
198.311
206.363
214.43
222.229
229.49
235.969
241.412
245.677
248.658
249.97
248.097
241.228
228.485
209.497
187.864
165.906
154.822
156.864
166.992
180.691
193.179
203.009
213.27
229.217
256.003
282.888
306.521
323.496
329.4
329.558
325.66
317.238
306.012
293.073
279.132
262.11
41.8258
21.2814
17.3345
15.8934
15.4417
15.3132
15.3885
15.6075
15.869
16.1727
16.4817
16.8097
17.1487
17.51
17.8997
18.345
18.8386
19.3648
19.9222
20.5164
21.1583
21.861
22.6415
23.5144
24.4827
25.5329
26.638
27.7585
28.8518
29.8459
30.7182
31.4999
32.2162
32.8621
33.4127
33.8559
34.2109
34.5162
34.816
35.1527
35.5557
36.0413
36.6084
37.25
37.9512
38.7029
39.4947
40.3158
41.1559
42.0061
42.8593
43.7099
44.554
45.3889
46.2133
47.0262
47.8277
48.6182
49.3982
50.1687
50.9307
51.6853
52.4336
53.1769
53.9161
54.6526
55.3871
56.1208
56.8546
57.5894
58.326
59.0655
59.8087
60.5566
61.31
62.07
62.8376
63.6137
64.3993
65.1951
66.0022
66.8213
67.6534
68.5001
69.363
70.2446
71.1474
72.0737
73.0265
74.0093
75.0256
76.08
77.1825
78.3498
79.571
80.8237
82.1038
83.4138
84.7576
86.1365
87.5461
88.979
90.4328
91.9051
93.3887
94.8776
96.3682
97.8581
99.3459
100.831
102.311
103.785
105.25
106.702
108.136
109.55
110.941
112.308
113.651
114.967
116.26
117.528
118.774
120.002
121.217
122.43
123.652
124.9
126.197
127.573
129.063
130.707
132.547
134.613
136.9
139.387
142.08
144.994
148.15
151.573
155.3
159.385
163.892
168.798
173.916
179.01
183.886
188.365
192.229
195.26
197.222
198.011
197.454
195.181
190.616
183.267
173.296
162.299
153.139
147.47
147.662
154.126
162.816
169.976
173.994
176.569
181.278
190.681
203.709
216.172
226.351
232.646
234.259
232.672
228.058
220.967
212.641
203.792
194.862
187.425
54.097
27.1222
21.0856
18.8107
17.7662
17.2998
17.1451
17.1907
17.3423
17.5876
17.8802
18.2302
18.622
19.0634
19.5478
20.0968
20.7304
21.4255
22.1698
22.9489
23.7551
24.576
25.3949
26.1909
26.9522
27.6679
28.3246
28.914
29.445
29.9475
30.4547
30.9906
31.5613
32.1574
32.7663
33.3807
34.0005
34.6309
35.282
35.9637
36.6812
37.4319
38.2129
39.0212
39.851
40.6935
41.5405
42.3852
43.2227
44.0497
44.864
45.6647
46.4515
47.2251
47.9864
48.7368
49.4779
50.2112
50.9376
51.6584
52.3748
53.0881
53.7996
54.5103
55.2215
55.9341
56.649
57.3672
58.0896
58.8172
59.5509
60.2918
61.0411
61.8
62.5697
63.3512
64.1455
64.9535
65.7756
66.612
67.4629
68.3284
69.2092
70.1061
71.0211
71.9562
72.914
73.897
74.9078
75.9489
77.0218
78.1278
79.2676
80.44
81.6413
82.8687
84.1217
85.4015
86.7092
88.0461
89.4141
90.8176
92.2648
93.767
95.2934
96.8318
98.3777
99.9295
101.487
103.053
104.628
106.211
107.793
109.364
110.919
112.451
113.957
115.436
116.887
118.311
119.71
121.086
122.445
123.796
125.147
126.513
127.908
129.352
130.865
132.468
134.171
135.977
137.895
139.934
142.104
144.421
146.902
149.562
152.418
155.481
158.755
162.229
165.864
169.576
173.249
176.775
180.059
182.996
185.346
186.717
187.093
186.287
184.134
180.509
175.409
169.143
162.409
156.396
152.411
151.125
152.851
157.956
162.987
165.718
166.439
167.174
170.403
177.518
186.053
193.756
199.87
203.592
204.148
202.112
197.423
190.974
183.7
176.224
168.986
163.158
74.0473
33.7157
25.2166
21.9205
20.405
19.6311
19.3356
19.2695
19.3858
19.6059
19.9241
20.3105
20.7595
21.252
21.7864
22.3636
22.9944
23.6781
24.4064
25.1616
25.9241
26.6696
27.3722
28.008
28.5629
29.0345
29.435
29.791
30.1408
30.5246
30.9735
31.5026
32.0948
32.7395
33.4404
34.2121
35.0474
35.9395
36.8735
37.8329
38.8041
39.7784
40.7507
41.7159
42.6701
43.6098
44.5326
45.4368
46.3216
47.1872
48.0342
48.8636
49.6772
50.4766
51.264
52.0413
52.8105
53.5737
54.3334
55.0918
55.8509
56.6125
57.3782
58.1493
58.9273
59.713
60.5077
61.3123
62.1275
62.9544
63.7939
64.6468
65.514
66.3965
67.2951
68.2106
69.1435
70.0943
71.0634
72.051
73.0573
74.083
75.1286
76.1951
77.2835
78.3946
79.5293
80.6885
81.8732
83.0844
84.3229
85.5889
86.8817
88.2006
89.5442
90.9124
92.3059
93.7246
95.1683
96.6365
98.1289
99.6445
101.181
102.735
104.299
105.871
107.452
109.042
110.647
112.276
113.945
115.655
117.373
119.083
120.773
122.437
124.072
125.675
127.246
128.787
130.299
131.787
133.257
134.719
136.184
137.669
139.194
140.784
142.471
144.293
146.24
148.273
150.383
152.57
154.831
157.165
159.566
162.027
164.533
167.066
169.602
172.105
174.533
176.833
178.956
180.891
182.671
184.344
185.545
185.979
185.501
183.972
181.346
177.685
173.255
168.621
164.615
161.491
159.634
159.541
161.255
163.754
165.294
165.318
164.496
164.535
166.926
171.993
178.326
184.676
189.89
192.881
193.128
191.013
186.492
180.478
173.736
166.731
160.053
154.069
86.1209
39.5622
29.0941
25.0009
23.0586
22.0356
21.6008
21.4589
21.5412
21.7535
22.0785
22.483
22.9624
23.4944
24.0659
24.6617
25.2803
25.9198
26.5752
27.2313
27.8702
28.4723
29.0214
29.5084
29.9355
30.3178
30.683
31.0673
31.5088
32.026
32.5996
33.2201
33.8837
34.5929
35.3556
36.1827
37.0853
38.06
39.0852
40.1424
41.2165
42.2958
43.3715
44.4365
45.4857
46.5154
47.5233
48.5082
49.47
50.4097
51.3286
52.2289
53.1131
53.9839
54.8443
55.6972
56.5456
57.3923
58.2403
59.0919
59.9497
60.8158
61.6922
62.5805
63.4824
64.3994
65.3326
66.2832
67.2523
68.2408
69.2497
70.2797
71.3316
72.4061
73.5036
74.6247
75.7696
76.9385
78.1312
79.348
80.5886
81.8533
83.1421
84.4551
85.7925
87.154
88.5398
89.95
91.3852
92.8461
94.3337
95.8486
97.3909
98.9603
100.556
102.178
103.823
105.492
107.181
108.891
110.618
112.36
114.114
115.878
117.649
119.425
121.207
122.996
124.795
126.61
128.446
130.313
132.184
134.039
135.867
137.665
139.429
141.158
142.853
144.517
146.153
147.765
149.363
150.955
152.554
154.175
155.838
157.566
159.391
161.304
163.273
165.289
167.346
169.438
171.556
173.685
175.807
177.902
179.945
181.912
183.775
185.506
187.082
188.489
189.73
190.829
191.853
192.716
193.076
192.791
191.766
189.973
187.463
184.391
181.058
177.888
175.348
173.23
171.671
170.859
170.599
170.144
168.811
166.686
164.67
163.948
165.57
169.82
175.161
180.922
185.788
188.59
188.796
186.713
182.307
176.462
169.873
162.988
156.358
149.949
103.608
45.5748
32.8538
27.9047
25.6128
24.3841
23.8396
23.6394
23.6886
23.8845
24.1947
24.5804
25.0333
25.5398
26.0919
26.6726
27.2702
27.8737
28.4743
29.0604
29.62
30.1422
30.6211
31.0591
31.468
31.8689
32.2897
32.7603
33.3071
33.9138
34.5655
35.2557
35.9843
36.7566
37.5819
38.4713
39.4363
40.4664
41.5451
42.6576
43.7907
44.9332
46.0762
47.2128
48.3374
49.4463
50.537
51.6083
52.6603
53.6939
54.7107
55.713
56.7036
57.6855
58.662
59.6363
60.6117
61.5915
62.5786
63.5761
64.5866
65.6126
66.6565
67.7202
68.8058
69.915
71.0492
72.2098
73.3981
74.615
75.8615
77.1383
78.446
79.7851
81.1559
82.5584
83.9927
85.4585
86.9555
88.4833
90.0414
91.6296
93.2471
94.8934
96.5678
98.2698
99.9992
101.756
103.542
105.357
107.201
109.074
110.974
112.9
114.849
116.822
118.817
120.832
122.867
124.917
126.981
129.054
131.134
133.218
135.302
137.385
139.464
141.539
143.609
145.672
147.728
149.77
151.787
153.775
155.728
157.646
159.527
161.374
163.188
164.973
166.734
168.476
170.208
171.938
173.675
175.429
177.208
179.018
180.859
182.725
184.611
186.513
188.425
190.336
192.235
194.106
195.928
197.68
199.337
200.874
202.266
203.491
204.53
205.37
206.006
206.431
206.618
206.493
205.972
205.028
203.659
201.895
199.799
197.474
195.047
192.601
190.136
187.597
185.062
182.594
180.038
177.059
173.53
169.83
166.831
165.532
166.566
170.014
174.956
180.496
185.282
188.105
188.358
186.332
181.957
176.126
169.519
162.595
155.815
149.047
111.155
50.2984
36.1149
30.5715
27.9399
26.5092
25.8534
25.5889
25.6088
25.797
26.1142
26.5076
26.9609
27.4544
27.9815
28.5296
29.0899
29.6514
30.2062
30.7458
31.2632
31.7544
32.221
32.6711
33.1192
33.5844
34.0877
34.6486
35.2719
35.9456
36.6618
37.4171
38.2118
39.0508
39.9413
40.8915
41.9085
42.983
44.1029
45.257
46.4348
47.6271
48.8259
50.0251
51.2197
52.4061
53.5822
54.7467
55.8997
57.0421
58.1756
59.3024
60.4253
61.5475
62.6722
63.8027
64.9427
66.0953
67.2639
68.4516
69.6613
70.8957
72.1575
73.4489
74.7721
76.1289
77.5211
78.9502
80.4174
81.9238
83.4704
85.0577
86.6863
88.3564
90.068
91.821
93.6149
95.4492
97.3232
99.2359
101.186
103.174
105.197
107.254
109.345
111.468
113.623
115.81
118.027
120.274
122.55
124.852
127.182
129.537
131.919
134.325
136.752
139.197
141.656
144.126
146.602
149.08
151.557
154.028
156.488
158.933
161.36
163.763
166.14
168.487
170.797
173.065
175.286
177.456
179.574
181.637
183.645
185.601
187.504
189.359
191.169
192.939
194.677
196.388
198.08
199.761
201.434
203.104
204.774
206.444
208.116
209.788
211.457
213.116
214.755
216.355
217.9
219.369
220.739
221.987
223.09
224.025
224.77
225.302
225.583
225.605
225.336
224.749
223.842
222.621
221.099
219.285
217.187
214.813
212.151
209.167
205.822
202.106
198.064
193.743
189.114
184.128
178.945
174.062
170.24
168.293
168.809
171.928
176.464
181.905
186.773
189.69
189.967
187.898
183.386
177.384
170.592
163.474
156.436
149.321
128.416
55.351
39.1653
32.9236
30.0032
28.4102
27.6522
27.326
27.3038
27.4678
27.7756
28.1731
28.6376
29.1423
29.6747
30.2215
30.7751
31.327
31.8724
32.4062
32.9262
33.4333
33.9324
34.4327
34.9465
35.4867
36.0652
36.6899
37.3656
38.0952
38.8739
39.6971
40.564
41.4773
42.4422
43.4652
44.5423
45.6668
46.8315
48.0293
49.2532
50.4966
51.7537
53.0197
54.2907
55.5642
56.8385
58.1129
59.3876
60.6637
61.9428
63.2272
64.5196
65.823
67.1406
68.4757
69.8318
71.2122
72.6201
74.0589
75.5315
77.0407
78.5892
80.1795
81.8138
83.4941
85.2221
86.9994
88.8272
90.7066
92.6384
94.623
96.6607
98.7514
100.895
103.091
105.338
107.635
109.982
112.375
114.815
117.299
119.825
122.391
124.996
127.638
130.315
133.025
135.768
138.542
141.346
144.179
147.039
149.923
152.826
155.746
158.678
161.62
164.568
167.517
170.46
173.393
176.308
179.201
182.065
184.892
187.679
190.417
193.101
195.726
198.284
200.77
203.18
205.509
207.754
209.915
211.991
213.981
215.887
217.711
219.457
221.13
222.737
224.285
225.783
227.239
228.66
230.054
231.427
232.786
234.137
235.483
236.827
238.167
239.497
240.811
242.096
243.336
244.514
245.606
246.585
247.421
248.075
248.497
248.647
248.494
248.009
247.178
246
244.469
242.567
240.265
237.518
234.281
230.511
226.191
221.335
215.993
210.234
204.137
197.772
191.245
184.836
179.054
174.566
172.068
172.115
174.759
179.248
184.854
189.866
192.811
192.995
190.707
185.884
179.567
172.483
165.1
157.783
150.413
133.739
58.6834
41.6379
35.019
31.8626
30.1285
29.2945
28.918
28.8687
29.0147
29.3149
29.7111
30.1813
30.6965
31.2432
31.8055
32.3757
32.9462
33.5133
34.0747
34.6323
35.1893
35.7515
36.3269
36.9252
37.5553
38.2241
38.9354
39.6909
40.491
41.336
42.2267
43.1645
44.1507
45.1862
46.2711
47.4033
48.5795
49.7954
51.0466
52.3286
53.6372
54.9688
56.32
57.6886
59.0728
60.4717
61.8854
63.3143
64.7597
66.2235
67.7079
69.2155
70.7493
72.3125
73.9083
75.54
77.211
78.9245
80.6837
82.4915
84.3508
86.2643
88.2343
90.2629
92.3522
94.5037
96.7189
98.9987
101.344
103.755
106.233
108.776
111.385
114.059
116.796
119.595
122.454
125.372
128.345
131.372
134.449
137.574
140.744
143.955
147.206
150.494
153.815
157.168
160.549
163.955
167.383
170.828
174.288
177.759
181.238
184.72
188.197
191.663
195.112
198.536
201.927
205.278
208.58
211.826
215.008
218.118
221.148
224.09
226.937
229.681
232.316
234.836
237.235
239.512
241.662
243.685
245.58
247.346
248.987
250.505
251.906
253.2
254.396
255.506
256.543
257.519
258.446
259.338
260.209
261.073
261.943
262.83
263.744
264.69
265.667
266.672
267.698
268.73
269.749
270.725
271.619
272.38
272.944
273.239
273.199
272.76
271.873
270.499
268.587
266.077
262.901
258.995
254.317
248.871
242.717
235.964
228.746
221.198
213.454
205.648
197.949
190.652
184.212
179.198
176.233
175.919
178.268
182.873
188.677
193.79
196.641
196.597
193.911
188.636
181.902
174.46
166.78
159.21
151.657
143.34
61.7541
43.7739
36.7878
33.439
31.5965
30.7082
30.3029
30.2451
30.3945
30.709
31.1268
31.6249
32.1728
32.7569
33.3611
33.9777
34.5989
35.2227
35.8479
36.4768
37.1128
37.7619
38.4314
39.129
39.8609
40.6318
41.4439
42.2974
43.1917
44.1263
45.1013
46.1175
47.1768
48.2813
49.4329
50.6322
51.878
53.1677
54.4986
55.8683
57.2746
58.7156
60.1898
61.6961
63.2343
64.8042
66.4066
68.0427
69.714
71.4226
73.1711
74.962
76.7984
78.6835
80.6203
82.6122
84.6623
86.7737
88.9495
91.1925
93.5053
95.8902
98.3496
100.885
103.499
106.191
108.964
111.817
114.752
117.767
120.863
124.038
127.291
130.622
134.026
137.503
141.049
144.661
148.335
152.067
155.854
159.691
163.573
167.497
171.458
175.45
179.471
183.514
187.576
191.652
195.737
199.826
203.914
207.994
212.058
216.099
220.11
224.084
228.013
231.888
235.701
239.442
243.103
246.675
250.148
253.514
256.763
259.886
262.874
265.718
268.409
270.939
273.302
275.492
277.506
279.341
280.994
282.466
283.757
284.87
285.815
286.601
287.245
287.761
288.165
288.477
288.717
288.905
289.065
289.222
289.4
289.623
289.913
290.287
290.759
291.338
292.029
292.826
293.717
294.672
295.65
296.585
297.393
297.971
298.207
297.984
297.192
295.722
293.46
290.289
286.096
280.799
274.379
266.914
258.58
249.623
240.311
230.887
221.552
212.482
203.86
195.941
189.084
183.752
180.509
179.964
182.143
186.986
192.976
198.096
200.706
200.309
197.077
191.266
184.077
176.274
168.323
160.554
152.902
147.873
63.9836
45.4616
38.2673
34.7723
32.8565
31.9396
31.5264
31.4791
31.6506
31.9986
32.458
33.0057
33.6101
34.2578
34.9324
35.6269
36.3335
37.05
37.7745
38.5083
39.2538
40.0163
40.8028
41.6196
42.472
43.3635
44.2947
45.2654
46.274
47.3191
48.3999
49.5178
50.6759
51.8787
53.1306
54.4342
55.79
57.1971
58.6547
60.1619
61.7187
63.3248
64.9806
66.6866
68.4437
70.2529
72.1159
74.0345
76.011
78.0479
80.1478
82.3138
84.5488
86.856
89.2384
91.6991
94.2411
96.867
99.5797
102.381
105.274
108.26
111.341
114.517
117.791
121.161
124.629
128.193
131.855
135.611
139.461
143.403
147.434
151.55
155.749
160.027
164.378
168.798
173.281
177.822
182.415
187.053
191.73
196.439
201.174
205.929
210.696
215.469
220.241
225.007
229.759
234.489
239.19
243.855
248.476
253.047
257.559
262.004
266.373
270.656
274.845
278.929
282.899
286.744
290.455
294.02
297.429
300.67
303.733
306.605
309.274
311.731
313.966
315.97
317.738
319.263
320.541
321.57
322.348
322.881
323.176
323.249
323.118
322.799
322.317
321.696
320.967
320.161
319.315
318.466
317.654
316.917
316.292
315.811
315.501
315.386
315.482
315.799
316.334
317.067
317.962
318.952
319.938
320.792
321.359
321.461
320.932
319.565
317.174
313.57
308.564
302.014
293.896
284.345
273.668
262.29
250.667
239.207
228.219
217.93
208.518
200.16
193.093
187.656
184.344
183.788
186.029
191.103
197.22
202.222
204.439
203.581
199.69
193.325
185.708
177.595
169.439
161.549
153.872
153.014
65.6762
46.7651
39.4435
35.8807
33.9501
33.0309
32.6364
32.625
32.8453
33.2545
33.7844
34.4125
35.106
35.852
36.6338
37.4445
38.2758
39.1246
39.9879
40.8658
41.7599
42.6749
43.615
44.5852
45.5904
46.6332
47.7142
48.8334
49.9891
51.18
52.4062
53.6702
54.9771
56.3333
57.7447
59.2153
60.7471
62.3411
63.9983
65.72
67.5079
69.3639
71.29
73.2885
75.3617
77.5119
79.7418
82.0541
84.4518
86.9379
89.5154
92.1874
94.9569
97.8268
100.8
103.879
107.066
110.364
113.774
117.297
120.935
124.689
128.559
132.545
136.647
140.863
145.193
149.634
154.184
158.841
163.601
168.461
173.415
178.459
183.587
188.792
194.07
199.411
204.808
210.254
215.739
221.257
226.797
232.351
237.91
243.467
249.011
254.536
260.033
265.493
270.909
276.273
281.578
286.814
291.971
297.041
302.017
306.889
311.651
316.293
320.805
325.176
329.396
333.454
337.337
341.035
344.535
347.822
350.884
353.705
356.271
358.57
360.589
362.318
363.745
364.864
365.666
366.149
366.307
366.145
365.672
364.893
363.829
362.505
360.943
359.175
357.238
355.174
353.031
350.862
348.722
346.666
344.747
343.015
341.514
340.282
339.354
338.753
338.494
338.568
338.952
339.587
340.373
341.175
341.817
342.09
341.773
340.595
338.274
334.555
329.136
321.757
312.304
300.907
287.967
274.096
259.991
246.291
233.479
221.873
211.658
202.938
195.816
190.484
187.329
186.988
189.449
194.787
200.972
205.711
207.384
205.954
201.353
194.523
186.597
178.297
170.047
162.129
154.501
154.999
66.5871
47.6157
40.3222
36.7607
34.8722
33.9848
33.6403
33.702
34.0097
34.5198
35.1615
35.9136
36.7419
37.6344
38.5734
39.5521
40.5611
41.5969
42.6554
43.7361
44.839
45.9664
47.121
48.3066
49.5252
50.7786
52.0695
53.3995
54.7673
56.1725
57.6168
59.1049
60.6439
62.2417
63.9052
65.6396
67.4485
69.3348
71.3017
73.3529
75.4921
77.7235
80.0509
82.4783
85.0094
87.6482
90.3982
93.263
96.2463
99.3513
102.581
105.939
109.427
113.048
116.804
120.696
124.725
128.893
133.199
137.643
142.225
146.943
151.796
156.782
161.899
167.142
172.509
177.995
183.596
189.307
195.121
201.032
207.034
213.118
219.276
225.5
231.78
238.107
244.471
250.861
257.267
263.678
270.085
276.476
282.841
289.171
295.456
301.687
307.854
313.948
319.959
325.876
331.691
337.398
342.989
348.455
353.788
358.979
364.02
368.901
373.61
378.137
382.47
386.598
390.509
394.189
397.625
400.803
403.706
406.318
408.624
410.611
412.264
413.572
414.522
415.108
415.318
415.159
414.627
413.688
412.358
410.658
408.608
406.226
403.535
400.565
397.353
393.947
390.4
386.775
383.137
379.554
376.093
372.82
369.795
367.074
364.71
362.745
361.209
360.116
359.456
359.188
359.225
359.441
359.669
359.691
359.27
358.074
355.793
352.105
346.609
338.894
328.685
315.99
301.196
285.038
268.451
252.364
237.519
224.395
213.236
204.1
196.972
191.888
189.098
189.12
191.992
197.619
203.689
207.929
208.949
207.019
201.922
194.834
186.765
178.402
170.147
162.265
154.72
155.492
66.7181
48.0142
40.8827
37.4161
35.6337
34.8377
34.5947
34.7822
35.2296
35.8968
36.7099
37.6496
38.6801
39.7902
40.9609
42.1855
43.4537
44.7614
46.1037
47.479
48.8858
50.3246
51.7958
53.3009
54.8416
56.4202
58.0377
59.6955
61.3939
63.136
64.9261
66.7707
68.6794
70.6619
72.7262
74.8787
77.1249
79.47
81.9198
84.4802
87.1576
89.958
92.8875
95.9515
99.1553
102.504
106.002
109.653
113.461
117.43
121.561
125.856
130.318
134.947
139.742
144.703
149.829
155.118
160.568
166.176
171.937
177.849
183.905
190.102
196.432
202.89
209.47
216.163
222.962
229.859
236.844
243.909
251.043
258.237
265.479
272.758
280.062
287.38
294.7
302.01
309.297
316.55
323.757
330.907
337.987
344.988
351.899
358.708
365.406
371.983
378.431
384.741
390.902
396.905
402.739
408.398
413.873
419.158
424.244
429.122
433.781
438.212
442.403
446.344
450.025
453.432
456.554
459.374
461.876
464.042
465.86
467.315
468.39
469.079
469.365
469.262
468.778
467.83
466.415
464.548
462.247
459.53
456.411
452.906
449.037
444.835
440.341
435.599
430.666
425.603
420.476
415.353
410.306
405.407
400.725
396.331
392.29
388.661
385.489
382.806
380.622
378.918
377.635
376.677
375.893
375.089
374.014
372.357
369.775
365.908
360.322
352.512
342.042
328.726
312.786
294.915
276.178
257.779
240.779
225.919
213.589
203.87
196.666
191.866
189.57
190.027
193.323
199.068
204.86
208.633
209.157
206.799
201.301
194.072
186.001
177.723
169.598
161.863
154.491
154.169
66.367
48.0658
41.2105
37.915
36.3142
35.6777
35.6079
36.0006
36.6723
37.5888
38.6717
39.905
41.2505
42.6985
44.2284
45.8342
47.5044
49.2349
51.0195
52.8562
54.7418
56.6755
58.6566
60.6855
62.763
64.8894
67.0641
69.2841
71.5505
73.8702
76.2494
78.6989
81.2334
83.8647
86.6018
89.4517
92.4215
95.5193
98.7539
102.134
105.669
109.366
113.234
117.278
121.505
125.92
130.528
135.332
140.336
145.539
150.943
156.547
162.349
168.346
174.535
180.911
187.469
194.202
201.105
208.168
215.385
222.746
230.243
237.866
245.604
253.448
261.386
269.408
277.502
285.656
293.859
302.098
310.361
318.634
326.906
335.161
343.389
351.574
359.704
367.766
375.747
383.636
391.42
399.088
406.628
414.03
421.283
428.374
435.292
442.029
448.575
454.923
461.065
466.992
472.698
478.174
483.416
488.417
493.171
497.669
501.903
505.866
509.548
512.942
516.04
518.832
521.309
523.456
525.255
526.686
527.742
528.42
528.678
528.559
528.076
527.119
525.676
523.739
521.313
518.405
515.03
511.196
506.912
502.187
497.044
491.514
485.636
479.46
473.044
466.451
459.752
453.017
446.318
439.729
433.325
427.178
421.36
415.934
410.95
406.45
402.458
398.975
395.972
393.386
391.108
388.982
386.78
384.199
380.86
376.383
370.349
362.259
351.636
338.158
321.826
303.104
282.96
262.722
243.729
227.052
213.332
202.809
195.392
190.886
189.182
190.038
193.541
199.181
204.562
207.745
207.724
204.864
199.14
191.957
184.089
176.086
168.252
160.795
153.691
151.093
65.1754
47.7087
41.2756
38.2906
36.9882
36.6297
36.8642
37.5854
38.615
39.9273
41.4384
43.1372
44.9814
46.9647
49.0649
51.2777
53.5906
56.0007
58.5011
61.0898
63.7633
66.521
69.3613
72.2844
75.2888
78.3718
81.5281
84.7541
88.0494
91.4102
94.8395
98.3588
101.996
105.762
109.658
113.69
117.873
122.218
126.737
131.441
136.341
141.444
146.759
152.293
158.051
164.037
170.254
176.702
183.379
190.283
197.409
204.75
212.301
220.051
227.992
236.113
244.402
252.848
261.439
270.16
278.998
287.94
296.972
306.078
315.245
324.458
333.704
342.967
352.233
361.488
370.718
379.909
389.046
398.116
407.106
416.001
424.787
433.452
441.984
450.369
458.597
466.656
474.535
482.224
489.713
496.994
504.055
510.887
517.482
523.831
529.928
535.767
541.341
546.643
551.669
556.413
560.873
565.048
568.934
572.525
575.817
578.807
581.489
583.86
585.916
587.65
589.057
590.134
590.851
591.177
591.147
590.809
590.05
588.864
587.238
585.146
582.577
579.525
575.987
571.965
567.461
562.48
557.028
551.109
544.742
537.953
530.773
523.245
515.42
507.355
499.112
490.759
482.372
474.029
465.816
457.821
450.121
442.791
435.886
429.454
423.516
418.084
413.149
408.682
404.625
400.874
397.25
393.462
389.079
383.655
376.746
367.918
356.82
343.191
326.929
308.227
287.724
266.608
246.303
228.143
213.085
201.651
194.039
190.063
189.15
189.96
192.795
197.878
202.627
205.034
204.496
201.204
195.482
188.572
181.115
173.563
166.162
159.091
152.332
145.302
63.197
46.9541
41.1844
38.6508
37.7871
37.8439
38.5393
39.7507
41.3157
43.2182
45.3658
47.7556
50.3423
53.1254
56.0811
59.2097
62.4983
65.9469
69.5485
73.3034
77.2084
81.2644
85.4701
89.8253
94.3264
98.9679
103.741
108.635
113.639
118.742
123.945
129.261
134.716
140.304
146.031
151.912
157.96
164.193
170.624
177.264
184.121
191.204
198.52
206.073
213.866
221.9
230.172
238.676
247.405
256.347
265.491
274.823
284.329
293.993
303.8
313.731
323.77
333.9
344.103
354.359
364.651
374.961
385.271
395.565
405.825
416.035
426.179
436.241
446.206
456.06
465.788
475.377
484.814
494.087
503.181
512.085
520.786
529.274
537.539
545.573
553.367
560.913
568.203
575.231
581.991
588.472
594.665
600.563
606.163
611.463
616.462
621.157
625.544