/*--------------------------------*- C++ -*----------------------------------*\
| =========                 |                                                 |
| \\      /  F ield         | OpenFOAM: The Open Source CFD Toolbox           |
|  \\    /   O peration     | Version:  v1906                                 |
|   \\  /    A nd           | Web:      www.OpenFOAM.com                      |
|    \\/     M anipulation  |                                                 |
\*---------------------------------------------------------------------------*/
FoamFile
{
    version     2.0;
    format      ascii;
    class       volScalarField;
    location    "1000";
    object      k;
}
// * * * * * * * * * * * * * * * * * * * * * * * * * * * * * * * * * * * * * //

dimensions      [0 2 -2 0 0 0 0];


internalField   nonuniform List<scalar> 
12225
(
2.25874
2.22668
2.16195
2.09172
2.02505
1.96462
1.91068
1.86328
1.82064
1.78387
1.74939
1.72143
1.6989
1.6807
1.66406
1.65215
1.63793
1.63269
2.25029
2.13779
1.98565
1.87244
1.78123
1.71369
1.66068
1.61698
1.58115
1.55031
1.52538
1.50227
1.48553
1.46765
1.4572
1.44241
1.43607
1.42181
2.25785
2.21888
2.14361
2.07156
2.00395
1.94415
1.89184
1.8456
1.80508
1.76896
1.73739
1.70857
1.68387
1.66056
1.64135
1.62201
1.60752
1.59163
2.25839
2.23538
2.18791
2.13578
2.08419
2.03589
1.99183
1.95174
1.91553
1.88263
1.85298
1.82582
1.80147
1.77893
1.75887
1.73989
1.72364
1.70664
2.25891
2.24457
2.21501
2.18006
2.14383
2.10824
2.07435
2.04244
2.01264
1.9849
1.95923
1.93533
1.91328
1.89275
1.87386
1.85616
1.84027
1.82449
2.25905
2.24839
2.22761
2.20199
2.17442
2.14647
2.1191
2.09277
2.06769
2.04397
2.02165
2.00065
1.98097
1.9625
1.94524
1.92904
1.91399
1.89925
2.25918
2.25077
2.23561
2.21657
2.1956
2.17389
2.1522
2.13092
2.11033
2.09054
2.07166
2.05368
2.03662
2.02045
2.00517
1.99073
1.97719
1.96407
2.25922
2.25211
2.24034
2.22547
2.20883
2.19132
2.17352
2.15582
2.13846
2.12159
2.10531
2.08966
2.07468
2.06037
2.04674
2.03377
2.02142
2.00951
2.25927
2.2531
2.24365
2.23178
2.2184
2.20416
2.18953
2.17482
2.16025
2.14595
2.13202
2.11853
2.10551
2.09298
2.08097
2.06947
2.05848
2.04787
2.25929
2.25376
2.24586
2.23607
2.22499
2.21312
2.20081
2.18832
2.17583
2.16349
2.15137
2.13955
2.12807
2.11696
2.10624
2.09592
2.08597
2.07638
2.25932
2.2543
2.24753
2.23929
2.22998
2.21996
2.20951
2.19884
2.1881
2.17742
2.16687
2.15652
2.14641
2.13657
2.12704
2.11781
2.10891
2.10028
2.25934
2.25466
2.24864
2.24143
2.23332
2.22458
2.21543
2.20605
2.19655
2.18706
2.17764
2.16835
2.15924
2.15034
2.14168
2.13327
2.1251
2.11719
2.25937
2.25498
2.24954
2.24315
2.23601
2.22831
2.22024
2.21192
2.20348
2.195
2.18655
2.17819
2.16996
2.16189
2.15401
2.14633
2.13887
2.1316
2.25939
2.25525
2.25032
2.24464
2.23834
2.23156
2.22443
2.21707
2.20957
2.20201
2.19445
2.18693
2.1795
2.1722
2.16503
2.15803
2.1512
2.14455
2.25943
2.25552
2.25102
2.24594
2.24036
2.23438
2.22809
2.22157
2.21492
2.20819
2.20143
2.19469
2.18801
2.18141
2.17492
2.16856
2.16233
2.15625
2.25946
2.25574
2.25157
2.24697
2.24196
2.23661
2.23099
2.22517
2.2192
2.21315
2.20706
2.20096
2.1949
2.1889
2.18298
2.17716
2.17145
2.16587
2.25949
2.25592
2.252
2.24774
2.24315
2.23826
2.23314
2.22782
2.22237
2.21683
2.21123
2.20562
2.20003
2.19448
2.18898
2.18357
2.17826
2.17306
2.25951
2.25603
2.25225
2.24818
2.24381
2.23919
2.23434
2.22932
2.22416
2.21892
2.21361
2.20829
2.20298
2.19769
2.19246
2.1873
2.18222
2.17723
2.2595
2.25599
2.25218
2.24806
2.24363
2.23894
2.23402
2.22892
2.22368
2.21835
2.21297
2.20756
2.20216
2.19679
2.19148
2.18625
2.18111
2.17608
2.25949
2.25585
2.25179
2.24732
2.24248
2.23731
2.23189
2.22627
2.22051
2.21466
2.20877
2.20287
2.197
2.19118
2.18543
2.17977
2.17421
2.16873
2.25943
2.25553
2.25102
2.24592
2.24031
2.23429
2.22796
2.2214
2.2147
2.20791
2.2011
2.1943
2.18755
2.18088
2.17432
2.16789
2.16161
2.15552
2.25941
2.25519
2.25002
2.24399
2.23727
2.23003
2.22243
2.2146
2.20663
2.19862
2.19062
2.18269
2.17486
2.16717
2.15964
2.15229
2.14513
2.13811
2.25935
2.25456
2.24826
2.24066
2.23209
2.22284
2.21316
2.20324
2.19322
2.1832
2.17327
2.16348
2.15389
2.14452
2.13539
2.12652
2.11792
2.10969
2.25935
2.25385
2.24584
2.23594
2.22475
2.21278
2.20039
2.18783
2.17527
2.16285
2.15065
2.13875
2.12718
2.11598
2.10516
2.09476
2.08479
2.07514
2.25927
2.25242
2.24124
2.22717
2.21139
2.1947
2.17766
2.16062
2.14384
2.12747
2.11162
2.09634
2.08167
2.0676
2.05414
2.04125
2.02886
2.01716
2.25924
2.25041
2.23397
2.21363
2.19147
2.16866
2.14591
2.12362
2.10205
2.08135
2.06159
2.0428
2.02496
2.00806
1.99207
1.97697
1.96285
1.94963
2.25889
2.24472
2.21618
2.18219
2.14678
2.11175
2.07806
2.04624
2.01648
1.98877
1.96301
1.93909
1.91687
1.89625
1.87702
1.85917
1.84216
1.82639
2.25872
2.23436
2.18569
2.13367
2.08299
2.03495
1.99028
1.94959
1.91261
1.87899
1.84838
1.82051
1.795
1.77171
1.75027
1.73066
1.71254
1.69702
2.25333
2.17274
2.05404
1.95318
1.87047
1.80143
1.74471
1.69878
1.66015
1.62709
1.59836
1.5734
1.55127
1.53196
1.5145
1.49934
1.48522
1.472
2.25474
2.20869
2.14516
2.08349
2.02607
1.97396
1.92685
1.88443
1.84632
1.81202
1.78105
1.75296
1.72745
1.7041
1.68286
1.66318
1.64533
1.62844
0.0282065
0.0562946
0.0812744
0.0940373
0.104234
0.111306
0.117523
0.122357
0.126665
0.130233
0.133422
0.136135
0.138522
0.140514
0.142172
0.143433
0.144348
0.144898
0.145091
0.145004
0.144656
0.143895
0.14275
0.141154
0.13896
0.134633
0.127535
0.117191
0.102559
0.0835603
0.0655152
0.0502347
0.039877
0.0367095
0.0417981
0.0519806
0.0635738
0.0754828
0.0876004
0.100196
0.113907
0.126439
0.137845
0.148486
0.158504
0.167909
0.176832
0.185341
0.193487
0.201298
0.208819
0.216086
0.223129
0.229978
0.236658
0.243193
0.249601
0.255899
0.262102
0.26822
0.274262
0.280236
0.286148
0.292003
0.297806
0.303565
0.309286
0.314978
0.320652
0.32632
0.331994
0.337684
0.343399
0.349146
0.354926
0.360737
0.366572
0.372424
0.378281
0.384132
0.389963
0.395762
0.401513
0.407203
0.412814
0.418329
0.42373
0.428997
0.434111
0.439059
0.443857
0.448558
0.453166
0.457676
0.462072
0.46633
0.470404
0.474233
0.477738
0.480833
0.483444
0.485474
0.487373
0.489077
0.490615
0.491981
0.493175
0.494187
0.495006
0.495633
0.496138
0.496464
0.496677
0.497051
0.497265
0.497364
0.497618
0.497689
0.497942
0.498134
0.49846
0.49894
0.499619
0.500532
0.501717
0.503199
0.505016
0.507193
0.509759
0.512717
0.516077
0.519844
0.524039
0.528657
0.533933
0.540372
0.548199
0.557509
0.568315
0.580529
0.593917
0.608041
0.622236
0.635746
0.648682
0.661233
0.673301
0.684766
0.69554
0.705513
0.714653
0.722543
0.729875
0.737099
0.744281
0.748753
0.743013
0.709459
0.632503
0.535151
0.4433
0.406757
0.410736
0.446675
0.497235
0.561658
0.629725
0.693706
0.752939
0.815666
0.878806
0.940964
0.970445
0.981436
0.979011
0.965406
0.944633
0.914747
0.890094
0.82066
0.0569904
0.124442
0.171845
0.199151
0.220919
0.237956
0.252867
0.265777
0.277714
0.288714
0.299168
0.309037
0.318427
0.327273
0.33557
0.343225
0.350186
0.356419
0.361993
0.367044
0.371788
0.376518
0.381569
0.387374
0.394355
0.402773
0.412811
0.424379
0.436875
0.44917
0.460168
0.469664
0.478122
0.486434
0.4947
0.501999
0.507816
0.512356
0.516085
0.519444
0.522729
0.52647
0.531094
0.536823
0.543696
0.55163
0.560475
0.570047
0.580162
0.590643
0.60134
0.612126
0.6229
0.633583
0.64412
0.654471
0.664614
0.674539
0.684245
0.693742
0.703042
0.712165
0.721131
0.729963
0.738684
0.747319
0.755891
0.76442
0.772929
0.781436
0.789959
0.798513
0.807114
0.815774
0.824508
0.833328
0.842248
0.851279
0.860434
0.869718
0.879135
0.888675
0.898319
0.908033
0.917767
0.927459
0.937033
0.94641
0.955513
0.964264
0.97262
0.98065
0.98845
0.996066
1.00354
1.01093
1.01824
1.02549
1.03268
1.0398
1.04686
1.05389
1.06092
1.06796
1.07502
1.08212
1.08924
1.09639
1.10356
1.11075
1.11796
1.12521
1.13251
1.1399
1.14739
1.15501
1.16281
1.17082
1.1791
1.18771
1.19669
1.20614
1.21612
1.22672
1.23801
1.25007
1.26295
1.27667
1.29123
1.30654
1.32247
1.33881
1.35521
1.37145
1.38756
1.40366
1.41969
1.4355
1.45083
1.46538
1.47885
1.49092
1.50145
1.51074
1.5193
1.52769
1.53637
1.54545
1.55472
1.56363
1.57144
1.57706
1.57964
1.57987
1.58067
1.58099
1.57072
1.54016
1.50239
1.48186
1.48958
1.52186
1.56579
1.60816
1.63864
1.65561
1.66855
1.69444
1.7408
1.79847
1.85164
1.88941
1.90509
1.897
1.8668
1.81974
1.76426
1.70211
1.64099
1.55048
0.09129
0.179369
0.235304
0.267927
0.294792
0.315962
0.334846
0.351455
0.367128
0.381846
0.396148
0.409979
0.42358
0.436961
0.450259
0.463446
0.476483
0.489303
0.502002
0.514748
0.52778
0.541358
0.55576
0.571187
0.587659
0.604951
0.622614
0.639988
0.656321
0.670994
0.683836
0.695076
0.704978
0.713604
0.72088
0.726876
0.731955
0.736635
0.741433
0.746795
0.753049
0.760408
0.76897
0.778718
0.789545
0.80128
0.813721
0.826661
0.839907
0.853288
0.86666
0.879911
0.892957
0.905739
0.918216
0.930368
0.942186
0.953673
0.964839
0.9757
0.986275
0.996587
1.00666
1.01651
1.02617
1.03566
1.045
1.05421
1.06332
1.07235
1.08132
1.09025
1.09917
1.1081
1.11705
1.12605
1.1351
1.14422
1.15342
1.16271
1.17208
1.18153
1.19106
1.20065
1.21028
1.21994
1.22961
1.23926
1.24889
1.2585
1.26809
1.27771
1.28736
1.29708
1.30688
1.31676
1.32673
1.33679
1.34693
1.35716
1.36748
1.37789
1.38837
1.39893
1.40957
1.4203
1.43111
1.44199
1.45295
1.46396
1.47503
1.48616
1.49737
1.50867
1.5201
1.53167
1.54341
1.55536
1.56754
1.57999
1.59275
1.60586
1.61937
1.6333
1.64769
1.66257
1.67795
1.69384
1.71022
1.72707
1.74435
1.76201
1.77997
1.79814
1.81632
1.83429
1.85186
1.86883
1.88506
1.90047
1.91509
1.92907
1.94275
1.95656
1.97085
1.98571
2.00105
2.01664
2.03212
2.04693
2.06019
2.07106
2.07848
2.08186
2.08094
2.07497
2.06326
2.04557
2.02904
2.02956
2.05412
2.0928
2.12603
2.13926
2.1325
2.12204
2.12887
2.16622
2.23039
2.30291
2.36405
2.40056
2.40735
2.38747
2.34314
2.28244
2.21259
2.13699
2.05969
1.97003
0.108392
0.215816
0.281233
0.319576
0.351167
0.376845
0.399918
0.420361
0.439554
0.457574
0.475093
0.492094
0.508921
0.525634
0.542534
0.559644
0.577029
0.594545
0.612144
0.629737
0.6473
0.664732
0.681853
0.69842
0.714262
0.729202
0.743028
0.755596
0.766998
0.7776
0.78793
0.798438
0.809326
0.82058
0.832101
0.843816
0.855731
0.867911
0.880443
0.893407
0.906847
0.920765
0.935124
0.949849
0.964842
0.979992
0.99519
1.01033
1.02533
1.04011
1.05462
1.06881
1.08267
1.09618
1.10934
1.12215
1.13463
1.14679
1.15864
1.17023
1.18156
1.19266
1.20356
1.21428
1.22484
1.23526
1.24557
1.25579
1.26594
1.27604
1.28611
1.29618
1.30626
1.31638
1.32655
1.3368
1.34714
1.35758
1.36812
1.37877
1.38951
1.40034
1.41126
1.42226
1.43334
1.44449
1.45573
1.46706
1.47849
1.49004
1.50171
1.51351
1.52545
1.53752
1.54973
1.56207
1.57454
1.58714
1.59988
1.61275
1.62577
1.63891
1.65219
1.6656
1.67913
1.69277
1.70654
1.7204
1.73436
1.74839
1.76251
1.77669
1.79097
1.80537
1.8199
1.83459
1.84947
1.86455
1.87985
1.89541
1.91122
1.92733
1.94372
1.96043
1.97744
1.99474
2.01232
2.03015
2.0482
2.06641
2.08476
2.1032
2.12167
2.14005
2.15821
2.176
2.19331
2.21005
2.2262
2.24181
2.257
2.27196
2.28693
2.30213
2.31772
2.33371
2.34997
2.36623
2.38224
2.39752
2.4114
2.42309
2.43172
2.43635
2.43638
2.43108
2.42118
2.41036
2.40527
2.41291
2.43386
2.45701
2.46761
2.45972
2.44118
2.43014
2.44398
2.4896
2.558
2.62972
2.68619
2.71563
2.71481
2.68634
2.63354
2.56486
2.48724
2.40445
2.32015
2.22866
0.133628
0.255065
0.32719
0.369243
0.404126
0.433023
0.459373
0.483254
0.50576
0.526954
0.547433
0.567297
0.586796
0.605915
0.624782
0.643497
0.662257
0.68112
0.700033
0.718822
0.737281
0.755131
0.772064
0.787786
0.802109
0.814993
0.82658
0.837213
0.84741
0.857749
0.868731
0.880672
0.893703
0.907817
0.922917
0.938857
0.955482
0.972639
0.990192
1.00802
1.02601
1.04407
1.06209
1.08
1.09773
1.11521
1.13239
1.14923
1.1657
1.18179
1.19747
1.21275
1.22763
1.24213
1.25626
1.27004
1.2835
1.29667
1.30957
1.32223
1.33469
1.34696
1.35908
1.37108
1.38297
1.39477
1.40653
1.41824
1.42994
1.44165
1.45338
1.46516
1.477
1.48892
1.50093
1.51306
1.52531
1.53768
1.55019
1.56283
1.5756
1.58851
1.60155
1.61473
1.62803
1.64147
1.65504
1.66875
1.6826
1.69659
1.71075
1.72506
1.73953
1.75416
1.76895
1.78391
1.79903
1.81432
1.82978
1.8454
1.86118
1.87713
1.89323
1.90948
1.92587
1.94239
1.95902
1.97576
1.99259
2.00951
2.02649
2.04355
2.06069
2.07792
2.09525
2.11271
2.1303
2.14805
2.16596
2.18406
2.20235
2.22086
2.23958
2.25852
2.27768
2.29704
2.31658
2.33625
2.35602
2.37584
2.39566
2.4154
2.43501
2.45438
2.47343
2.49208
2.51027
2.52796
2.54517
2.56194
2.57837
2.59457
2.61067
2.62672
2.64276
2.65881
2.67482
2.69066
2.70609
2.72069
2.7339
2.74501
2.75326
2.75791
2.75872
2.75548
2.74873
2.7405
2.73475
2.73515
2.74017
2.74172
2.73229
2.71235
2.69216
2.68681
2.70833
2.75857
2.8267
2.89449
2.94525
2.96844
2.96187
2.92717
2.8689
2.79529
2.71299
2.62589
2.53709
2.44258
0.1478
0.284258
0.365233
0.411877
0.450296
0.482164
0.511295
0.537851
0.562984
0.586743
0.609637
0.631756
0.653392
0.674538
0.695222
0.715396
0.735141
0.754514
0.773507
0.791973
0.809717
0.826508
0.84215
0.85652
0.869634
0.88167
0.892973
0.904009
0.915284
0.927245
0.940211
0.954356
0.969728
0.986277
1.00388
1.02237
1.04156
1.06129
1.08137
1.10165
1.12198
1.14225
1.16235
1.18219
1.20171
1.22084
1.23956
1.25782
1.27563
1.29297
1.30985
1.32629
1.3423
1.35791
1.37316
1.38808
1.4027
1.41706
1.43119
1.44513
1.45892
1.47258
1.48615
1.49966
1.51313
1.52658
1.54006
1.55356
1.56713
1.58077
1.59451
1.60837
1.62236
1.63649
1.65078
1.66523
1.67986
1.69467
1.70966
1.72483
1.74018
1.7557
1.7714
1.78727
1.80331
1.81951
1.83587
1.85239
1.86907
1.88591
1.90293
1.92014
1.93753
1.95511
1.97287
1.99083
2.00896
2.02726
2.04574
2.06438
2.08318
2.10214
2.12124
2.14047
2.15982
2.17928
2.19884
2.21847
2.23817
2.25794
2.27775
2.2976
2.31749
2.33742
2.35738
2.37738
2.39743
2.41754
2.43772
2.45797
2.4783
2.49873
2.51926
2.53989
2.56063
2.58146
2.60238
2.62336
2.64437
2.66536
2.68629
2.70708
2.7277
2.74806
2.76809
2.7877
2.80685
2.82548
2.84357
2.86115
2.87824
2.89488
2.91115
2.92713
2.94288
2.95844
2.97379
2.98884
3.00335
3.01693
3.02908
3.03914
3.04647
3.05047
3.05094
3.04774
3.04117
3.03198
3.02155
3.011
2.99892
2.98127
2.95624
2.9281
2.90681
2.90424
2.92862
2.97952
3.04551
3.10949
3.15584
3.17443
3.16358
3.12404
3.06146
2.98381
2.8976
2.80665
2.71379
2.61526
0.16717
0.314278
0.401552
0.451554
0.492657
0.526928
0.558263
0.586947
0.61408
0.639692
0.664206
0.6877
0.710439
0.732519
0.754052
0.774995
0.795329
0.815011
0.833996
0.852192
0.869483
0.885752
0.900942
0.915086
0.928337
0.94097
0.953351
0.965885
0.978947
0.992833
1.00773
1.02373
1.04083
1.05896
1.07799
1.09776
1.11815
1.13901
1.16021
1.18159
1.20303
1.22441
1.24562
1.26658
1.28722
1.30749
1.32734
1.34676
1.36573
1.38425
1.40234
1.42001
1.43729
1.45421
1.47081
1.48712
1.50318
1.51903
1.53472
1.55027
1.56574
1.58114
1.59652
1.61191
1.62734
1.64283
1.65842
1.67412
1.68996
1.70596
1.72213
1.73849
1.75506
1.77185
1.78886
1.8061
1.82358
1.84129
1.85924
1.87742
1.89583
1.91446
1.9333
1.95235
1.9716
1.99104
2.01066
2.03047
2.05047
2.07067
2.09107
2.11166
2.13244
2.15339
2.17452
2.19581
2.21727
2.2389
2.26068
2.28262
2.30469
2.32689
2.3492
2.3716
2.39407
2.41659
2.43916
2.46174
2.48433
2.5069
2.52946
2.55197
2.57444
2.59685
2.61919
2.64147
2.66369
2.68586
2.70798
2.73007
2.75213
2.77418
2.79624
2.81832
2.84042
2.86256
2.88473
2.90691
2.92909
2.95123
2.97328
2.99521
3.01694
3.03842
3.05958
3.08036
3.10068
3.12048
3.13972
3.15833
3.17629
3.19357
3.21014
3.226
3.24117
3.25569
3.26961
3.28286
3.29528
3.30656
3.31628
3.32387
3.32873
3.33035
3.32824
3.32191
3.31109
3.29571
3.27623
3.25316
3.22604
3.194
3.15852
3.12534
3.10344
3.10209
3.12654
3.17553
3.23811
3.29836
3.34112
3.3561
3.34179
3.29818
3.23179
3.15046
3.06063
2.96612
2.86944
2.76763
0.175171
0.334116
0.429692
0.483725
0.527812
0.564355
0.597709
0.628193
0.657048
0.684293
0.710357
0.735215
0.759079
0.782005
0.804125
0.825443
0.845984
0.865722
0.884646
0.902713
0.919887
0.936156
0.951573
0.966263
0.980436
0.994358
1.00832
1.02261
1.03745
1.05302
1.06944
1.08677
1.10499
1.12405
1.14385
1.16427
1.18521
1.20658
1.22826
1.25014
1.27211
1.29406
1.3159
1.33756
1.35896
1.38006
1.40081
1.42119
1.4412
1.46084
1.48011
1.49904
1.51765
1.53597
1.55405
1.57191
1.5896
1.60715
1.62462
1.64203
1.65943
1.67685
1.69433
1.7119
1.72959
1.74743
1.76545
1.78366
1.8021
1.82078
1.83972
1.85893
1.87842
1.8982
1.91827
1.93864
1.95932
1.98028
2.00154
2.02307
2.04489
2.06696
2.08928
2.11185
2.13464
2.15764
2.18086
2.20428
2.2279
2.25171
2.2757
2.29986
2.3242
2.34871
2.3734
2.39825
2.42327
2.44842
2.47369
2.49908
2.52455
2.55009
2.57567
2.60128
2.62688
2.65244
2.67796
2.70339
2.72872
2.75392
2.77898
2.80387
2.82858
2.8531
2.87743
2.90155
2.92549
2.94923
2.9728
2.99621
3.01947
3.0426
3.06562
3.08857
3.11146
3.13432
3.15716
3.17998
3.20279
3.22557
3.24831
3.27099
3.29359
3.31606
3.33834
3.36034
3.38199
3.4032
3.42385
3.44386
3.46311
3.4815
3.49892
3.51528
3.53048
3.54443
3.55708
3.56837
3.57819
3.58631
3.5924
3.5959
3.59628
3.5929
3.58509
3.57224
3.55386
3.52974
3.50013
3.46564
3.42687
3.38485
3.34263
3.30605
3.2828
3.28044
3.30277
3.34885
3.40821
3.46553
3.50555
3.51752
3.49995
3.45219
3.38171
3.29637
3.2027
3.10452
3.00435
2.89983
0.192855
0.358621
0.457503
0.513536
0.55927
0.5973
0.631938
0.663595
0.693495
0.721727
0.748733
0.774529
0.79929
0.823013
0.84578
0.867605
0.888529
0.908552
0.927709
0.946018
0.963521
0.980287
0.996429
1.01211
1.02753
1.04291
1.05845
1.07433
1.09068
1.1076
1.12516
1.14341
1.16237
1.18199
1.20222
1.22299
1.24422
1.26583
1.28775
1.30987
1.33213
1.35442
1.37669
1.39884
1.42084
1.44264
1.4642
1.48551
1.50656
1.52735
1.54789
1.5682
1.5883
1.60822
1.628
1.64767
1.66727
1.68684
1.70642
1.72604
1.74574
1.76557
1.78554
1.8057
1.82608
1.84669
1.86758
1.88875
1.91023
1.93204
1.95419
1.97669
1.99954
2.02276
2.04634
2.07029
2.09459
2.11924
2.14422
2.16954
2.19516
2.22107
2.24726
2.27371
2.3004
2.32732
2.35445
2.38178
2.4093
2.437
2.46487
2.4929
2.5211
2.54944
2.57789
2.60645
2.63509
2.66381
2.69258
2.72138
2.75018
2.77896
2.80768
2.83631
2.86481
2.89316
2.92131
2.94925
2.97694
3.00435
3.03146
3.05824
3.08469
3.11079
3.13653
3.16193
3.18698
3.21169
3.23609
3.26018
3.28399
3.30755
3.3309
3.35408
3.37714
3.40012
3.42305
3.44596
3.46888
3.49184
3.51484
3.53791
3.56104
3.58422
3.6074
3.63053
3.65353
3.6763
3.69871
3.72059
3.74176
3.76198
3.78099
3.79851
3.81425
3.82795
3.83943
3.84855
3.85518
3.85907
3.8599
3.85717
3.85031
3.83868
3.82171
3.79898
3.77032
3.73589
3.69618
3.65214
3.60502
3.55673
3.51075
3.47244
3.44827
3.44449
3.46412
3.50702
3.56343
3.61836
3.65606
3.6651
3.644
3.59163
3.51659
3.42688
3.32921
3.22752
3.12434
3.01804
0.198157
0.373001
0.477271
0.536222
0.584296
0.624061
0.660191
0.69306
0.724015
0.753132
0.780916
0.807392
0.832773
0.857066
0.880362
0.902665
0.924032
0.944492
0.964097
0.982902
1.001
1.01852
1.03559
1.05237
1.06905
1.08577
1.1027
1.11994
1.13755
1.15559
1.17411
1.19314
1.21268
1.23274
1.25329
1.27431
1.29573
1.31753
1.33962
1.36195
1.38445
1.40706
1.42972
1.45237
1.47499
1.49752
1.51995
1.54227
1.56446
1.58653
1.60849
1.63036
1.65216
1.67391
1.69565
1.71741
1.73922
1.76112
1.78315
1.80533
1.82771
1.85032
1.87319
1.89635
1.91983
1.94364
1.96782
1.99238
2.01733
2.0427
2.06848
2.09469
2.12133
2.14839
2.17588
2.20378
2.23208
2.26077
2.28983
2.31924
2.34898
2.37902
2.40935
2.43993
2.47075
2.50178
2.533
2.56439
2.59593
2.62761
2.65941
2.6913
2.72326
2.75529
2.78736
2.81946
2.85157
2.88365
2.91567
2.9476
2.97939
3.01102
3.04245
3.07363
3.10452
3.13509
3.1653
3.19512
3.22452
3.25346
3.28192
3.30988
3.33731
3.36422
3.39059
3.41643
3.44175
3.46657
3.49089
3.51474
3.53816
3.56118
3.58387
3.60629
3.62851
3.6506
3.67263
3.69466
3.71676
3.73899
3.76141
3.78409
3.80707
3.83039
3.85404
3.87799
3.90217
3.92648
3.95079
3.97488
3.99849
4.02128
4.04285
4.0627
4.08028
4.09506
4.10656
4.1144
4.11827
4.11785
4.11267
4.10222
4.08602
4.06366
4.03496
4.00008
3.9595
3.91399
3.86458
3.8126
3.75965
3.70788
3.6605
3.62197
3.5975
3.59249
3.60973
3.65011
3.70451
3.75784
3.79351
3.79937
3.7741
3.71641
3.63622
3.54177
3.44001
3.33502
3.22941
3.12205
0.207484
0.387986
0.494767
0.555363
0.604963
0.645942
0.683159
0.716961
0.748764
0.778642
0.807131
0.834255
0.860242
0.885105
0.908953
0.931803
0.953726
0.974762
0.994996
1.01451
1.0334
1.0518
1.06984
1.08769
1.10549
1.12338
1.14146
1.15982
1.17848
1.19748
1.21684
1.23656
1.25666
1.27714
1.29802
1.31931
1.34099
1.36303
1.3854
1.40805
1.43092
1.45398
1.47719
1.50052
1.52392
1.54739
1.57091
1.59446
1.61805
1.64167
1.66535
1.6891
1.71293
1.73687
1.76095
1.7852
1.80964
1.83432
1.85926
1.88449
1.91004
1.93594
1.96222
1.9889
2.01601
2.04356
2.07157
2.10005
2.12901
2.15846
2.1884
2.21883
2.24975
2.28114
2.31299
2.34529
2.37802
2.41115
2.44466
2.47852
2.5127
2.54716
2.58188
2.61682
2.65194
2.68722
2.72263
2.75814
2.79371
2.82932
2.86495
2.90057
2.93616
2.97169
3.00713
3.04245
3.0776
3.11256
3.14729
3.18176
3.21593
3.24976
3.2832
3.31623
3.34879
3.38084
3.41236
3.44331
3.47366
3.50336
3.53239
3.56073
3.58835
3.61525
3.64141
3.66684
3.69155
3.71556
3.73887
3.76152
3.78354
3.805
3.82598
3.84656
3.86685
3.88695
3.90694
3.92694
3.94705
3.96739
3.98807
4.00921
4.03091
4.05326
4.07632
4.10011
4.1246
4.14972
4.17535
4.20128
4.22719
4.25266
4.27714
4.29993
4.32024
4.3372
4.35001
4.35792
4.3603
4.35654
4.34591
4.32775
4.30163
4.26743
4.22554
4.17694
4.12308
4.06565
4.00644
3.94721
3.88982
3.83633
3.78936
3.75223
3.7289
3.7239
3.73994
3.77902
3.83256
3.88499
3.9187
3.92098
3.89074
3.82726
3.74159
3.64239
3.5368
3.429
3.32165
3.21398
0.2118
0.397342
0.50707
0.569428
0.62055
0.66267
0.700896
0.735543
0.768113
0.798673
0.827804
0.855528
0.8821
0.907538
0.93197
0.955425
0.977996
0.999734
1.02073
1.04107
1.06086
1.0802
1.09923
1.1181
1.13694
1.15587
1.17497
1.1943
1.21389
1.23375
1.25388
1.27428
1.29496
1.31595
1.3373
1.35902
1.38114
1.40365
1.42653
1.44973
1.47324
1.49703
1.52108
1.54537
1.56988
1.59461
1.61954
1.64468
1.67003
1.69559
1.72137
1.7474
1.7737
1.80027
1.82715
1.85437
1.88194
1.90989
1.93825
1.96705
1.99631
2.02604
2.05627
2.08702
2.11829
2.15011
2.18247
2.21538
2.24884
2.28286
2.31741
2.35249
2.38809
2.42419
2.46076
2.49778
2.53521
2.57302
2.61117
2.64963
2.68835
2.72728
2.7664
2.80565
2.84498
2.88437
2.92376
2.96312
3.00242
3.04162
3.08068
3.11958
3.15828
3.19675
3.23494
3.27284
3.31042
3.34764
3.38446
3.42084
3.45676
3.49216
3.527
3.56126
3.59487
3.62782
3.66005
3.69154
3.72224
3.75211
3.78113
3.80925
3.83644
3.86269
3.88799
3.91232
3.93568
3.95809
3.97955
4.0001
4.01977
4.03864
4.05681
4.0744
4.09151
4.10829
4.12486
4.14136
4.15797
4.17486
4.19221
4.2102
4.22902
4.24882
4.26972
4.2918
4.31509
4.33958
4.36516
4.39166
4.41879
4.44611
4.473
4.49863
4.52201
4.542
4.55744
4.56715
4.57008
4.56527
4.55149
4.5277
4.49328
4.4482
4.39332
4.33052
4.26241
4.19196
4.12204
4.05515
3.99347
3.93893
3.89341
3.85899
3.83829
3.8349
3.85159
3.89138
3.94571
3.99809
4.02972
4.0282
3.99225
3.92274
3.83167
3.72811
3.61928
3.50938
3.40103
3.29366
0.216629
0.405071
0.516249
0.579702
0.631917
0.674936
0.714003
0.749381
0.78264
0.813836
0.843587
0.871916
0.899101
0.925164
0.950254
0.974408
0.99773
1.02028
1.04214
1.06339
1.08414
1.10447
1.12454
1.14444
1.1643
1.18423
1.2043
1.22455
1.24502
1.26572
1.28664
1.30778
1.32918
1.35088
1.37293
1.39538
1.41826
1.44157
1.46529
1.48943
1.51396
1.53889
1.5642
1.58989
1.61597
1.64242
1.66926
1.69648
1.7241
1.75212
1.78056
1.80943
1.83875
1.86854
1.89882
1.9296
1.9609
1.99275
2.02517
2.05815
2.09173
2.12591
2.16069
2.1961
2.23212
2.26876
2.30601
2.34387
2.38232
2.42135
2.46094
2.50107
2.5417
2.58281
2.62435
2.6663
2.7086
2.75122
2.79409
2.83717
2.8804
2.92374
2.96712
3.0105
3.05383
3.09705
3.14011
3.18299
3.22562
3.26798
3.31002
3.35172
3.39304
3.43395
3.47441
3.51438
3.55383
3.59274
3.63107
3.66879
3.70587
3.74227
3.77795
3.81286
3.84698
3.88026
3.91267
3.94415
3.97466
4.00418
4.03264
4.06001
4.08625
4.11133
4.13524
4.15795
4.17945
4.19973
4.21881
4.23669
4.25343
4.26912
4.28384
4.29771
4.31086
4.32343
4.33556
4.34743
4.35925
4.37125
4.38368
4.39682
4.41091
4.42618
4.44284
4.46105
4.48091
4.50247
4.5257
4.5505
4.57661
4.60364
4.63097
4.65777
4.68295
4.70524
4.72323
4.73541
4.74035
4.73662
4.72256
4.69638
4.65698
4.60393
4.53815
4.46211
4.37962
4.29516
4.21308
4.1371
4.07002
4.01383
3.96981
3.93882
3.92214
3.92217
3.94195
3.98503
4.04211
4.09533
4.1248
4.11914
4.0771
4.00177
3.90595
3.79895
3.68791
3.5769
3.4684
3.36197
0.218456
0.408587
0.520949
0.585369
0.638576
0.682409
0.722267
0.75834
0.792284
0.824133
0.854551
0.883552
0.91144
0.938237
0.964109
0.989094
1.0133
1.03679
1.05965
1.08195
1.10379
1.12526
1.14647
1.16752
1.18852
1.20954
1.23066
1.25193
1.2734
1.29507
1.31697
1.33909
1.36149
1.38423
1.40736
1.43095
1.45501
1.47957
1.50463
1.53019
1.55627
1.58288
1.61002
1.6377
1.66593
1.69472
1.72408
1.75403
1.78456
1.8157
1.84745
1.87983
1.91286
1.94654
1.98088
2.01591
2.05161
2.08801
2.12511
2.16291
2.20142
2.24062
2.28051
2.3211
2.36235
2.40426
2.44682
2.48999
2.53375
2.57806
2.62291
2.66824
2.71401
2.76018
2.8067
2.85352
2.90057
2.94781
2.99516
3.04257
3.08998
3.13732
3.18454
3.23157
3.27837
3.32487
3.37102
3.41679
3.46213
3.507
3.55136
3.59517
3.63838
3.68098
3.72293
3.76421
3.80479
3.84464
3.88374
3.92206
3.95955
3.99619
4.03194
4.06675
4.1006
4.13343
4.16521
4.19589
4.22544
4.25381
4.28094
4.30681
4.33136
4.35457
4.37641
4.39686
4.41589
4.43349
4.44968
4.46447
4.47791
4.49008
4.50109
4.51103
4.52002
4.52819
4.53568
4.54266
4.54934
4.55599
4.56292
4.57042
4.5788
4.58837
4.5994
4.61213
4.62674
4.64337
4.66207
4.68282
4.70546
4.72968
4.75494
4.78048
4.80524
4.82792
4.84703
4.8609
4.86784
4.86599
4.85354
4.82784
4.78722
4.73037
4.65758
4.57125
4.47589
4.37739
4.28194
4.19494
4.12041
4.06079
4.01707
3.98917
3.9772
3.98204
4.00787
4.05727
4.11937
4.17428
4.20142
4.19133
4.14318
4.06276
3.96342
3.85437
3.74247
3.6315
3.52377
3.41887
0.218861
0.409212
0.521926
0.586925
0.640872
0.685366
0.725932
0.76267
0.79731
0.829868
0.861047
0.890847
0.919594
0.947304
0.974154
1.00018
1.02549
1.05015
1.07424
1.09783
1.12101
1.14386
1.16647
1.18893
1.21132
1.23371
1.25619
1.27881
1.30162
1.32463
1.34789
1.37143
1.39531
1.41959
1.44434
1.46962
1.49547
1.52191
1.54896
1.57664
1.60499
1.63401
1.66373
1.69417
1.72534
1.75727
1.78997
1.82345
1.85772
1.89279
1.92868
1.96538
2.00291
2.04126
2.08044
2.12045
2.16127
2.2029
2.24534
2.28856
2.33255
2.37729
2.42276
2.46893
2.51577
2.56325
2.61134
2.65999
2.70917
2.75882
2.8089
2.85935
2.91012
2.96115
3.01237
3.06373
3.11515
3.16658
3.21793
3.26914
3.32016
3.3709
3.4213
3.47131
3.52087
3.56991
3.61839
3.66627
3.71349
3.76001
3.80581
3.85084
3.89508
3.93849
3.98104
4.02269
4.06342
4.10321
4.14205
4.17991
4.21676
4.25257
4.28731
4.32094
4.35343
4.38476
4.41488
4.44376
4.47136
4.49761
4.52249
4.54595
4.56795
4.58846
4.60745
4.62488
4.64073
4.65498
4.66764
4.67874
4.68833
4.6965
4.70336
4.70895
4.71346
4.71701
4.71971
4.7217
4.72324
4.7246
4.72608
4.72798
4.73062
4.73431
4.73937
4.74609
4.75472
4.76542
4.77833
4.79351
4.81092
4.83033
4.85132
4.87325
4.89519
4.91594
4.93403
4.94778
4.95533
4.9545
4.94355
4.91933
4.87978
4.82283
4.74767
4.65576
4.55129
4.4408
4.33212
4.23268
4.14828
4.0826
4.03673
4.0102
4.00251
4.01318
4.04806
4.10706
4.17621
4.23325
4.2576
4.24288
4.18898
4.10483
4.00368
3.89436
3.78318
3.67356
3.56755
3.46479
0.21759
0.406325
0.51891
0.584099
0.638556
0.68358
0.724822
0.762263
0.797726
0.831171
0.863331
0.894173
0.924054
0.95298
0.981142
1.00857
1.03537
1.06161
1.08737
1.1127
1.1377
1.16244
1.18698
1.21141
1.23581
1.26024
1.28477
1.30946
1.33434
1.35944
1.38483
1.41056
1.43671
1.46337
1.49062
1.51852
1.5471
1.5764
1.60645
1.63729
1.66895
1.70146
1.73485
1.76915
1.80438
1.84056
1.8777
1.91582
1.95491
1.99498
2.03604
2.07808
2.12108
2.16504
2.20993
2.25575
2.30245
2.35002
2.39842
2.44763
2.49759
2.54828
2.59966
2.65166
2.70426
2.75739
2.81101
2.86506
2.91947
2.9742
3.02917
3.08433
3.13959
3.19491
3.2502
3.30539
3.36041
3.4152
3.46967
3.52376
3.5774
3.63051
3.68305
3.73494
3.78612
3.83655
3.88617
3.93494
3.98281
4.02973
4.07568
4.12062
4.16452
4.20737
4.24912
4.28977
4.3293
4.3677
4.40495
4.44104
4.47594
4.50964
4.54211
4.57333
4.60328
4.63195
4.65931
4.68532
4.70994
4.73314
4.75486
4.77506
4.79371
4.81077
4.82621
4.83998
4.85206
4.86242
4.87106
4.87801
4.8833
4.88707
4.88938
4.89012
4.88969
4.88825
4.8856
4.88202
4.87779
4.87323
4.86866
4.86441
4.8608
4.85817
4.85681
4.85718
4.85955
4.86397
4.87066
4.87977
4.89127
4.90499
4.92063
4.93762
4.95522
4.97238
4.98778
4.99978
5.00641
5.00526
4.99444
4.97074
4.93231
4.87694
4.80312
4.71097
4.60321
4.48559
4.36647
4.25501
4.15943
4.08485
4.03343
4.00525
4.00012
4.01709
4.06334
4.13463
4.21187
4.27019
4.29063
4.27124
4.21278
4.12705
4.02639
3.91889
3.81016
3.70317
3.5998
3.49973
0.214647
0.400356
0.511753
0.576829
0.631689
0.677257
0.719269
0.757562
0.794023
0.828547
0.861941
0.894147
0.925558
0.956135
0.986088
1.01543
1.0443
1.07273
1.10081
1.12861
1.1562
1.18365
1.21103
1.23841
1.26586
1.29344
1.32121
1.34918
1.37741
1.40592
1.43476
1.46395
1.49364
1.52401
1.55513
1.58703
1.61971
1.65324
1.68766
1.72302
1.75937
1.79673
1.83513
1.87461
1.91517
1.95682
1.99959
2.04345
2.08842
2.13448
2.18161
2.22978
2.27897
2.32915
2.38027
2.43229
2.48517
2.53886
2.5933
2.64845
2.70424
2.76062
2.81753
2.8749
2.93268
2.9908
3.04918
3.10777
3.16649
3.22528
3.28406
3.34275
3.4013
3.45961
3.51763
3.57527
3.63247
3.68915
3.74524
3.80067
3.85538
3.9093
3.96236
4.01451
4.06569
4.11585
4.16495
4.21295
4.25981
4.30549
4.34996
4.3932
4.43518
4.47587
4.51527
4.55336
4.59014
4.62562
4.65979
4.69264
4.72417
4.75437
4.78323
4.81075
4.83692
4.86175
4.88522
4.90729
4.92793
4.94711
4.96478
4.98092
4.99545
5.00837
5.01963
5.02918
5.03701
5.04307
5.04736
5.04995
5.05074
5.05011
5.04806
5.04425
5.03891
5.03215
5.02412
5.01503
5.00513
4.9947
4.98403
4.97344
4.96327
4.95389
4.94567
4.93898
4.93415
4.93142
4.93128
4.93382
4.93901
4.94666
4.95655
4.96827
4.98115
4.99433
5.00667
5.01663
5.02218
5.02058
5.00955
4.98566
4.94738
4.89295
4.82106
4.7313
4.62509
4.5066
4.38313
4.264
4.15858
4.07379
4.01394
3.98081
3.97609
3.99949
4.05886
4.14264
4.22639
4.28467
4.3013
4.27842
4.21738
4.13193
4.03329
3.92887
3.82373
3.72058
3.62075
3.5239
0.209089
0.391184
0.500825