/*--------------------------------*- C++ -*----------------------------------*\
| =========                 |                                                 |
| \\      /  F ield         | OpenFOAM: The Open Source CFD Toolbox           |
|  \\    /   O peration     | Version:  v1906                                 |
|   \\  /    A nd           | Web:      www.OpenFOAM.com                      |
|    \\/     M anipulation  |                                                 |
\*---------------------------------------------------------------------------*/
FoamFile
{
    version     2.0;
    format      ascii;
    class       volScalarField;
    location    "1000";
    object      nut;
}
// * * * * * * * * * * * * * * * * * * * * * * * * * * * * * * * * * * * * * //

dimensions      [0 2 -1 0 0 0 0];


internalField   nonuniform List<scalar> 
12225
(
5.38048e-05
5.34216e-05
5.26394e-05
5.17774e-05
5.09455e-05
5.01797e-05
4.94859e-05
4.88683e-05
4.83058e-05
4.78156e-05
4.73512e-05
4.69712e-05
4.66629e-05
4.64122e-05
4.61819e-05
4.60164e-05
4.58179e-05
4.57444e-05
0.00074366
0.00027483
0.000208919
0.000186817
0.000173795
0.000168893
0.000164707
0.000161074
0.000158158
0.000155611
0.00015368
0.00015175
0.000150483
0.000148722
0.000148179
0.000146442
0.00014689
0.000144947
0.00337131
0.000965694
0.000668434
0.00056226
0.000503873
0.00047204
0.000448912
0.000431661
0.000418791
0.000408359
0.000399727
0.000392352
0.000386334
0.000380619
0.000376532
0.000371537
0.000369792
0.000364785
0.00784749
0.00229239
0.00147327
0.00117577
0.00101861
0.000926502
0.000864643
0.000819881
0.000787034
0.000761225
0.000740163
0.000723402
0.000709702
0.000697845
0.000688343
0.000678992
0.000673777
0.000663399
0.0127628
0.00432674
0.00270977
0.00210439
0.0017886
0.00159953
0.0014735
0.00138308
0.00131578
0.00126363
0.0012217
0.00118755
0.00115984
0.00113598
0.00111584
0.00109804
0.00108531
0.00106704
0.0171139
0.00693203
0.0043692
0.00334595
0.00280533
0.00247644
0.00225613
0.00209815
0.0019799
0.00188825
0.00181495
0.00175512
0.00170583
0.00166421
0.00162883
0.00159813
0.00157251
0.00154441
0.0205947
0.009884
0.00641804
0.00491193
0.00409432
0.00358858
0.00324691
0.00300103
0.00281613
0.00267235
0.00255732
0.0024633
0.00238532
0.0023196
0.00226357
0.00221515
0.00217398
0.00213155
0.0232407
0.0129307
0.00876074
0.00676565
0.0056381
0.00492477
0.00443634
0.00408198
0.00381381
0.0036042
0.00343599
0.00329812
0.00318331
0.00308632
0.00300342
0.00293175
0.00286959
0.0028085
0.0252064
0.0158687
0.0112826
0.0088575
0.00741823
0.0064822
0.00583031
0.0053522
0.00498751
0.00470073
0.00446955
0.00427942
0.00412051
0.00398588
0.00387048
0.00377053
0.00368305
0.00360024
0.0266542
0.018555
0.0138529
0.0111074
0.00938586
0.00822888
0.00740597
0.00679379
0.006322
0.00594804
0.00564475
0.00539408
0.00518368
0.00500476
0.00485087
0.00471714
0.0045993
0.00449052
0.0277222
0.0209148
0.016356
0.0134293
0.0114842
0.0101281
0.0091398
0.00839205
0.00780865
0.00734188
0.00696055
0.00664356
0.00637619
0.00614788
0.00595079
0.00577894
0.00562709
0.00548884
0.0284468
0.0227417
0.0184778
0.015512
0.0134328
0.0119305
0.0108082
0.00994394
0.00926076
0.00870861
0.00825394
0.00787358
0.00755106
0.00727442
0.00703468
0.00682489
0.00663907
0.00647118
0.0290076
0.0243031
0.0204375
0.0175386
0.0153942
0.0137851
0.0125503
0.0115804
0.0108024
0.0101663
0.00963784
0.00919253
0.00881273
0.00848533
0.00820041
0.00795021
0.00772819
0.00752827
0.0294889
0.0257557
0.0223981
0.0196768
0.017541
0.0158668
0.0145397
0.0134718
0.0125991
0.0118753
0.011267
0.0107497
0.0103052
0.00991963
0.0095823
0.00928481
0.00902014
0.00878227
0.0298838
0.0270287
0.0242394
0.021798
0.0197582
0.0180795
0.0166983
0.0155547
0.014599
0.0137924
0.0131051
0.012514
0.0120014
0.0115534
0.011159
0.0108095
0.0104975
0.0102168
0.0301877
0.0280605
0.0258271
0.0237258
0.021857
0.0202388
0.0188528
0.017668
0.0166529
0.0157789
0.0150222
0.0143631
0.0137854
0.0132762
0.0128248
0.0124224
0.012062
0.0117373
0.0303978
0.0288006
0.0270244
0.0252477
0.023577
0.0220608
0.0207114
0.0195219
0.0184772
0.01756
0.0167532
0.0160413
0.0154109
0.0148504
0.0143501
0.0139016
0.0134981
0.013134
0.0305044
0.0291849
0.0276681
0.0260934
0.0245605
0.0231269
0.0218187
0.0206418
0.0195911
0.0186563
0.0178251
0.0170854
0.0164256
0.0158357
0.0153064
0.0148302
0.0144001
0.0140102
0.0304715
0.029067
0.0274718
0.025837
0.0242636
0.022806
0.0214858
0.0203051
0.0192558
0.0183255
0.0175006
0.0167679
0.0161156
0.0155331
0.0150113
0.0145424
0.01412
0.0137388
0.030231
0.0282139
0.0260759
0.0240421
0.0222137
0.0206154
0.0192349
0.0180468
0.0170228
0.0161369
0.0153666
0.0146932
0.0141013
0.0135781
0.0131135
0.012699
0.0123278
0.0119948
0.0298206
0.0268279
0.0239495
0.0214629
0.0194053
0.0177238
0.0163472
0.015211
0.0142637
0.0134654
0.0127856
0.0122012
0.0116944
0.0112513
0.0108612
0.0105159
0.010209
0.00993629
0.0291395
0.0247086
0.0209848
0.0181323
0.0159861
0.0143545
0.0130896
0.0120881
0.0112793
0.0106145
0.0100596
0.00959004
0.00918803
0.00884027
0.00853671
0.00826974
0.00803366
0.0078249
0.028036
0.0217162
0.0172851
0.0143381
0.0123314
0.0109079
0.00985705
0.0090541
0.00842272
0.00791422
0.00749646
0.00714744
0.00685164
0.00659784
0.00637765
0.00618485
0.00601475
0.00586618
0.0262543
0.0178167
0.0131459
0.0104896
0.00884752
0.0077515
0.00697413
0.0063968
0.00595222
0.00559979
0.00531382
0.00507727
0.00487844
0.00470905
0.00456295
0.00443565
0.00432352
0.0042257
0.0233814
0.0132059
0.00902261
0.00699359
0.00583835
0.00510159
0.00459314
0.00422289
0.00394172
0.00372108
0.00354348
0.00339754
0.00327552
0.00317207
0.00308303
0.00300561
0.00293656
0.00287699
0.0189045
0.00845559
0.00545011
0.00418492
0.00350641
0.0030862
0.00280094
0.00259655
0.00244277
0.0023228
0.00222674
0.00214811
0.00208259
0.0020273
0.00197966
0.00193858
0.00190196
0.00187085
0.0125844
0.00438894
0.0027886
0.00217247
0.00185037
0.00165228
0.00151836
0.00142434
0.00135359
0.00129836
0.00125434
0.00121837
0.00118855
0.00116352
0.00114147
0.00112287
0.00110541
0.00109067
0.00562612
0.00171148
0.00115552
0.000945974
0.000836978
0.00076901
0.000723324
0.000693155
0.00066877
0.000649318
0.000633792
0.000620771
0.000609523
0.000599978
0.000591305
0.000584091
0.000576866
0.000571901
0.00117126
0.000435642
0.000327288
0.000284803
0.000262907
0.00024875
0.000241421
0.000237195
0.000233219
0.000229607
0.000226372
0.000223561
0.000221
0.000218835
0.000216758
0.000215091
0.000213302
0.000211661
7.08579e-05
7.01306e-05
6.91147e-05
6.81139e-05
6.71688e-05
6.62995e-05
6.55034e-05
6.47784e-05
6.41201e-05
6.35217e-05
6.29765e-05
6.24779e-05
6.20217e-05
6.16012e-05
6.12161e-05
6.0857e-05
6.05296e-05
6.02181e-05
9.96294e-06
3.00421e-05
3.6073e-05
3.87827e-05
4.08105e-05
4.21514e-05
4.32909e-05
4.41512e-05
4.48998e-05
4.55064e-05
4.60385e-05
4.64826e-05
4.68665e-05
4.71805e-05
4.74362e-05
4.76244e-05
4.77542e-05
4.78231e-05
4.78332e-05
4.7796e-05
4.77165e-05
4.75698e-05
4.73595e-05
4.70745e-05
4.66916e-05
4.59525e-05
4.47246e-05
4.2883e-05
4.01613e-05
3.6278e-05
3.21499e-05
2.81467e-05
2.49796e-05
2.37259e-05
2.50916e-05
2.79555e-05
3.09476e-05
3.37547e-05
3.63889e-05
3.8931e-05
4.15029e-05
4.37862e-05
4.57483e-05
4.74969e-05
4.90856e-05
5.05237e-05
5.1846e-05
5.30712e-05
5.42129e-05
5.52808e-05
5.62855e-05
5.72351e-05
5.81364e-05
5.89957e-05
5.98177e-05
6.06071e-05
6.13672e-05
6.21012e-05
6.28116e-05
6.35004e-05
6.41694e-05
6.482e-05
6.54536e-05
6.60715e-05
6.66749e-05
6.72654e-05
6.78445e-05
6.84139e-05
6.89752e-05
6.95303e-05
7.00807e-05
7.06276e-05
7.11719e-05
7.17138e-05
7.22533e-05
7.27898e-05
7.33223e-05
7.38501e-05
7.43718e-05
7.48867e-05
7.53937e-05
7.58917e-05
7.63799e-05
7.6857e-05
7.73218e-05
7.77731e-05
7.82097e-05
7.86302e-05
7.90332e-05
7.94174e-05
7.97834e-05
8.01376e-05
8.04806e-05
8.08128e-05
8.11329e-05
8.14399e-05
8.17309e-05
8.20019e-05
8.22481e-05
8.24641e-05
8.26429e-05
8.27446e-05
8.28285e-05
8.28908e-05
8.29386e-05
8.29693e-05
8.29829e-05
8.29775e-05
8.29511e-05
8.29088e-05
8.28598e-05
8.27834e-05
8.26761e-05
8.26644e-05
8.2585e-05
8.24477e-05
8.24121e-05
8.22689e-05
8.22177e-05
8.21152e-05
8.20271e-05
8.1948e-05
8.18823e-05
8.18327e-05
8.18022e-05
8.17928e-05
8.18074e-05
8.18479e-05
8.19172e-05
8.2016e-05
8.21439e-05
8.2302e-05
8.2493e-05
8.27051e-05
8.29303e-05
8.32214e-05
8.36105e-05
8.41085e-05
8.47188e-05
8.54379e-05
8.62538e-05
8.71325e-05
8.80356e-05
8.89034e-05
8.96906e-05
9.04481e-05
9.1166e-05
9.18387e-05
9.24608e-05
9.30244e-05
9.35339e-05
9.39654e-05
9.43213e-05
9.46645e-05
9.50231e-05
9.53966e-05
9.54274e-05
9.45925e-05
9.06703e-05
8.43432e-05
7.59666e-05
7.06116e-05
6.93401e-05
7.14354e-05
7.46923e-05
7.92057e-05
8.40028e-05
8.84502e-05
9.2021e-05
9.57044e-05
9.92776e-05
0.000103016
0.000105117
0.00010589
0.000105787
0.000105109
0.000103916
0.000102186
0.000100656
9.65388e-05
1.41715e-05
9.61376e-05
0.000197307
0.000258318
0.000306678
0.000341677
0.000371993
0.000397038
0.000420632
0.000442292
0.000463558
0.000483936
0.000503759
0.000522573
0.000540256
0.000556213
0.000570066
0.000581563
0.000591034
0.00059914
0.00060665
0.000614391
0.000622633
0.000630703
0.000637283
0.000644725
0.000655225
0.00067001
0.000688881
0.000707208
0.00072041
0.000728042
0.000730707
0.00073002
0.000727952
0.000725659
0.00072331
0.000720522
0.000716902
0.00071227
0.000706664
0.000701634
0.000698265
0.000697087
0.000698008
0.00070084
0.000705295
0.00071104
0.000717745
0.000725106
0.000732861
0.000740793
0.00074873
0.000756546
0.00076415
0.000771481
0.000778507
0.000785213
0.000791599
0.000797676
0.000803462
0.000808978
0.000814249
0.000819298
0.000824151
0.000828836
0.000833377
0.000837807
0.000842156
0.000846461
0.000850759
0.00085509
0.000859491
0.000864
0.000868649
0.000873468
0.000878476
0.000883691
0.000889124
0.000894779
0.000900651
0.000906724
0.000912962
0.000919307
0.000925669
0.000931926
0.000937922
0.000943468
0.00094833
0.000952241
0.000955027
0.000957222
0.000959037
0.000960605
0.000962026
0.000963384
0.000964676
0.000965797
0.000966516
0.000966394
0.000965254
0.000963984
0.000962786
0.000961761
0.00096096
0.000960417
0.00096015
0.000960168
0.000960475
0.00096107
0.000961958
0.000963151
0.00096466
0.000966563
0.000968862
0.000971623
0.000974972
0.000978917
0.000983595
0.000989034
0.000995348
0.00100266
0.00101109
0.00102077
0.00103183
0.00104435
0.00105838
0.00107387
0.00109063
0.00110822
0.00112587
0.00114238
0.0011557
0.00116342
0.00116486
0.00116311
0.00115957
0.00115456
0.00114815
0.00114032
0.00113082
0.00111885
0.00110209
0.0010776
0.00104758
0.00101784
0.000990719
0.000967282
0.000947946
0.000932512
0.000920614
0.000911119
0.000903149
0.000898664
0.000906359
0.000932548
0.000971815
0.00101905
0.00108134
0.00119123
0.00128984
0.00132883
0.00132134
0.00128814
0.00125098
0.00121519
0.00117487
0.00112732
0.00106536
0.00102904
0.00100668
0.000993174
0.000991631
0.000982759
0.000963101
0.000939451
0.000915436
0.000889702
0.000868253
0.000825449
1.79327e-05
0.000136063
0.000287469
0.000406498
0.0005065
0.000586741
0.000655749
0.000712278
0.000764416
0.000811406
0.000856949
0.000899922
0.000941633
0.00098139
0.00101935
0.00105372
0.00108465
0.00111272
0.00113846
0.00116233
0.00118486
0.00120654
0.00122775
0.00124872
0.0012695
0.00128998
0.00130972
0.00132798
0.0013437
0.00135767
0.00137009
0.00138038
0.00138842
0.00139464
0.00139977
0.00140452
0.00140944
0.0014149
0.00142105
0.00142786
0.00143542
0.0014439
0.00145372
0.00146513
0.00147833
0.00149303
0.00150888
0.00152553
0.00154267
0.00155999
0.00157723
0.00159419
0.00161071
0.00162666
0.00164197
0.00165658
0.00167046
0.00168362
0.00169606
0.00170782
0.00171893
0.00172944
0.00173939
0.00174881
0.00175777
0.0017663
0.00177445
0.00178227
0.0017898
0.0017971
0.00180422
0.00181119
0.00181807
0.0018249
0.00183171
0.00183854
0.0018454
0.0018523
0.00185925
0.00186624
0.00187326
0.00188026
0.0018872
0.001894
0.00190057
0.0019068
0.00191256
0.00191775
0.00192226
0.00192602
0.00192902
0.00193123
0.00193252
0.00193257
0.00193177
0.00193071
0.00192951
0.0019281
0.00192644
0.00192451
0.00192243
0.00192036
0.00191835
0.00191643
0.00191479
0.00191354
0.00191272
0.00191237
0.00191245
0.00191297
0.00191391
0.00191531
0.00191724
0.00191982
0.00192315
0.00192734
0.00193246
0.00193861
0.00194585
0.00195424
0.00196386
0.00197479
0.00198706
0.00200071
0.00201571
0.00203195
0.00204927
0.00206739
0.00208592
0.00210429
0.00212183
0.00213777
0.00215129
0.00216173
0.00216882
0.00217249
0.00217233
0.00216785
0.00215869
0.00214458
0.00212544
0.00210133
0.00207262
0.00204109
0.00201007
0.00198242
0.00195979
0.00194312
0.00193341
0.00193124
0.00193688
0.00194956
0.00196909
0.00199851
0.00204457
0.00211438
0.00221086
0.00232037
0.00241957
0.00251386
0.00257172
0.00255752
0.00249853
0.00242315
0.00235227
0.00229529
0.00225006
0.00221484
0.00219782
0.00220799
0.00222216
0.00222932
0.00222652
0.00220483
0.00216667
0.00212186
0.00207204
0.0020168
0.00195939
0.00186362
1.95461e-05
0.000154555
0.00033759
0.000488634
0.000624705
0.0007388
0.000839547
0.000925111
0.00100267
0.00107142
0.00113613
0.00119549
0.00125175
0.00130439
0.00135518
0.00140262
0.00144554
0.00148484
0.0015212
0.00155525
0.00158744
0.00161817
0.0016477
0.0016762
0.00170359
0.00172967
0.00175424
0.00177711
0.00179812
0.00181717
0.00183469
0.00185138
0.00186782
0.00188453
0.00190181
0.00191974
0.00193835
0.00195762
0.00197739
0.00199745
0.00201775
0.00203844
0.00205955
0.0020809
0.0021024
0.00212404
0.00214577
0.00216749
0.00218906
0.00221034
0.00223118
0.00225147
0.0022711
0.00229
0.00230809
0.00232535
0.00234173
0.00235725
0.00237195
0.00238585
0.00239901
0.00241146
0.00242325
0.00243444
0.00244506
0.00245517
0.00246483
0.00247407
0.00248295
0.00249152
0.00249983
0.00250791
0.00251581
0.00252357
0.00253121
0.00253877
0.00254627
0.00255371
0.0025611
0.00256845
0.00257573
0.00258292
0.00258997
0.00259684
0.00260346
0.00260978
0.00261573
0.00262127
0.00262635
0.00263097
0.00263512
0.00263881
0.00264205
0.00264492
0.00264757
0.00265006
0.00265243
0.00265466
0.00265676
0.0026587
0.00266043
0.00266185
0.00266273
0.00266276
0.00266285
0.00266332
0.00266426
0.00266568
0.00266752
0.00266969
0.00267211
0.00267484
0.00267813
0.00268224
0.0026874
0.00269376
0.00270143
0.00271048
0.00272096
0.00273288
0.00274623
0.00276095
0.00277696
0.00279408
0.00281207
0.00283062
0.00284932
0.00286766
0.0028851
0.00290111
0.00291539
0.00292778
0.00293798
0.00294555
0.00295
0.00295074
0.00294725
0.00293918
0.00292641
0.00290912
0.00288786
0.00286363
0.0028379
0.0028128
0.00279058
0.00277278
0.00276027
0.00275369
0.00275569
0.00277066
0.00279721
0.00283662
0.00289025
0.00295954
0.00304565
0.00314476
0.00324854
0.00334335
0.00341629
0.00346727
0.00348791
0.00343969
0.00336235
0.00328583
0.00322245
0.00317934
0.00315472
0.00314239
0.00316525
0.00321224
0.00324915
0.00326004
0.0032492
0.00321345
0.00316172
0.00310026
0.00303088
0.00295263
0.00286699
0.00273982
2.17033e-05
0.000173665
0.000382081
0.000559777
0.000720343
0.000859644
0.000982236
0.00109074
0.00118754
0.00127468
0.00135371
0.00142608
0.0014928
0.00155477
0.00161255
0.00166645
0.00171662
0.00176337
0.00180707
0.00184819
0.00188714
0.00192429
0.00195993
0.00199424
0.00202725
0.0020589
0.00208904
0.00211753
0.00214424
0.00216927
0.00219292
0.00221577
0.00223972
0.00226552
0.00229243
0.00231879
0.0023444
0.00236905
0.00239313
0.0024172
0.00244158
0.00246633
0.00249133
0.00251645
0.0025416
0.00256666
0.00259152
0.00261607
0.00264019
0.00266377
0.00268671
0.00270894
0.00273037
0.00275097
0.00277069
0.00278953
0.00280748
0.00282455
0.00284076
0.0028561
0.0028706
0.00288431
0.00289727
0.00290952
0.00292112
0.00293212
0.00294258
0.00295255
0.00296208
0.00297123
0.00298005
0.00298858
0.00299687
0.00300496
0.00301288
0.00302067
0.00302834
0.00303593
0.00304344
0.00305088
0.00305825
0.00306552
0.00307269
0.00307973
0.00308661
0.0030933
0.0030998
0.00310609
0.00311216
0.00311802
0.00312369
0.00312919
0.00313456
0.00313986
0.00314513
0.0031504
0.00315567
0.00316095
0.00316626
0.00317162
0.00317704
0.00318255
0.00318822
0.00319415
0.00320049
0.00320728
0.00321446
0.00322194
0.00322954
0.00323694
0.00324367
0.00324976
0.0032561
0.00326324
0.00327148
0.00328101
0.00329193
0.00330431
0.00331818
0.0033335
0.00335025
0.00336832
0.00338756
0.00340772
0.00342849
0.00344939
0.00346988
0.00348921
0.0035065
0.00352072
0.00353204
0.00354129
0.00354849
0.00355352
0.00355619
0.00355642
0.0035542
0.00354975
0.00354343
0.00353584
0.00352779
0.0035203
0.00351453
0.00351161
0.00351245
0.00351722
0.00352503
0.00353452
0.00355204
0.00358209
0.00362629
0.00368619
0.00376208
0.00385257
0.00395341
0.00405251
0.00413083
0.00418557
0.00421652
0.00422021
0.00419067
0.0041314
0.00406482
0.00400509
0.00396541
0.00394873
0.00395478
0.003982
0.00403262
0.00408295
0.00411136
0.00411159
0.00408818
0.00403714
0.00397202
0.00389649
0.00381284
0.00372202
0.00361951
0.00348518
2.28289e-05
0.000183818
0.000412646
0.000610694
0.000791417
0.000949525
0.00108922
0.00121327
0.00132424
0.00142432
0.00151501
0.00159767
0.0016733
0.00174298
0.00180754
0.00186772
0.00192399
0.00197672
0.00202625
0.00207298
0.00211723
0.00215931
0.00219939
0.00223754
0.00227368
0.00230758
0.00233896
0.00236747
0.00239289
0.00241618
0.00244051
0.00246753
0.00249776
0.00253077
0.00256535
0.00259989
0.00263275
0.00266341
0.00269263
0.00272098
0.00274881
0.00277631
0.00280356
0.00283059
0.00285735
0.00288379
0.00290984
0.00293541
0.0029604
0.00298474
0.00300834
0.00303114
0.00305309
0.00307413
0.00309425
0.00311343
0.00313165
0.00314894
0.0031653
0.00318076
0.00319535
0.00320912
0.0032221
0.00323435
0.00324593
0.00325688
0.00326727
0.00327715
0.00328659
0.00329562
0.00330431
0.00331272
0.00332088
0.00332884
0.00333664
0.00334433
0.00335192
0.00335945
0.00336695
0.00337441
0.00338185
0.00338928
0.00339668
0.00340406
0.00341141
0.00341873
0.00342601
0.00343326
0.00344047
0.00344764
0.0034548
0.00346195
0.00346912
0.00347634
0.00348363
0.00349103
0.00349856
0.00350626
0.00351417
0.00352233
0.00353079
0.00353959
0.00354879
0.00355843
0.00356854
0.0035791
0.00359005
0.0036013
0.0036127
0.00362408
0.00363523
0.00364591
0.0036568
0.00366847
0.00368117
0.00369502
0.00371009
0.00372637
0.00374386
0.00376249
0.0037822
0.00380284
0.00382423
0.00384613
0.00386822
0.00389009
0.00391122
0.00393094
0.00394841
0.00396378
0.00397769
0.00399027
0.00400147
0.00401127
0.00401971
0.00402692
0.00403315
0.00403874
0.00404419
0.00405006
0.00405703
0.0040658
0.004077
0.0040911
0.0041082
0.00412786
0.00414854
0.00417186
0.00420461
0.00424899
0.00430618
0.00437575
0.00445575
0.00454187
0.00462691
0.0046995
0.00474705
0.00477608
0.00478636
0.00477559
0.00474456
0.00470141
0.00465931
0.00462929
0.00461808
0.00463023
0.00466215
0.00470488
0.00476566
0.00480982
0.00482454
0.00480901
0.00477096
0.00470437
0.00462697
0.00454082
0.0044483
0.00434973
0.0042391
0.00410516
2.42754e-05
0.00019505
0.000441713
0.000657634
0.000852852
0.0010248
0.00117658
0.00131161
0.00143269
0.00154195
0.00164107
0.00173162
0.00181459
0.00189088
0.00196128
0.00202663
0.0020876
0.00214474
0.00219846
0.00224914
0.0022971
0.00234257
0.00238569
0.00242648
0.00246481
0.0025005
0.00253328
0.00256298
0.00258955
0.00261589
0.00264416
0.00267536
0.00270951
0.00274579
0.00278285
0.00281918
0.0028533
0.0028854
0.00291604
0.00294565
0.00297452
0.00300282
0.00303067
0.00305809
0.00308509
0.00311162
0.00313762
0.00316304
0.00318779
0.0032118
0.00323502
0.00325739
0.00327884
0.00329936
0.00331892
0.00333751
0.00335512
0.00337176
0.00338746
0.00340225
0.00341616
0.00342923
0.00344153
0.00345309
0.00346397
0.00347424
0.00348396
0.00349317
0.00350196
0.00351037
0.00351846
0.00352629
0.00353392
0.00354139
0.00354874
0.00355602
0.00356328
0.00357052
0.0035778
0.00358512
0.0035925
0.00359996
0.00360749
0.00361511
0.00362282
0.00363062
0.0036385
0.00364648
0.00365454
0.00366269
0.00367094
0.00367932
0.00368785
0.00369655
0.00370545
0.00371457
0.00372394
0.0037336
0.00374358
0.00375394
0.0037647
0.00377591
0.00378761
0.0037998
0.0038125
0.00382569
0.00383936
0.00385346
0.00386793
0.00388276
0.00389793
0.00391355
0.00392982
0.00394685
0.0039647
0.00398339
0.00400291
0.00402323
0.00404431
0.00406607
0.00408842
0.00411124
0.00413438
0.00415767
0.00418091
0.00420388
0.00422637
0.00424823
0.00426941
0.00428993
0.0043098
0.00432898
0.00434748
0.00436532
0.00438261
0.00439953
0.00441631
0.00443326
0.00445078
0.00446925
0.00448911
0.00451076
0.00453454
0.00456073
0.00458951
0.0046212
0.00465657
0.00469724
0.00474481
0.00479935
0.00486003
0.004925
0.00499123
0.0050549
0.00511131
0.00515657
0.00518943
0.00521093
0.00522003
0.00521633
0.00520256
0.00518554
0.00517412
0.00517635
0.00519581
0.00523202
0.00528181
0.00533814
0.00539383
0.00542467
0.00542243
0.00538906
0.00533603
0.00525417
0.00516606
0.00507187
0.00497333
0.00486983
0.00475584
0.00462527
2.4845e-05
0.000199748
0.000460119
0.000688846
0.000897377
0.00108131
0.00124367
0.00138796
0.00151721
0.00163365
0.00173908
0.00183527
0.00192346
0.0020047
0.00207978
0.00214942
0.00221424
0.00227486
0.00233176
0.00238537
0.002436
0.00248391
0.00252922
0.00257199
0.00261217
0.00264966
0.00268438
0.00271628
0.00274629
0.00277633
0.00280764
0.00284082
0.00287582
0.00291195
0.0029482
0.00298345
0.00301672
0.00304829
0.0030786
0.00310793
0.0031365
0.00316445
0.00319184
0.0032187
0.00324503
0.0032708
0.00329594
0.00332041
0.00334414
0.00336707
0.00338915
0.00341033
0.00343057
0.00344984
0.00346813
0.00348543
0.00350176
0.00351711
0.00353153
0.00354504
0.00355769
0.00356952
0.0035806
0.00359098
0.00360071
0.00360987
0.00361853
0.00362673
0.00363456
0.00364207
0.00364933
0.0036564
0.00366333
0.00367017
0.00367699
0.00368381
0.00369068
0.00369764
0.00370471
0.00371191
0.00371928
0.00372681
0.00373453
0.00374243
0.00375053
0.00375882
0.00376731
0.003776
0.00378488
0.00379398
0.0038033
0.00381285
0.00382265
0.0038327
0.00384303
0.00385367
0.00386465
0.003876
0.00388776
0.00389997
0.00391265
0.00392583
0.00393955
0.00395381
0.00396863
0.00398401
0.00399995
0.00401646
0.00403353
0.00405118
0.00406944
0.00408837
0.00410802
0.00412844
0.00414962
0.00417157
0.00419429
0.00421776
0.00424194
0.00426679
0.00429226
0.00431828
0.00434477
0.00437163
0.00439876
0.00442609
0.00445352
0.00448098
0.00450842
0.00453579
0.00456302
0.0045901
0.004617
0.00464376
0.00467046
0.00469723
0.00472422
0.00475161
0.00477962
0.00480846
0.00483833
0.00486944
0.00490199
0.00493625
0.00497282
0.00501172
0.0050536
0.00509899
0.00514787
0.00519962
0.00525322
0.005307
0.00535939
0.00540846
0.00545253
0.00549072
0.00552269
0.00554816
0.00556678
0.00557934
0.00558875
0.00560017
0.00561953
0.00565141
0.0056973
0.00575492
0.00581573
0.00587065
0.00592433
0.00594209
0.00592164
0.00587044
0.0058035
0.00570835
0.0056124
0.00551318
0.00541149
0.00530621
0.00519286
0.00506835
2.60667e-05
0.000209116
0.000480982
0.000720904
0.000938249
0.00113019
0.00129975
0.00145035
0.00158528
0.00170673
0.00181649
0.00191639
0.00200777
0.00209186
0.00216956
0.00224166
0.0023088
0.0023715
0.00243025
0.0024855
0.0025376
0.00258684
0.00263342
0.00267748
0.00271913
0.00275849
0.00279576
0.00283122
0.00286528
0.00289825
0.00293098
0.00296408
0.0029977
0.00303152
0.00306489
0.00309705
0.00312798
0.00315787
0.00318687
0.0032151
0.00324265
0.00326956
0.00329587
0.00332157
0.00334663
0.00337103
0.0033947
0.00341761
0.00343969
0.00346091
0.00348122
0.00350057
0.00351896
0.00353636
0.00355277
0.00356819
0.00358264
0.00359615
0.00360875
0.00362049
0.00363142
0.00364159
0.00365107
0.00365991
0.0036682
0.003676
0.00368338
0.00369041
0.00369716
0.0037037
0.00371009
0.00371639
0.00372267
0.00372897
0.00373534
0.00374184
0.00374849
0.00375533
0.00376238
0.00376968
0.00377724
0.00378507
0.00379318
0.00380157
0.00381026
0.00381923
0.0038285
0.00383806
0.00384792
0.00385807
0.00386852
0.00387928
0.00389036
0.00390178
0.00391358
0.00392576
0.00393836
0.0039514
0.0039649
0.00397889
0.0039934
0.00400845
0.00402406
0.00404025
0.00405704
0.00407443
0.00409246
0.00411112
0.00413044
0.00415044
0.00417116
0.00419263
0.00421488
0.00423792
0.00426179
0.0042865
0.00431205
0.00433846
0.00436572
0.00439383
0.00442278
0.00445252
0.00448304
0.00451428
0.00454621
0.00457876
0.00461188
0.00464551
0.00467959
0.00471404
0.00474881
0.00478384
0.0048191
0.00485457
0.00489024
0.00492614
0.00496228
0.00499871
0.00503546
0.00507257
0.00511007
0.00514801
0.00518646
0.00522574
0.00526595
0.00530712
0.00534945
0.00539296
0.00543748
0.00548257
0.00552791
0.005573
0.00561741
0.00566071
0.00570251
0.0057425
0.00578028
0.00581554
0.00584852
0.00588052
0.00591417
0.00595325
0.00600144
0.00606078
0.00613037
0.00620571
0.00627495
0.00633401
0.00637563
0.00637438
0.0063361
0.0062702
0.00619233
0.00608777
0.00598745
0.00588591
0.00578333
0.00567852
0.005568
0.00545015
2.64243e-05
0.000213377
0.000492361
0.000738972
0.000964332
0.00116337
0.00133905
0.00149491
0.00163422
0.00175941
0.00187225
0.00197466
0.00206804
0.00215369
0.00223259
0.00230565
0.00237354
0.00243688
0.00249613
0.00255171
0.00260395
0.00265322
0.00269976
0.00274381
0.00278556
0.00282521
0.00286301
0.00289924
0.0029342
0.00296819
0.00300145
0.00303414
0.00306627
0.00309778
0.00312855
0.00315849
0.00318761
0.00321594
0.00324351
0.00327037
0.00329653
0.003322
0.00334677
0.00337083
0.00339413
0.00341665
0.00343835
0.00345919
0.00347913
0.00349813
0.00351617
0.00353323
0.00354931
0.0035644
0.00357852
0.00359168
0.00360392
0.00361528
0.00362581
0.00363556
0.0036446
0.00365299
0.0036608
0.00366811
0.00367499
0.00368152
0.00368777
0.00369381
0.00369971
0.00370555
0.00371138
0.00371727
0.00372327
0.00372943
0.0037358
0.00374241
0.00374929
0.00375648
0.00376399
0.00377184
0.00378005
0.00378863
0.00379757
0.00380688
0.00381655
0.0038266
0.00383701
0.00384778
0.00385892
0.00387042
0.00388229
0.00389453
0.00390717
0.00392021
0.00393365
0.00394752
0.00396184
0.00397663
0.00399191
0.0040077
0.00402402
0.00404089
0.00405833
0.00407635
0.00409498
0.00411423
0.00413411
0.00415467
0.00417591
0.00419788
0.0042206
0.00424412
0.00426847
0.0042937
0.00431983
0.0043469
0.00437495
0.00440402
0.00443413
0.00446532
0.00449759
0.00453097
0.00456545
0.00460102
0.00463765
0.00467532
0.00471399
0.0047536
0.00479408
0.00483535
0.00487734
0.00491994
0.00496307
0.00500663
0.00505054
0.00509469
0.00513898
0.00518329
0.00522749
0.00527145
0.00531503
0.00535811
0.00540061
0.00544249
0.00548378
0.00552438
0.0055644
0.00560389
0.00564297
0.00568196
0.00572114
0.00576088
0.00580167
0.00584389
0.00588771
0.00593306
0.00597965
0.00602738
0.00607668
0.00612884
0.00618604
0.00625089
0.00632534
0.00640938
0.00649999
0.00659092
0.00666622
0.00672639
0.00675388
0.00673599
0.00668334
0.00660682
0.00652067
0.00641043
0.00630838
0.0062065
0.00610474
0.00600199
0.00589548
0.00578441
2.70298e-05
0.000219386
0.000503302
0.000754558
0.000985022
0.00118847
0.00136783
0.00152669
0.00166832
0.00179524
0.00190926
0.00201236
0.00210599
0.00219151
0.00226998
0.00234234
0.00240933
0.0024716
0.00252967
0.00258398
0.0026349
0.00268277
0.0027279
0.00277055
0.00281096
0.00284937
0.00288603
0.00292119
0.00295511
0.002988
0.00302002
0.00305129
0.00308184
0.00311165
0.00314071
0.00316897
0.00319643
0.00322309
0.00324897
0.00327409
0.00329844
0.003322
0.00334475
0.00336668
0.00338775
0.00340794
0.00342721
0.00344555
0.00346293
0.00347934
0.00349477
0.00350923
0.00352273
0.00353528
0.00354693
0.00355771
0.00356767
0.00357687
0.00358536
0.00359323
0.00360054
0.00360737
0.0036138
0.0036199
0.00362577
0.00363146
0.00363707
0.00364265
0.00364828
0.00365402
0.00365993
0.00366606
0.00367245
0.00367914
0.00368617
0.00369358
0.00370137
0.00370956
0.00371818
0.00372723
0.0037367
0.00374661
0.00375695
0.00376771
0.00377889
0.00379048
0.00380248
0.00381487
0.00382767
0.00384087
0.00385446
0.00386845
0.00388285
0.00389766
0.00391289
0.00392857
0.0039447
0.0039613
0.00397838
0.00399594
0.00401401
0.00403259
0.00405171
0.00407137
0.00409159
0.0041124
0.00413382
0.00415588
0.00417861
0.00420207
0.00422629
0.00425132
0.00427722
0.00430404
0.00433184
0.00436068
0.00439062
0.00442173
0.00445406
0.00448768
0.00452264
0.00455898
0.00459673
0.00463592
0.00467656
0.00471865
0.00476217
0.00480706
0.00485326
0.00490068
0.00494922
0.00499875
0.00504912
0.00510017
0.00515172
0.00520355
0.00525542
0.00530707
0.00535819
0.00540849
0.00545766
0.00550538
0.00555138
0.00559546
0.00563747
0.00567734
0.00571518
0.00575128
0.00578618
0.00582074
0.00585562
0.0058919
0.0059308
0.00597343
0.00602054
0.00607246
0.00612915
0.00619053
0.0062569
0.00632918
0.00640885
0.00649744
0.00659552
0.00670142
0.00681039
0.00691417
0.00699499
0.00705647
0.00706985
0.00703913
0.00697672
0.00689401
0.00680153
0.00668933
0.00658744
0.00648656
0.00638668
0.00628687
0.00618485
0.00608015
2.73027e-05
0.000222077
0.000509018
0.000762591
0.000996696
0.00120286
0.00138427
0.00154448
0.00168682
0.00181384
0.00192738
0.0020295
0.00212173
0.00220548
0.00228185
0.00235184
0.00241623
0.00247573
0.00253092
0.0025823
0.0026303
0.0026753
0.00271761
0.00275749
0.00279523
0.00283109
0.00286531
0.00289814
0.0029298
0.00296048
0.00299033
0.00301945
0.00304786
0.00307554
0.00310247
0.0031286
0.00315391
0.00317839
0.00320205
0.00322489
0.00324689
0.00326804
0.00328831
0.00330767
0.00332612
0.00334362
0.00336018
0.00337578
0.00339043
0.00340413
0.0034169
0.00342876
0.00343976
0.00344993
0.00345933
0.00346802
0.00347606
0.00348353
0.0034905
0.00349706
0.00350329
0.00350927
0.00351507
0.00352079
0.00352649
0.00353225
0.00353814
0.00354422
0.00355054
0.00355716
0.00356412
0.00357146
0.00357922
0.0035874
0.00359604
0.00360515
0.00361473
0.0036248
0.00363535
0.00364637
0.00365786
0.0036698
0.0036822
0.00369503
0.00370828
0.00372195
0.00373601
0.00375047
0.00376531
0.00378053
0.00379612
0.00381209
0.00382844
0.00384517
0.00386229
0.00387979
0.0038977
0.003916
0.00393471
0.00395384
0.0039734
0.00399339
0.00401384
0.00403475
0.00405616
0.00407807
0.00410054
0.00412358
0.00414725
0.0041716
0.00419668
0.00422257
0.00424932
0.00427701
0.00430572
0.00433552
0.0043665
0.00439876
0.00443237
0.00446743
0.00450404
0.00454229
0.00458221
0.00462389
0.00466743
0.00471283
0.00476008
0.00480916
0.00486001