/*--------------------------------*- C++ -*----------------------------------*\
| =========                 |                                                 |
| \\      /  F ield         | OpenFOAM: The Open Source CFD Toolbox           |
|  \\    /   O peration     | Version:  v1906                                 |
|   \\  /    A nd           | Web:      www.OpenFOAM.com                      |
|    \\/     M anipulation  |                                                 |
\*---------------------------------------------------------------------------*/
FoamFile
{
    version     2.0;
    format      ascii;
    class       volScalarField;
    location    "1000";
    object      p;
}
// * * * * * * * * * * * * * * * * * * * * * * * * * * * * * * * * * * * * * //

dimensions      [0 2 -2 0 0 0 0];


internalField   nonuniform List<scalar> 
12225
(
-3.03945
-4.24198
-4.29245
-4.29804
-4.43426
-4.57296
-4.67965
-4.77464
-4.86635
-4.95317
-5.03415
-5.11359
-5.19527
-5.2809
-5.37078
-5.47053
-5.58989
-5.74263
-4.79995
-5.31495
-5.473
-5.45922
-5.51514
-5.58065
-5.62973
-5.67948
-5.73486
-5.79208
-5.84938
-5.90847
-5.97266
-6.04158
-6.11676
-6.20058
-6.29359
-6.42882
-4.21491
-4.9955
-5.13527
-5.10405
-5.13753
-5.18751
-5.22939
-5.27321
-5.32192
-5.3723
-5.42326
-5.47578
-5.5325
-5.59278
-5.65867
-5.72818
-5.80321
-5.86221
-4.87007
-5.33678
-5.55483
-5.62938
-5.72244
-5.80683
-5.8693
-5.92447
-5.97917
-6.03304
-6.08641
-6.14089
-6.19847
-6.25949
-6.32429
-6.39277
-6.46273
-6.54237
-4.67912
-5.13786
-5.3534
-5.41451
-5.47734
-5.53296
-5.57528
-5.61546
-5.65745
-5.70031
-5.74375
-5.78863
-5.83585
-5.88592
-5.93721
-5.99094
-6.03498
-6.07007
-5.05644
-5.35846
-5.5649
-5.66816
-5.77231
-5.86527
-5.94128
-6.00914
-6.07323
-6.13433
-6.19335
-6.25176
-6.31066
-6.3707
-6.43082
-6.4917
-6.54921
-6.61205
-4.99095
-5.23858
-5.43885
-5.53763
-5.62493
-5.69653
-5.75301
-5.80302
-5.85051
-5.89633
-5.9411
-5.9857
-6.03048
-6.07572
-6.11957
-6.16213
-6.19377
-6.2131
-5.2317
-5.41544
-5.59058
-5.6986
-5.80335
-5.8962
-5.97653
-6.0497
-6.11833
-6.18337
-6.24569
-6.30626
-6.36561
-6.42408
-6.48084
-6.53594
-6.58862
-6.64277
-5.21886
-5.34569
-5.50668
-5.60895
-5.70305
-5.78222
-5.84858
-5.9074
-5.96146
-6.01207
-6.06011
-6.10631
-6.15085
-6.19377
-6.23361
-6.26992
-6.29633
-6.31204
-5.38024
-5.48996
-5.62968
-5.72983
-5.82911
-5.91842
-5.9988
-6.07313
-6.1429
-6.20897
-6.27197
-6.33247
-6.39072
-6.44681
-6.50045
-6.55139
-6.60106
-6.6495
-5.38998
-5.45475
-5.5752
-5.66663
-5.75659
-5.83596
-5.90622
-5.9698
-6.02818
-6.08239
-6.13312
-6.18087
-6.22573
-6.26764
-6.30564
-6.33932
-6.36498
-6.38308
-5.49256
-5.55916
-5.66736
-5.7548
-5.84464
-5.92758
-6.00446
-6.07642
-6.14414
-6.20819
-6.26897
-6.32677
-6.38174
-6.43383
-6.48308
-6.52907
-6.57362
-6.61482
-5.50949
-5.5467
-5.63683
-5.71537
-5.79697
-5.87265
-5.94252
-6.00723
-6.06727
-6.12319
-6.17538
-6.22412
-6.26943
-6.31126
-6.34912
-6.38274
-6.41071
-6.43345
-5.59388
-5.63767
-5.71984
-5.79468
-5.87389
-5.95026
-6.02313
-6.09252
-6.15839
-6.22087
-6.28009
-6.33613
-6.38907
-6.43886
-6.48568
-6.52915
-6.57036
-6.60717
-5.61595
-5.63826
-5.70133
-5.76569
-5.83556
-5.90465
-5.97112
-6.03442
-6.09421
-6.15043
-6.20314
-6.25238
-6.29816
-6.34043
-6.37923
-6.41438
-6.44645
-6.47494
-5.68276
-5.71007
-5.76786
-5.82817
-5.89349
-5.95955
-6.02422
-6.0867
-6.14637
-6.2029
-6.25613
-6.30598
-6.35237
-6.39528
-6.43455
-6.47027
-6.5016
-6.52948
-5.70737
-5.72677
-5.77415
-5.82901
-5.89033
-5.95462
-6.01924
-6.08295
-6.14488
-6.20454
-6.26167
-6.31607
-6.3678
-6.41666
-6.46318
-6.50661
-6.54922
-6.58715
-5.71705
-5.73143
-5.76969
-5.81508
-5.86488
-5.91645
-5.96716
-6.01566
-6.06109
-6.1029
-6.14078
-6.17465
-6.20436
-6.23023
-6.25179
-6.2705
-6.28385
-6.29789
-5.75631
-5.78436
-5.83871
-5.90104
-5.97014
-6.04396
-6.11987
-6.1966
-6.2733
-6.34931
-6.42425
-6.49774
-6.56965
-6.6394
-6.7072
-6.77142
-6.8338
-6.88857
-5.62054
-5.62757
-5.66232
-5.70354
-5.7466
-5.78882
-5.8275
-5.86162
-5.89072
-5.91466
-5.93342
-5.9472
-5.95607
-5.96068
-5.96083
-5.95866
-5.95223
-5.94963
-5.64824
-5.69386
-5.76923
-5.84501
-5.92445
-6.0057
-6.08618
-6.16524
-6.2426
-6.31808
-6.39177
-6.46385
-6.5348
-6.60484
-6.67509
-6.74462
-6.81666
-6.88363
-5.46307
-5.48206
-5.54665
-5.60586
-5.66025
-5.70845
-5.74851
-5.78118
-5.80751
-5.82818
-5.84366
-5.85427
-5.85993
-5.86064
-5.85512
-5.844
-5.82243
-5.79831
-5.49063
-5.57239
-5.6871
-5.78426
-5.87945
-5.9724
-6.05976
-6.14191
-6.21967
-6.29341
-6.36358
-6.43083
-6.49615
-6.56053
-6.62636
-6.69497
-6.77395
-6.8595
-5.22733
-5.30186
-5.42491
-5.50467
-5.56608
-5.61521
-5.65144
-5.67866
-5.70033
-5.71789
-5.73192
-5.74283
-5.75056
-5.75481
-5.75369
-5.74562
-5.72088
-5.67899
-5.29122
-5.44995
-5.62038
-5.73717
-5.84487
-5.94675
-6.03558
-6.11367
-6.18457
-6.2495
-6.30926
-6.36486
-6.41736
-6.46773
-6.51812
-6.57094
-6.63781
-6.72655
-4.87742
-5.11971
-5.30682
-5.37626
-5.41962
-5.45543
-5.47922
-5.49688
-5.51376
-5.53018
-5.54546
-5.55954
-5.57235
-5.58374
-5.59263
-5.59772
-5.58828
-5.55174
-5.06919
-5.37033
-5.60078
-5.71577
-5.82
-5.91542
-5.98708
-6.04369
-6.09388
-6.13961
-6.18134
-6.22005
-6.25658
-6.29134
-6.32511
-6.35879
-6.40178
-6.47077
-4.33276
-4.93766
-5.10192
-5.08156
-5.08691
-5.11565
-5.13899
-5.16059
-5.18594
-5.21274
-5.23875
-5.26368
-5.28756
-5.31025
-5.33147
-5.35143
-5.36405
-5.35409
-4.95765
-5.34409
-5.56767
-5.5799
-5.61965
-5.66777
-5.70009
-5.72875
-5.76109
-5.79521
-5.8288
-5.86157
-5.8936
-5.9247
-5.95459
-5.98337
-6.01568
-6.06613
-3.0869
-4.20755
-4.27777
-4.25735
-4.35614
-4.4742
-4.56533
-4.6421
-4.71477
-4.78263
-4.84437
-4.90077
-4.95279
-5.00077
-5.04478
-5.08454
-5.11854
-5.1452
-6.10985
-6.13514
-6.15706
-6.18213
-6.20877
-6.23791
-6.26678
-6.29647
-6.32567
-6.35476
-6.38292
-6.41032
-6.43655
-6.46175
-6.48565
-6.50831
-6.52958
-6.54976
-6.56893
-6.58679
-6.6028
-6.61633
-6.62556
-6.62902
-6.62652
-6.61703
-6.59937
-6.57306
-6.53805
-6.49659
-6.45488
-6.41975
-6.39663
-6.38902
-6.3959
-6.41274
-6.43438
-6.45878
-6.48553
-6.51472
-6.54532
-6.57566
-6.60528
-6.63428
-6.66228
-6.68908
-6.71449
-6.7384
-6.76064
-6.78114
-6.79982
-6.8167
-6.83174
-6.84499
-6.85646
-6.86621
-6.87425
-6.88065
-6.88541
-6.88857
-6.89016
-6.89019
-6.88866
-6.88559
-6.88099
-6.87486
-6.86718
-6.85798
-6.84722
-6.83492
-6.82101
-6.8055
-6.78829
-6.76935
-6.74857
-6.72589
-6.70115
-6.67429
-6.64514
-6.6136
-6.57953
-6.5428
-6.50324
-6.46074
-6.41509
-6.36616
-6.3138
-6.25797
-6.19857
-6.13512
-6.06705
-5.99433
-5.91708
-5.83525
-5.74888
-5.65792
-5.56229
-5.46184
-5.3564
-5.24582
-5.13001
-5.00902
-4.88287
-4.75159
-4.61519
-4.47372
-4.32728
-4.17598
-4.02
-3.85958
-3.69504
-3.52674
-3.35509
-3.18057
-3.00373
-2.82504
-2.64516
-2.46473
-2.28443
-2.10497
-1.92704
-1.75132
-1.57851
-1.40924
-1.24412
-1.08359
-0.928064
-0.777828
-0.633188
-0.494234
-0.360675
-0.231616
-0.106101
0.0161585
0.135106
0.251382
0.366356
0.482031
0.600865
0.725695
0.860213
1.00978
1.18131
1.38129
1.61478
1.88617
2.19941
2.55651
2.95641
3.3942
3.86064
4.34055
4.81292
5.25661
5.66526
6.03456
6.36682
6.70614
7.0772
7.41889
7.63624
7.72749
7.7613
7.78479
7.83337
7.96008
8.23492
8.69501
9.32503
10.076
10.8806
11.6886
12.4484
13.1116
13.669
14.1209
14.4906
14.7876
15.0851
15.3813
-6.15781
-6.2213
-6.25686
-6.30239
-6.33436
-6.37035
-6.39931
-6.43146
-6.45915
-6.48782
-6.51358
-6.53912
-6.56256
-6.58536
-6.60642
-6.62642
-6.64476
-6.66222
-6.67871
-6.69445
-6.70901
-6.72186
-6.73299
-6.73987
-6.73777
-6.72611
-6.70462
-6.67326
-6.63262
-6.58418
-6.53212
-6.48564
-6.45136
-6.43451
-6.43946
-6.45788
-6.4839
-6.51465
-6.54851
-6.58439
-6.62117
-6.65792
-6.69417
-6.72948
-6.76344
-6.79576
-6.82623
-6.85472
-6.88115
-6.90548
-6.92775
-6.94799
-6.96627
-6.98267
-6.99725
-7.01009
-7.02126
-7.0308
-7.03876
-7.04517
-7.05005
-7.05342
-7.05529
-7.05566
-7.05454
-7.05194
-7.04786
-7.0423
-7.03525
-7.02671
-7.01663
-7.00501
-6.99176
-6.97681
-6.96004
-6.94135
-6.92058
-6.8976
-6.87224
-6.84437
-6.81383
-6.78046
-6.7441
-6.70457
-6.66166
-6.61516
-6.56485
-6.5104
-6.45139
-6.388
-6.32089
-6.25009
-6.17538
-6.09686
-6.01437
-5.92756
-5.83621
-5.74011
-5.63905
-5.53286
-5.42152
-5.30506
-5.18345
-5.05666
-4.9247
-4.78761
-4.64543
-4.4983
-4.34636
-4.18984
-4.02903
-3.86424
-3.69589
-3.52443
-3.35031
-3.17413
-2.99644
-2.81791
-2.63921
-2.46103
-2.28404
-2.10897
-1.93649
-1.76728
-1.60195
-1.441
-1.28484
-1.1338
-0.988135
-0.847957
-0.713064
-0.583231
-0.45917
-0.341502
-0.229601
-0.1224
-0.0184766
0.0842835
0.188648
0.298259
0.417612
0.551469
0.704664
0.882243
1.08872
1.33034
1.61294
1.94028
2.31306
2.7283
3.17906
3.65361
4.13463
4.59946
5.02028
5.39148
5.72184
6.06671
6.5115
6.98232
7.29475
7.41897
7.45567
7.46766
7.49634
7.59324
7.80722
8.17261
8.70706
9.38002
10.1279
10.8736
11.5766
12.2106
12.7614
13.2251
13.6213
13.9508
14.278
14.5651
-6.16446
-6.24853
-6.26811
-6.31915
-6.33646
-6.37703
-6.39644
-6.42855
-6.44947
-6.47786
-6.49904
-6.52338
-6.54323
-6.5642
-6.58198
-6.59912
-6.61282
-6.62539
-6.63677
-6.64791
-6.65801
-6.66778
-6.67624
-6.6829
-6.68598
-6.68466
-6.67807
-6.6656
-6.64738
-6.6245
-6.5979
-6.57214
-6.55172
-6.53935
-6.53652
-6.54236
-6.55546
-6.57383
-6.596
-6.6207
-6.64691
-6.6738
-6.70075
-6.72731
-6.7531
-6.77786
-6.80137
-6.82351
-6.84416
-6.86328
-6.88081
-6.89676
-6.91111
-6.92389
-6.93509
-6.94475
-6.95287
-6.95948
-6.96458
-6.96819
-6.97032
-6.97099
-6.97021
-6.96798
-6.96434
-6.95928
-6.95281
-6.94495
-6.93568
-6.92499
-6.91283
-6.89917
-6.88393
-6.86703
-6.84836
-6.82783
-6.80531
-6.7807
-6.75388
-6.72475
-6.69317
-6.65903
-6.62218
-6.58248
-6.53976
-6.49387
-6.4447
-6.39216
-6.33598
-6.27598
-6.21217
-6.1445
-6.07289
-5.99697
-5.91625
-5.83084
-5.74077
-5.64595
-5.54628
-5.44163
-5.33195
-5.2172
-5.09735
-4.97237
-4.84226
-4.70705
-4.56678
-4.42157
-4.27154
-4.11692
-3.95795
-3.79496
-3.62831
-3.45844
-3.2858
-3.11092
-2.93438
-2.75682
-2.57891
-2.40131
-2.22468
-2.04971
-1.87707
-1.70743
-1.54139
-1.3795
-1.22224
-1.07004
-0.923249
-0.782123
-0.646567
-0.516409
-0.391637
-0.271625
-0.156064
-0.0444018
0.0644667
0.172121
0.28062
0.392685
0.511951
0.642345
0.788622
0.956717
1.15309
1.38406
1.65493
1.96954
2.32896
2.7304
3.16678
3.62694
4.09631
4.55817
4.99716
5.41042
5.78896
6.11688
6.46286
6.85725
7.17922
7.37185
7.48052
7.54586
7.60498
7.7068
7.90395
8.24959
8.75754
9.3974
10.1186
10.8489
11.5435
12.1779
12.7373
13.2126
13.6228
13.9617
14.2934
14.5549
-6.17388
-6.28036
-6.30575
-6.3683
-6.38646
-6.43232
-6.45369
-6.49291
-6.51603
-6.54834
-6.57016
-6.59695
-6.61671
-6.64003
-6.65869
-6.67796
-6.69193
-6.70601
-6.71821
-6.73152
-6.74392
-6.75654
-6.76853
-6.77806
-6.7829
-6.78257
-6.77661
-6.76488
-6.74773
-6.72667
-6.70422
-6.68385
-6.66831
-6.65947
-6.65808
-6.66336
-6.67418
-6.68941
-6.70806
-6.72929
-6.75239
-6.77676
-6.80191
-6.82742
-6.85294
-6.87814
-6.90273
-6.92649
-6.94922
-6.97078
-6.99104
-7.00993
-7.0274
-7.04343
-7.058
-7.07111
-7.08278
-7.09302
-7.10183
-7.10923
-7.11522
-7.11983
-7.12306
-7.1249
-7.12536
-7.12444
-7.12213
-7.11842
-7.11328
-7.10669
-7.09859
-7.08893
-7.07764
-7.06462
-7.04976
-7.03295
-7.01406
-6.99293
-6.96943
-6.94341
-6.91471
-6.88317
-6.84864
-6.81095
-6.76992
-6.72538
-6.67714
-6.62506
-6.56898
-6.50888
-6.4448
-6.37666
-6.30434
-6.22771
-6.14702
-6.06219
-5.97291
-5.87897
-5.78019
-5.67644
-5.56762
-5.45367
-5.33456
-5.21024
-5.08073
-4.94603
-4.80623
-4.6614
-4.51171
-4.35735
-4.19857
-4.0357
-3.86912
-3.69926
-3.52662
-3.35174
-3.17522
-2.99772
-2.81992
-2.64252
-2.46625
-2.29185
-2.12007
-1.95163
-1.78721
-1.62741
-1.47274
-1.32364
-1.18045
-1.04341
-0.91249
-0.787625
-0.668975
-0.556811
-0.450876
-0.350268
-0.253578
-0.158845
-0.0635418
0.035617
0.14277
0.262442
0.399873
0.56151
0.753787
0.982091
1.25193
1.56737
1.92969
2.33654
2.78104
3.25187
3.73529
4.21397
4.66938
5.09844
5.51162
5.91326
6.30591
6.66873
6.93649
7.09066
7.16958
7.20525
7.23473
7.3159
7.51019
7.86316
8.37655
9.01654
9.73137
10.457
11.1474
11.7772
12.334
12.8085
13.221
13.5593
13.8878
14.1206
-6.14934
-6.27583
-6.29871
-6.367
-6.38046
-6.42651
-6.4446
-6.4803
-6.50192
-6.53239
-6.5537
-6.57776
-6.59685
-6.61725
-6.63479
-6.65179
-6.66526
-6.67753
-6.68838
-6.69943
-6.71029
-6.72155
-6.73261
-6.74333
-6.75257
-6.7596
-6.76358
-6.76414
-6.76129
-6.75571
-6.7485
-6.74134
-6.73563
-6.7325
-6.73263
-6.73614
-6.7429
-6.75256
-6.76477
-6.77915
-6.79528
-6.81278
-6.83127
-6.85042
-6.86988
-6.88936
-6.90858
-6.92733
-6.9454
-6.96263
-6.97888
-6.99407
-7.0081
-7.02091
-7.03247
-7.04273
-7.05168
-7.05928
-7.06553
-7.07042
-7.07394
-7.07609
-7.07686
-7.07626
-7.07428
-7.07091
-7.06615
-7.05999
-7.0524
-7.04336
-7.03282
-7.02073
-7.00701
-6.99159
-6.97438
-6.95526
-6.93415
-6.91092
-6.88548
-6.85772
-6.82753
-6.79479
-6.75936
-6.72112
-6.67992
-6.63562
-6.58809
-6.53719
-6.48276
-6.42463
-6.36273
-6.29696
-6.22718
-6.15327
-6.07501
-5.99197
-5.90421
-5.81165
-5.71421
-5.61178
-5.50429
-5.39166
-5.27383
-5.15077
-5.02245
-4.88888
-4.7501
-4.60618
-4.45727
-4.30353
-4.14521
-3.98258
-3.81601
-3.6459
-3.47271
-3.29698
-3.11929
-2.94028
-2.76063
-2.58103
-2.40224
-2.22497
-2.05003
-1.87812
-1.70999
-1.5463
-1.38772
-1.23479
-1.08803
-0.947817
-0.814375
-0.687717
-0.56787
-0.454726
-0.347934
-0.246734
-0.149979
-0.0559845
0.0374468
0.133298
0.235315
0.347832
0.475844
0.625208
0.802527
1.01537
1.27048
1.57288
1.92464
2.32418
2.76554
3.23798
3.72903
4.22353
4.70299
5.15353
5.56566
5.94197
6.30604
6.64607
6.90856
7.07348
7.16323
7.20564
7.23836
7.31923
7.5109
7.86039
8.37598
9.02218
9.74364
10.4743
11.1699
11.8045
12.3665
12.8457
13.2635
13.6035
13.9301
14.1516
-6.13102
-6.27836
-6.30757
-6.38708
-6.40137
-6.45366
-6.47238
-6.51271
-6.53511
-6.569
-6.59295
-6.62215
-6.6438
-6.66708
-6.6867
-6.70732
-6.72476
-6.74174
-6.75661
-6.77102
-6.78404
-6.79631
-6.8071
-6.81629
-6.82326
-6.82789
-6.82995
-6.82965
-6.82737
-6.82391
-6.82019
-6.81717
-6.81561
-6.81611
-6.81903
-6.82454
-6.8326
-6.8431
-6.85582
-6.87052
-6.8869
-6.90468
-6.92354
-6.94318
-6.9633
-6.98364
-7.00393
-7.02397
-7.04353
-7.06245
-7.0806
-7.09784
-7.1141
-7.12929
-7.14336
-7.15628
-7.168
-7.17851
-7.18778
-7.19582
-7.2026
-7.20812
-7.21236
-7.21532
-7.21699
-7.21734
-7.21634
-7.21398
-7.21021
-7.20499
-7.19825
-7.18993
-7.17995
-7.16822
-7.15463
-7.13907
-7.12143
-7.10156
-7.07935
-7.05465
-7.02732
-6.9972
-6.96414
-6.92799
-6.88859
-6.8458
-6.79946
-6.74944
-6.69559
-6.63781
-6.57599
-6.51003
-6.43982
-6.36521
-6.28611
-6.20276
-6.11487
-6.02228
-5.92483
-5.82239
-5.71485
-5.60214
-5.48418
-5.36094
-5.23238
-5.09853
-4.95942
-4.81514
-4.66582
-4.51163
-4.35282
-4.18968
-4.02257
-3.85192
-3.6782
-3.50198
-3.32384
-3.14446
-2.96454
-2.7848
-2.60603
-2.42899
-2.25448
-2.08329
-1.91616
-1.75379
-1.59685
-1.44589
-1.30138
-1.16368
-1.03302
-0.909462
-0.793008
-0.683852
-0.581919
-0.486464
-0.396254
-0.3095
-0.223808
-0.135994
-0.0420047
0.0630525
0.185187
0.331233
0.507732
0.721013
0.977664
1.28309
1.63976
2.04645
2.49778
2.98328
3.49033
4.00406
4.50852
4.99338
5.44803
5.86017
6.23171
6.54839
6.77798
6.91171
6.9657
6.96695
6.95942
7.01227
7.202
7.56813
8.10603
8.7727
9.50801
10.2453
10.9421
11.574
12.132
12.6063
13.0201
13.3524
13.6707
13.871
-6.09668
-6.26045
-6.29249
-6.3776
-6.39138
-6.44488
-6.46308
-6.50259
-6.52414
-6.55668
-6.57948
-6.60687
-6.62854
-6.65182
-6.67108
-6.69036
-6.70764
-6.72465
-6.74019
-6.75543
-6.76982
-6.7839
-6.79725
-6.80992
-6.82143
-6.83158
-6.84001
-6.84666
-6.85169
-6.85553
-6.8587
-6.86176
-6.86513
-6.86922
-6.87435
-6.88077
-6.88862
-6.89796
-6.90875
-6.9209
-6.93428
-6.94871
-6.96399
-6.97993
-6.99631
-7.01294
-7.02961
-7.04615
-7.06238
-7.07817
-7.09338
-7.10789
-7.1216
-7.13444
-7.14633
-7.15722
-7.16704
-7.17577
-7.18335
-7.18976
-7.19497
-7.19896
-7.20169
-7.20315
-7.20331
-7.20214
-7.19961
-7.19569
-7.19034
-7.18351
-7.17515
-7.1652
-7.15358
-7.14022
-7.12502
-7.1079
-7.08875
-7.06746
-7.04394
-7.01806
-6.98971
-6.95877
-6.92511
-6.8886
-6.84911
-6.80651
-6.76067
-6.71145
-6.6587
-6.6023
-6.54213
-6.47806
-6.40997
-6.33772
-6.26122
-6.18008
-6.09416
-6.00338
-5.90763
-5.8068
-5.70078
-5.58949
-5.47283
-5.35075
-5.22319
-5.09015
-4.95164
-4.80772
-4.6585
-4.50414
-4.34484
-4.18089
-4.0126
-3.84039
-3.66471
-3.4861
-3.30515
-3.12254
-2.93896
-2.7552
-2.57204
-2.39033
-2.2109
-2.03464
-1.86236
-1.69494
-1.53317
-1.37781
-1.22952
-1.0889
-0.956395
-0.832323
-0.716759
-0.60954
-0.510254
-0.418326
-0.332625
-0.251538
-0.172825
-0.0935341
-0.00991521
0.0825533
0.189557
0.317623
0.474381
0.668343
0.907402
1.19814
1.54418
1.94517
2.39656
2.88855
3.40861
3.94077
4.46626
4.97086
5.44329
5.87259
6.25376
6.56975
6.79332
6.9163
6.9509
6.92619
6.89206
6.92285
7.0977
7.46368
8.01583
8.70288
9.45598
10.2056
10.9103
11.5467
12.1082
12.5851
13.002
13.3352
13.6531
13.8498
-6.08132
-6.25755
-6.29524
-6.38988
-6.40402
-6.46358
-6.48198
-6.52564
-6.54764
-6.58302
-6.60686
-6.63733
-6.66116
-6.68761
-6.71016
-6.73346
-6.75358
-6.77305
-6.79063
-6.80757
-6.82302
-6.83762
-6.85096
-6.86327
-6.87429
-6.88405
-6.89243
-6.89959
-6.90576
-6.91134
-6.91674
-6.92231
-6.92835
-6.93508
-6.94269
-6.95135
-6.96116
-6.97219
-6.98442
-6.99782
-7.01228
-7.02767
-7.04385
-7.06066
-7.07791
-7.09545
-7.11309
-7.13069
-7.14807
-7.16512
-7.18169
-7.19769
-7.21301
-7.22758
-7.24132
-7.25417
-7.26607
-7.277
-7.2869
-7.29574
-7.3035
-7.31015
-7.31565
-7.31998
-7.3231
-7.32499
-7.3256
-7.3249
-7.32282
-7.31933
-7.31434
-7.3078
-7.29961
-7.28969
-7.27793
-7.26424
-7.24848
-7.23055
-7.21031
-7.18763
-7.16236
-7.13438
-7.10352
-7.06965
-7.03261
-6.99226
-6.94845
-6.90102
-6.84983
-6.79474
-6.7356
-6.67228
-6.60464
-6.53255
-6.45591
-6.37464
-6.28868
-6.19788
-6.10209
-6.0012
-5.89509
-5.78365
-5.6668
-5.54448
-5.41662
-5.28322
-5.14427
-4.99984
-4.85002
-4.69495
-4.53487
-4.37002
-4.20076
-4.02749
-3.85068
-3.67087
-3.48867
-3.30476
-3.11986
-2.93475
-2.75026
-2.56721
-2.38646
-2.20889
-2.03534
-1.86667
-1.7037
-1.5472
-1.39783
-1.2562
-1.12275
-0.997828
-0.881626
-0.774416
-0.676387
-0.586879
-0.504787
-0.42845
-0.35555
-0.282929
-0.20656
-0.121428
-0.0212672
0.100901
0.252146
0.440556
0.674384
0.961184
1.30573
1.70853
2.16611
2.67001
3.20796
3.76394
4.31972
4.85946
5.36696
5.82548
6.2232
6.54151
6.75476
6.85434
6.8496
6.77291
6.68443
6.67604
6.84011
7.21912
7.79721
8.51222
9.28602
10.0467
10.755
11.3896
11.9473
12.4188
12.8305
13.1558
13.4661
13.649
-6.05332
-6.24166
-6.28055
-6.37899
-6.3943
-6.45496
-6.47459
-6.51838
-6.54103
-6.57605
-6.59989
-6.6298
-6.65372
-6.68038
-6.7033
-6.72694
-6.74845
-6.77008
-6.78974
-6.80873
-6.82667
-6.84388
-6.86013
-6.8756
-6.89003
-6.9034
-6.91556
-6.9266
-6.93666
-6.94603
-6.95498
-6.96378
-6.97261
-6.98164
-6.99103
-7.0009
-7.01136
-7.02251
-7.03437
-7.04698
-7.06028
-7.07422
-7.08872
-7.10367
-7.11897
-7.1345
-7.15012
-7.16573
-7.1812
-7.19643
-7.2113
-7.22573
-7.23961
-7.25287
-7.26543
-7.27724
-7.28821
-7.29831
-7.30748
-7.31567
-7.32284
-7.32895
-7.33395
-7.33781
-7.34047
-7.34191
-7.34205
-7.34087
-7.33831
-7.3343
-7.32877
-7.32167
-7.3129
-7.30239
-7.29004
-7.27575
-7.25943
-7.24095
-7.22022
-7.19711
-7.17149
-7.14325
-7.11224
-7.07834
-7.04141
-7.00131
-6.95791
-6.91107
-6.86064
-6.80651
-6.74856
-6.68664
-6.62064
-6.55038
-6.47569
-6.39642
-6.31241
-6.22348
-6.12948
-6.03027
-5.92569
-5.81565
-5.70002
-5.57872
-5.45166
-5.31881
-5.18013
-5.03566
-4.88548
-4.7297
-4.56853
-4.4022
-4.23105
-4.05545
-3.87587
-3.69285
-3.50701
-3.31902
-3.12967
-2.93977
-2.75021
-2.56187
-2.3757
-2.19267
-2.01379
-1.84004
-1.67245
-1.51193
-1.35939
-1.2156
-1.08125
-0.956826
-0.842645
-0.738698
-0.644668
-0.560087
-0.484071
-0.415136
-0.351157
-0.289204
-0.225508
-0.155298
-0.0725202
0.0299522
0.160553
0.328753
0.543957
0.815102
1.14841
1.54577
2.00465
2.51707
3.07019
3.64723
4.22941
4.79948
5.33921
5.82902
6.25021
6.5801
6.7938
6.87955
6.84513
6.72587
6.58914
6.53859
6.67827
7.05992
7.66035
8.40423
9.20143
9.97652
10.6927
11.3304
11.8896
12.3619
12.7748
13.1005
13.4108
13.593
-6.04694
-6.24854
-6.28775
-6.39423
-6.40833
-6.47466
-6.49361
-6.54135
-6.56413
-6.60201
-6.62662
-6.65877
-6.68368
-6.712
-6.73616
-6.7615
-6.7841
-6.8066
-6.82748
-6.84808
-6.86696
-6.88481
-6.90164
-6.91753
-6.93242
-6.9464
-6.9594
-6.97157
-6.983
-6.99396
-7.00464
-7.01526
-7.02596
-7.03688
-7.04811
-7.05975
-7.07187
-7.08453
-7.09777
-7.11163
-7.12607
-7.14107
-7.15655
-7.17245
-7.18866
-7.20511
-7.22168
-7.23827
-7.25477
-7.2711
-7.28714
-7.30282
-7.31804
-7.33274
-7.34684
-7.36028
-7.373
-7.38494
-7.39605
-7.4063
-7.41562
-7.42399
-7.43135
-7.43767
-7.44289
-7.44697
-7.44986
-7.4515
-7.45183
-7.45079
-7.44831
-7.4443
-7.43869
-7.43137
-7.42225
-7.41123
-7.39817
-7.38297
-7.3655
-7.34563
-7.32321
-7.29811
-7.27017
-7.23926
-7.20521
-7.16789
-7.12712
-7.08276
-7.03465
-6.98263
-6.92653
-6.86621
-6.8015
-6.73228
-6.65849
-6.57981
-6.49615
-6.40742
-6.31349
-6.21426
-6.10959
-5.99936
-5.88347
-5.76182
-5.63432
-5.50091
-5.36157
-5.21631
-5.06518
-4.9083
-4.74586
-4.5781
-4.40533
-4.22795
-4.0464
-3.86124
-3.67307
-3.48259
-3.2906
-3.09792
-2.90544
-2.71405
-2.52471
-2.33838
-2.15608
-1.97885
-1.80771
-1.64366
-1.48763
-1.34048
-1.20297
-1.07571
-0.959172
-0.853597
-0.75916
-0.675707
-0.602251
-0.537239
-0.478447
-0.422825
-0.366446
-0.304317
-0.230184
-0.136971
-0.0166857
0.140326
0.344297
0.605535
0.932134
1.32715
1.78934
2.31199
2.88255
3.48401
4.09653
4.70024
5.27395
5.79571
6.24271
6.58884
6.80585
6.87627
6.80586
6.63303
6.43588
6.33656
6.45483
6.84511
7.47325
8.24865
9.06868
9.85524
10.5749
11.2107
11.7658
12.2328
12.6406
12.9599
13.2642
13.438
-6.03481
-6.24449
-6.28003
-6.39031
-6.40284
-6.47159
-6.49009
-6.53932
-6.5622
-6.60107
-6.62604
-6.65899
-6.6845
-6.71372
-6.73876
-6.76525
-6.78921
-6.8135
-6.83595
-6.85838
-6.87969
-6.89998
-6.91892
-6.93719
-6.95454
-6.97099
-6.98649
-7.00118
-7.0151
-7.02846
-7.04138
-7.05407
-7.06662
-7.07916
-7.09177
-7.10452
-7.11747
-7.1307
-7.14426
-7.1582
-7.17251
-7.1872
-7.20223
-7.21756
-7.23313
-7.24888
-7.26474
-7.28063
-7.29647
-7.31219
-7.3277
-7.34294
-7.35781
-7.37226
-7.38621
-7.3996
-7.41237
-7.42445
-7.4358
-7.44635
-7.45606
-7.46486
-7.47271
-7.47955
-7.48532
-7.48997
-7.49344
-7.49566
-7.49657
-7.49609
-7.49415
-7.49066
-7.48554
-7.4787
-7.47003
-7.45942
-7.44678
-7.43198
-7.4149
-7.39542
-7.37339
-7.34869
-7.32117
-7.29069
-7.25711
-7.22028
-7.18004
-7.13626
-7.08878
-7.03747
-6.9822
-6.92281
-6.85918
-6.79108
-6.71833
-6.64107
-6.55893
-6.47174
-6.37929
-6.28142
-6.17796
-6.06877
-5.95372
-5.8327
-5.7056
-5.57233
-5.43284
-5.28712
-5.1352
-4.9772
-4.81326
-4.64364
-4.46863
-4.2886
-4.10402
-3.91542
-3.72344
-3.52881
-3.33234
-3.13492
-2.93748
-2.741
-2.54647
-2.35499
-2.16768
-1.98575
-1.81038
-1.64272
-1.48384
-1.33476
-1.19632
-1.06928
-0.954153
-0.851208
-0.76044
-0.681455
-0.613412
-0.554996
-0.50419
-0.458115
-0.412988
-0.363944
-0.304922
-0.228634
-0.126298
0.0123839
0.19859
0.443832
0.758373
1.14632
1.60771
2.13725
2.72251
3.34578
3.98613
4.62171
5.22908
5.78371
6.25882
6.62439
6.85044
6.91404
6.8178
6.60088
6.3488
6.19798
6.28653
6.67978
7.33359
8.13971
8.98205
9.78008
10.5043
11.1404
11.6945
12.1605
12.5678
12.887
13.191
13.3654
-6.03728
-6.25401
-6.28846
-6.40393
-6.41583
-6.48861
-6.50713
-6.55928
-6.58262
-6.62359
-6.64923
-6.68373
-6.70999
-6.7404
-6.76623
-6.79371
-6.81844
-6.84354
-6.8668
-6.88987
-6.9114
-6.9326
-6.95292
-6.97214
-6.99016
-7.00756
-7.02421
-7.04015
-7.05541
-7.07018
-7.08454
-7.09867
-7.11265
-7.12661
-7.1406
-7.1547
-7.16897
-7.18346
-7.19823
-7.21333
-7.22875
-7.24451
-7.26059
-7.27695
-7.29355
-7.31035
-7.32727
-7.34427
-7.36126
-7.37819
-7.39497
-7.41155
-7.42786
-7.44381
-7.45936
-7.47444
-7.48899
-7.50295
-7.51627
-7.52888
-7.54074
-7.55179
-7.56197
-7.57122
-7.5795
-7.58673
-7.59285
-7.59779
-7.60149
-7.60386
-7.60482
-7.60429
-7.60218
-7.59837
-7.59278
-7.58528
-7.57576
-7.56409
-7.55015
-7.53379
-7.51487
-7.49324
-7.46876
-7.44126
-7.41059
-7.37659
-7.33908
-7.29792
-7.25291
-7.20392
-7.15074
-7.09323
-7.03123
-6.96464
-6.89308
-6.81641
-6.73456
-6.64742
-6.55487
-6.45677
-6.35297
-6.24335
-6.12778
-6.00614
-5.87832
-5.74421
-5.60374
-5.45689
-5.30368
-5.14419
-4.97858
-4.80708
-4.62997
-4.44763
-4.26051
-4.06914
-3.87416
-3.67632
-3.47644
-3.27544
-3.07426
-2.87388
-2.67531
-2.47965
-2.28807
-2.1018
-1.92205
-1.75004
-1.58692
-1.4338
-1.29163
-1.16128
-1.0434
-0.938395
-0.846375
-0.767174
-0.700184
-0.644068
-0.596718
-0.555179
-0.515597
-0.473062
-0.421584
-0.354186
-0.262421
-0.135889
0.0373311
0.269662
0.573688
0.955434
1.41601
1.95166
2.55018
3.1933
3.85881
4.52289
5.16026
5.74472
6.24737
6.63509
6.87459
6.93635
6.81875
6.5603
6.2547
6.05398
6.11531
6.51307
7.1922
8.02596
8.88563
9.68966
10.4134
11.0452
11.5938
12.0543
12.4567
12.7708
13.0699
13.2397
-6.04021
-6.2592
-6.28997
-6.40704
-6.41723
-6.49161
-6.50936
-6.5628
-6.586
-6.62807
-6.65404
-6.68958
-6.71653
-6.74806
-6.77488
-6.80364
-6.82965
-6.85622
-6.88098
-6.9056
-6.92888
-6.95155
-6.97304
-6.99411
-7.01454
-7.03389
-7.0522
-7.07
-7.08694
-7.10338
-7.11931
-7.13495
-7.15033
-7.16557
-7.18073
-7.19588
-7.21108
-7.2264
-7.24189
-7.2576
-7.27355
-7.28977
-7.30624
-7.32296
-7.33989
-7.35701
-7.37428
-7.39164
-7.40904
-7.42644
-7.44376
-7.46095
-7.47794
-7.49467
-7.51108
-7.52711
-7.54269
-7.55775
-7.57225
-7.58612
-7.59929
-7.6117
-7.62329
-7.63399
-7.64373
-7.65244
-7.66005
-7.66649
-7.67165
-7.67548
-7.67787
-7.67873
-7.67796
-7.67547
-7.67113
-7.66484
-7.65648
-7.64591
-7.633
-7.61762
-7.59961
-7.57883
-7.55512
-7.52833
-7.49829
-7.46485
-7.42784
-7.38709
-7.34246
-7.29381
-7.24096
-7.18378
-7.12208
-7.05585
-6.98503
-6.90933
-6.82855
-6.74248
-6.65092
-6.55369
-6.45063
-6.3416
-6.22644
-6.10502
-5.9772
-5.84287
-5.70192
-5.55433
-5.40008
-5.23926
-5.07201
-4.89856
-4.71919
-4.53428
-4.34427
-4.1497
-3.95124
-3.74963
-3.54575
-3.34055
-3.135
-2.93013
-2.72698
-2.52671
-2.3306
-2.13996
-1.95614
-1.78048
-1.61427
-1.45871
-1.31486
-1.18362
-1.06575
-0.961648
-0.871453
-0.795012
-0.731652
-0.679998
-0.638007
-0.60283
-0.570681
-0.53679
-0.495275
-0.438955
-0.359273
-0.245804
-0.0861829
0.132615
0.424856
0.798493
1.25544
1.79339
2.40067
3.05872
3.74451
4.43269
5.09641
5.70791
6.23674
6.64745
6.9038
6.97262
6.84601
6.55956
6.21152
5.9655
5.99884
6.39779
7.09721
7.95224
8.82315
9.62924
10.3506
10.9782
11.5226
11.9801
12.3804
12.6937
12.9919
13.1628
-6.05026
-6.26982
-6.29881
-6.41807
-6.42778
-6.50455
-6.52227
-6.5777
-6.60127
-6.64496
-6.67157
-6.70846
-6.73618
-6.76885
-6.79651
-6.82628
-6.85315
-6.88066
-6.90632
-6.93187
-6.95607
-6.97979
-7.00244
-7.02438
-7.04532
-7.06586
-7.08596
-7.1051
-7.12324
-7.14103
-7.1582
-7.17509
-7.19173
-7.20818
-7.22455
-7.24091
-7.25731
-7.27384
-7.29054
-7.30746
-7.32463
-7.34207
-7.3598
-7.37779
-7.39604
-7.41452
-7.4332
-7.45203
-7.47096
-7.48996
-7.50895
-7.52788
-7.5467
-7.56533
-7.58372
-7.60181
-7.61952
-7.6368
-7.65359
-7.66982
-7.68541
-7.70032
-7.71445
-7.72776
-7.74015
-7.75155
-7.76189
-7.77107
-7.77902
-7.78564
-7.79084
-7.79453
-7.79658
-7.79691
-7.79539
-7.7919
-7.78631
-7.7785
-7.76833
-7.75564
-7.7403
-7.72213
-7.70099
-7.67671
-7.64912
-7.61806
-7.58336
-7.54483
-7.50232
-7.45567
-7.40469
-7.34924
-7.28903
-7.22385
-7.15359
-7.07814
-6.99736
-6.91108
-6.81916
-6.72143
-6.61775
-6.50799
-6.392
-6.26965
-6.14081
-6.00532
-5.8631
-5.71408
-5.55825
-5.39568
-5.22652
-5.05095
-4.86928
-4.68187
-4.48915
-4.29168
-4.09012
-3.88524
-3.67792
-3.46912
-3.25983
-3.05109
-2.84394
-2.63956
-2.43933
-2.24461
-2.05673
-1.87704
-1.70689
-1.54757
-1.40019
-1.26576
-1.1451
-1.03875
-0.946919
-0.869539
-0.805962
-0.754788
-0.713973
-0.680635
-0.650867
-0.619881
-0.581931
-0.530157
-0.456211
-0.349874
-0.198656
0.0109403
0.29411
0.660859
1.11394
1.65194
2.2637
2.93069
3.6295
4.33399
5.01648
5.64847
6.19906
6.63204
6.90848
6.99254
6.86901
6.56957
6.19291
5.91215
5.92264
6.3213
7.0338
7.89972
8.77161
9.57173
10.2848
10.9039
11.4405
11.8917
12.2866
12.5958
12.8899
13.0584
-6.06124
-6.2775
-6.30357
-6.42246
-6.43088
-6.50838
-6.52539
-6.58178
-6.60515
-6.6498
-6.67665
-6.71458
-6.74302
-6.77688
-6.80559
-6.83669
-6.86486
-6.89384
-6.92098
-6.9481
-6.97392
-6.99928
-7.02359
-7.04724
-7.07007
-7.09205
-7.11361
-7.1347
-7.1546
-7.17365
-7.19233
-7.21077
-7.22885
-7.24663
-7.26431
-7.28187
-7.29947
-7.31714
-7.33498
-7.35302
-7.37132
-7.38989
-7.40875
-7.42791
-7.44736
-7.46707
-7.48704
-7.50721
-7.52755
-7.54802
-7.56856
-7.58911
-7.60962
-7.63001
-7.65022
-7.67019
-7.68984
-7.70911
-7.72792
-7.74621
-7.7639
-7.7809
-7.79715
-7.81256
-7.82705
-7.84053
-7.85291
-7.86409
-7.87399
-7.88249
-7.88951
-7.89492
-7.89865
-7.90055
-7.90052
-7.89843
-7.89415
-7.88754
-7.87846
-7.86676
-7.85228
-7.83486
-7.81434
-7.79055
-7.76333
-7.73252
-7.69792
-7.65937
-7.61674
-7.56986
-7.51865
-7.46299
-7.40276
-7.33775
-7.26781
-7.19271
-7.11226
-7.02626
-6.9345
-6.83681
-6.73304
-6.62303
-6.50664
-6.38374
-6.25416
-6.11777
-5.97444
-5.82412
-5.66678
-5.5025
-5.33141
-5.15375
-4.96978
-4.77991
-4.5846
-4.3844
-4.18001
-3.9722
-3.76184
-3.54992
-3.33741
-3.12543
-2.91496
-2.70726
-2.50374
-2.30581
-2.11482
-1.93226
-1.75955
-1.59805
-1.44891
-1.3132
-1.19172
-1.08506
-0.993451
-0.916801
-0.854475
-0.805087
-0.766591
-0.736057
-0.709507
-0.682101
-0.64801
-0.600408
-0.531112
-0.430067
-0.284948
-0.0818638
0.194513
0.555673
1.00543
1.5423
2.15519
2.82569
3.53066
4.24398
4.938
5.58426
6.15217
6.60575
6.90406
7.00921
6.90077
6.60561
6.21723
5.91489
5.91002
6.30723
7.02366
7.8879
8.75017
9.53753
10.2389
10.8482
11.3772
11.8233
12.2148
12.5225
12.8149
12.9847
-6.07477
-6.28564
-6.31013
-6.42835
-6.43649
-6.51507
-6.53219
-6.59007
-6.61397
-6.66023
-6.68801
-6.72743
-6.75685
-6.79208
-6.82193
-6.85439
-6.88384
-6.91424
-6.94279
-6.97143
-6.99879
-7.02578
-7.05175
-7.07712
-7.1016
-7.12535
-7.14837
-7.17045
-7.19213
-7.2135
-7.23389
-7.25361
-7.27332
-7.29246
-7.31147
-7.3305
-7.34958
-7.36881
-7.38822
-7.40789
-7.42785
-7.44814
-7.4688
-7.48981
-7.51119
-7.5329
-7.55494
-7.57726
-7.59981
-7.62256
-7.64545
-7.6684
-7.69137
-7.71427
-7.73703
-7.75958
-7.78185
-7.80377
-7.82525
-7.84623
-7.86661
-7.88631
-7.90525
-7.92335
-7.94049
-7.9566
-7.97157
-7.98531
-7.99771
-8.00867
-8.0181
-8.02588