/*--------------------------------*- C++ -*----------------------------------*\
| =========                 |                                                 |
| \\      /  F ield         | OpenFOAM: The Open Source CFD Toolbox           |
|  \\    /   O peration     | Version:  v1906                                 |
|   \\  /    A nd           | Web:      www.OpenFOAM.com                      |
|    \\/     M anipulation  |                                                 |
\*---------------------------------------------------------------------------*/
FoamFile
{
    version     2.0;
    format      ascii;
    class       surfaceScalarField;
    location    "1000";
    object      phi;
}
// * * * * * * * * * * * * * * * * * * * * * * * * * * * * * * * * * * * * * //

dimensions      [0 3 -1 0 0 0 0];
oriented        oriented;


internalField   nonuniform List<scalar> 
24170
(
3.08283e-06
1.05577e-07
2.98702e-06
9.58052e-08
2.92074e-06
6.62838e-08
2.86476e-06
5.59791e-08
2.81597e-06
4.87908e-08
2.77317e-06
4.27984e-08
2.73515e-06
3.80233e-08
2.70102e-06
3.4132e-08
2.67028e-06
3.07379e-08
2.64258e-06
2.77006e-08
2.61747e-06
2.51037e-08
2.59457e-06
2.29041e-08
2.57377e-06
2.08012e-08
2.5551e-06
1.86656e-08
2.5389e-06
1.62018e-08
2.52557e-06
1.33304e-08
2.516e-06
9.5742e-09
-1.94764e-09
2.51794e-06
3.44276e-06
8.00694e-08
3.44404e-06
9.45185e-08
3.43233e-06
7.79936e-08
3.41874e-06
6.95741e-08
3.40402e-06
6.35094e-08
3.38924e-06
5.75785e-08
3.37489e-06
5.23696e-08
3.36109e-06
4.79356e-08
3.34786e-06
4.3972e-08
3.33523e-06
4.03304e-08
3.32326e-06
3.70681e-08
3.31201e-06
3.41566e-08
3.30139e-06
3.14183e-08
3.29142e-06
2.86359e-08
3.28197e-06
2.56572e-08
3.27312e-06
2.21803e-08
3.26555e-06
1.71416e-08
6.96485e-09
3.25664e-06
3.67627e-06
6.63121e-08
3.67858e-06
9.22166e-08
3.67281e-06
8.37581e-08
3.66531e-06
7.70741e-08
3.65775e-06
7.10698e-08
3.65062e-06
6.47123e-08
3.64397e-06
5.90212e-08
3.63773e-06
5.41716e-08
3.63185e-06
4.9855e-08
3.62627e-06
4.59026e-08
3.62103e-06
4.23147e-08
3.61614e-06
3.90423e-08
3.61163e-06
3.59323e-08
3.6075e-06
3.27626e-08
3.60374e-06
2.9416e-08
3.60053e-06
2.53981e-08
3.59667e-06
2.09974e-08
1.4206e-08
3.58943e-06
3.93547e-06
5.62325e-08
3.94303e-06
8.46516e-08
3.94514e-06
8.16547e-08
3.94517e-06
7.7036e-08
3.94402e-06
7.22215e-08
3.94204e-06
6.66903e-08
3.9396e-06
6.14652e-08
3.93694e-06
5.68339e-08
3.93419e-06
5.25987e-08
3.93145e-06
4.86459e-08
3.92879e-06
4.49751e-08
3.92629e-06
4.15434e-08
3.924e-06
3.82223e-08
3.92195e-06
3.48138e-08
3.92016e-06
3.12095e-08
3.91856e-06
2.69927e-08
3.91744e-06
2.21165e-08
1.44316e-08
3.91722e-06
4.21811e-06
4.52542e-08
4.2276e-06
7.51606e-08
4.23155e-06
7.77035e-08
4.23293e-06
7.56529e-08
4.23314e-06
7.20102e-08
4.2327e-06
6.71329e-08
4.23195e-06
6.22171e-08
4.23108e-06
5.7699e-08
4.23018e-06
5.3499e-08
4.22928e-06
4.95485e-08
4.22841e-06
4.5841e-08
4.22763e-06
4.23259e-08
4.22696e-06
3.88955e-08
4.2264e-06
3.53712e-08
4.22591e-06
3.17031e-08
4.2254e-06
2.7499e-08
4.22415e-06
2.337e-08
1.83517e-08
4.22023e-06
4.5171e-06
3.72431e-08
4.52583e-06
6.64243e-08
4.53158e-06
7.19581e-08
4.53565e-06
7.15845e-08
4.53872e-06
6.89414e-08
4.54097e-06
6.4877e-08
4.54264e-06
6.0549e-08
4.54393e-06
5.64139e-08
4.54495e-06
5.24714e-08
4.54581e-06
4.86955e-08
4.54656e-06
4.50865e-08
4.54728e-06
4.16034e-08
4.54802e-06
3.81621e-08
4.54876e-06
3.46258e-08
4.54954e-06
3.09306e-08
4.55019e-06
2.68419e-08
4.55118e-06
2.23808e-08
1.69774e-08
4.55256e-06
4.83986e-06
3.00999e-08
4.8484e-06
5.78831e-08
4.85443e-06
6.59288e-08
4.85862e-06
6.74015e-08
4.86166e-06
6.5898e-08
4.8639e-06
6.26401e-08
4.86563e-06
5.88209e-08
4.86707e-06
5.49706e-08
4.86834e-06
5.1195e-08
4.86952e-06
4.7524e-08
4.87063e-06
4.39744e-08
4.87172e-06
4.05165e-08
4.87279e-06
3.70911e-08
4.87382e-06
3.35903e-08
4.87475e-06
3.00068e-08
4.87541e-06
2.6179e-08
4.87525e-06
2.25388e-08
1.87206e-08
4.87351e-06
5.18534e-06
2.43428e-08
5.19299e-06
5.02329e-08
5.19938e-06
5.95403e-08
5.20467e-06
6.21125e-08
5.20918e-06
6.13882e-08
5.21302e-06
5.87993e-08
5.21634e-06
5.54956e-08
5.2193e-06
5.20109e-08
5.22199e-06
4.85045e-08
5.22448e-06
4.50372e-08
5.22682e-06
4.16362e-08
5.22905e-06
3.82846e-08
5.2312e-06
3.49409e-08
5.23326e-06
3.15339e-08
5.23523e-06
2.80364e-08
5.23704e-06
2.43671e-08
5.23906e-06
2.05117e-08
1.64999e-08
5.24129e-06
5.55573e-06
1.99495e-08
5.56257e-06
4.33973e-08
5.56883e-06
5.32774e-08
5.57409e-06
5.68533e-08
5.57849e-06
5.69909e-08
5.58216e-06
5.5129e-08
5.58529e-06
5.23622e-08
5.58806e-06
4.92413e-08
5.59058e-06
4.59876e-08
5.59291e-06
4.27047e-08
5.5951e-06
3.94425e-08
5.59718e-06
3.62035e-08
5.59915e-06
3.29731e-08
5.60098e-06
2.97069e-08
5.60258e-06
2.6432e-08
5.60384e-06
2.31068e-08
5.60434e-06
2.00109e-08
1.69275e-08
5.60392e-06
5.95382e-06
1.59039e-08
5.96022e-06
3.70018e-08
5.96649e-06
4.70084e-08
5.97223e-06
5.11126e-08
5.97744e-06
5.17769e-08
5.98214e-06
5.04311e-08
5.9864e-06
4.80976e-08
5.99033e-06
4.53142e-08
5.99399e-06
4.23292e-08
5.99743e-06
3.92665e-08
6.00068e-06
3.61868e-08
6.00378e-06
3.3106e-08
6.00673e-06
3.00207e-08
6.00953e-06
2.69103e-08
6.01219e-06
2.37746e-08
6.01469e-06
2.06045e-08
6.01731e-06
1.73935e-08
1.43452e-08
6.01989e-06
6.37949e-06
1.32301e-08
6.38481e-06
3.16731e-08
6.39067e-06
4.11533e-08
6.39625e-06
4.55347e-08
6.40134e-06
4.66885e-08
6.40589e-06
4.58789e-08
6.40997e-06
4.40133e-08
6.41368e-06
4.16032e-08
6.4171e-06
3.89167e-08
6.42026e-06
3.60989e-08
6.42322e-06
3.32287e-08
6.42599e-06
3.03395e-08
6.42856e-06
2.74502e-08
6.43091e-06
2.45594e-08
6.43298e-06
2.17083e-08
6.43468e-06
1.88976e-08
6.43578e-06
1.62916e-08
1.37979e-08
6.43633e-06
5.74324e-06
1.08206e-08
5.74771e-06
2.72074e-08
5.75267e-06
3.61953e-08
5.75757e-06
4.06358e-08
5.76224e-06
4.20108e-08
5.76662e-06
4.15046e-08
5.7707e-06
3.99343e-08
5.77452e-06
3.77843e-08
5.77811e-06
3.53254e-08
5.7815e-06
3.27094e-08
5.7847e-06
3.00215e-08
5.78774e-06
2.73039e-08
5.79061e-06
2.45799e-08
5.79331e-06
2.1861e-08
5.79585e-06
1.91646e-08
5.79824e-06
1.65146e-08
5.80062e-06
1.39108e-08
1.15584e-08
5.80286e-06
6.99987e-06
9.11097e-09
7.00402e-06
2.30503e-08
7.00919e-06
3.10266e-08
7.01457e-06
3.52541e-08
7.0198e-06
3.67798e-08
7.02472e-06
3.65878e-08
7.02929e-06
3.53625e-08
7.03354e-06
3.3537e-08
7.03749e-06
3.13721e-08
7.04118e-06
2.90225e-08
7.04462e-06
2.65811e-08
7.04782e-06
2.41006e-08
7.05079e-06
2.16176e-08
7.05349e-06
1.91545e-08
7.05591e-06
1.67473e-08
7.05801e-06
1.44173e-08
7.0597e-06
1.2223e-08
1.00691e-08
7.06118e-06
8.53319e-06
6.7633e-09
8.5381e-06
1.81402e-08
8.54405e-06
2.50773e-08
8.55036e-06
2.89451e-08
8.55667e-06
3.04712e-08
8.5628e-06
3.0464e-08
8.56866e-06
2.94981e-08
8.57424e-06
2.79524e-08
8.57955e-06
2.60679e-08
8.58458e-06
2.39931e-08
8.58934e-06
2.18193e-08
8.59384e-06
1.96021e-08
8.59808e-06
1.7378e-08
8.60206e-06
1.51739e-08
8.60579e-06
1.30141e-08
8.60928e-06
1.09307e-08
8.61256e-06
8.9415e-09
7.2156e-09
8.61541e-06
1.04007e-05
5.30068e-09
1.04049e-05
1.38768e-08
1.04108e-05
1.92099e-08
1.04175e-05
2.22837e-08
1.04244e-05
2.35795e-08
1.04312e-05
2.36555e-08
1.04377e-05
2.29321e-08
1.0444e-05
2.17001e-08
1.04499e-05
2.01566e-08
1.04555e-05
1.84302e-08
1.04607e-05
1.66048e-08
1.04655e-05
1.47361e-08
1.04701e-05
1.28613e-08
1.04742e-05
1.10101e-08
1.0478e-05
9.19935e-09
1.04815e-05
7.45215e-09
1.04847e-05
5.76098e-09
4.11374e-09
1.04878e-05
1.26789e-05
3.18558e-09
1.2684e-05
8.81889e-09
1.26907e-05
1.25055e-08
1.26983e-05
1.4688e-08
1.27062e-05
1.56249e-08
1.27142e-05
1.56698e-08
1.2722e-05
1.51126e-08
1.27296e-05
1.41614e-08
1.27368e-05
1.29641e-08
1.27436e-05
1.16208e-08
1.275e-05
1.01994e-08
1.2756e-05
8.74593e-09
1.27615e-05
7.2956e-09
1.27667e-05
5.87487e-09
1.27713e-05
4.51244e-09
1.27756e-05
3.22782e-09
1.27793e-05
2.04762e-09
1.01431e-09
1.27824e-05
1.5455e-05
1.40177e-09
1.54599e-05
3.85436e-09
1.54671e-05
5.36242e-09
1.54756e-05
6.14674e-09
1.54849e-05
6.32241e-09
1.54945e-05
6.05078e-09
1.55042e-05
5.47026e-09
1.55137e-05
4.68148e-09
1.55229e-05
3.75945e-09
1.55317e-05
2.75857e-09
1.55402e-05
1.71641e-09
1.55483e-05
6.62399e-10
1.5556e-05
-3.86232e-10
1.55633e-05
-1.40766e-09
1.55702e-05
-2.40306e-09
1.55767e-05
-3.34255e-09
1.5583e-05
-4.2562e-09
-5.02425e-09
1.55891e-05
1.88392e-05
-1.28573e-10
1.8844e-05
-9.29211e-10
1.8851e-05
-1.68056e-09
1.88594e-05
-2.27413e-09
1.88685e-05
-2.75954e-09
1.88777e-05
-3.17492e-09
1.88867e-05
-3.54884e-09
1.88953e-05
-3.9015e-09
1.89033e-05
-4.24314e-09
1.89107e-05
-4.57844e-09
1.89173e-05
-4.9082e-09
1.89232e-05
-5.23233e-09
1.89283e-05
-5.54892e-09
1.89328e-05
-5.86049e-09
1.89366e-05
-6.16565e-09
1.89397e-05
-6.46699e-09
1.89422e-05
-6.78293e-09
-7.17622e-09
1.89444e-05
2.29673e-05
-4.05503e-09
2.29763e-05
-9.92013e-09
2.29885e-05
-1.39475e-08
2.3003e-05
-1.67167e-08
2.30188e-05
-1.85896e-08
2.30354e-05
-1.98172e-08
2.30525e-05
-2.06007e-08
2.30697e-05
-2.10875e-08
2.30868e-05
-2.1376e-08
2.31038e-05
-2.15288e-08
2.31204e-05
-2.15838e-08
2.31368e-05
-2.15583e-08
2.31527e-05
-2.14569e-08
2.31681e-05
-2.12684e-08
2.31829e-05
-2.09781e-08
2.3197e-05
-2.055e-08
2.32102e-05
-1.99782e-08
-1.89049e-08
2.32219e-05
1.68112e-05
-4.58762e-09
1.68147e-05
-1.34137e-08
1.68202e-05
-1.94661e-08
1.68268e-05
-2.32371e-08
1.68335e-05
-2.53342e-08
1.684e-05
-2.62794e-08
1.68459e-05
-2.64903e-08
1.6851e-05
-2.62538e-08
1.68554e-05
-2.5751e-08
1.6859e-05
-2.5092e-08
1.68617e-05
-2.43412e-08
1.68637e-05
-2.35367e-08
1.68649e-05
-2.26967e-08
1.68655e-05
-2.18418e-08
1.68655e-05
-2.09774e-08
1.68651e-05
-2.01511e-08
1.68645e-05
-1.93608e-08
-1.90746e-08
1.68647e-05
1.46387e-05
-8.68677e-09
1.46468e-05
-2.15208e-08
1.46567e-05
-2.94164e-08
1.46676e-05
-3.40749e-08
1.46788e-05
-3.65752e-08
1.46901e-05
-3.76048e-08
1.47013e-05
-3.77076e-08
1.47124e-05
-3.72632e-08
1.47231e-05
-3.65062e-08
1.47336e-05
-3.5582e-08
1.47438e-05
-3.45844e-08
1.47539e-05
-3.35721e-08
1.47638e-05
-3.25861e-08
1.47736e-05
-3.16442e-08
1.47834e-05
-3.07715e-08
1.47931e-05
-2.99339e-08
1.4803e-05
-2.91657e-08
-2.7828e-08
1.48117e-05
1.27416e-05
-1.0156e-08
1.27467e-05
-2.66525e-08
1.27533e-05
-3.60063e-08
1.276e-05
-4.07587e-08
1.27661e-05
-4.26964e-08
1.27714e-05
-4.28947e-08
1.27758e-05
-4.2126e-08
1.27794e-05
-4.08758e-08
1.27823e-05
-3.93967e-08
1.27846e-05
-3.78185e-08
1.27862e-05
-3.62089e-08
1.27872e-05
-3.45999e-08
1.27876e-05
-3.29917e-08
1.27874e-05
-3.13773e-08
1.27863e-05
-2.97096e-08
1.27844e-05
-2.79919e-08
1.27813e-05
-2.61106e-08
-2.47891e-08
1.27783e-05
1.10965e-05
-1.57703e-08
1.11062e-05
-3.62921e-08
1.11165e-05
-4.63219e-08
1.11266e-05
-5.09098e-08
1.11365e-05
-5.24971e-08
1.11457e-05
-5.21942e-08
1.11545e-05
-5.08681e-08
1.11627e-05
-4.90848e-08
1.11704e-05
-4.71176e-08
1.11777e-05
-4.51028e-08
1.11846e-05
-4.31246e-08
1.11913e-05
-4.12336e-08
1.11977e-05
-3.94691e-08
1.12042e-05
-3.78607e-08
1.1211e-05
-3.64837e-08
1.12184e-05
-3.53756e-08
1.1227e-05
-3.47764e-08
-3.39217e-08
1.12362e-05
9.65973e-06
-2.0288e-08
9.66814e-06
-4.47042e-08
9.67603e-06
-5.42047e-08
9.68234e-06
-5.7219e-08
9.68716e-06
-5.73199e-08
9.69072e-06
-5.57555e-08
9.69332e-06
-5.34688e-08
9.69525e-06
-5.10151e-08
9.69671e-06
-4.85712e-08
9.69779e-06
-4.61872e-08
9.69856e-06
-4.38935e-08
9.69903e-06
-4.1705e-08
9.69917e-06
-3.96091e-08
9.69889e-06
-3.75842e-08
9.69794e-06
-3.5532e-08
9.69593e-06
-3.33624e-08
9.69177e-06
-3.06132e-08
-2.7781e-08
9.68562e-06
8.41351e-06
-2.84488e-08
8.42507e-06
-5.62606e-08
8.43522e-06
-6.43566e-08
8.44396e-06
-6.59554e-08
8.45163e-06
-6.4996e-08
8.45825e-06
-6.2371e-08
8.46391e-06
-5.91265e-08
8.46879e-06
-5.58974e-08
8.47305e-06
-5.28269e-08
8.47679e-06
-4.99288e-08
8.48011e-06
-4.72198e-08
8.48311e-06
-4.47057e-08
8.48589e-06
-4.23855e-08
8.48856e-06
-4.0256e-08
8.49141e-06
-3.83833e-08
8.49489e-06
-3.68437e-08
8.50051e-06
-3.62244e-08
-3.62764e-08
8.509e-06
7.32785e-06
-3.90133e-08
7.33966e-06
-6.80671e-08
7.34635e-06
-7.10494e-08
7.34959e-06
-6.92009e-08
7.35099e-06
-6.63948e-08
7.35128e-06
-6.26612e-08
7.35098e-06
-5.88257e-08
7.35042e-06
-5.53391e-08
7.34974e-06
-5.21462e-08
7.34898e-06
-4.91618e-08
7.34813e-06
-4.63732e-08
7.3472e-06
-4.37801e-08
7.34618e-06
-4.13657e-08
7.34505e-06
-3.91229e-08
7.34364e-06
-3.69759e-08
7.34167e-06
-3.48672e-08
7.33747e-06
-3.2026e-08
-2.79375e-08
7.32913e-06
6.38126e-06
-5.02111e-08
6.3931e-06
-7.99035e-08
6.39985e-06
-7.77996e-08
6.40402e-06
-7.33689e-08
6.40642e-06
-6.8801e-08
6.40733e-06
-6.35648e-08
6.40719e-06
-5.86903e-08
6.40639e-06
-5.45383e-08
6.40517e-06
-5.09199e-08
6.40366e-06
-4.76585e-08
6.40198e-06
-4.46914e-08
6.40019e-06
-4.1987e-08
6.39834e-06
-3.95152e-08
6.39646e-06
-3.72443e-08
6.39468e-06
-3.51977e-08
6.39317e-06
-3.33587e-08
6.39362e-06
-3.24744e-08
-3.31284e-08
6.39881e-06
5.563e-06
-6.7742e-08
5.56908e-06
-8.5985e-08
5.56466e-06
-7.33781e-08
5.5572e-06
-6.59149e-08
5.54939e-06
-6.09944e-08
5.54194e-06
-5.61137e-08
5.53505e-06
-5.18e-08
5.52867e-06
-4.81583e-08
5.52268e-06
-4.49232e-08
5.51698e-06
-4.19624e-08
5.51153e-06
-3.92404e-08
5.50629e-06
-3.67438e-08
5.50122e-06
-3.44501e-08
5.49633e-06
-3.23574e-08
5.49157e-06
-3.04332e-08
5.48695e-06
-2.87395e-08
5.48102e-06
-2.65433e-08
-2.23816e-08
5.47027e-06
4.85296e-06
-9.30996e-08
4.85866e-06
-9.16833e-08
4.84879e-06
-6.35026e-08
4.83769e-06
-5.48122e-08
4.82547e-06
-4.8777e-08
4.81325e-06
-4.38984e-08
4.80152e-06
-4.00689e-08
4.79035e-06
-3.69832e-08
4.77972e-06
-3.42927e-08
4.76958e-06
-3.18253e-08
4.75989e-06
-2.95482e-08
4.7506e-06
-2.74547e-08
4.74169e-06
-2.55395e-08
4.73312e-06
-2.37944e-08
4.72494e-06
-2.22537e-08
4.71713e-06
-2.09201e-08
4.71124e-06
-2.06535e-08
-2.18545e-08
4.71071e-06
4.10958e-06
4.01789e-06
3.95439e-06
3.89958e-06
3.8508e-06
3.8069e-06
3.76683e-06
3.72985e-06
3.69556e-06
3.66373e-06
3.63418e-06
3.60673e-06
3.58119e-06
3.5574e-06
3.53514e-06
3.51422e-06
3.49357e-06
3.47171e-06
4.37104e-08
-4.37119e-08
1.0096e-07
-5.7273e-08
1.73766e-07
-7.27934e-08
2.35926e-07
-6.21723e-08
2.96015e-07
-6.00751e-08
3.47919e-07
-5.19123e-08
3.96504e-07
-4.8569e-08
4.3944e-07
-4.29432e-08
4.79e-07
-3.95448e-08
5.14172e-07
-3.51791e-08
5.46094e-07
-3.19099e-08
5.74456e-07
-2.83686e-08
5.99994e-07
-2.55281e-08
6.22628e-07
-2.26407e-08
6.42806e-07
-2.01696e-08
6.60593e-07
-1.77923e-08
6.76556e-07
-1.59551e-08
6.91058e-07
-1.45075e-08
7.04537e-07
-1.34708e-08
7.16773e-07
-1.22424e-08
7.27142e-07
-1.03616e-08
7.34374e-07
-7.23691e-09
7.36002e-07
-1.61769e-09
7.29612e-07
6.39192e-09
7.13569e-07
1.60504e-08
6.86493e-07
2.70877e-08
6.46835e-07
3.96563e-08
5.93175e-07
5.36979e-08
5.23955e-07
6.92098e-08
4.37918e-07
8.61042e-08
3.36167e-07
1.01725e-07
2.24337e-07
1.11908e-07
1.09629e-07
1.14674e-07
9.82567e-10
1.08696e-07
-9.54546e-08
9.63939e-08
-1.83132e-07
8.76836e-08
-2.66132e-07
8.2972e-08
-3.45916e-07
7.97673e-08
-4.22835e-07
7.6908e-08
-4.96882e-07
7.40231e-08
-5.6817e-07
7.12887e-08
-6.37059e-07
6.88656e-08
-7.03623e-07
6.65725e-08
-7.67901e-07
6.4259e-08
-8.29818e-07
6.19288e-08
-8.89404e-07
5.95708e-08
-9.46602e-07
5.72102e-08
-1.0015e-06
5.48837e-08
-1.05413e-06
5.26383e-08
-1.10464e-06
5.04991e-08
-1.15312e-06
4.84905e-08
-1.19975e-06
4.6616e-08
-1.24462e-06
4.48805e-08
-1.2879e-06
4.32727e-08
-1.32968e-06
4.1785e-08
-1.37009e-06
4.03994e-08
-1.40919e-06
3.91052e-08
-1.44707e-06
3.78856e-08
-1.4838e-06
3.67321e-08
-1.51943e-06
3.56325e-08
-1.55401e-06
3.45833e-08
-1.58759e-06
3.35785e-08
-1.6202e-06
3.26192e-08
-1.65191e-06
3.17032e-08
-1.68273e-06
3.08342e-08
-1.71275e-06
3.00098e-08
-1.74197e-06
2.92317e-08
-1.77046e-06
2.8492e-08
-1.79824e-06
2.77862e-08
-1.82534e-06
2.70964e-08
-1.85174e-06
2.64108e-08
-1.87744e-06
2.57041e-08
-1.90239e-06
2.49616e-08
-1.92655e-06
2.41582e-08
-1.94982e-06
2.32855e-08
-1.97216e-06
2.23274e-08
-1.99343e-06
2.12856e-08
-2.01359e-06
2.01541e-08
-2.03251e-06
1.89391e-08
-2.05015e-06
1.76353e-08
-2.06638e-06
1.62464e-08
-2.08113e-06
1.47632e-08
-2.0943e-06
1.3185e-08
-2.1058e-06
1.15032e-08
-2.1155e-06
9.72183e-09
-2.12333e-06
7.84173e-09
-2.12919e-06
5.87372e-09
-2.13301e-06
3.83089e-09
-2.13475e-06
1.76182e-09
-2.13455e-06
-1.83262e-10
-2.13274e-06
-1.79815e-09
-2.12955e-06
-3.17925e-09
-2.12499e-06
-4.55856e-09
-2.11901e-06
-5.97049e-09
-2.11163e-06
-7.37173e-09
-2.10283e-06
-8.79745e-09
-2.09258e-06
-1.02492e-08
-2.08085e-06
-1.173e-08
-2.0676e-06
-1.32373e-08
-2.05283e-06
-1.47751e-08
-2.03647e-06
-1.63493e-08
-2.01848e-06
-1.79786e-08
-1.99881e-06
-1.96593e-08
-1.97743e-06
-2.13724e-08
-1.9543e-06
-2.31136e-08
-1.9294e-06
-2.48711e-08
-1.90274e-06
-2.66347e-08
-1.87433e-06
-2.83833e-08
-1.8442e-06
-3.00998e-08
-1.8124e-06
-3.17673e-08
-1.779e-06
-3.33774e-08
-1.74407e-06
-3.4889e-08
-1.70775e-06
-3.62942e-08
-1.67017e-06
-3.75504e-08
-1.63155e-06
-3.86097e-08
-1.59207e-06
-3.94481e-08
-1.55204e-06
-4.00171e-08
-1.51175e-06
-4.02698e-08
-1.47156e-06
-4.01968e-08
-1.43182e-06
-3.973e-08
-1.39295e-06
-3.88577e-08
-1.35537e-06
-3.75409e-08
-1.31955e-06
-3.57819e-08
-1.28595e-06
-3.35589e-08
-1.25505e-06
-3.08985e-08
-1.22725e-06
-2.78006e-08
-1.20296e-06
-2.43356e-08
-1.18245e-06
-2.05546e-08
-1.16597e-06
-1.65678e-08
-1.15363e-06
-1.24324e-08
-1.14548e-06
-8.27216e-09
-1.14143e-06
-4.17406e-09
-1.14156e-06
-1.39196e-11
-1.14628e-06
4.56919e-09
-1.15573e-06
9.28525e-09
-1.16918e-06
1.32926e-08
-1.18546e-06
1.61426e-08
-1.20304e-06
1.7499e-08
-1.22005e-06
1.70573e-08
-1.2344e-06
1.45063e-08
-1.24384e-06
9.65569e-09
-1.24625e-06
2.6734e-09
-1.24031e-06
-5.65107e-09
-1.22443e-06
-1.55588e-08
-1.19595e-06
-2.8154e-08
-1.15247e-06
-4.31717e-08
-1.09157e-06
-6.06334e-08
-1.01087e-06
-8.04799e-08
-9.08456e-07
-1.02254e-07
-7.83152e-07
-1.25215e-07
-6.34638e-07
-1.48477e-07
-4.6347e-07
-1.71236e-07
-2.71494e-07
-1.92122e-07
-6.49342e-08
-2.0681e-07
1.52052e-07
-2.1726e-07
3.69414e-07
-2.17714e-07
5.48018e-07
-1.78823e-07
6.12829e-07
-6.48628e-08
5.0055e-07
1.12496e-07
2.30413e-07
2.70336e-07
-9.13443e-08
3.21863e-07
-3.70887e-07
2.79713e-07
-5.84561e-07
2.1388e-07
-7.38084e-07
1.5368e-07
-8.32606e-07
9.45636e-08
-8.61752e-07
2.93255e-08
-8.22707e-07
-3.86867e-08
-7.16733e-07
-1.05444e-07
-5.45231e-07
-1.70968e-07
-3.15275e-07
-2.2956e-07
-4.33125e-08
-2.71737e-07
2.59356e-07
-3.02618e-07
5.76726e-07
-3.17448e-07
8.86534e-07
-3.09887e-07
1.1769e-06
-2.90445e-07
1.43943e-06
-2.62565e-07
1.67178e-06
-2.32391e-07
1.86616e-06
-1.94419e-07
2.01044e-06
-1.44343e-07
-5.76647e-08
2.06812e-06
6.33948e-08
-1.07114e-07
9.27536e-08
-8.66396e-08
1.17368e-07
-9.74068e-08
1.34208e-07
-7.90143e-08
1.57994e-07
-8.38584e-08
1.79764e-07
-7.36837e-08
2.04895e-07
-7.36965e-08
2.2724e-07
-6.52889e-08
2.48994e-07
-6.12963e-08
2.67274e-07
-5.34602e-08
2.83506e-07
-4.8139e-08
2.96809e-07
-4.16734e-08
3.0845e-07
-3.71666e-08
3.18082e-07
-3.22744e-08
3.26371e-07
-2.84562e-08
3.33281e-07
-2.47027e-08
3.39882e-07
-2.25553e-08
3.46673e-07
-2.12983e-08
3.54001e-07
-2.07977e-08
3.61127e-07
-1.93686e-08
3.67282e-07
-1.65161e-08
3.71408e-07
-1.1363e-08
3.7183e-07
-2.03836e-09
3.65247e-07
1.29761e-08
3.48969e-07
3.23301e-08
3.21504e-07
5.45553e-08
2.81453e-07
7.97079e-08
2.27311e-07
1.07847e-07
1.58601e-07
1.37923e-07
7.69198e-08
1.67793e-07
-1.41017e-08
1.92749e-07
-1.09096e-07
2.06908e-07
-2.03572e-07
2.09151e-07
-2.97642e-07
2.02767e-07
-3.94036e-07
1.92785e-07
-4.89206e-07
1.82851e-07
-5.79371e-07
1.73134e-07
-6.62995e-07
1.63388e-07
-7.39645e-07
1.53555e-07
-8.09366e-07
1.4374e-07
-8.72245e-07
1.34166e-07
-9.28361e-07
1.24979e-07
-9.78009e-07
1.16221e-07
-1.02171e-06
1.07959e-07
-1.06006e-06
1.00282e-07
-1.09372e-06
9.32302e-08
-1.12334e-06
8.68278e-08
-1.14953e-06
8.10703e-08
-1.17282e-06
7.59334e-08
-1.19369e-06
7.13703e-08
-1.21253e-06
6.73249e-08
-1.22964e-06
6.37316e-08
-1.24529e-06
6.05257e-08
-1.25966e-06
5.76417e-08
-1.27289e-06
5.50215e-08
-1.28511e-06
5.26117e-08
-1.29637e-06
5.03697e-08
-1.30674e-06
4.82596e-08
-1.31627e-06
4.62565e-08
-1.32498e-06
4.43422e-08
-1.3329e-06
4.25085e-08
-1.34007e-06
4.07511e-08
-1.34652e-06
3.90732e-08
-1.3523e-06
3.74788e-08
-1.35744e-06
3.59752e-08
-1.36199e-06
3.45659e-08
-1.36601e-06
3.32535e-08
-1.36955e-06
3.20318e-08
-1.37265e-06
3.08909e-08
-1.37536e-06
2.9809e-08
-1.37771e-06
2.87633e-08
-1.37973e-06
2.77214e-08
-1.38142e-06
2.66576e-08
-1.3828e-06
2.55439e-08
-1.38388e-06
2.43683e-08
-1.38468e-06
2.3123e-08
-1.38521e-06
2.18194e-08
-1.38552e-06
2.04713e-08
-1.38569e-06
1.91062e-08
-1.38579e-06
1.77471e-08
-1.38596e-06
1.64215e-08
-1.38634e-06
1.51438e-08
-1.38707e-06
1.39258e-08
-1.38832e-06
1.27633e-08
-1.39024e-06
1.16481e-08
-1.39295e-06
1.05552e-08
-1.39652e-06
9.45669e-09
-1.401e-06
8.3211e-09
-1.40635e-06
7.11321e-09
-1.41228e-06
5.76317e-09
-1.41828e-06
4.20923e-09
-1.42394e-06
2.4791e-09
-1.42906e-06
5.65894e-10
-1.43344e-06
-1.58258e-09
-1.43684e-06
-3.96292e-09
-1.43906e-06
-6.57438e-09
-1.43994e-06
-9.36314e-09
-1.43937e-06
-1.22983e-08
-1.43724e-06
-1.53664e-08
-1.43344e-06
-1.85693e-08
-1.42787e-06
-2.19164e-08
-1.42042e-06
-2.54164e-08
-1.41101e-06
-2.90565e-08
-1.39956e-06
-3.2817e-08
-1.38598e-06
-3.66803e-08
-1.37021e-06
-4.06287e-08
-1.35218e-06
-4.46397e-08
-1.33186e-06
-4.86872e-08
-1.3092e-06
-5.27407e-08
-1.28418e-06
-5.67732e-08
-1.25678e-06
-6.07512e-08
-1.22703e-06
-6.46225e-08
-1.19496e-06
-6.834e-08
-1.16065e-06
-7.18439e-08
-1.12419e-06
-7.50502e-08
-1.08573e-06
-7.79031e-08
-1.0454e-06
-8.03255e-08
-1.00343e-06
-8.22313e-08
-9.60074e-07
-8.35519e-08
-9.15627e-07
-8.41744e-08
-8.70457e-07
-8.4013e-08
-8.25003e-07
-8.29715e-08
-7.79782e-07
-8.09729e-08
-7.35394e-07
-7.79255e-08
-6.9251e-07
-7.37691e-08
-6.51878e-07
-6.8433e-08
-6.14313e-07
-6.19096e-08
-5.80688e-07
-5.41996e-08
-5.51902e-07
-4.53843e-08
-5.28826e-07
-3.55469e-08
-5.12274e-07
-2.48745e-08
-5.02878e-07
-1.36253e-08
-5.00553e-07
-2.40621e-09
-5.04428e-07
8.37687e-09
-5.13717e-07
1.84971e-08
-5.28267e-07
2.77735e-08
-5.48044e-07
3.58543e-08
-5.72892e-07
4.2328e-08
-6.02467e-07
4.66632e-08
-6.36148e-07
4.82786e-08
-6.7288e-07
4.6498e-08
-7.10681e-07
4.06061e-08
-7.46003e-07
2.97952e-08
-7.75051e-07
1.36325e-08
-7.94098e-07
-8.97457e-09
-7.9873e-07
-3.84062e-08
-7.8519e-07
-7.40662e-08
-7.50548e-07
-1.15033e-07
-6.92727e-07
-1.60015e-07
-6.10631e-07
-2.07279e-07
-5.04457e-07
-2.54648e-07
-3.76132e-07
-2.99608e-07
-2.29871e-07
-3.38466e-07
-7.19157e-08
-3.64895e-07
7.95112e-08
-3.68818e-07
1.97165e-07
-3.35527e-07
2.63655e-07
-2.45487e-07
2.80676e-07
-8.19844e-08
2.63053e-07
1.30139e-07
2.28745e-07
3.04711e-07
1.93416e-07
3.57283e-07
1.48851e-07
3.24422e-07
8.02038e-08
2.82694e-07
-1.77879e-08
2.51811e-07
-1.35498e-07
2.12337e-07
-2.47725e-07
1.4163e-07
-3.13429e-07
2.71641e-08
-3.01142e-07
-1.17495e-07
-2.03125e-07
-2.68744e-07
-3.11506e-08
-4.0136e-07
1.97323e-07
-5.00122e-07
4.56915e-07
-5.62199e-07
7.27108e-07
-5.8767e-07
9.94212e-07
-5.7702e-07
1.24852e-06
-5.44779e-07
1.48353e-06
-4.97584e-07
1.69586e-06
-4.44735e-07
1.88157e-06
-3.80151e-07
2.04189e-06
-3.04702e-07
-1.88291e-07
2.17253e-06
1.71018e-08
-1.2422e-07
2.20017e-08
-9.15449e-08
2.84167e-08
-1.0382e-07
3.53457e-08
-8.59444e-08
4.60188e-08
-9.45299e-08
6.01928e-08
-8.78582e-08
7.88405e-08
-9.23428e-08
9.89262e-08
-8.53751e-08
1.19797e-07
-8.21661e-08
1.37769e-07
-7.14327e-08
1.53095e-07
-6.34638e-08
1.65005e-07
-5.35841e-08
1.74546e-07
-4.67062e-08
1.8086e-07
-3.85897e-08
1.83101e-07
-3.06958e-08
1.79296e-07
-2.08982e-08
1.70482e-07
-1.37402e-08
1.5866e-07
-9.477e-09
1.44859e-07
-6.99528e-09
1.28798e-07
-3.30835e-09
1.10156e-07
2.12751e-09
8.82996e-08
1.04921e-08
6.2649e-08
2.36132e-08
3.16383e-08
4.39867e-08
-6.16123e-09
7.01301e-08
-5.16482e-08
1.00043e-07
-1.05063e-07
1.33123e-07
-1.65724e-07
1.68511e-07
-2.31328e-07
2.03527e-07
-2.97658e-07
2.34126e-07
-3.60983e-07
2.56074e-07
-4.21131e-07
2.67058e-07
-4.80279e-07
2.68299e-07
-5.39951e-07
2.6244e-07
-5.99245e-07
2.52078e-07
-6.55646e-07
2.39252e-07
-7.07554e-07
2.25041e-07
-7.5436e-07
2.10192e-07
-7.96036e-07
1.95231e-07
-8.32894e-07
1.80597e-07
-8.65369e-07
1.66641e-07
-8.93997e-07
1.53606e-07
-9.19409e-07
1.41633e-07
-9.42252e-07
1.30803e-07
-9.63109e-07
1.2114e-07
-9.82493e-07
1.12614e-07
-1.00083e-06
1.05162e-07
-1.01845e-06
9.86945e-08
-1.03562e-06
9.31087e-08
-1.05255e-06
8.82952e-08
-1.06937e-06
8.41463e-08
-1.0862e-06
8.05581e-08
-1.10311e-06
7.74367e-08
-1.12016e-06
7.46962e-08
-1.1374e-06
7.22635e-08
-1.15486e-06
7.0075e-08
-1.17257e-06
6.80799e-08
-1.19055e-06
6.62364e-08
-1.20881e-06
6.45139e-08
-1.22735e-06
6.28892e-08
-1.24619e-06
6.1348e-08
-1.26532e-06
5.98806e-08
-1.28473e-06
5.84823e-08
-1.3044e-06
5.71502e-08
-1.32431e-06
5.58825e-08
-1.34442e-06
5.46749e-08
-1.36468e-06
5.35217e-08
-1.38506e-06
5.24108e-08
-1.4055e-06
5.13268e-08
-1.42593e-06
5.02469e-08
-1.44631e-06
4.91462e-08
-1.46659e-06
4.79952e-08
-1.48669e-06
4.67676e-08
-1.50659e-06
4.54383e-08
-1.52621e-06
4.3993e-08
-1.54551e-06
4.24239e-08
-1.56443e-06
4.07376e-08
-1.5829e-06
3.89472e-08
-1.60087e-06
3.7076e-08
-1.61826e-06
3.51471e-08
-1.63502e-06
3.31842e-08
-1.65108e-06
3.12011e-08
-1.66635e-06
2.92068e-08
-1.68079e-06
2.72024e-08
-1.69432e-06
2.51889e-08
-1.70692e-06
2.31584e-08
-1.71855e-06
2.10877e-08
-1.72915e-06
1.8927e-08
-1.73863e-06
1.65981e-08
-1.74688e-06
1.40181e-08
-1.75381e-06
1.11458e-08
-1.75932e-06
7.99855e-09
-1.76334e-06
4.58892e-09
-1.76586e-06
9.36152e-10
-1.76686e-06
-2.9532e-09
-1.76642e-06
-7.0115e-09
-1.76454e-06
-1.1242e-08
-1.76118e-06
-1.56484e-08
-1.75631e-06
-2.02339e-08
-1.74987e-06
-2.50028e-08
-1.74182e-06
-2.99628e-08
-1.73211e-06
-3.51131e-08
-1.72072e-06
-4.04402e-08
-1.7076e-06
-4.59253e-08
-1.69273e-06
-5.15458e-08
-1.67607e-06
-5.72772e-08
-1.65761e-06
-6.30859e-08
-1.63734e-06
-6.8938e-08
-1.61528e-06
-7.47892e-08
-1.59144e-06
-8.05997e-08
-1.56586e-06
-8.63139e-08
-1.53859e-06
-9.18735e-08
-1.50971e-06
-9.72057e-08
-1.4793e-06
-1.0224e-07
-1.44746e-06
-1.06879e-07
-1.41431e-06
-1.11042e-07
-1.38e-06
-1.14625e-07
-1.3447e-06
-1.17527e-07
-1.30862e-06
-1.19632e-07
-1.27197e-06
-1.20817e-07
-1.23502e-06
-1.20953e-07
-1.19805e-06
-1.19922e-07
-1.1614e-06
-1.17598e-07
-1.12543e-06
-1.13874e-07
-1.09055e-06
-1.08638e-07
-1.05717e-06
-1.0181e-07
-1.02575e-06
-9.3332e-08
-9.96772e-07
-8.31948e-08
-9.70738e-07
-7.14353e-08
-9.48159e-07
-5.81558e-08
-9.2953e-07
-4.35366e-08
-9.153e-07
-2.79011e-08
-9.06008e-07
-1.17463e-08
-9.02163e-07
4.47224e-09
-9.04004e-07
2.02752e-08
-9.11411e-07
3.51123e-08
-9.23942e-07
4.83236e-08
-9.40824e-07
5.91645e-08
-9.60933e-07
6.67616e-08
-9.82764e-07
7.0116e-08
-1.00438e-06
6.81375e-08
-1.02337e-06
5.96099e-08
-1.03693e-06
4.33683e-08
-1.04195e-06
1.86712e-08
-1.03596e-06
-1.49456e-08
-1.0166e-06
-5.77536e-08
-9.81362e-07
-1.09295e-07
-9.28121e-07
-1.68278e-07
-8.55587e-07
-2.32559e-07
-7.637e-07
-2.9918e-07
-6.54023e-07
-3.64346e-07
-5.30196e-07
-4.23455e-07
-3.97955e-07
-4.70736e-07
-2.6435e-07
-4.98512e-07
-1.37405e-07
-4.9577e-07
-2.65004e-08
-4.46421e-07
6.14944e-08
-3.33454e-07
1.3077e-07
-1.51208e-07
1.93253e-07
6.77553e-08
2.48785e-07
2.49255e-07
2.62852e-07
3.43257e-07
2.07104e-07
3.80171e-07
8.65891e-08
4.03206e-07
-6.96887e-08
4.08051e-07
-2.21613e-07
3.64205e-07
-3.28461e-07
2.48442e-07
-3.61806e-07
6.05135e-08
-3.11256e-07
-1.68016e-07
-1.83805e-07
-3.96175e-07
4.31866e-09
-5.89498e-07
2.32881e-07
-7.28711e-07
4.81222e-07
-8.10571e-07
7.34281e-07
-8.40767e-07
9.83706e-07
-8.26473e-07
1.22249e-06
-7.83585e-07
1.4454e-06
-7.20487e-07
1.64882e-06
-6.48148e-07
1.83044e-06
-5.61761e-07
1.99231e-06
-4.66565e-07
-3.30733e-07
2.13479e-06
7.77337e-09
-1.31997e-07
7.3207e-09
-9.10972e-08
4.36454e-09
-1.00863e-07
2.72765e-09
-8.43083e-08
-3.00209e-09
-8.87991e-08
-7.18935e-09
-8.36713e-08
-1.09388e-08
-8.85927e-08
-9.90477e-09
-8.64097e-08
-7.58783e-09
-8.44826e-08
-4.25037e-09
-7.47709e-08
-2.95422e-09
-6.47596e-08
-2.85103e-09
-5.3688e-08
-3.66797e-09
-4.58888e-08
-4.68377e-09
-3.75743e-08
-8.69282e-09
-2.66862e-08
-1.81998e-08
-1.13914e-08
-3.54457e-08
3.50632e-09
-5.93502e-08
1.44276e-08
-8.86696e-08
2.23248e-08
-1.22267e-07
3.02887e-08
-1.59972e-07
3.98329e-08
-2.01927e-07
5.24468e-08
-2.47613e-07
6.93e-08
-2.94712e-07
9.10848e-08
-3.421e-07
1.17519e-07
-3.89678e-07
1.47621e-07
-4.36432e-07
1.79877e-07
-4.79841e-07
2.11922e-07
-5.17023e-07
2.40709e-07
-5.46382e-07
2.63487e-07
-5.68915e-07
2.78608e-07
-5.87599e-07
2.85744e-07
-6.05061e-07
2.85761e-07
-6.22591e-07
2.7997e-07
-6.40445e-07
2.69931e-07
-6.58312e-07
2.57119e-07
-6.75973e-07
2.42701e-07
-6.9343e-07
2.27648e-07
-7.10872e-07
2.12672e-07
-7.28517e-07
1.98241e-07
-7.46542e-07
1.84667e-07
-7.65061e-07
1.72124e-07
-7.84123e-07
1.60695e-07
-8.0372e-07
1.504e-07
-8.23793e-07
1.41213e-07
-8.44257e-07
1.33079e-07
-8.65019e-07
1.25925e-07
-8.85989e-07
1.19666e-07
-9.07092e-07
1.14212e-07
-9.2827e-07
1.09474e-07
-9.49483e-07
1.0536e-07
-9.70707e-07
1.01783e-07
-9.91933e-07
9.86632e-08
-1.01316e-06
9.59242e-08
-1.0344e-06
9.34986e-08
-1.05565e-06
9.13267e-08
-1.07692e-06
8.93571e-08
-1.09823e-06
8.75467e-08
-1.11958e-06
8.58605e-08
-1.14096e-06
8.42706e-08
-1.16237e-06
8.27554e-08
-1.18378e-06
8.12983e-08
-1.20519e-06
7.98865e-08
-1.22655e-06
7.85093e-08
-1.24782e-06
7.71569e-08
-1.26896e-06
7.58188e-08
-1.28993e-06
7.44833e-08
-1.31065e-06
7.31359e-08
-1.33108e-06
7.17604e-08
-1.35117e-06
7.03374e-08
-1.37087e-06
6.88471e-08
-1.39014e-06
6.72683e-08
-1.40896e-06
6.55831e-08
-1.42729e-06
6.37762e-08
-1.44514e-06
6.184e-08
-1.46249e-06
5.97731e-08
-1.47933e-06
5.75832e-08
-1.49566e-06
5.52813e-08
-1.51147e-06
5.28811e-08
-1.52671e-06
5.03907e-08
-1.54133e-06
4.78114e-08
-1.55526e-06
4.51356e-08
-1.56841e-06
4.2355e-08
-1.58067e-06
3.94678e-08
-1.59196e-06
3.64832e-08
-1.60221e-06
3.34101e-08
-1.61136e-06
3.02436e-08
-1.61939e-06
2.69562e-08
-1.62629e-06
2.35059e-08
-1.63211e-06
1.98429e-08
-1.63689e-06
1.59367e-08
-1.64067e-06
1.17804e-08
-1.64345e-06
7.3752e-09
-1.64524e-06
2.72456e-09
-1.64599e-06
-2.19526e-09
-1.64563e-06
-7.37208e-09
-1.64404e-06
-1.2825e-08
-1.64115e-06
-1.85352e-08
-1.63688e-06
-2.44903e-08
-1.6312e-06
-3.06832e-08
-1.62404e-06
-3.71098e-08
-1.61539e-06
-4.37615e-08
-1.60519e-06
-5.0623e-08
-1.59343e-06
-5.76735e-08
-1.58008e-06
-6.48861e-08
-1.56512e-06
-7.22287e-08
-1.54853e-06
-7.96602e-08
-1.53032e-06
-8.71351e-08
-1.5105e-06
-9.45971e-08
-1.4891e-06
-1.01988e-07