/*--------------------------------*- C++ -*----------------------------------*\
| =========                 |                                                 |
| \\      /  F ield         | OpenFOAM: The Open Source CFD Toolbox           |
|  \\    /   O peration     | Version:  v1906                                 |
|   \\  /    A nd           | Web:      www.OpenFOAM.com                      |
|    \\/     M anipulation  |                                                 |
\*---------------------------------------------------------------------------*/
FoamFile
{
    version     2.0;
    format      ascii;
    class       volSymmTensorField;
    location    "1000";
    object      R;
}
// * * * * * * * * * * * * * * * * * * * * * * * * * * * * * * * * * * * * * //

dimensions      [0 2 -2 0 0 0 0];


internalField   nonuniform List<symmTensor> 
12225
(
(1.62918 -0.333428 0 1.36079 0 1.52752)
(1.99604 -0.597712 0 0.915075 0 1.54224)
(2.14976 -0.586216 0 0.685675 0 1.48847)
(2.16282 -0.548295 0 0.594802 0 1.42583)
(2.13004 -0.521071 0 0.549812 0 1.37025)
(2.08416 -0.501344 0 0.521829 0 1.32326)
(2.03694 -0.485888 0 0.501277 0 1.28314)
(1.99287 -0.473162 0 0.484956 0 1.24874)
(1.95174 -0.462128 0 0.47117 0 1.21837)
(1.91582 -0.452744 0 0.459656 0 1.19227)
(1.88124 -0.444038 0 0.449282 0 1.16826)
(1.85389 -0.437438 0 0.440696 0 1.14827)
(1.83194 -0.432264 0 0.433739 0 1.13213)
(1.81463 -0.428014 0 0.428037 0 1.11872)
(1.7984 -0.424097 0 0.422909 0 1.10681)
(1.78705 -0.421658 0 0.419425 0 1.09784)
(1.77349 -0.417666 0 0.414559 0 1.08781)
(1.76816 -0.418466 0 0.413958 0 1.08325)
(1.52372 -0.0379483 0 1.4601 0 1.51677)
(1.5765 -0.140428 0 1.18695 0 1.51213)
(1.58669 -0.190028 0 0.927642 0 1.45696)
(1.57201 -0.209332 0 0.773799 0 1.39906)
(1.54341 -0.218139 0 0.676229 0 1.34283)
(1.5187 -0.225209 0 0.611103 0 1.29757)
(1.49701 -0.231396 0 0.564423 0 1.25992)
(1.47752 -0.23681 0 0.529063 0 1.22737)
(1.46095 -0.241784 0 0.501468 0 1.19987)
(1.44623 -0.246041 0 0.479105 0 1.17529)
(1.43457 -0.250283 0 0.461035 0 1.15515)
(1.42352 -0.253541 0 0.445371 0 1.13565)
(1.41633 -0.257669 0 0.433271 0 1.12146)
(1.40867 -0.259953 0 0.421327 0 1.10529)
(1.40442 -0.264155 0 0.41387 0 1.09611)
(1.39957 -0.265192 0 0.403368 0 1.08187)
(1.39604 -0.269103 0 0.399726 0 1.07638)
(1.39147 -0.268759 0 0.38985 0 1.06231)
(1.51161 -0.00809792 0 1.49388 0 1.51021)
(1.5345 -0.0358553 0 1.38469 0 1.51857)
(1.5464 -0.0615011 0 1.23521 0 1.5056)
(1.54331 -0.0798272 0 1.11806 0 1.48174)
(1.52914 -0.0934247 0 1.02649 0 1.45227)
(1.51225 -0.105301 0 0.95307 0 1.42298)
(1.49494 -0.115962 0 0.893267 0 1.39546)
(1.47788 -0.125578 0 0.843604 0 1.36973)
(1.46197 -0.134398 0 0.801844 0 1.34636)
(1.44709 -0.142343 0 0.76614 0 1.32469)
(1.4338 -0.149817 0 0.735509 0 1.30547)
(1.42145 -0.156394 0 0.708502 0 1.2872)
(1.41058 -0.162861 0 0.685457 0 1.2717)
(1.40109 -0.168233 0 0.663965 0 1.25607)
(1.39135 -0.173837 0 0.647193 0 1.24415)
(1.38659 -0.17812 0 0.627594 0 1.22984)
(1.37223 -0.182547 0 0.620102 0 1.22271)
(1.38638 -0.185492 0 0.590387 0 1.20648)
(1.51151 -0.00606377 0 1.49419 0 1.51108)
(1.52717 -0.0162673 0 1.42189 0 1.52171)
(1.53965 -0.0294571 0 1.31305 0 1.52311)
(1.54279 -0.0418835 0 1.2137 0 1.51507)
(1.53765 -0.0521672 0 1.12995 0 1.50078)
(1.52856 -0.0612343 0 1.05937 0 1.48384)
(1.51765 -0.0694749 0 0.999849 0 1.46617)
(1.50581 -0.0770336 0 0.949224 0 1.44845)
(1.49388 -0.0840634 0 0.905794 0 1.43137)
(1.48215 -0.0905381 0 0.868148 0 1.41496)
(1.47097 -0.0966347 0 0.83535 0 1.39964)
(1.46031 -0.102203 0 0.80637 0 1.38497)
(1.4503 -0.107527 0 0.781005 0 1.37164)
(1.44118 -0.112234 0 0.757992 0 1.35869)
(1.43205 -0.116797 0 0.738303 0 1.34738)
(1.42515 -0.120612 0 0.718861 0 1.33577)
(1.41564 -0.124149 0 0.704847 0 1.3268)
(1.41236 -0.127142 0 0.685048 0 1.31588)
(1.50985 -0.00453423 0 1.49823 0 1.50974)
(1.52086 -0.00880896 0 1.44955 0 1.51872)
(1.5321 -0.014886 0 1.37346 0 1.52446)
(1.53776 -0.0219303 0 1.2986 0 1.52376)
(1.53762 -0.0285454 0 1.23207 0 1.51795)
(1.5339 -0.0348322 0 1.17342 0 1.50915)
(1.52805 -0.0409172 0 1.12189 0 1.49877)
(1.52083 -0.0467699 0 1.07652 0 1.48752)
(1.5129 -0.0523836 0 1.03639 0 1.476)
(1.50464 -0.0577053 0 1.00071 0 1.46445)
(1.49634 -0.0627784 0 0.968904 0 1.4532)
(1.48813 -0.0675323 0 0.940324 0 1.44221)
(1.48012 -0.0720459 0 0.914683 0 1.43176)
(1.4725 -0.0761647 0 0.891373 0 1.42162)
(1.465 -0.0800078 0 0.870493 0 1.41222)
(1.45837 -0.0833931 0 0.850942 0 1.403)
(1.45153 -0.0863394 0 0.834064 0 1.39495)
(1.44654 -0.0891122 0 0.815806 0 1.38663)
(1.50976 -0.00410709 0 1.49856 0 1.50978)
(1.51842 -0.00582983 0 1.46078 0 1.51758)
(1.52819 -0.00835438 0 1.40253 0 1.52449)
(1.53465 -0.0121458 0 1.34209 0 1.52724)
(1.53708 -0.0161902 0 1.28566 0 1.52609)
(1.53656 -0.02029 0 1.23416 0 1.52221)
(1.53399 -0.0244424 0 1.18767 0 1.51655)
(1.52996 -0.0285716 0 1.14586 0 1.50971)
(1.52496 -0.0326235 0 1.10825 0 1.50217)
(1.51936 -0.0365482 0 1.07434 0 1.49424)
(1.51342 -0.0403383 0 1.04372 0 1.48617)
(1.50729 -0.0439471 0 1.01594 0 1.47806)
(1.50112 -0.0473767 0 0.990721 0 1.4701)
(1.49503 -0.0505533 0 0.967686 0 1.46228)
(1.48902 -0.0534806 0 0.946683 0 1.45478)
(1.48337 -0.0561072 0 0.927212 0 1.44749)
(1.47778 -0.0584001 0 0.909509 0 1.44069)
(1.47281 -0.0606388 0 0.891779 0 1.43391)
(1.50945 -0.00338103 0 1.49937 0 1.50953)
(1.5163 -0.00431578 0 1.46918 0 1.51606)
(1.52444 -0.00506052 0 1.42408 0 1.52269)
(1.53068 -0.0067273 0 1.37573 0 1.52674)
(1.53413 -0.00883718 0 1.32915 0 1.52792)
(1.53529 -0.0112132 0 1.28563 0 1.52686)
(1.53469 -0.0138194 0 1.24554 0 1.52415)
(1.53275 -0.0165649 0 1.20885 0 1.52025)
(1.52982 -0.0193683 0 1.17531 0 1.51552)
(1.52621 -0.0221677 0 1.14463 0 1.51025)
(1.52213 -0.0249256 0 1.11656 0 1.50464)
(1.51773 -0.0275947 0 1.0908 0 1.49882)
(1.51315 -0.030145 0 1.06715 0 1.49294)
(1.5085 -0.0325291 0 1.04534 0 1.48705)
(1.50386 -0.0347207 0 1.02521 0 1.48127)
(1.49935 -0.036709 0 1.00648 0 1.47563)
(1.49503 -0.0384671 0 0.98908 0 1.47026)
(1.49086 -0.0402273 0 0.972302 0 1.46498)
(1.50951 -0.00298297 0 1.49932 0 1.50962)
(1.51528 -0.0035836 0 1.47359 0 1.51535)
(1.52208 -0.00346128 0 1.43719 0 1.5214)
(1.52781 -0.0039291 0 1.39726 0 1.52588)
(1.53166 -0.00485258 0 1.3577 0 1.52831)
(1.53376 -0.00611362 0 1.3199 0 1.52897)
(1.53442 -0.00766179 0 1.28443 0 1.5282)
(1.53389 -0.00940707 0 1.25143 0 1.52632)
(1.53244 -0.0112663 0 1.22087 0 1.52361)
(1.53029 -0.0131778 0 1.1926 0 1.52029)
(1.52763 -0.0150964 0 1.16645 0 1.51654)
(1.5246 -0.0169778 0 1.14225 0 1.51248)
(1.5213 -0.0187853 0 1.11982 0 1.50825)
(1.51785 -0.0204838 0 1.09899 0 1.50391)
(1.51432 -0.022048 0 1.07961 0 1.49955)
(1.51081 -0.0234775 0 1.06149 0 1.49524)
(1.50729 -0.0247903 0 1.04454 0 1.49102)
(1.50363 -0.0261156 0 1.02854 0 1.48685)
(1.50946 -0.00244115 0 1.49949 0 1.50959)
(1.51436 -0.0030253 0 1.47724 0 1.51461)
(1.52001 -0.00255683 0 1.44732 0 1.51996)
(1.52508 -0.0023156 0 1.41413 0 1.52435)
(1.52888 -0.00241682 0 1.38062 0 1.5273)
(1.53137 -0.00284117 0 1.34808 0 1.52888)
(1.53269 -0.00356201 0 1.3171 0 1.52927)
(1.53301 -0.00450872 0 1.28794 0 1.52869)
(1.53252 -0.00560787 0 1.26063 0 1.52734)
(1.53139 -0.00680046 0 1.23511 0 1.52539)
(1.52976 -0.00803872 0 1.21129 0 1.52299)
(1.52774 -0.00927924 0 1.18906 0 1.52026)
(1.52544 -0.0104847 0 1.16829 0 1.51729)
(1.52295 -0.0116264 0 1.14886 0 1.51416)
(1.52034 -0.0126843 0 1.13065 0 1.51095)
(1.51766 -0.0136647 0 1.11354 0 1.50773)
(1.51494 -0.0145803 0 1.09748 0 1.50454)
(1.51189 -0.0155436 0 1.0825 0 1.50136)
(1.50949 -0.00208503 0 1.49945 0 1.50964)
(1.51383 -0.00268741 0 1.4795 0 1.5142)
(1.51861 -0.00210134 0 1.45416 0 1.51894)
(1.52306 -0.00149532 0 1.42599 0 1.52309)
(1.52664 -0.00111919 0 1.39713 0 1.52622)
(1.52925 -0.00102466 0 1.36867 0 1.52831)
(1.53095 -0.00120612 0 1.34123 0 1.52943)
(1.53183 -0.00161032 0 1.31507 0 1.52974)
(1.532 -0.0021756 0 1.29031 0 1.52935)
(1.53161 -0.00284879 0 1.26695 0 1.52841)
(1.53074 -0.00358496 0 1.24497 0 1.52704)
(1.52951 -0.00434492 0 1.22428 0 1.52531)
(1.52798 -0.00509578 0 1.20483 0 1.52333)
(1.52625 -0.00581473 0 1.18651 0 1.52117)
(1.52436 -0.00648906 0 1.16925 0 1.51888)
(1.52234 -0.00712773 0 1.15298 0 1.51652)
(1.52013 -0.00776126 0 1.1377 0 1.51412)
(1.51755 -0.00844058 0 1.12352 0 1.5117)
(1.50947 -0.0016726 0 1.49957 0 1.50961)
(1.51333 -0.00229799 0 1.4815 0 1.51377)
(1.5174 -0.00173729 0 1.45969 0 1.51797)
(1.52126 -0.000968003 0 1.43554 0 1.52178)
(1.52452 -0.000300941 0 1.41057 0 1.52487)
(1.52707 0.000155691 0 1.38568 0 1.52716)
(1.52891 0.000379292 0 1.36141 0 1.52869)
(1.53008 0.000399758 0 1.33806 0 1.52954)
(1.53067 0.000262512 0 1.31575 0 1.52979)
(1.53075 1.15367e-05 0 1.29454 0 1.52954)
(1.53042 -0.000313725 0 1.27442 0 1.52889)
(1.52975 -0.000679034 0 1.25537 0 1.52791)
(1.52881 -0.00105639 0 1.23733 0 1.52667)
(1.52765 -0.00142747 0 1.22026 0 1.52524)
(1.52632 -0.0017834 0 1.20409 0 1.52366)
(1.52483 -0.00213244 0 1.18881 0 1.52199)
(1.52312 -0.00249033 0 1.17443 0 1.52026)
(1.52097 -0.00292038 0 1.16112 0 1.51847)
(1.50943 -0.00140742 0 1.49967 0 1.50958)
(1.513 -0.00203353 0 1.48284 0 1.51349)
(1.51658 -0.00153614 0 1.46338 0 1.5173)
(1.51999 -0.000731564 0 1.44207 0 1.52081)
(1.52295 5.78948e-05 0 1.41992 0 1.52378)
(1.52538 0.000695665 0 1.39766 0 1.52613)
(1.52724 0.00114132 0 1.37576 0 1.52787)
(1.52856 0.00140801 0 1.3545 0 1.52903)
(1.52938 0.00152853 0 1.33404 0 1.52968)
(1.52978 0.00153864 0 1.31444 0 1.5299)
(1.5298 0.00147188 0 1.29573 0 1.52974)
(1.52952 0.00135726 0 1.27791 0 1.52927)
(1.52898 0.0012178 0 1.26094 0 1.52856)
(1.52822 0.00106768 0 1.24481 0 1.52765)
(1.52728 0.000912157 0 1.22948 0 1.52659)
(1.52615 0.000743239 0 1.21496 0 1.52542)
(1.52476 0.000540423 0 1.20129 0 1.52415)
(1.52295 0.000283968 0 1.18862 0 1.52281)
(1.50937 -0.00113357 0 1.49984 0 1.50953)
(1.51268 -0.00172122 0 1.48408 0 1.51319)
(1.51585 -0.00130017 0 1.46656 0 1.51667)
(1.51885 -0.000516708 0 1.44757 0 1.51989)
(1.52152 0.000324858 0 1.42781 0 1.52269)
(1.52378 0.00107437 0 1.40783 0 1.52502)
(1.5256 0.00167707 0 1.38803 0 1.52685)
(1.52697 0.00213049 0 1.36867 0 1.5282)
(1.52794 0.00245476 0 1.3499 0 1.52912)
(1.52854 0.00267671 0 1.33181 0 1.52966)
(1.52881 0.0028232 0 1.31443 0 1.52986)
(1.52881 0.00291788 0 1.29779 0 1.52978)
(1.52857 0.00297916 0 1.28188 0 1.52947)
(1.52813 0.00301842 0 1.26669 0 1.52897)
(1.5275 0.0030395 0 1.25221 0 1.52832)
(1.52666 0.00303852 0 1.23846 0 1.52754)
(1.52557 0.00300628 0 1.2255 0 1.52666)
(1.52405 0.00291185 0 1.21347 0 1.52569)
(1.50928 -0.000904616 0 1.50006 0 1.50944)
(1.51236 -0.00143687 0 1.48524 0 1.51291)
(1.51519 -0.00109967 0 1.46936 0 1.51609)
(1.51782 -0.000382875 0 1.45243 0 1.51903)
(1.5202 0.000443845 0 1.43483 0 1.52165)
(1.52226 0.00123088 0 1.41696 0 1.52389)
(1.52399 0.001915 0 1.39912 0 1.52575)
(1.52537 0.00248162 0 1.38154 0 1.52723)
(1.52642 0.00293969 0 1.36437 0 1.52835)
(1.52717 0.00330725 0 1.34771 0 1.52914)
(1.52764 0.00360419 0 1.33161 0 1.52964)
(1.52787 0.00384832 0 1.3161 0 1.52989)
(1.52789 0.00405332 0 1.30119 0 1.52993)
(1.52771 0.0042269 0 1.2869 0 1.52978)
(1.52734 0.00437076 0 1.27325 0 1.52948)
(1.52676 0.00448016 0 1.26024 0 1.52906)
(1.52592 0.004544 0 1.24796 0 1.52852)
(1.52472 0.00457223 0 1.23649 0 1.5279)
(1.50917 -0.000630984 0 1.50036 0 1.50933)
(1.51202 -0.00102842 0 1.48645 0 1.51258)
(1.51452 -0.000749062 0 1.47203 0 1.51548)
(1.51682 -0.000119682 0 1.45691 0 1.51815)
(1.51891 0.000649474 0 1.44126 0 1.52056)
(1.52076 0.00142725 0 1.42531 0 1.52269)
(1.52236 0.00214973 0 1.4093 0 1.52451)
(1.52369 0.0027938 0 1.39341 0 1.52604)
(1.52477 0.00335826 0 1.37779 0 1.52728)
(1.52561 0.00385203 0 1.36252 0 1.52825)
(1.52622 0.00428735 0 1.34767 0 1.52897)
(1.52662 0.00467604 0 1.33329 0 1.52947)
(1.52684 0.00502733 0 1.3194 0 1.52978)
(1.52687 0.00534712 0 1.30603 0 1.52992)
(1.52672 0.00563719 0 1.2932 0 1.52992)
(1.52637 0.00589579 0 1.28096 0 1.52979)
(1.52577 0.00611725 0 1.26936 0 1.52954)
(1.52483 0.00627077 0 1.25848 0 1.52919)
(1.50903 -0.000426794 0 1.50069 0 1.50919)
(1.51166 -0.000696233 0 1.48757 0 1.51224)
(1.51393 -0.000474261 0 1.47429 0 1.51493)
(1.51596 3.70583e-05 0 1.46061 0 1.51737)
(1.5178 0.00068712 0 1.44652 0 1.51959)
(1.51945 0.00137258 0 1.43217 0 1.52159)
(1.52092 0.00203675 0 1.41771 0 1.52335)
(1.52218 0.00265405 0 1.40327 0 1.52488)
(1.52325 0.00321702 0 1.38898 0 1.52618)
(1.52412 0.00372753 0 1.37493 0 1.52726)
(1.52481 0.00419122 0 1.36118 0 1.52812)
(1.52533 0.00461416 0 1.34779 0 1.5288)
(1.52568 0.0050011 0 1.33481 0 1.52931)
(1.52587 0.00535453 0 1.32226 0 1.52967)
(1.52589 0.00567494 0 1.31018 0 1.52989)
(1.52573 0.00596221 0 1.2986 0 1.52999)
(1.52535 0.00621565 0 1.28757 0 1.52998)
(1.52471 0.00646054 0 1.27716 0 1.52987)
(1.50889 -0.000158205 0 1.50104 0 1.50905)
(1.51133 -0.00018971 0 1.4886 0 1.51191)
(1.51339 6.28749e-05 0 1.4762 0 1.51441)
(1.51522 0.000505179 0 1.46358 0 1.51668)
(1.51687 0.00105584 0 1.45067 0 1.51875)
(1.51837 0.00165298 0 1.43753 0 1.52062)
(1.51971 0.00225888 0 1.42425 0 1.52232)
(1.5209 0.00285361 0 1.41093 0 1.52382)
(1.52193 0.00342841 0 1.39768 0 1.52513)
(1.52281 0.00398074 0 1.38459 0 1.52626)
(1.52354 0.00451095 0 1.37172 0 1.52721)
(1.52412 0.00502012 0 1.35914 0 1.52799)
(1.52455 0.00550874 0 1.34688 0 1.52863)
(1.52484 0.00597624 0 1.335 0 1.52912)
(1.52497 0.00642011 0 1.32352 0 1.52948)
(1.52494 0.00683515 0 1.31248 0 1.52972)
(1.52473 0.0072134 0 1.30193 0 1.52986)
(1.52431 0.00752561 0 1.2919 0 1.5299)
(1.50877 4.26045e-06 0 1.50131 0 1.50894)
(1.51109 0.00014813 0 1.4893 0 1.51166)
(1.51306 0.000392977 0 1.47738 0 1.51407)
(1.51479 0.000711518 0 1.46531 0 1.51624)
(1.51636 0.00108032 0 1.45304 0 1.51823)
(1.51778 0.0014792 0 1.44055 0 1.52004)
(1.51906 0.00189397 0 1.42793 0 1.52169)
(1.52021 0.00231529 0 1.41526 0 1.52317)
(1.52123 0.00273713 0 1.40262 0 1.52448)
(1.52211 0.00315557 0 1.3901 0 1.52562)
(1.52287 0.00356786 0 1.37775 0 1.52661)
(1.52349 0.00397189 0 1.36565 0 1.52744)
(1.52398 0.00436589 0 1.35383 0 1.52814)
(1.52435 0.00474863 0 1.34234 0 1.5287)
(1.52459 0.00511947 0 1.3312 0 1.52914)
(1.52468 0.00548074 0 1.32045 0 1.52947)
(1.52463 0.00583524 0 1.31013 0 1.52969)
(1.52439 0.00620678 0 1.30026 0 1.5298)
(1.50879 0.000351599 0 1.50124 0 1.50896)
(1.51114 0.000880845 0 1.48912 0 1.51171)
(1.51314 0.00127995 0 1.47707 0 1.51414)
(1.51492 0.00161235 0 1.46485 0 1.51634)
(1.51651 0.00192886 0 1.45241 0 1.51835)
(1.51795 0.00226232 0 1.43977 0 1.52017)
(1.51924 0.00263078 0 1.42699 0 1.52181)
(1.52039 0.00304124 0 1.41417 0 1.52328)
(1.5214 0.00349355 0 1.4014 0 1.52458)
(1.52226 0.0039834 0 1.38875 0 1.5257)
(1.52299 0.00450423 0 1.3763 0 1.52665)
(1.52358 0.0050483 0 1.36409 0 1.52745)
(1.52404 0.00560721 0 1.35217 0 1.52811)
(1.52438 0.00617198 0 1.34058 0 1.52863)
(1.5246 0.00673277 0 1.32933 0 1.52903)
(1.52472 0.00727791 0 1.31845 0 1.52932)
(1.52474 0.00779352 0 1.30795 0 1.52952)
(1.52468 0.00825351 0 1.29784 0 1.52965)
(1.50904 0.00053312 0 1.50076 0 1.50918)
(1.51172 0.00120838 0 1.48777 0 1.51221)
(1.51402 0.0015367 0 1.47467 0 1.51489)
(1.5161 0.00167636 0 1.46123 0 1.51732)
(1.51799 0.00174471 0 1.44744 0 1.51953)
(1.5197 0.00181646 0 1.4334 0 1.52152)
(1.52123 0.00193242 0 1.41925 0 1.52329)
(1.52257 0.00210897 0 1.40512 0 1.52484)
(1.52373 0.00234756 0 1.39112 0 1.52617)
(1.5247 0.0026415 0 1.37734 0 1.52728)
(1.5255 0.00298007 0 1.36385 0 1.52819)
(1.52614 0.00335077 0 1.3507 0 1.52891)
(1.52662 0.00374094 0 1.33792 0 1.52946)
(1.52695 0.00413864 0 1.32556 0 1.52986)
(1.52714 0.00453462 0 1.31362 0 1.5301)
(1.52719 0.00492362 0 1.30214 0 1.53022)
(1.5271 0.00530947 0 1.29112 0 1.5302)
(1.52683 0.00571864 0 1.28058 0 1.53006)
(1.50921 0.000898544 0 1.5003 0 1.50935)
(1.51222 0.00185891 0 1.48614 0 1.51269)
(1.51492 0.00221103 0 1.47142 0 1.5157)
(1.5174 0.00228478 0 1.45599 0 1.51845)
(1.51966 0.00228325 0 1.44004 0 1.52092)
(1.52166 0.00231723 0 1.42382 0 1.5231)
(1.5234 0.00243942 0 1.40754 0 1.52497)
(1.52487 0.00266494 0 1.39141 0 1.52652)
(1.52607 0.00298871 0 1.37554 0 1.52778)
(1.52702 0.00339718 0 1.36004 0 1.52876)
(1.52774 0.00387455 0 1.34497 0 1.52948)
(1.52823 0.00440587 0 1.33039 0 1.52997)
(1.52853 0.00497865 0 1.31631 0 1.53025)
(1.52865 0.00558402 0 1.30276 0 1.53035)
(1.52861 0.00621642 0 1.28975 0 1.53029)
(1.52844 0.0068736 0 1.27726 0 1.53008)
(1.52816 0.00755064 0 1.26529 0 1.52977)
(1.52784 0.00822312 0 1.25379 0 1.5294)
(1.50941 0.00116401 0 1.49988 0 1.50953)
(1.51281 0.00223341 0 1.48438 0 1.51319)
(1.51602 0.00249479 0 1.46741 0 1.5166)
(1.51906 0.00246292 0 1.44917 0 1.51975)
(1.5218 0.00239009 0 1.43022 0 1.52251)
(1.52416 0.00239364 0 1.41107 0 1.52483)
(1.52612 0.00252496 0 1.39204 0 1.5267)
(1.52768 0.00279318 0 1.3734 0 1.52812)
(1.52886 0.00318551 0 1.35527 0 1.52914)
(1.52969 0.00368177 0 1.33775 0 1.5298)
(1.53023 0.00426053 0 1.32087 0 1.53014)
(1.53049 0.00490097 0 1.30467 0 1.53021)
(1.53054 0.00558349 0 1.28913 0 1.53005)
(1.53039 0.00628885 0 1.27426 0 1.52969)
(1.53008 0.00699804 0 1.26004 0 1.52916)
(1.52962 0.00769056 0 1.24647 0 1.5285)
(1.52904 0.00835107 0 1.23352 0 1.52771)
(1.52824 0.00899378 0 1.22122 0 1.52677)
(1.50955 0.00173123 0 1.49949 0 1.50966)
(1.5135 0.00300901 0 1.48184 0 1.51379)
(1.51753 0.00327587 0 1.46114 0 1.51785)
(1.52136 0.00335216 0 1.43843 0 1.52153)
(1.52469 0.00351437 0 1.4149 0 1.52459)
(1.5274 0.00384114 0 1.39133 0 1.52696)
(1.52948 0.00435193 0 1.3682 0 1.52865)
(1.53097 0.00502841 0 1.3458 0 1.52972)
(1.53192 0.00583547 0 1.32427 0 1.53025)
(1.53241 0.00673906 0 1.30368 0 1.53031)
(1.5325 0.00771084 0 1.28405 0 1.52999)
(1.53226 0.00872765 0 1.26538 0 1.52933)
(1.53173 0.00977126 0 1.24765 0 1.5284)
(1.53095 0.0108293 0 1.23084 0 1.52725)
(1.52997 0.0118961 0 1.21491 0 1.52591)
(1.5288 0.0129781 0 1.19983 0 1.52442)
(1.52749 0.0140913 0 1.18556 0 1.5228)
(1.5262 0.0152437 0 1.17201 0 1.52116)
(1.50959 0.00210019 0 1.49945 0 1.50966)
(1.51416 0.00348121 0 1.47927 0 1.51427)
(1.51925 0.00390079 0 1.45341 0 1.51903)
(1.524 0.00432817 0 1.42474 0 1.52315)
(1.52783 0.00494253 0 1.39549 0 1.52618)
(1.53064 0.00575093 0 1.36681 0 1.52812)
(1.53248 0.0067584 0 1.33923 0 1.52907)
(1.53348 0.0079414 0 1.31298 0 1.52919)
(1.53376 0.00925617 0 1.28816 0 1.52861)
(1.53346 0.0106632 0 1.26474 0 1.52749)
(1.5327 0.0121322 0 1.24267 0 1.52594)
(1.53156 0.0136389 0 1.22188 0 1.52405)
(1.53014 0.0151643 0 1.20231 0 1.52191)
(1.5285 0.0166929 0 1.18387 0 1.51958)
(1.52672 0.0182094 0 1.16648 0 1.51713)
(1.52486 0.0196882 0 1.15006 0 1.51459)
(1.52299 0.0210867 0 1.13454 0 1.51204)
(1.52095 0.0223551 0 1.11993 0 1.50941)
(1.50975 0.00300059 0 1.49898 0 1.5098)
(1.51563 0.00469198 0 1.47376 0 1.51544)
(1.52245 0.00582232 0 1.43877 0 1.52125)
(1.52836 0.00741594 0 1.40034 0 1.52565)
(1.53257 0.00934197 0 1.36201 0 1.52819)
(1.53513 0.0114255 0 1.3252 0 1.52907)
(1.53628 0.0136235 0 1.29045 0 1.52858)
(1.53627 0.0159019 0 1.25795 0 1.52702)
(1.53534 0.0182086 0 1.22771 0 1.52463)
(1.5337 0.0205076 0 1.19962 0 1.52162)
(1.53153 0.0227791 0 1.17353 0 1.51818)
(1.52898 0.0250089 0 1.14929 0 1.51442)
(1.52613 0.0271852 0 1.12675 0 1.51045)
(1.52309 0.0292981 0 1.10577 0 1.50634)
(1.51989 0.0313372 0 1.08623 0 1.50215)
(1.51656 0.0333014 0 1.06803 0 1.49791)
(1.51303 0.0352058 0 1.05109 0 1.49361)
(1.50957 0.0371396 0 1.03534 0 1.4894)
(1.50956 0.00335036 0 1.4994 0 1.50954)
(1.51697 0.00627076 0 1.46775 0 1.51609)
(1.5259 0.00944905 0 1.41957 0 1.52246)
(1.53255 0.0131795 0 1.3689 0 1.52581)
(1.53614 0.0170062 0 1.32072 0 1.52608)
(1.53715 0.020738 0 1.27618 0 1.524)
(1.53623 0.0244259 0 1.23536 0 1.52023)
(1.5339 0.028103 0 1.19805 0 1.51529)
(1.53057 0.0317202 0 1.16396 0 1.50957)
(1.52656 0.0352423 0 1.13277 0 1.50338)
(1.5221 0.0386556 0 1.10418 0 1.49691)
(1.51738 0.0419526 0 1.0779 0 1.49032)
(1.51251 0.0451291 0 1.0537 0 1.48371)
(1.50759 0.0481875 0 1.03136 0 1.47716)
(1.50271 0.051133 0 1.0107 0 1.47073)
(1.49793 0.0539748 0 0.99155 0 1.46447)
(1.4935 0.0567041 0 0.97371 0 1.45849)
(1.48929 0.0591561 0 0.957166 0 1.4528)
(1.51072 0.00497974 0 1.49653 0 1.51053)
(1.52208 0.0113569 0 1.44804 0 1.51932)
(1.53421 0.0199506 0 1.37292 0 1.52522)
(1.541 0.0285999 0 1.29827 0 1.5251)
(1.54248 0.0362865 0 1.2308 0 1.52028)
(1.54007 0.0429116 0 1.17107 0 1.51238)
(1.53511 0.048813 0 1.11841 0 1.5026)
(1.52867 0.0542738 0 1.07196 0 1.49185)
(1.52134 0.0593332 0 1.03093 0 1.48069)
(1.51355 0.0640389 0 0.994511 0 1.46947)
(1.5056 0.0684415 0 0.962013 0 1.4584)
(1.49769 0.0725742 0 0.932872 0 1.44763)
(1.48991 0.0764577 0 0.906615 0 1.43722)
(1.48238 0.0801155 0 0.88286 0 1.42725)
(1.47509 0.0835517 0 0.861266 0 1.41769)
(1.46813 0.0867799 0 0.841592 0 1.40861)
(1.46107 0.0897477 0 0.823537 0 1.39972)
(1.45416 0.0925392 0 0.807292 0 1.39132)
(1.50986 0.00579429 0 1.49843 0 1.50915)
(1.52695 0.0254856 0 1.42426 0 1.51751)
(1.54206 0.045636 0 1.31346 0 1.51587)
(1.5457 0.0606056 0 1.21733 0 1.5043)
(1.54107 0.0722181 0 1.13749 0 1.48741)
(1.53138 0.0816311 0 1.07055 0 1.46798)
(1.51926 0.089858 0 1.0135 0 1.44779)
(1.50658 0.0974386 0 0.964475 0 1.42813)
(1.49385 0.104356 0 0.922031 0 1.40934)
(1.48142 0.110676 0 0.884956 0 1.3916)
(1.46952 0.116478 0 0.852313 0 1.37493)
(1.45828 0.12183 0 0.823373 0 1.35936)
(1.44768 0.126769 0 0.797529 0 1.34479)
(1.43782 0.13135 0 0.774349 0 1.33126)
(1.42859 0.135619 0 0.753375 0 1.31857)
(1.42002 0.139579 0 0.734473 0 1.30683)
(1.41226 0.143432 0 0.717036 0 1.29577)
(1.40594 0.146744 0 0.701853 0 1.28625)
(1.5189 0.0284589 0 1.47294 0 1.51483)
(1.5634 0.112018 0 1.26338 0 1.51871)
(1.58323 0.161047 0 1.03771 0 1.48715)
(1.57568 0.181987 0 0.887041 0 1.44364)
(1.55685 0.1926 0 0.784367 0 1.39974)
(1.53315 0.198894 0 0.711447 0 1.35826)
(1.51045 0.204131 0 0.657277 0 1.32169)
(1.49094 0.209215 0 0.615887 0 1.29073)
(1.47359 0.214012 0 0.582987 0 1.26373)
(1.45814 0.218476 0 0.556118 0 1.23992)
(1.44428 0.222578 0 0.533751 0 1.21869)
(1.43212 0.226379 0 0.514848 0 1.19984)
(1.42116 0.229872 0 0.498612 0 1.18277)
(1.41173 0.233111 0 0.484585 0 1.16761)
(1.40306 0.236112 0 0.47228 0 1.15365)
(1.39586 0.238877 0 0.461484 0 1.14133)
(1.38884 0.24151 0 0.451899 0 1.12969)
(1.38198 0.243721 0 0.443138 0 1.11888)
(1.59274 0.291964 0 1.39581 0 1.52093)
(1.91623 0.578694 0 0.96806 0 1.53309)
(2.06903 0.585624 0 0.732301 0 1.48899)
(2.10353 0.552948 0 0.628158 0 1.43529)
(2.09254 0.525579 0 0.573896 0 1.3857)
(2.06466 0.505435 0 0.540721 0 1.34255)
(2.03079 0.489936 0 0.517656 0 1.30525)
(1.99588 0.477394 0 0.50007 0 1.27291)
(1.96226 0.466869 0 0.48578 0 1.2446)
(1.93076 0.457769 0 0.47372 0 1.21956)
(1.90159 0.449746 0 0.463303 0 1.19721)
(1.87463 0.442577 0 0.454158 0 1.17712)
(1.84987 0.436124 0 0.446047 0 1.15899)
(1.82695 0.430268 0 0.438778 0 1.14248)
(1.806 0.424924 0 0.432226 0 1.1275)
(1.78637 0.420056 0 0.4263 0 1.11368)
(1.76865 0.415492 0 0.420848 0 1.10115)
(1.75155 0.411262 0 0.415977 0 1.08934)
(0.00862325 0.00300156 0 0.0243994 0 0.0233905)
(0.0225184 0.000123681 0 0.0383467 0 0.0517242)
(0.0398752 -0.00137932 0 0.0488047 0 0.0738689)
(0.0520734 -0.00376842 0 0.0505985 0 0.0854026)
(0.0624717 -0.00516086 0 0.0518912 0 0.0941054)
(0.0709192 -0.0063515 0 0.0516951 0 0.0999983)
(0.0786298 -0.0072087 0 0.0515523 0 0.104863)
(0.0853188 -0.00804447 0 0.0508893 0 0.108507)
(0.0915449 -0.00875432 0 0.0501905 0 0.111594)
(0.0971997 -0.00940851 0 0.0492314 0 0.114035)
(0.102509 -0.00994721 0 0.0482315 0 0.116105)
(0.107384 -0.0103942 0 0.0471296 0 0.117757)
(0.111901 -0.0107444 0 0.0460358 0 0.119106)
(0.115993 -0.0110247 0 0.0449203 0 0.120115)
(0.119687 -0.0112405 0 0.0438282 0 0.120828)
(0.122912 -0.0114055 0 0.0427452 0 0.121209)
(0.125691 -0.0115446 0 0.041713 0 0.121291)
(0.127938 -0.0117087 0 0.0407587 0 0.121099)
(0.130195 -0.0120183 0 0.0396094 0 0.120377)
(0.131288 -0.0123261 0 0.0389208 0 0.119799)
(0.132326 -0.0128127 0 0.038092 0 0.118895)
(0.133225 -0.0134954 0 0.0370645 0 0.117501)
(0.133903 -0.0143326 0 0.0359183 0 0.115678)
(0.134326 -0.0152158 0 0.0346436 0 0.113339)
(0.134317 -0.0159708 0 0.0332177 0 0.110385)
(0.131911 -0.0155966 0 0.0313849 0 0.105969)
(0.126312 -0.0143665 0 0.0291471 0 0.0996108)
(0.116948 -0.0126408 0 0.0265183 0 0.0909148)
(0.10262 -0.0105961 0 0.0234144 0 0.0790841)
(0.083308 -0.00835761 0 0.0197078 0 0.0641048)
(0.0652331 -0.00608244 0 0.0157101 0 0.0500872)
(0.0502882 -0.00373563 0 0.0118557 0 0.0383256)
(0.0403785 -0.00136784 0 0.00892592 0 0.0304496)
(0.0372547 0.000421986 0 0.00793973 0 0.0282246)
(0.0423205 0.00152108 0 0.0090537 0 0.0322221)
(0.0528108 0.00262677 0 0.0112727 0 0.0398777)
(0.0647707 0.00388546 0 0.0138332 0 0.0485437)
(0.0770304 0.00531462 0 0.016483 0 0.0574521)
(0.0894679 0.00682313 0 0.0191969 0 0.066536)
(0.102406 0.00834381 0 0.021979 0 0.0760078)
(0.116642 0.00982886 0 0.0248056 0 0.0863674)
(0.129616 0.011257 0 0.0274403 0 0.095822)
(0.141373 0.0126791 0 0.0299295 0 0.104386)
(0.152352 0.0141408 0 0.032302 0 0.112319)
(0.162708 0.0156352 0 0.034569 0 0.119731)
(0.172418 0.0170806 0 0.0367352 0 0.126665)
(0.181631 0.0184841 0 0.0388141 0 0.133218)
(0.190423 0.0198444 0 0.040813 0 0.139446)
(0.198848 0.0211626 0 0.0427376 0 0.14539)
(0.206934 0.0224409 0 0.0445913 0 0.151071)
(0.214727 0.0236838 0 0.0463834 0 0.156528)
(0.222261 0.0248951 0 0.0481213 0 0.161789)
(0.229565 0.0260792 0 0.0498129 0 0.16688)
(0.236667 0.0272398 0 0.0514653 0 0.171823)
(0.243592 0.0283805 0 0.0530852 0 0.17664)
(0.250359 0.029504 0 0.0546785 0 0.181348)
(0.256989 0.0306129 0 0.0562503 0 0.185962)
(0.263497 0.0317088 0 0.0578049 0 0.190497)
(0.269895 0.032793 0 0.0593456 0 0.194962)
(0.276196 0.0338662 0 0.0608751 0 0.199368)
(0.282409 0.0349289 0 0.0623951 0 0.20372)
(0.288541 0.0359812 0 0.063907 0 0.208024)
(0.294599 0.0370232 0 0.0654116 0 0.212285)
(0.300589 0.0380549 0 0.0669096 0 0.216506)
(0.306518 0.0390767 0 0.0684017 0 0.220693)
(0.312392 0.0400895 0 0.0698889 0 0.224849)
(0.318219 0.0410943 0 0.0713726 0 0.22898)
(0.324009 0.0420929 0 0.072855 0 0.233093)
(0.329771 0.0430873 0 0.0743385 0 0.237195)
(0.335518 0.04408 0 0.0758268 0 0.241296)
(0.341259 0.045073 0 0.077323 0 0.245405)
(0.347006 0.0460683 0 0.0788309 0 0.249531)
(0.352765 0.0470668 0 0.0803529 0 0.253681)
(0.358541 0.0480684 0 0.0818913 0 0.25786)
(0.364335 0.049072 0 0.0834463 0 0.26207)
(0.370144 0.0500754 0 0.0850173 0 0.266311)
(0.375963 0.0510757 0 0.086602 0 0.270579)
(0.381782 0.0520695 0 0.0881976 0 0.274868)
(0.387591 0.0530534 0 0.0898002 0 0.279171)
(0.393377 0.0540244 0 0.0914068 0 0.283479)
(0.399127 0.0549797 0 0.0930135 0 0.287785)
(0.404827 0.0559162 0 0.0946179 0 0.292079)
(0.410458 0.0568306 0 0.096217 0 0.296351)
(0.416005 0.0577188 0 0.0978089 0 0.300592)
(0.421446 0.0585755 0 0.0993909 0 0.304791)
(0.42676 0.0593936 0 0.100961 0 0.308936)
(0.431928 0.0601649 0 0.102518 0 0.313014)
(0.436925 0.0608826 0 0.104058 0 0.317012)
(0.441727 0.0615427 0 0.105581 0 0.320915)
(0.446314 0.0621416 0 0.107094 0 0.32471)
(0.450698 0.0626784 0 0.108609 0 0.328407)
(0.454932 0.0631851 0 0.110141 0 0.332042)
(0.45902 0.0636674 0 0.11169 0 0.335621)
(0.462959 0.0641104 0 0.113255 0 0.339138)
(0.466734 0.0645135 0 0.114828 0 0.342583)
(0.470324 0.0648694 0 0.116397 0 0.34594)
(0.473681 0.0651726 0 0.11795 0 0.349178)
(0.476739 0.0654166 0 0.119471 0 0.352256)
(0.479406 0.0655916 0 0.120943 0 0.355126)
(0.481577 0.0656768 0 0.122349 0 0.35774)
(0.483146 0.0656007 0 0.123674 0 0.360069)
(0.483967 0.0650724 0 0.124889 0 0.362092)
(0.484615 0.0644052 0 0.126089 0 0.364042)
(0.485014 0.0636222 0 0.12726 0 0.365879)
(0.485206 0.0627234 0 0.128404 0 0.36762)
(0.485186 0.0617027 0 0.129516 0 0.36926)
(0.48496 0.0605556 0 0.130591 0 0.370798)
(0.48452 0.0592728 0 0.131625 0 0.37223)
(0.483841 0.0578283 0 0.132615 0 0.373556)
(0.482946 0.0562168 0 0.133548 0 0.374772)
(0.482135 0.0546494 0 0.134344 0 0.375797)
(0.480966 0.0526774 0 0.135153 0 0.376809)
(0.479965 0.0510112 0 0.135777 0 0.377612)
(0.479098 0.049152 0 0.136464 0 0.378541)
(0.477897 0.0467425 0 0.137132 0 0.379501)
(0.476999 0.0449639 0 0.137555 0 0.380173)
(0.476035 0.0423623 0 0.138074 0 0.381128)
(0.475285 0.0404916 0 0.138348 0 0.381746)
(0.474559 0.0378003 0 0.138665 0 0.38266)
(0.474128 0.035401 0 0.138746 0 0.383395)
(0.473975 0.0329501 0 0.138738 0 0.384207)
(0.474166 0.0305208 0 0.138623 0 0.385091)
(0.474751 0.0281359 0 0.138407 0 0.38608)
(0.475771 0.025828 0 0.138096 0 0.387198)
(0.477264 0.0236312 0 0.137699 0 0.38847)
(0.479251 0.0215819 0 0.137228 0 0.389918)
(0.481754 0.0197171 0 0.136707 0 0.391571)
(0.484776 0.0180725 0 0.13616 0 0.393449)
(0.488316 0.0166831 0 0.135626 0 0.395575)
(0.492336 0.015585 0 0.135145 0 0.397953)
(0.496793 0.0148169 0 0.134773 0 0.400588)
(0.501633 0.0144254 0 0.134582 0 0.403473)
(0.506818 0.0144968 0 0.134667 0 0.406592)
(0.512263 0.0150952 0 0.135107 0 0.409943)
(0.518096 0.0161652 0 0.136014 0 0.413756)
(0.524752 0.0175686 0 0.137536 0 0.418456)
(0.532379 0.0192106 0 0.139777 0 0.424242)
(0.540977 0.0209846 0 0.142831 0 0.431211)
(0.550454 0.0227522 0 0.146781 0 0.439395)
(0.560615 0.024342 0 0.151705 0 0.448738)
(0.571123 0.025585 0 0.157661 0 0.459051)
(0.581446 0.0263814 0 0.164687 0 0.46995)
(0.590838 0.0267758 0 0.172789 0 0.480846)
(0.598358 0.0267043 0 0.181995 0 0.491141)
(0.603945 0.0257403 0 0.19247 0 0.500949)
(0.607869 0.023376 0 0.204221 0 0.510376)
(0.610179 0.019217 0 0.217133 0 0.519289)
(0.611037 0.0129206 0 0.230979 0 0.527516)
(0.610805 0.0042304 0 0.245377 0 0.534898)
(0.609988 -0.00696001 0 0.25976 0 0.541277)
(0.609315 -0.0206076 0 0.273427 0 0.546565)
(0.609336 -0.0362546 0 0.285273 0 0.550477)
(0.611468 -0.0536127 0 0.294764 0 0.553518)
(0.616761 -0.0735709 0 0.301467 0 0.555971)
(0.627563 -0.0949362 0 0.302361 0 0.558638)
(0.643908 -0.113149 0 0.293751 0 0.559847)
(0.655223 -0.12343 0 0.276697 0 0.554106)
(0.649187 -0.117706 0 0.239303 0 0.530428)
(0.60155 -0.0914254 0 0.186739 0 0.476717)
(0.522385 -0.0609055 0 0.140244 0 0.407673)
(0.43852 -0.0381206 0 0.10639 0 0.341689)
(0.410101 -0.0238038 0 0.0899108 0 0.313502)
(0.418189 -0.00813399 0 0.0874724 0 0.315812)