/*--------------------------------*- C++ -*----------------------------------*\
| =========                 |                                                 |
| \\      /  F ield         | OpenFOAM: The Open Source CFD Toolbox           |
|  \\    /   O peration     | Version:  v1906                                 |
|   \\  /    A nd           | Web:      www.OpenFOAM.com                      |
|    \\/     M anipulation  |                                                 |
\*---------------------------------------------------------------------------*/
FoamFile
{
    version     2.0;
    format      ascii;
    class       volVectorField;
    location    "1000";
    object      U;
}
// * * * * * * * * * * * * * * * * * * * * * * * * * * * * * * * * * * * * * //

dimensions      [0 1 -1 0 0 0 0];


internalField   nonuniform List<vector> 
12225
(
(9.79727 -0.108752 0)
(9.50673 -0.356761 0)
(9.26446 -0.488279 0)
(9.06612 -0.540834 0)
(8.90325 -0.559471 0)
(8.76227 -0.565156 0)
(8.63626 -0.565605 0)
(8.52315 -0.563595 0)
(8.42159 -0.560211 0)
(8.33015 -0.556024 0)
(8.24784 -0.551136 0)
(8.17254 -0.545557 0)
(8.10397 -0.539763 0)
(8.04188 -0.534022 0)
(7.98695 -0.528537 0)
(7.94028 -0.52469 0)
(7.90334 -0.517294 0)
(7.88209 -0.537592 0)
(10.0492 0.150439 0)
(10.0911 0.25974 0)
(10.0684 0.319235 0)
(10.0256 0.363309 0)
(9.9828 0.392917 0)
(9.94005 0.411556 0)
(9.89728 0.423499 0)
(9.85581 0.431295 0)
(9.81624 0.436136 0)
(9.77836 0.438881 0)
(9.74237 0.440126 0)
(9.70834 0.440316 0)
(9.67638 0.439511 0)
(9.64622 0.437966 0)
(9.61802 0.435197 0)
(9.59082 0.432417 0)
(9.5671 0.424769 0)
(9.54255 0.42046 0)
(10.0166 0.00775534 0)
(10.0499 -0.0105914 0)
(10.0415 -0.0528884 0)
(10.0183 -0.09308 0)
(9.9968 -0.127503 0)
(9.97718 -0.155891 0)
(9.95839 -0.178229 0)
(9.94073 -0.195636 0)
(9.9242 -0.209452 0)
(9.90862 -0.220682 0)
(9.8938 -0.229842 0)
(9.87999 -0.237404 0)
(9.86704 -0.243762 0)
(9.85537 -0.249569 0)
(9.8444 -0.254952 0)
(9.8349 -0.261304 0)
(9.82627 -0.267792 0)
(9.81075 -0.283565 0)
(10.0096 0.0582879 0)
(10.039 0.0976197 0)
(10.0507 0.114994 0)
(10.0512 0.134053 0)
(10.0494 0.152918 0)
(10.0455 0.169334 0)
(10.0397 0.18331 0)
(10.033 0.195078 0)
(10.026 0.20482 0)
(10.019 0.212838 0)
(10.0121 0.219486 0)
(10.0055 0.225007 0)
(9.99928 0.229486 0)
(9.99377 0.232914 0)
(9.98881 0.235304 0)
(9.98458 0.236298 0)
(9.98087 0.235862 0)
(9.97882 0.23259 0)
(10.0094 0.0199198 0)
(10.0407 0.0291035 0)
(10.0563 0.021956 0)
(10.0606 0.0108914 0)
(10.062 -0.0023256 0)
(10.0616 -0.0167674 0)
(10.0601 -0.030769 0)
(10.058 -0.0435684 0)
(10.0559 -0.0551451 0)
(10.0537 -0.0656158 0)
(10.0516 -0.0750872 0)
(10.0496 -0.0837209 0)
(10.0479 -0.091752 0)
(10.0464 -0.0995006 0)
(10.0453 -0.107208 0)
(10.0439 -0.115542 0)
(10.043 -0.124164 0)
(10.0362 -0.135866 0)
(10.0058 0.0332772 0)
(10.0287 0.061978 0)
(10.0451 0.0730577 0)
(10.0549 0.081111 0)
(10.0627 0.0886347 0)
(10.0686 0.0956519 0)
(10.0728 0.10249 0)
(10.076 0.109099 0)
(10.0785 0.115247 0)
(10.0806 0.120822 0)
(10.0823 0.125823 0)
(10.0839 0.130247 0)
(10.0855 0.134049 0)
(10.0871 0.137116 0)
(10.0888 0.139407 0)
(10.0905 0.140651 0)
(10.0919 0.140956 0)
(10.0949 0.140372 0)
(10.0046 0.01599 0)
(10.0242 0.0297247 0)
(10.0401 0.0319813 0)
(10.0499 0.0301195 0)
(10.0571 0.0257916 0)
(10.0625 0.0195965 0)
(10.0665 0.0125503 0)
(10.0697 0.00527351 0)
(10.0724 -0.00199618 0)
(10.0749 -0.00913882 0)
(10.0773 -0.0160875 0)
(10.0795 -0.0228576 0)
(10.0818 -0.0295315 0)
(10.084 -0.0362725 0)
(10.0861 -0.0431646 0)
(10.0877 -0.0505431 0)
(10.0889 -0.0580156 0)
(10.0865 -0.0670626 0)
(10.0032 0.020314 0)
(10.0185 0.0433102 0)
(10.0328 0.0542181 0)
(10.0436 0.0606592 0)
(10.053 0.0651863 0)
(10.0611 0.0687042 0)
(10.0679 0.0719293 0)
(10.0739 0.075105 0)
(10.0793 0.0781976 0)
(10.0843 0.0811431 0)
(10.089 0.0838927 0)
(10.0934 0.0863844 0)
(10.0976 0.0885461 0)
(10.1016 0.090273 0)
(10.1055 0.0915171 0)
(10.1093 0.0921694 0)
(10.1126 0.0922549 0)
(10.1172 0.0924266 0)
(10.0019 0.0115207 0)
(10.0136 0.0247307 0)
(10.0264 0.0300061 0)
(10.0365 0.031482 0)
(10.0452 0.03058 0)
(10.0524 0.0279757 0)
(10.0585 0.0243755 0)
(10.0637 0.0202034 0)
(10.0685 0.0156674 0)
(10.0728 0.0108943 0)
(10.0769 0.00596306 0)
(10.0807 0.000895115 0)
(10.0844 -0.00432441 0)
(10.0878 -0.00976086 0)
(10.091 -0.015421 0)
(10.0935 -0.0214295 0)
(10.0956 -0.0275091 0)
(10.0952 -0.0345694 0)
(10.0017 0.0127107 0)
(10.0117 0.0306552 0)
(10.0231 0.0408912 0)
(10.033 0.0470913 0)
(10.0422 0.0509905 0)
(10.0506 0.0535558 0)
(10.0581 0.0555048 0)
(10.0649 0.0571883 0)
(10.0713 0.0587289 0)
(10.0772 0.0601612 0)
(10.0828 0.0614825 0)
(10.0882 0.0626599 0)
(10.0933 0.0636515 0)
(10.0981 0.0643991 0)
(10.1027 0.0648856 0)
(10.107 0.0650984 0)
(10.1111 0.0650561 0)
(10.1159 0.0654892 0)
(10.0007 0.00801001 0)
(10.0076 0.0191085 0)
(10.0172 0.0248798 0)
(10.0262 0.0275451 0)
(10.0346 0.0280693 0)
(10.0422 0.0270856 0)
(10.0489 0.0251302 0)
(10.055 0.022527 0)
(10.0605 0.0194578 0)
(10.0657 0.016035 0)
(10.0705 0.0123278 0)
(10.075 0.0083675 0)
(10.0792 0.00416644 0)
(10.083 -0.000288187 0)
(10.0866 -0.00497652 0)
(10.0895 -0.00994325 0)
(10.0919 -0.0150077 0)
(10.0929 -0.0208027 0)
(10.0008 0.00815889 0)
(10.0074 0.0214194 0)
(10.0163 0.029944 0)
(10.0248 0.0354515 0)
(10.0333 0.0388765 0)
(10.0412 0.0409716 0)
(10.0485 0.0422988 0)
(10.0554 0.0431893 0)
(10.0618 0.0438183 0)
(10.0679 0.0442754 0)
(10.0736 0.0446019 0)
(10.0791 0.044806 0)
(10.0842 0.0448866 0)
(10.0891 0.0448297 0)
(10.0936 0.0446538 0)
(10.098 0.0443866 0)
(10.1019 0.0440633 0)
(10.1063 0.0443333 0)
(10.0002 0.00570658 0)
(10.0046 0.0145312 0)
(10.0119 0.0197175 0)
(10.0195 0.0225669 0)
(10.0272 0.0236 0)
(10.0345 0.023349 0)
(10.0413 0.022208 0)
(10.0476 0.0204341 0)
(10.0534 0.0181867 0)
(10.0589 0.0155653 0)
(10.064 0.0126323 0)
(10.0687 0.00942313 0)
(10.0731 0.00595989 0)
(10.0772 0.00225638 0)
(10.0809 -0.00167157 0)
(10.0841 -0.00582338 0)
(10.0869 -0.010131 0)
(10.0889 -0.0151034 0)
(10.0005 0.00535514 0)
(10.005 0.0150731 0)
(10.0118 0.0220532 0)
(10.019 0.0270423 0)
(10.0265 0.03042 0)
(10.0339 0.0326995 0)
(10.0409 0.0342722 0)
(10.0476 0.035405 0)
(10.054 0.0362685 0)
(10.0601 0.0369657 0)
(10.0658 0.0375576 0)
(10.0712 0.0380764 0)
(10.0763 0.0385459 0)
(10.0812 0.0389795 0)
(10.0857 0.0394122 0)
(10.0899 0.0398952 0)
(10.0938 0.0404286 0)
(10.0977 0.0416323 0)
(10.0001 0.00337302 0)
(10.0028 0.00888674 0)
(10.008 0.0122311 0)
(10.0142 0.0140224 0)
(10.0208 0.0144852 0)
(10.0274 0.0139424 0)
(10.0339 0.0126383 0)
(10.0401 0.0107436 0)
(10.0459 0.00837563 0)
(10.0514 0.00561208 0)
(10.0566 0.00250401 0)
(10.0615 -0.000912791 0)
(10.066 -0.00461661 0)
(10.0702 -0.00858437 0)
(10.074 -0.01281 0)
(10.0775 -0.0172866 0)
(10.0807 -0.0219471 0)
(10.0837 -0.0272377 0)
(10.0002 0.00299267 0)
(10.0031 0.00883189 0)
(10.008 0.013569 0)
(10.0138 0.01738 0)
(10.02 0.0203506 0)
(10.0263 0.0227 0)
(10.0326 0.0246297 0)
(10.0387 0.0262966 0)
(10.0445 0.0278183 0)
(10.05 0.0292768 0)
(10.0552 0.0307294 0)
(10.0601 0.0322138 0)
(10.0647 0.0337606 0)
(10.0689 0.0353903 0)
(10.0728 0.0371281 0)
(10.0763 0.0390114 0)
(10.0795 0.0409609 0)
(10.0821 0.0435147 0)
(10.0001 0.000971678 0)
(10.0022 0.00238161 0)
(10.0063 0.00279532 0)
(10.0115 0.00240471 0)
(10.0174 0.00127686 0)
(10.0236 -0.000478637 0)
(10.0298 -0.0027666 0)
(10.036 -0.00551924 0)
(10.0421 -0.00868615 0)
(10.048 -0.0122301 0)
(10.0536 -0.0161238 0)
(10.0589 -0.0203428 0)
(10.064 -0.0248669 0)
(10.0689 -0.0296664 0)
(10.0735 -0.0347176 0)
(10.0779 -0.039995 0)
(10.0819 -0.0453715 0)
(10.0861 -0.0512219 0)
(10 0.000930624 0)
(10.0016 0.00295986 0)
(10.0049 0.00506228 0)
(10.0091 0.00723331 0)
(10.0139 0.0094512 0)
(10.0188 0.0117397 0)
(10.0237 0.0141315 0)
(10.0284 0.0166566 0)
(10.0328 0.0193414 0)
(10.0369 0.0222064 0)
(10.0406 0.0252647 0)
(10.0439 0.0285237 0)
(10.0469 0.0319827 0)
(10.0494 0.035636 0)
(10.0516 0.0394581 0)
(10.0534 0.0434581 0)
(10.055 0.0474656 0)
(10.056 0.0519294 0)
(10.0003 -0.00194994 0)
(10.0031 -0.00599326 0)
(10.008 -0.0100049 0)
(10.0139 -0.0139644 0)
(10.0205 -0.017933 0)
(10.0276 -0.0219862 0)
(10.035 -0.026199 0)
(10.0425 -0.0306335 0)
(10.05 -0.0353326 0)
(10.0574 -0.0403218 0)
(10.0647 -0.0456129 0)
(10.0719 -0.0512061 0)
(10.079 -0.0570935 0)
(10.0858 -0.0632591 0)
(10.0924 -0.0696785 0)
(10.0987 -0.0763282 0)
(10.1046 -0.0831119 0)
(10.1103 -0.0901957 0)
(9.99985 -0.00213854 0)
(10.0009 -0.00546507 0)
(10.0038 -0.00740563 0)
(10.0075 -0.00824917 0)
(10.0115 -0.0081932 0)
(10.0155 -0.00739196 0)
(10.0192 -0.00598509 0)
(10.0225 -0.00408285 0)
(10.0254 -0.00176768 0)
(10.0277 0.000899513 0)
(10.0296 0.00387663 0)
(10.031 0.00713813 0)
(10.032 0.0106787 0)
(10.0325 0.0145047 0)
(10.0327 0.0186509 0)
(10.0325 0.0231518 0)
(10.0323 0.0280336 0)
(10.0316 0.03356 0)
(10.0006 -0.00473349 0)
(10.0049 -0.0137552 0)
(10.0115 -0.0210598 0)
(10.0187 -0.0269604 0)
(10.0263 -0.0318679 0)
(10.034 -0.0361387 0)
(10.0417 -0.0400767 0)
(10.0494 -0.0438909 0)
(10.0568 -0.0477018 0)
(10.0641 -0.0515714 0)
(10.0711 -0.0555277 0)
(10.0781 -0.0595824 0)
(10.0849 -0.0637463 0)
(10.0916 -0.0680379 0)
(10.0982 -0.072507 0)
(10.105 -0.0772271 0)
(10.1115 -0.0823069 0)
(10.1185 -0.0881014 0)
(9.99993 -0.00476926 0)
(10.0025 -0.0120274 0)
(10.0076 -0.0161334 0)
(10.013 -0.0180048 0)
(10.0181 -0.0181862 0)
(10.0226 -0.0170307 0)
(10.0264 -0.0148799 0)
(10.0296 -0.0120186 0)
(10.0321 -0.00865701 0)
(10.0341 -0.00495462 0)
(10.0356 -0.0010351 0)
(10.0367 0.00301097 0)
(10.0372 0.00712654 0)
(10.0373 0.0112879 0)
(10.0369 0.0155254 0)
(10.0356 0.0199278 0)
(10.0339 0.0246747 0)
(10.0307 0.0303183 0)
(10.0012 -0.00959406 0)
(10.0087 -0.0255012 0)
(10.0184 -0.0363093 0)
(10.0276 -0.0441025 0)
(10.0366 -0.0502879 0)
(10.0453 -0.0556191 0)
(10.0534 -0.0606057 0)
(10.0611 -0.0655178 0)
(10.0682 -0.0704302 0)
(10.075 -0.0753311 0)
(10.0814 -0.0801829 0)
(10.0875 -0.0849418 0)
(10.0933 -0.0895659 0)
(10.0992 -0.0940273 0)
(10.105 -0.0983312 0)
(10.1114 -0.102546 0)
(10.1182 -0.106869 0)
(10.1272 -0.111973 0)
(10.0009 -0.00811679 0)
(10.0083 -0.0182944 0)
(10.0178 -0.0220932 0)
(10.0252 -0.0221736 0)
(10.0309 -0.0197333 0)
(10.0352 -0.0153425 0)
(10.0383 -0.0096901 0)
(10.0406 -0.00336234 0)
(10.0423 0.00326825 0)
(10.0436 0.00995429 0)
(10.0446 0.0165165 0)
(10.0452 0.0228306 0)
(10.0455 0.0288117 0)
(10.0455 0.0343997 0)
(10.045 0.0395595 0)
(10.0434 0.0443053 0)
(10.0409 0.048795 0)
(10.0345 0.0538286 0)
(10.0027 -0.0199782 0)
(10.0162 -0.0449339 0)
(10.0301 -0.0585347 0)
(10.041 -0.0684237 0)
(10.0507 -0.0774181 0)
(10.0592 -0.0860514 0)
(10.0665 -0.0945848 0)
(10.0727 -0.103049 0)
(10.0781 -0.111268 0)
(10.0829 -0.119076 0)
(10.087 -0.126389 0)
(10.0908 -0.133167 0)
(10.0942 -0.139384 0)
(10.0974 -0.145018 0)
(10.1006 -0.15003 0)
(10.1043 -0.154381 0)
(10.1088 -0.158066 0)
(10.1181 -0.161646 0)
(10.0045 -0.0117481 0)
(10.0233 -0.0210332 0)
(10.037 -0.0181769 0)
(10.0429 -0.00995891 0)
(10.0455 0.00136755 0)
(10.0465 0.0146601 0)
(10.0464 0.0283944 0)
(10.0457 0.0415705 0)
(10.0449 0.0538089 0)
(10.0439 0.065001 0)
(10.0428 0.0751253 0)
(10.0416 0.0842091 0)
(10.0402 0.0923043 0)
(10.0388 0.0994596 0)
(10.0371 0.105687 0)
(10.0348 0.110949 0)
(10.0317 0.115173 0)
(10.0225 0.118841 0)
(10.0057 -0.0439102 0)
(10.0279 -0.0818376 0)
(10.0434 -0.101319 0)
(10.0509 -0.120716 0)
(10.0556 -0.140598 0)
(10.0583 -0.158958 0)
(10.0588 -0.175371 0)
(10.0579 -0.189852 0)
(10.0562 -0.202376 0)
(10.054 -0.21306 0)
(10.0515 -0.222135 0)
(10.0488 -0.229826 0)
(10.0459 -0.236317 0)
(10.043 -0.241763 0)
(10.04 -0.246254 0)
(10.0375 -0.249816 0)
(10.0354 -0.252271 0)
(10.0402 -0.253358 0)
(10.0127 -0.00410478 0)
(10.0433 0.00725753 0)
(10.0436 0.0412865 0)
(10.0289 0.0774253 0)
(10.0137 0.110635 0)
(10.0002 0.139398 0)
(9.98742 0.163028 0)
(9.97539 0.18196 0)
(9.96424 0.197142 0)
(9.95375 0.209407 0)
(9.94372 0.219338 0)
(9.93409 0.227364 0)
(9.9248 0.233816 0)
(9.91581 0.238946 0)
(9.90718 0.242916 0)
(9.89847 0.245829 0)
(9.89027 0.247568 0)
(9.87509 0.248362 0)
(10.0321 -0.126628 0)
(10.0676 -0.225606 0)
(10.0594 -0.280278 0)
(10.0339 -0.322923 0)
(10.008 -0.353537 0)
(9.98305 -0.374062 0)
(9.95827 -0.388027 0)
(9.93434 -0.397675 0)
(9.91171 -0.404203 0)
(9.89026 -0.408371 0)
(9.86975 -0.410742 0)
(9.8501 -0.411732 0)
(9.83124 -0.411631 0)
(9.81316 -0.410669 0)
(9.79576 -0.409003 0)
(9.77939 -0.406881 0)
(9.76367 -0.404242 0)
(9.75722 -0.400628 0)
(9.86116 0.0769186 0)
(9.6624 0.274087 0)
(9.48801 0.393141 0)
(9.34003 0.44772 0)
(9.2171 0.470332 0)
(9.10905 0.479018 0)
(9.00989 0.48127 0)
(8.91818 0.480265 0)
(8.8334 0.477516 0)
(8.75484 0.473742 0)
(8.6819 0.469283 0)
(8.61413 0.464317 0)
(8.55113 0.45895 0)
(8.49249 0.453263 0)
(8.4378 0.447247 0)
(8.38647 0.441069 0)
(8.33817 0.43381 0)
(8.28689 0.426212 0)
(-0.0481141 -0.102051 -3.27012e-19)
(0.0624423 -0.15593 1.86724e-19)
(0.124249 -0.190211 0)
(0.182567 -0.186211 0)
(0.236832 -0.17876 0)
(0.287166 -0.168179 -8.51639e-20)
(0.331667 -0.159969 0)
(0.372462 -0.151816 0)
(0.409191 -0.145216 0)
(0.442618 -0.139047 0)
(0.472608 -0.13378 6.40231e-20)
(0.499623 -0.128878 0)
(0.523783 -0.124474 0)
(0.545454 -0.120244 0)
(0.564756 -0.116223 0)
(0.58189 -0.112262 5.63806e-20)
(0.597211 -0.108387 0)
(0.610877 -0.104415 0)
(0.623563 -0.100186 0)
(0.635509 -0.0956727 0)
(0.646027 -0.0904533 0)
(0.654315 -0.0841725 0)
(0.659721 -0.0762441 0)
(0.658314 -0.0648441 5.27837e-20)
(0.648662 -0.0507867 -5.30576e-20)
(0.630109 -0.0355323 5.37689e-20)
(0.600937 -0.0193597 5.50185e-20)
(0.559639 -0.00228794 0)
(0.505961 0.0157834 0)
(0.437503 0.0347009 -6.45796e-20)
(0.352547 0.0519653 -7.16621e-20)
(0.255068 0.0651549 0)
(0.151796 0.0726013 0)
(0.0469437 0.0655303 -1.231e-19)
(-0.0491004 0.0424478 0)
(-0.128396 0.0280021 0)
(-0.203963 0.0206709 8.89357e-20)
(-0.277009 0.0156644 0)
(-0.347899 0.0110606 7.08354e-20)
(-0.416773 0.00653648 1.29596e-19)
(-0.482417 0.00247604 0)
(-0.545715 -0.0010077 0)
(-0.607469 -0.00430702 0)
(-0.667096 -0.00761543 0)
(-0.724667 -0.0109706 0)
(-0.780204 -0.014447 9.06427e-20)
(-0.833671 -0.0180409 8.68981e-20)
(-0.885066 -0.0217046 8.35808e-20)
(-0.934444 -0.0253836 0)
(-0.981891 -0.0290432 -7.79686e-20)
(-1.02752 -0.0326534 0)
(-1.07144 -0.0362032 7.33927e-20)
(-1.11379 -0.039685 7.14023e-20)
(-1.15467 -0.0431071 0)
(-1.19421 -0.0464785 0)
(-1.23249 -0.0498183 0)
(-1.26962 -0.0531421 6.48592e-20)
(-1.30565 -0.0564713 0)
(-1.34066 -0.0598224 0)
(-1.37469 -0.0632148 0)
(-1.4078 -0.0666618 0)
(-1.44002 -0.0701784 0)
(-1.47139 -0.0737749 0)
(-1.50195 -0.0774628 0)
(-1.53175 -0.0812498 0)
(-1.56082 -0.0851463 -5.496e-20)
(-1.5892 -0.0891594 0)
(-1.61694 -0.0933009 0)
(-1.64407 -0.0975794 5.24736e-20)
(-1.67061 -0.102009 5.16992e-20)
(-1.69656 -0.106601 0)
(-1.72193 -0.111369 -5.02175e-20)
(-1.74668 -0.116321 4.95065e-20)
(-1.77077 -0.12147 0)
(-1.79414 -0.126815 -4.81379e-20)
(-1.81671 -0.132357 0)
(-1.8384 -0.138083 0)
(-1.85913 -0.143981 4.62065e-20)
(-1.87881 -0.150025 0)
(-1.89736 -0.15619 -4.49927e-20)
(-1.9147 -0.162441 0)
(-1.93075 -0.168746 4.38325e-20)
(-1.94541 -0.175063 4.32715e-20)
(-1.95859 -0.181351 4.27228e-20)
(-1.97019 -0.187549 8.43728e-20)
(-1.9801 -0.19359 -8.33241e-20)
(-1.98824 -0.199376 0)
(-1.99454 -0.204769 0)
(-1.99895 -0.20958 0)
(-2.00141 -0.213633 -7.93559e-20)
(-2.0021 -0.216906 -7.83613e-20)
(-2.00161 -0.219707 7.73677e-20)
(-1.99981 -0.222164 0)
(-1.99671 -0.224346 -7.53452e-20)
(-1.99229 -0.226376 -7.43113e-20)
(-1.98656 -0.228342 -7.32558e-20)
(-1.97947 -0.230276 0)
(-1.97101 -0.232198 0)
(-1.96112 -0.234122 0)
(-1.94978 -0.236067 -6.8789e-20)
(-1.93696 -0.238067 0)
(-1.92261 -0.24018 0)
(-1.9067 -0.242399 6.51403e-20)
(-1.88913 -0.244684 0)
(-1.86989 -0.247047 0)
(-1.84896 -0.249488 6.10856e-20)
(-1.82632 -0.252008 0)
(-1.80195 -0.254605 0)
(-1.77589 -0.257283 -5.65429e-20)
(-1.74816 -0.260063 -5.49089e-20)
(-1.71884 -0.26292 0)
(-1.68793 -0.265829 5.14477e-20)
(-1.65556 -0.268873 0)
(-1.6219 -0.272 -4.77169e-20)
(-1.58703 -0.275143 0)
(-1.55114 -0.278405 -4.37041e-20)
(-1.51457 -0.281682 -4.15912e-20)
(-1.47745 -0.284967 0)
(-1.44023 -0.288291 0)
(-1.40318 -0.29156 0)
(-1.36669 -0.294768 0)
(-1.33117 -0.297881 0)
(-1.29705 -0.300871 0)
(-1.2648 -0.303708 0)
(-1.23488 -0.306372 -2.24597e-20)
(-1.20774 -0.308837 1.99097e-20)
(-1.18377 -0.311083 0)
(-1.16333 -0.313076 0)
(-1.14669 -0.314773 0)
(-1.13408 -0.316096 0)
(-1.12559 -0.316964 1.54336e-20)
(-1.12111 -0.317321 0)
(-1.1205 -0.317231 -6.79754e-21)
(-1.12419 -0.31743 2.78091e-21)
(-1.13286 -0.319237 0)
(-1.146 -0.323229 0)
(-1.16263 -0.329667 0)
(-1.18141 -0.338613 1.13332e-20)
(-1.20068 -0.349889 1.46126e-20)
(-1.21851 -0.362987 0)
(-1.23274 -0.376967 2.15742e-20)
(-1.24112 -0.390654 2.56003e-20)
(-1.24102 -0.402804 -3.02285e-20)
(-1.23258 -0.415028 0)
(-1.21281 -0.427903 0)
(-1.17916 -0.442445 -5.0972e-20)
(-1.12909 -0.459009 0)
(-1.06002 -0.477717 0)
(-0.96968 -0.498522 0)
(-0.856333 -0.521308 0)
(-0.71887 -0.545925 1.35682e-19)
(-0.557349 -0.572176 1.68279e-19)
(-0.372952 -0.600026 0)
(-0.172169 -0.627344 2.66898e-19)
(0.0424206 -0.627292 0)
(0.267616 -0.59916 0)
(0.476396 -0.569455 2.49505e-19)
(0.631935 -0.503285 0)
(0.624667 -0.331054 2.57004e-19)
(0.418563 -0.154777 0)
(0.0604501 -0.0686719 0)
(-0.262865 -0.0790889 2.90048e-19)
(-0.510853 -0.135169 0)
(-0.698329 -0.207192 2.49466e-19)
(-0.830257 -0.284005 0)
(-0.900329 -0.355355 0)
(-0.890317 -0.410026 0)
(-0.815237 -0.466497 -2.73083e-19)
(-0.667969 -0.53246 0)
(-0.454933 -0.603058 3.7108e-19)
(-0.1922 -0.671189 0)
(0.113599 -0.702737 0)
(0.438932 -0.681592 0)
(0.771307 -0.656092 0)
(1.09079 -0.632275 0)
(1.38355 -0.607645 0)
(1.65131 -0.583074 0)
(1.87405 -0.558731 -6.50543e-19)
(2.07838 -0.533216 0)
(2.16344 -0.519256 0)
(-0.0814369 -0.140172 5.37652e-19)
(0.0978038 -0.128471 -2.36545e-19)
(0.0856235 -0.138424 0)
(0.115928 -0.10015 7.40235e-20)
(0.126672 -0.0947663 0)
(0.151672 -0.07135 2.85185e-20)
(0.169675 -0.0632512 -5.34056e-20)
(0.193189 -0.0480168 -5.04467e-20)
(0.211805 -0.0392296 0)
(0.230544 -0.0271003 -4.60517e-20)
(0.245545 -0.0182012 -2.19742e-20)
(0.25898 -0.00836582 0)
(0.269941 -0.000768742 0)
(0.279611 0.00682636 0)
(0.287613 0.012928 0)
(0.294492 0.0184732 -1.92555e-20)
(0.3004 0.0220069 0)
(0.306455 0.0238782 3.76302e-20)
(0.312868 0.0239661 0)
(0.319783 0.024166 0)
(0.325914 0.0254924 -3.66444e-20)
(0.331173 0.0294829 0)
(0.333349 0.0389051 3.62311e-20)
(0.331995 0.0518865 -1.78996e-20)
(0.322344 0.0679481 1.77615e-20)
(0.303169 0.0874692 -1.76295e-20)
(0.273397 0.110846 -1.74672e-20)
(0.231629 0.137647 0)
(0.176496 0.167374 0)
(0.108628 0.199886 1.68923e-20)
(0.0303441 0.230128 -1.71743e-20)
(-0.0553123 0.247302 0)
(-0.14088 0.247012 0)
(-0.225498 0.234244 1.55939e-20)
(-0.311901 0.219605 0)
(-0.399347 0.209025 0)
(-0.483582 0.200978 -1.49025e-20)
(-0.562411 0.193985 0)
(-0.635097 0.187351 1.48716e-20)
(-0.701569 0.180828 -2.90955e-20)
(-0.761882 0.17456 0)
(-0.816111 0.168625 0)
(-0.864364 0.162901 -5.82178e-20)
(-0.907021 0.157328 -5.8047e-20)
(-0.944603 0.151979 -5.78274e-20)
(-0.977678 0.146907 2.89706e-20)
(-1.00684 0.142174 -2.84447e-20)
(-1.03267 0.137829 -8.52062e-20)
(-1.05569 0.13391 5.65694e-20)
(-1.07633 0.130427 2.79344e-20)
(-1.09501 0.127378 0)
(-1.11201 0.124737 -2.75785e-20)
(-1.12761 0.122478 2.77211e-20)
(-1.142 0.120561 0)
(-1.15532 0.118954 0)
(-1.16769 0.117619 0)
(-1.17919 0.116528 -2.67787e-20)
(-1.18987 0.115656 0)
(-1.19978 0.114989 5.33178e-20)
(-1.20895 0.114515 0)
(-1.2174 0.114233 5.28279e-20)
(-1.22517 0.114144 0)
(-1.23229 0.114258 -5.23774e-20)
(-1.23877 0.11458 0)
(-1.24467 0.115123 5.19521e-20)
(-1.25003 0.115892 -2.60272e-20)
(-1.25488 0.116893 0)
(-1.25928 0.118118 -5.13309e-20)
(-1.26327 0.119559 -2.53994e-20)
(-1.2669 0.121194 -2.52896e-20)
(-1.27019 0.122998 0)
(-1.27318 0.124938 -2.53975e-20)
(-1.27588 0.126989 -2.49357e-20)
(-1.2783 0.129117 0)
(-1.28045 0.131309 2.46702e-20)
(-1.28233 0.133546 -4.94165e-20)
(-1.28397 0.135827 0)
(-1.28538 0.138141 -2.42104e-20)
(-1.28664 0.140484 0)
(-1.2878 0.142831 7.19517e-20)
(-1.28897 0.145161 0)
(-1.29026 0.147433 -7.07531e-20)
(-1.29183 0.149608 -2.32272e-20)
(-1.29383 0.151637 2.34167e-20)
(-1.29639 0.153481 4.63571e-20)
(-1.29965 0.155087 -4.58585e-20)
(-1.30371 0.156401 0)
(-1.30863 0.157374 0)
(-1.3144 0.157987 0)
(-1.32094 0.158261 1.2921e-19)
(-1.32795 0.158256 4.21638e-20)
(-1.33465 0.157992 -4.15713e-20)
(-1.34097 0.157291 0)
(-1.34677 0.156081 -4.14271e-20)
(-1.35175 0.15454 3.969e-20)
(-1.35572 0.152793 3.90222e-20)
(-1.3585 0.150917 0)
(-1.35998 0.148956 0)
(-1.36004 0.146936 0)
(-1.35858 0.144868 3.61862e-20)
(-1.3555 0.142763 0)
(-1.35071 0.140628 -7.07794e-20)
(-1.34409 0.138478 -1.03151e-19)
(-1.33555 0.136329 6.76561e-20)
(-1.32503 0.134201 0)
(-1.31243 0.132114 3.29278e-20)
(-1.29771 0.130089 0)
(-1.28078 0.128156 6.06268e-20)
(-1.26162 0.126343 -3.02103e-20)
(-1.24018 0.124685 -2.92395e-20)
(-1.21642 0.123198 0)
(-1.19035 0.121927 -7.79111e-20)
(-1.16201 0.120927 5.03907e-20)
(-1.1314 0.120237 2.31188e-20)
(-1.09861 0.119918 0)
(-1.06377 0.120032 2.0785e-20)
(-1.02696 0.120604 6.07942e-20)
(-0.988401 0.121697 0)
(-0.948277 0.123328 3.63673e-20)
(-0.906857 0.125553 3.39085e-20)
(-0.864458 0.128387 3.14342e-20)
(-0.821459 0.131856 0)
(-0.778323 0.135952 0)
(-0.73559 0.140687 0)
(-0.693883 0.146031 -1.18536e-20)
(-0.653891 0.151966 -8.53853e-21)
(-0.616385 0.158396 0)
(-0.582195 0.165224 -1.45757e-20)
(-0.552222 0.172271 -1.2385e-20)
(-0.52737 0.179381 0)
(-0.508472 0.18632 -6.33835e-21)
(-0.496206 0.192844 -1.28331e-20)
(-0.491287 0.198617 2.73464e-21)
(-0.493073 0.204064 4.87762e-21)
(-0.500289 0.210039 0)
(-0.51275 0.216426 0)
(-0.530449 0.222955 0)
(-0.553332 0.229269 -4.81098e-21)
(-0.581204 0.234849 2.16321e-21)
(-0.613622 0.239015 1.11298e-20)
(-0.649809 0.240956 -9.19796e-21)
(-0.688443 0.239887 6.35294e-21)
(-0.726985 0.235129 1.28924e-20)
(-0.760864 0.226566 0)
(-0.787227 0.212925 0)
(-0.801236 0.195796 -1.50497e-20)
(-0.798707 0.17597 0)
(-0.776237 0.153835 0)
(-0.731202 0.129877 6.19274e-20)
(-0.661884 0.104698 0)
(-0.567585 0.0789017 3.83424e-20)
(-0.449023 0.0530864 -5.51677e-20)
(-0.309446 0.0285709 0)
(-0.153237 0.00860165 6.06723e-20)
(0.00869761 0.00229636 0)
(0.153117 0.0170727 0)
(0.246584 0.0591932 -7.96079e-20)
(0.283281 0.124963 1.5562e-19)
(0.289804 0.189883 -8.03545e-20)
(0.258865 0.251449 0)
(0.214462 0.269445 0)
(0.177317 0.25506 7.57977e-20)
(0.124237 0.242872 0)
(0.0385078 0.24324 8.29684e-20)
(-0.0782066 0.246202 0)
(-0.20506 0.236464 0)
(-0.309775 0.200141 0)
(-0.342119 0.146051 9.82486e-20)
(-0.2823 0.0903153 0)
(-0.136884 0.0407407 -1.1629e-19)
(0.0775205 0.00152701 0)
(0.337902 -0.0219944 0)
(0.620558 -0.0284235 2.49528e-19)
(0.905599 -0.0176047 -2.54897e-19)
(1.18395 0.00315165 0)
(1.44372 0.0294104 0)
(1.68555 0.0565901 0)
(1.89558 0.0883563 8.42477e-19)
(2.09066 0.12549 0)
(2.23675 0.190929 -5.9331e-19)
(-0.176946 -0.238915 3.82414e-22)
(0.0913144 -0.180977 2.52847e-19)
(-0.0161935 -0.20782 0)
(0.0531311 -0.176918 -1.03352e-19)
(0.0189043 -0.196838 0)
(0.0569019 -0.182278 0)
(0.0541339 -0.188004 -1.40922e-22)
(0.0834766 -0.171428 3.08871e-20)
(0.0943531 -0.164117 2.91431e-20)
(0.11743 -0.147394 2.75837e-20)
(0.128725 -0.136369 0)
(0.143246 -0.122818 0)
(0.151165 -0.113973 -2.45622e-20)
(0.159578 -0.104068 -4.76087e-20)
(0.163093 -0.0964577 4.62996e-20)
(0.163313 -0.0886337 0)
(0.156813 -0.0842077 4.44053e-20)
(0.147545 -0.0810509 -2.17885e-20)
(0.135906 -0.0786336 0)
(0.12289 -0.0732602 4.26949e-20)
(0.107413 -0.0644112 2.10998e-20)
(0.089533 -0.0510214 -4.19589e-20)
(0.0684108 -0.0298301 -2.07719e-20)
(0.043581 0.00518228 0)
(0.0129468 0.0492794 4.08595e-20)
(-0.0241737 0.0972155 4.01495e-20)
(-0.068655 0.148704 0)
(-0.120062 0.204302 3.82133e-20)
(-0.177639 0.261238 0)
(-0.238112 0.313073 3.63615e-20)
(-0.296889 0.350937 1.75607e-20)
(-0.352284 0.369038 0)
(-0.405594 0.369535 0)
(-0.459264 0.358107 0)
(-0.513715 0.340024 0)
(-0.566715 0.319172 0)
(-0.616072 0.297003 0)
(-0.661021 0.274173 3.34384e-20)
(-0.701292 0.251142 -4.98484e-20)
(-0.737083 0.22841 0)
(-0.768742 0.206451 0)
(-0.796696 0.185615 0)
(-0.821474 0.166128 -2.68907e-22)
(-0.84368 0.148171 3.29103e-20)
(-0.86387 0.131855 6.59102e-20)
(-0.88254 0.117196 -6.5703e-20)
(-0.900113 0.104145 -3.28172e-20)
(-0.916934 0.0925984 3.24934e-20)
(-0.933271 0.0824165 1.61281e-22)
(-0.949328 0.0734361 3.2328e-20)
(-0.965261 0.0654893 0)
(-0.981182 0.0584097 3.19723e-20)
(-0.997176 0.0520443 1.38979e-22)
(-1.0133 0.0462521 0)
(-1.02961 0.0409128 0)
(-1.04614 0.0359219 -3.12828e-20)
(-1.0629 0.031196 0)
(-1.07993 0.0266668 0)
(-1.09725 0.0222843 3.09468e-20)
(-1.11485 0.0180109 6.13192e-20)
(-1.13275 0.0138231 -3.03718e-20)
(-1.15096 0.00970481 0)
(-1.16945 0.00564932 3.00769e-20)
(-1.18823 0.00165208 0)
(-1.20728 -0.00228766 3.0082e-20)
(-1.22656 -0.00617405 2.96338e-20)
(-1.24605 -0.0100124 -5.9279e-20)
(-1.2657 -0.0138166 -2.96496e-20)
(-1.28546 -0.0176046 0)
(-1.30529 -0.0214053 5.83673e-20)
(-1.32512 -0.0252495 0)
(-1.34493 -0.0291751 8.64139e-20)
(-1.36464 -0.0332135 5.73889e-20)
(-1.38422 -0.0373947 5.70424e-20)
(-1.40361 -0.0417312 -5.66836e-20)
(-1.42276 -0.0462257 8.42815e-20)
(-1.44163 -0.0508567 0)
(-1.46016 -0.0555906 0)
(-1.47828 -0.0603716 -5.51035e-20)
(-1.49595 -0.0651375 -8.18051e-20)
(-1.51309 -0.0698156 0)
(-1.52964 -0.0743424 2.66703e-20)
(-1.54555 -0.0786627 0)
(-1.56073 -0.0827447 -7.89314e-20)
(-1.57513 -0.0865731 4.23796e-22)
(-1.58871 -0.0901555 -4.29986e-22)
(-1.60143 -0.0935135 5.11751e-20)
(-1.61326 -0.0966949 0)
(-1.62412 -0.099786 -5.00655e-20)
(-1.6339 -0.102877 4.66185e-22)
(-1.64253 -0.105973 0)
(-1.64989 -0.108981 0)
(-1.65592 -0.111813 0)
(-1.66052 -0.114424 4.66437e-20)
(-1.66371 -0.116885 0)
(-1.66554 -0.119389 0)
(-1.66604 -0.121964 0)
(-1.66518 -0.124619 0)
(-1.66291 -0.127365 0)
(-1.6592 -0.130216 4.28709e-20)
(-1.65398 -0.133192 0)
(-1.64722 -0.136303 4.06272e-20)
(-1.63887 -0.139543 3.97264e-20)
(-1.62889 -0.142902 -3.87873e-20)
(-1.61725 -0.146368 0)
(-1.60391 -0.14993 -3.67804e-20)
(-1.58884 -0.153572 0)
(-1.57204 -0.157277 -3.45968e-20)
(-1.55349 -0.161025 3.3441e-20)
(-1.53319 -0.164798 9.80395e-20)
(-1.51118 -0.168571 0)
(-1.4875 -0.172313 9.05635e-20)
(-1.46218 -0.175988 2.97906e-20)
(-1.43531 -0.179561 0)
(-1.40696 -0.182983 5.28561e-20)
(-1.37724 -0.186215 5.00876e-20)
(-1.34627 -0.189198 -7.02163e-20)
(-1.3142 -0.191874 0)
(-1.2812 -0.194171 -2.00797e-20)
(-1.24748 -0.196004 -1.86416e-20)
(-1.21327 -0.197282 -5.30333e-20)
(-1.17881 -0.197912 0)
(-1.14443 -0.197802 0)
(-1.11046 -0.196863 0)
(-1.07726 -0.195013 -1.30495e-20)
(-1.04525 -0.192171 0)
(-1.01485 -0.188278 0)
(-0.986526 -0.183281 7.82767e-21)
(-0.960768 -0.177166 6.65657e-21)
(-0.938098 -0.169936 0)
(-0.919008 -0.161653 0)
(-0.903961 -0.152452 6.9538e-21)
(-0.893487 -0.142652 0)
(-0.888082 -0.132754 -3.24402e-21)
(-0.888291 -0.123745 -3.10611e-21)
(-0.89414 -0.115964 0)
(-0.905368 -0.109646 0)
(-0.921403 -0.104995 -1.4121e-21)
(-0.941341 -0.102233 -1.74736e-21)
(-0.963907 -0.101564 -1.81553e-21)
(-0.987384 -0.103196 0)
(-1.00964 -0.10735 -1.71612e-20)
(-1.02811 -0.1142 0)
(-1.03961 -0.123592 0)
(-1.04113 -0.135397 0)
(-1.03061 -0.151536 2.02258e-20)
(-1.00535 -0.172113 0)
(-0.962837 -0.196457 -5.16334e-20)
(-0.901186 -0.223499 -3.36038e-20)
(-0.819536 -0.251801 0)
(-0.718481 -0.279576 -4.54192e-20)
(-0.60041 -0.304821 0)
(-0.470174 -0.32483 0)
(-0.334345 -0.335902 -1.88355e-19)
(-0.200964 -0.332843 1.34853e-19)
(-0.0775955 -0.305121 0)
(0.0250897 -0.237339 1.50608e-19)
(0.0992927 -0.117641 -7.86314e-20)
(0.164709 0.0254039 0)
(0.233803 0.123306 0)
(0.278693 0.147244 0)
(0.259537 0.129069 -2.50911e-19)
(0.164394 0.10703 0)
(0.0124153 0.0853413 -9.12639e-20)
(-0.158044 0.0503323 0)
(-0.301575 -0.00787462 0)
(-0.380202 -0.0872473 0)
(-0.370683 -0.176141 0)
(-0.274764 -0.267511 0)
(-0.105703 -0.346178 0)
(0.117607 -0.404119 -2.35698e-19)
(0.371265 -0.439191 0)
(0.637371 -0.453106 -1.30259e-19)
(0.903492 -0.44869 4.02782e-19)
(1.16412 -0.433062 0)
(1.40932 -0.409493 0)
(1.63984 -0.382872 -3.003e-19)
(1.8433 -0.350812 -3.15481e-19)
(2.0347 -0.314641 3.22747e-19)
(2.18964 -0.266383 3.43747e-19)
(-0.218855 -0.246881 -8.19208e-19)
(0.0983972 -0.171045 -3.40164e-19)
(-0.0457297 -0.186478 -1.22311e-19)
(0.0392083 -0.147556 -4.39985e-20)
(-0.0245595 -0.156601 0)
(0.0135422 -0.143843 6.00753e-20)
(-0.0223215 -0.152016 -2.68164e-20)
(1.91357e-05 -0.141522 0)
(-0.0156537 -0.135226 -2.28325e-20)
(0.000757821 -0.111992 0)
(-0.00725296 -0.0931549 4.14691e-20)
(0.00122445 -0.0708035 0)
(-0.00564431 -0.0544422 1.91394e-20)
(-0.00138877 -0.0355133 3.70894e-20)
(-0.0066643 -0.0153531 -3.60352e-20)
(-0.0091886 0.0104604 0)
(-0.0230319 0.0304736 -3.42976e-20)
(-0.0404324 0.0416459 0)
(-0.0655257 0.0475371 0)
(-0.0931593 0.0541852 -3.21438e-20)
(-0.125541 0.0628657 0)
(-0.160828 0.0761913 -1.22566e-22)
(-0.200849 0.0964861 0)
(-0.242857 0.125497 0)
(-0.285382 0.162945 1.4246e-22)
(-0.328082 0.207418 -2.86207e-20)
(-0.371028 0.257003 -2.82431e-20)
(-0.412331 0.308195 -2.75372e-20)
(-0.449322 0.355386 0)
(-0.479531 0.392758 -5.35017e-20)
(-0.502534 0.416555 0)
(-0.520609 0.426168 -2.62883e-20)
(-0.536752 0.423836 0)
(-0.552682 0.412279 0)
(-0.569011 0.394188 2.57527e-20)
(-0.585513 0.372112 0)
(-0.601896 0.348022 -2.55191e-20)
(-0.618056 0.323465 3.40357e-22)
(-0.634119 0.299492 5.03462e-20)
(-0.650294 0.276808 -5.04984e-20)
(-0.66677 0.255884 0)
(-0.683679 0.23698 0)
(-0.701096 0.220186 -2.52353e-20)
(-0.719039 0.205469 0)
(-0.737474 0.192709 -2.45896e-20)
(-0.756331 0.181735 2.44974e-20)
(-0.775529 0.17236 2.43985e-20)
(-0.794981 0.164389 0)
(-0.814614 0.157635 -2.41856e-20)
(-0.834365 0.151926 -2.40747e-20)
(-0.854192 0.147104 4.8264e-20)
(-0.874067 0.143031 -2.38508e-20)
(-0.893975 0.139586 -2.374e-20)
(-0.913914 0.136664 0)
(-0.933887 0.134178 0)
(-0.953902 0.132053 2.34207e-20)
(-0.973969 0.130231 0)
(-0.994096 0.128664 0)
(-1.01429 0.127318 -4.62495e-20)
(-1.03455 0.126167 -4.60608e-20)
(-1.05487 0.125192 0)
(-1.07525 0.124382 0)
(-1.09566 0.123727 0)
(-1.11608 0.123223 0)
(-1.13648 0.122862 -4.51454e-20)