# vtk DataFile Version 2.0
track0
ASCII
DATASET POLYDATA
POINTS 11245 double
-0.0205 0.001 1e-05
-0.0204991 0.00100536 1e-05
-0.0204976 0.00101063 1e-05
-0.0204947 0.00101518 1e-05
-0.0204905 0.00101864 1e-05
-0.0204746 0.00102682 1e-05
-0.0201831 0.00105563 1e-05
-0.0203616 0.00128791 1e-05
-0.0204489 0.00141936 1e-05
-0.0201625 0.00144439 1e-05
-0.0201519 0.00173163 1e-05
-0.0202219 0.00184007 1e-05
-0.0200495 0.00193025 1e-05
-0.0200808 0.00212222 1e-05
-0.0201295 0.00229098 1e-05
-0.0200088 0.00238763 1e-05
-0.0199911 0.00254124 1e-05
-0.0200041 0.00269531 1e-05
-0.0199827 0.00277425 1e-05
-0.019869 0.00287784 1e-05
-0.0198179 0.00302292 1e-05
-0.0198054 0.00317624 1e-05
-0.01976 0.00329221 1e-05
-0.0196347 0.00340323 1e-05
-0.0195486 0.00354672 1e-05
-0.0194776 0.0036983 1e-05
-0.019391 0.00384149 1e-05
-0.0193841 0.00384734 1e-05
-0.0193107 0.00390807 1e-05
-0.0192439 0.00397591 1e-05
-0.019179 0.00404572 1e-05
-0.0191113 0.00411266 1e-05
-0.0190172 0.00419782 1e-05
-0.0189564 0.00424672 1e-05
-0.0188939 0.00429333 1e-05
-0.0188297 0.00433763 1e-05
-0.018764 0.00437961 1e-05
-0.0186585 0.00444232 1e-05
-0.0184263 0.00456527 1e-05
-0.0181851 0.00466953 1e-05
-0.017937 0.00475576 1e-05
-0.0176828 0.00482213 1e-05
-0.0174976 0.00485371 1e-05
-0.0172058 0.00488447 1e-05
-0.0169124 0.00488624 1e-05
-0.0166199 0.00486392 1e-05
-0.0163297 0.00482075 1e-05
-0.0160387 0.00475667 1e-05
-0.015829 0.0046938 1e-05
-0.015623 0.00461981 1e-05
-0.0154212 0.00453507 1e-05
-0.0152223 0.00444384 1e-05
-0.0152192 0.00444232 1e-05
-0.015103 0.00438406 1e-05
-0.0149896 0.00432054 1e-05
-0.0148793 0.00425171 1e-05
-0.0147713 0.00417927 1e-05
-0.0146381 0.00408403 1e-05
-0.0145772 0.00403669 1e-05
-0.0145172 0.00398825 1e-05
-0.0144581 0.00393871 1e-05
-0.0144 0.00388804 1e-05
-0.014354 0.00384734 1e-05
-0.01423 0.00373631 1e-05
-0.0141126 0.00361838 1e-05
-0.0140026 0.0034934 1e-05
-0.0138986 0.00336343 1e-05
-0.0138442 0.00329221 1e-05
-0.0137671 0.00318862 1e-05
-0.0136975 0.00307984 1e-05
-0.0136343 0.00296726 1e-05
-0.0135749 0.00285262 1e-05
-0.0135377 0.00277425 1e-05
-0.0134947 0.0026776 1e-05
-0.0134589 0.00257807 1e-05
-0.013427 0.00247718 1e-05
-0.0133997 0.00237498 1e-05
-0.0133818 0.00229098 1e-05
-0.0133668 0.0022008 1e-05
-0.0133578 0.00210982 1e-05
-0.0133541 0.00201847 1e-05
-0.0133565 0.00192708 1e-05
-0.0133651 0.00184007 1e-05
-0.0133799 0.00175593 1e-05
-0.0134024 0.00167352 1e-05
-0.0134319 0.00159331 1e-05
-0.0134683 0.00151602 1e-05
-0.013525 0.00141936 1e-05
-0.0135825 0.00134085 1e-05
-0.0136509 0.00127164 1e-05
-0.0137252 0.00120868 1e-05
-0.0138039 0.00115148 1e-05
-0.013998 0.00102682 1e-05
-0.014126 0.000957784 1e-05
-0.0142607 0.00090293 1e-05
-0.0143986 0.000856842 1e-05
-0.0145373 0.00081278 1e-05
-0.0146381 0.000782406 1e-05
-0.0147223 0.000758038 1e-05
-0.0148069 0.000735026 1e-05
-0.0148918 0.00071316 1e-05
-0.0149772 0.000693317 1e-05
-0.0151518 0.000660566 1e-05
-0.0153292 0.000638084 1e-05
-0.015507 0.000618987 1e-05
-0.015685 0.000602527 1e-05
-0.0158632 0.000588048 1e-05
-0.0160387 0.000568421 1e-05
-0.0162841 0.000518505 1e-05
-0.0165333 0.000493814 1e-05
-0.0167834 0.000482818 1e-05
-0.0170338 0.000475947 1e-05
-0.0174976 0.0004059 1e-05
-0.0174976 0.0004059 1e-05
-0.0174976 0.0004059 1e-05
-0.0174976 0.0004059 1e-05
-0.0174976 0.0004059 1e-05
-0.0174976 0.0004059 1e-05
-0.0174951 0.000388488 1e-05
-0.0174897 0.000371757 1e-05
-0.017482 0.000355938 1e-05
-0.0174726 0.000341058 1e-05
-0.0174557 0.000318841 1e-05
-0.0173838 0.000255072 1e-05
-0.0172967 0.000214401 1e-05
-0.0172047 0.000186607 1e-05
-0.0171106 0.000167065 1e-05
-0.0160387 4.45345e-06 1e-05
-0.0160288 3.56276e-06 1e-05
-0.0160188 3.10745e-06 1e-05
-0.0160089 2.69396e-06 1e-05
-0.0159989 2.28047e-06 1e-05
-0.015944 0 1e-05
-0.0205 0.00367778 1e-05
-0.0203955 0.00371169 1e-05
-0.0203045 0.0037732 1e-05
-0.020217 0.00383977 1e-05
-0.0201979 0.00384734 1e-05
-0.0199618 0.00393431 1e-05
-0.019766 0.00409241 1e-05
-0.0196201 0.00429748 1e-05
-0.0194752 0.00444232 1e-05
-0.0193836 0.00449614 1e-05
-0.0192963 0.00455663 1e-05
-0.0192132 0.00462285 1e-05
-0.0191277 0.00468596 1e-05
-0.0190172 0.00476144 1e-05
-0.0189141 0.00482516 1e-05
-0.0188083 0.00488434 1e-05
-0.0187002 0.00493907 1e-05
-0.01859 0.00498946 1e-05
-0.0183687 0.00508 1e-05
-0.0181944 0.00513505 1e-05
-0.0180182 0.00518313 1e-05
-0.0178402 0.00522441 1e-05
-0.0176607 0.00525874 1e-05
-0.0174976 0.00528177 1e-05
-0.0172058 0.00530973 1e-05
-0.0169127 0.00531462 1e-05
-0.0166201 0.00529767 1e-05
-0.0163293 0.00526052 1e-05
-0.0160387 0.00520558 1e-05
-0.0159401 0.00518046 1e-05
-0.015842 0.00515334 1e-05
-0.0157445 0.0051243 1e-05
-0.0156473 0.00509403 1e-05
-0.0156042 0.00508 1e-05
-0.015411 0.00501584 1e-05
-0.0152211 0.00494225 1e-05
-0.0150354 0.00485887 1e-05
-0.014854 0.00476647 1e-05
-0.0146381 0.00464679 1e-05
-0.0145718 0.00460589 1e-05
-0.014506 0.00456411 1e-05
-0.0144408 0.00452143 1e-05
-0.0143762 0.00447796 1e-05
-0.0143237 0.00444232 1e-05
-0.0141503 0.00432332 1e-05
-0.0139835 0.00419531 1e-05
-0.0138244 0.00405778 1e-05
-0.0136699 0.00391504 1e-05
-0.0135996 0.00384734 1e-05
-0.0135383 0.00378726 1e-05
-0.0134792 0.0037251 1e-05
-0.0134216 0.00366154 1e-05
-0.0133649 0.00359718 1e-05
-0.0132934 0.00351367 1e-05
-0.013257 0.00346938 1e-05
-0.013221 0.00342472 1e-05
-0.0131855 0.00337969 1e-05
-0.0131505 0.00333429 1e-05
-0.0131186 0.00329221 1e-05
-0.0130406 0.00318862 1e-05
-0.0129645 0.0030836 1e-05
-0.0128913 0.00297658 1e-05
-0.0128213 0.00286744 1e-05
-0.0127641 0.00277425 1e-05
-0.0127065 0.0026776 1e-05
-0.0126503 0.00258012 1e-05
-0.0125957 0.00248176 1e-05
-0.0125426 0.0023826 1e-05
-0.0124959 0.00229098 1e-05
-0.0124524 0.0022008 1e-05
-0.0124092 0.00211048 1e-05
-0.0123663 0.00202003 1e-05
-0.0123237 0.00192946 1e-05
-0.0122829 0.00184007 1e-05
-0.0122482 0.00175593 1e-05
-0.0122119 0.00167241 1e-05
-0.0121745 0.00158945 1e-05
-0.0121355 0.00150716 1e-05
-0.0120917 0.00141936 1e-05
-0.0120739 0.00138454 1e-05
-0.0120546 0.00135051 1e-05
-0.012034 0.00131723 1e-05
-0.0120121 0.0012848 1e-05
-0.0120025 0.00127177 1e-05
-0.0119651 0.00122278 1e-05
-0.0119246 0.00117628 1e-05
-0.011881 0.00113259 1e-05
-0.0118346 0.00109201 1e-05
-0.0117486 0.00102682 1e-05
-0.0116345 0.000953567 1e-05
-0.0115125 0.000894501 1e-05
-0.0113859 0.000846171 1e-05
-0.0112563 0.000806292 1e-05
-0.0107632 0.000716218 1e-05
-0.0105252 0.000725785 1e-05
-0.0102871 0.000723165 1e-05
-0.0100489 0.000721874 1e-05
-0.00981077 0.0007214 1e-05
-0.00957337 0.000721444 1e-05
-0.00934491 0.000731044 1e-05
-0.00911627 0.000727779 1e-05
-0.00888763 0.000725551 1e-05
-0.00865897 0.000724034 1e-05
-0.00843108 0.000723017 1e-05
-0.00821175 0.000732109 1e-05
-0.00799227 0.00072813 1e-05
-0.00777277 0.000725151 1e-05
-0.00755326 0.000722893 1e-05
-0.00733443 0.000721164 1e-05
-0.00712387 0.000729612 1e-05
-0.00691317 0.000725482 1e-05
-0.00670246 0.00072227 1e-05
-0.00649174 0.000719738 1e-05
-0.0062816 0.000717719 1e-05
-0.00607944 0.000725472 1e-05
-0.00587718 0.000721597 1e-05
-0.0056749 0.000718513 1e-05
-0.00547261 0.00071603 1e-05
-0.00527083 0.00071401 1e-05
-0.00507675 0.000721089 1e-05
-0.00488258 0.000717616 1e-05
-0.00468839 0.000714813 1e-05
-0.0044942 0.000712527 1e-05
-0.00430044 0.000710648 1e-05
-0.00411412 0.000717134 1e-05
-0.00392771 0.000714119 1e-05
-0.00374129 0.000711661 1e-05
-0.00355486 0.000709644 1e-05
-0.00336883 0.000707978 1e-05
-0.00318995 0.000714001 1e-05
-0.00301099 0.000711435 1e-05
-0.00283202 0.000709369 1e-05
-0.00265305 0.000707703 1e-05
-0.00247443 0.000706362 1e-05
-0.0023027 0.000712211 1e-05
-0.00213088 0.000710308 1e-05
-0.00195905 0.000708928 1e-05
-0.00178722 0.000707974 1e-05
-0.00161577 0.000707368 1e-05
-0.0014509 0.000713806 1e-05
-0.00128591 0.000713127 1e-05
-0.00112091 0.000713125 1e-05
-0.000955915 0.000713685 1e-05
-0.000791418 0.00071471 1e-05
-0.000633135 0.000723357 1e-05
-0.000474619 0.000724519 1e-05
-0.000316112 0.000726462 1e-05
-0.000157613 0.000729061 1e-05
0 0.000732195 1e-05
0.000105677 0.000740615 1e-05
0.000211656 0.000743309 1e-05
0.000317642 0.000745645 1e-05
0.000423625 0.000748139 1e-05
0.000528387 0.000751655 1e-05
0.000634886 0.000761268 1e-05
0.000741748 0.000765143 1e-05
0.000848666 0.000766912 1e-05
0.000955587 0.000768419 1e-05
0.00106088 0.000771779 1e-05
0.00116821 0.000780632 1e-05
0.00127585 0.000784047 1e-05
0.00138354 0.000784382 1e-05
0.00149123 0.000784388 1e-05
0.00159752 0.000786846 1e-05
0.00170568 0.000794254 1e-05
0.00181406 0.000796796 1e-05
0.00192248 0.000796086 1e-05
0.00203089 0.00079502 1e-05
0.00213833 0.000796404 1e-05
0.00224733 0.000802063 1e-05
0.00235646 0.000803711 1e-05
0.00246561 0.000802566 1e-05
0.00257475 0.000801032 1e-05
0.00268334 0.000801416 1e-05
0.00279319 0.000805156 1e-05
0.0029031 0.00080587 1e-05
0.003013 0.000804543 1e-05
0.0031229 0.000802809 1e-05
0.00323259 0.000802224 1e-05
0.00334329 0.00080396 1e-05
0.00345401 0.00080356 1e-05
0.00356471 0.00080183 1e-05
0.00367541 0.00079969 1e-05
0.00378611 0.000797964 1e-05
0.00389767 0.000797601 1e-05
0.00400922 0.000795798 1e-05
0.00412076 0.000793185 1e-05
0.00423228 0.000790147 1e-05
0.00434393 0.000786959 1e-05
0.00445636 0.000784344 1e-05
0.00456877 0.000780787 1e-05
0.00468116 0.000776685 1e-05
0.00479353 0.000772103 1e-05
0.00490609 0.000767023 1e-05
0.0050194 0.000761877 1e-05
0.00513267 0.000756117 1e-05
0.00524592 0.000749793 1e-05
0.00535913 0.000742893 1e-05
0.00547262 0.000735379 1e-05
0.00555476 0.00072954 1e-05
0.00563687 0.000723415 1e-05
0.00571896 0.000716941 1e-05
0.00580102 0.000710112 1e-05
0.00584888 0.000705915 1e-05
0.00588781 0.000702395 1e-05
0.00592674 0.000698789 1e-05
0.00596566 0.000695096 1e-05
0.00600457 0.000691313 1e-05
0.00604356 0.000687433 1e-05
0.00615863 0.000675696 1e-05
0.00627361 0.000663076 1e-05
0.0063885 0.000649589 1e-05
0.00650327 0.000635195 1e-05
0.00661893 0.000619725 1e-05
0.0067349 0.000603596 1e-05
0.00685066 0.000586044 1e-05
0.00696621 0.000567104 1e-05
[...]
POINT_DATA 11245
 FIELD attributes 2
p 1 11245 float
139.799 155.037 159.386 161.987 162.702 160.566 149.757 787.38 766.11 603.159 672.479 312.045 297.807 274.095 -33.1758 27.5585 120.113 -20.3086 -131.528 -40.5749 131.806 -13.6339 -154.61 -88.2187 -29.3088 -54.9274 -196.412 -203.058 -184.936 -180.004 -195.905 -213.558 -239.382 -256.902 -275.564 -295.324 -294.934 -268.602 -314.284 -361.753 -374.695 -376.592 -382.664 -386.224 -389.507 -393.561 -376.303 -354.261 -337.665 -323.005 -301.783 -281.88 -281.594 -268.981 -257.365 -242.904 -227.857 -209.644 -201.816 -194.206 -186.824 -186.183 -186.716 -152.735 -120.907 -111.405 -119.707 -124.644 -89.7062 -65.76 -57.4962 -56.5056 -66.2939 -37.1135 -29.7771 -22.7058 -15.9447 -19.2222 -4.36579 1.24942 6.47201 11.2344 8.0118 18.9961 21.4006 23.2385 24.4671 0.428239 22.9536 22.3335 18.9365 5.87074 -73.0451 -69.8434 -81.3611 -121.744 -162.226 -191.599 -213.866 -236.172 -262.511 -297.162 -365.398 -420.903 -476.95 -533.404 -596.933 -666.411 -779.988 -892.563 -1006.54 -1149.69 -1416.59 -1416.59 -1416.59 -1416.59 -1416.59 -1416.59 -1415.02 -1411.76 -1407.21 -1401.68 -1395.17 -1346.23 -1294.43 -1242.55 -1191.16 -688.484 -683.924 -679.945 -676.491 -673.038 -653.991
123.698 123.592 98.8907 20.8059 9.52355 1.23874 47.1875 -20.4782 -120.015 -116.217 -109.74 -123.597 -138.471 -158.456 -176.227 -195.219 -215.352 -211.833 -204.617 -224.077 -244.251 -262.874 -269.26 -276.799 -283.273 -294.675 -291.127 -281.224 -273.054 -269.279 -265.442 -258.307 -251.338 -248.31 -235.847 -224.853 -213.207 -195.595 -175.249 -169.001 -162.882 -157.8 -156.575 -155.632 -125.504 -95.126 -83.6071 -86.3444 -88.0198 -70.402 -59.3833 -54.4471 -49.5621 -43.372 -40.3604 -37.3732 -34.4116 -32.5079 -32.7924 -18.5866 -9.88054 -1.3253 0.197592 -1.11098 14.3575 29.8717 36.2226 33.9166 31.6792 47.142 58.4732 62.5979 64.5373 61.3843 75.3901 78.009 80.6102 83.1895 82.7921 86.5558 86.7025 86.8367 86.9574 87.0014 87.4896 87.9695 88.4386 88.8944 85.3784 86.351 86.7285 86.5971 81.2396 61.736 57.4719 51.4532 45.5048 39.5995 32.525 29.4204 25.0646 20.7545 16.4757 11.4078 10.5036 7.84198 5.22907 2.65126 -1.15207 -0.89097 -2.6154 -4.29369 -5.93777 -8.99312 -8.22809 -9.37805 -10.4895 -11.5716 -14.0316 -12.9447 -13.6509 -14.3258 -14.9765 -16.9482 -15.6334 -16.0379 -16.4168 -16.7757 -18.4383 -17.0167 -17.2 -17.3614 -17.5053 -18.9109 -17.3597 -17.4408 -17.4989 -17.5382 -18.9375 -17.2847 -17.2747 -17.2355 -17.1719 -18.6363 -16.3426 -16.2902 -16.1993 -16.0762 -18.3043 -15.2005 -14.4995 -14.0226 -13.9783 -16.3626 -13.5422 -12.1506 -11.4577 -11.7085 -13.5378 -11.7823 -10.8248 -10.7638 -11.6067 -13.2255 -12.4116 -12.0227 -12.3773 -13.3462 -14.6755 -14.3532 -14.2862 -14.7115 -15.5219 -16.5383 -16.5088 -16.6744 -17.1617 -17.866 -18.7093 -18.8915 -19.2639 -19.8571 -20.5506 -21.3442 -21.6462 -22.1505 -22.7852 -23.4571 -24.211 -24.5054 -25.0099 -25.5595 -26.1167 -26.7815 -27.0082 -27.3881 -27.7772 -28.1757 -28.6555 -28.7749 -28.9434 -29.1175 -29.297 -29.4051 -29.506 -29.6086 -29.7127 -29.8185 -29.8262 -30.0371 -30.2398 -30.4552 -30.6745 -30.5224 -30.7542 -30.9901 -31.222 -31.101 -30.9791 -31.2585 -31.502 -31.4586 -31.4124 -31.3419 -31.5008 -31.5517 -31.553 -31.5543 -31.5555 -31.5264 -31.4973 -31.468 -31.3692 -31.1811 -31.1927 -31.2041 -31.1329 -30.8587 -30.5915 -30.7266 -30.6288 -30.4131 -30.2061 -29.9992 -30.0134 -30.0076 -29.9967 -29.986 -29.975 -29.8168 -29.6682 -29.5286 -29.3764 -28.9878 -29.0092 -29.018 -28.9833 -28.8138 -28.6472 -28.8404 -29.052 -29.2374 -29.3512 -29.4699 -29.9106 -30.3662 -30.8323 -31.2825 -31.6556 -32.3456 -33.0368 -33.7359 -34.4427 -35.0393 -35.8999 -36.7562 -37.6177 -38.4844 -39.2775 -40.2418 -41.2069 -42.1748 -43.1454 -44.0808 -45.1016 -46.1227 -47.1448 -48.1679 -49.1847 -49.4769 -49.769 -50.061 -50.3531 -50.687 -51.4073 -52.1278 -52.8482 -53.5688 -54.2938 -55.2751 -56.2452 -57.2153 -58.1856 -59.1617 -60.0784 -60.9678 -61.8578 -62.7484 -63.6442 -64.4836 -65.2802 -66.0782 -66.8778 -67.6819 -68.4407 -69.1429 -69.8477 -70.5554 -71.2674 -71.9396 -72.5488 -73.1623 -73.7799 -74.4072 -74.9913 -75.5116 -76.0374 -76.5688 -77.1114 -77.6033 -78.0487 -78.489 -78.9334 -79.3813 -79.7818 -80.1735 -80.5255 -80.8626 -81.2051 -81.5261 -81.8554 -82.1293 -82.3456 -82.5683 -82.809 -83.0415 -83.2114 -83.3325 -83.4093 -83.5418 -83.5768 -83.6116 -83.6519 -83.6549 -83.653 -83.6187 -83.5849 -83.5515 -83.5204 -83.4462 -83.3754 -83.308 -83.244 -83.1281 -82.9829 -82.7351 -82.4963 -82.2037 -81.8497 -81.5844 -81.3265 -80.9325 -80.4137 -79.9077 -79.502 -79.0471 -78.5321 -78.0327 -77.4648 -77.2948 -77.088 -76.8736 -76.6616 -76.4755 -76.0795 -75.6924 -75.3141 -74.9222 -74.4426 -73.8183 -73.1845 -72.4978 -71.6778 -70.8632 -70.1368 -69.3461 -68.4976 -67.6724 -66.9909 -66.9638 -66.9366 -66.9095 -66.8783 -66.843 -65.9025 -64.9808 -64.0839 -63.1018 -62.0314 -61.0529 -60.073 -59.0364 -58.0231 -56.997 -56.9962 -56.9954 -56.9946 -56.9938 -56.9929 -55.8979 -54.826 -53.7772 -52.6819 -51.5342 -50.6729 -49.8203 -48.9497 -48.0924 -47.3561 -47.0732 -46.7918 -46.5118 -46.2089 -45.8984 -44.6667 -43.4695 -42.3141 -41.1387 -39.9202 -39.4972 -39.077 -38.6574 -38.2403 -37.8452 -37.0055 -36.1742 -35.3513 -34.5001 -33.6215 -32.4752 -31.3447 -30.2219 -29.1133 -28.1321 -27.9303 -27.729 -27.5281 -27.3174 -27.1048 -25.6993 -24.3441 -23.026 -21.7167 -20.3388 -19.9666 -19.5957 -19.2322 -18.8708 -18.5207 -17.4985 -16.4834 -15.4752 -14.4621 -13.406 -12.4803 -11.5611 -10.6619 -9.77039 -8.93619 -8.44317 -7.95154 -7.46072 -6.96242 -6.45313 -5.06917 -3.69587 -2.34105 -0.999024 0.412241 0.447087 0.481926 0.516074 0.550043 0.583938 1.92636 3.2621 4.58895 5.88866 7.27087 7.72772 8.18368 8.62484 9.06223 9.48985 10.3821 11.2723 12.1441 12.9695 13.8296 14.4907 15.1507 15.7704 16.3702 16.9539 17.5899 18.2253 18.8372 19.4086 19.9958 20.7138 21.4308 22.1055 22.7513 23.3821 23.863 24.3438 24.8033 25.2353 25.6749 26.372 27.0685 27.7269 28.3524 28.9678 29.3714 29.775 30.1528 30.503 30.8557 31.4863 32.1168 32.7025 33.2433 33.7813 34.1272 34.473 34.7925 35.0862 35.3779 35.905 36.4322 36.9172 37.359 37.8051 38.0882 38.3712 38.6267 38.8531 39.0735 39.509 39.944 40.3352 40.6878 41.052 41.2379 41.4235 41.5958 41.7485 41.8946 42.2678 42.6392 42.9615 43.2541 43.5688 43.6423 43.7156 43.7841 43.8375 43.8889 44.204 44.5137 44.762 44.9615 45.1213 45.1559 45.1901 45.2127 45.235 45.258 45.3788 45.4942 45.6039 45.6418 45.6667 45.7443 45.8012 45.8081 45.8093 45.8019 45.8026 45.8025 45.8017 45.8008 45.7999 45.7794 45.7536 45.7226 45.6845 45.6435 45.5905 45.5328 45.4701 45.406 45.3425 45.2707 45.193 45.1119 45.028 44.9454 44.9349 44.9236 44.9122 44.9007 44.8888 44.8081 44.7258 44.6417 44.5558 44.4339 44.346 44.2443 44.1373 44.0019 43.8522 43.7533 43.6537 43.532 43.3845 43.2366 43.1329 43.0267 42.8972 42.7649 42.6312 42.5357 42.427 42.3122 42.1964 42.0815 41.9989 41.9043 41.8083 41.7109 41.6121 41.5533 41.4917 41.4289 41.3648 41.2364 41.2216 41.2069 41.1919 41.1767 41.061 41.061 41.061 41.061 41.061 41.061 41.0457 41.0303 41.0147 40.999 40.9834 40.9629 40.9407 40.9165 40.8904 40.8643 40.8654 40.8694 40.8714 40.8716 40.8854 40.9213 40.9539 40.9843 41.0184 41.0549 41.1357 41.2145 41.2756 41.317 41.3588 41.473 41.5636 41.637 41.709 41.7615 41.7913 41.8096 41.8252 41.8408 41.8556 41.9103 41.9643 42.0176 42.0604 42.0678 42.1691 42.2675 42.2949 42.2577 42.218 42.282 42.2821 42.2333 42.1832 42.1396 42.1371 42.1345 42.132 42.123 42.108 42.0285 41.9256 41.8226 41.6124 41.3522 41.2027 41.0223 40.742 40.4623 40.1596 40.1218 40.0746 40.0179 39.9611 39.9044 39.6384 39.3713 39.1033 38.7887 38.4179 38.0379 37.6482 37.1239 36.5789 36.0483 35.9985 35.9486 35.891 35.8281 35.7603 35.1237 34.484 33.7998 32.9994 32.612 32.0496 31.4385 30.745 30.0609 29.4028 28.9986 28.5087 28.0213 27.5365 26.8167 26.6848 26.553 26.4215 26.29 26.1377 25.477 24.806 24.136 23.4669 22.6835 22.0802 21.4076 20.728 19.9804 19.1466 18.5437 17.938 17.228 16.396 15.5511 14.952 14.3463 13.6031 12.7999 11.9568 11.3458 10.6359 9.91484 9.18699 8.49903 8.48676 8.47449 8.46221 8.44976 8.4361 7.78855 7.13186 6.46827 5.78893 5.00394 4.48314 3.95568 3.33392 2.63042 1.90265 1.41793 0.881623 0.285484 -0.316693 -0.983298 -1.10605 -1.24611 -1.39105 -1.53631 -1.67613 -2.10705 -2.54079 -2.97732 -3.43994 -3.99379 -4.45597 -4.93408 -5.50684 -6.17598 -6.8702 -7.30517 -7.78578 -8.31862 -8.85633 -9.44649 -9.51865 -9.60221 -9.69023 -9.7784 -9.86494 -10.2658 -10.6698 -11.0768 -11.4986 -11.9659 -12.3618 -12.7623 -13.2227 -13.7337 -14.2679 -14.6253 -15.0321 -15.464 -15.9003 -16.3009 -16.3174 -16.3338 -16.3503 -16.3675 -16.3861 -16.796 -17.2148 -17.638 -18.085 -18.5895 -18.9522 -19.3194 -19.7246 -20.1769 -20.6571 -20.882 -21.1139 -21.3527 -21.5931 -21.8247 -22.0377 -22.2519 -22.4672 -22.6838 -22.9072 -23.3304 -23.7617 -24.2182 -24.6831 -25.1833 -25.4507 -25.719 -25.986 -26.2558 -26.5149 -26.7095 -26.9053 -27.1024 -27.2906 -27.4827 -27.9333 -28.3928 -28.8442 -29.2922 -29.7883 -29.921 -30.054 -30.1749 -30.2967 -30.4164 -30.7575 -31.1044 -31.4572 -31.7696 -32.1123 -32.4414 -32.7768 -33.0796 -33.3838 -33.6771 -33.8419 -34.0083 -34.1707 -34.3123 -34.4619 -34.8928 -35.3364 -35.7416 -36.1394 -36.5211 -36.6036 -36.6865 -36.7636 -36.8319 -36.9024 -37.3578 -37.829 -38.2726 -38.6927 -39.0987 -39.1933 -39.2886 -39.3728 -39.4504 -39.5316 -39.9397 -40.3611 -40.7719 -41.1418 -41.504 -41.7102 -41.92 -42.0944 -42.2641 -42.4543 -42.7241 -42.9996 -43.2779 -43.5079 -43.7365 -44.1519 -44.5794 -44.9164 -45.2697 -45.7073 -45.7126 -45.7176 -45.7212 -45.7249 -45.7286 -46.0709 -46.4277 -46.7988 -47.1201 -47.4194 -47.7265 -48.0253 -48.2798 -48.5489 -48.8081 -48.8542 -48.8933 -48.9279 -48.963 -49.0009 -49.1825 -49.3724 -49.5705 -49.7565 -49.9134 -50.1126 -50.3242 -50.4972 -50.6354 -50.7821 -50.9375 -51.0791 -51.1995 -51.3313 -51.4232 -51.4931 -51.5367 -51.5862 -51.6414 -51.733 -51.7534 -51.7742 -51.7952 -51.8164 -51.8304 -51.8636 -51.8939 -51.932 -51.978 -51.9909 -52.0152 -51.9853 -51.9625 -51.9465 -51.8843 -51.8721 -51.7923 -51.7109 -51.628 -51.5127 -51.4462 -51.3158 -51.1772 -51.0399 -50.8732 -50.7538 -50.5564 -50.3625 -50.1741 -49.9627 -49.7649 -49.5127 -49.2657 -49.0238 -48.7791 -48.6881 -48.5804 -48.4733 -48.3667 -48.2822 -48.0946 -47.9094 -47.7269 -47.5468 -47.3339 -47.0052 -46.6748 -46.3498 -46.0096 -45.6211 -45.2533 -44.8905 -44.5115 -44.084 -43.6581 -43.2534 -42.835 -42.3748 -41.9188 -41.4612 -41.2626 -41.0436 -40.8199 -40.5969 -40.4007 -40.1327 -39.866 -39.6006 -39.3288 -39.0333 -38.5136 -38.0016 -37.4958 -36.9462 -36.3938 -35.8565 -35.305 -34.7324 -34.1631 -33.5918 -33.5567 -33.5206 -33.4833 -33.446 -33.4092 -32.8623 -32.3181 -31.7769 -31.218 -30.6391 -30.0427 -29.4451 -28.8241 -28.2059 -27.5844 -27.5372 -27.4896 -27.4408 -27.3921 -27.3439 -26.7665 -26.1914 -25.6185 -25.0357 -24.4427 -23.9515 -23.4613 -22.9682 -22.4766 -22.0363 -21.8842 -21.7322 -21.5803 -21.4268 -21.2727 -20.6312 -19.9921 -19.3619 -18.7369 -18.102 -17.9523 -17.8026 -17.6555 -17.5087 -17.3657 -16.8815 -16.3983 -15.9174 -15.4477 -14.972 -14.6154 -14.2594 -13.9148 -13.5728 -13.2498 -12.9796 -12.7096 -12.4421 -12.1828 -11.9215 -11.4336 -10.9465 -10.4779 -10.0155 -9.58435 -9.45994 -9.33558 -9.21332 -9.09585 -8.97797 -8.41806 -7.85916 -7.32589 -6.8044 -6.31872 -6.28748 -6.25624 -6.22577 -6.19658 -6.16736 -5.61479 -5.06302 -4.53316 -4.02589 -3.51137 -3.49263 -3.47389 -3.45604 -3.43883 -3.42165 -2.92235 -2.42342 -1.9439 -1.48946 -1.02962 -0.990905 -0.952193 -0.915396 -0.880236 -0.845197 -0.402689 0.0396098 0.462016 0.862709 1.26708 1.30808 1.34908 1.38811 1.42521 1.4622 1.86543 2.26854 2.64961 3.00959 3.37198 3.40516 3.43835 3.46975 3.49925 3.52871 3.88528 4.24181 4.57466 4.88452 5.19009 5.21185 5.23362 5.25381 5.27316 5.29252 5.59394 5.89533 6.18485 6.45184 6.71742 6.78105 6.84468 6.90386 6.96042 7.01697 7.25529 7.49361 7.72232 7.93476 8.1474 8.23685 8.3263 8.40973 8.48905 8.56833 8.76082 8.95331 9.13622 9.30505 9.47491 9.57528 9.67566 9.76948 9.85804 9.94646 10.1051 10.2637 10.4141 10.5542 10.6959 10.7944 10.8929 10.9857 11.0729 11.1599 11.2991 11.4383 11.5692 11.6917 11.8158 11.9027 11.9896 12.0718 12.1486 12.2251 12.3543 12.4834 12.6046 12.719 12.8355 12.903 12.9705 13.0349 13.0946 13.1542 13.2824 13.4106 13.5298 13.643 13.7589 13.8019 13.8449 13.8862 13.9243 13.9623 14.0945 14.2267 14.3488 14.4658 14.5867 14.6022 14.6177 14.6327 14.6464 14.6601 14.788 14.9159 15.0354 15.1468 15.2569 15.2685 15.2801 15.2905 15.3006 15.3107 15.406 15.5013 15.5942 15.6774 15.7596 15.7952 15.8308 15.863 15.8945 15.9266 15.9803 16.034 16.0869 16.1344 16.1816 16.2401 16.2986 16.3517 16.4041 16.4587 16.4762 16.4937 16.5109 16.5264 16.5419 16.6084 16.6749 16.7367 16.7943 16.851 16.8607 16.8705 16.8789 16.8873 16.8958 16.9411 16.9862 17.0309 17.069 17.1064 17.1359 17.1653 17.1904 17.2155 17.2421 17.2566 17.2711 17.2855 17.2977 17.3097 17.3451 17.3802 17.4108 17.4375 17.4635 17.4709 17.4781 17.4837 17.4894 17.4952 17.5119 17.5283 17.5446 17.5571 17.5683 17.5849 17.6008 17.6116 17.6221 17.6317 17.6333 17.6346 17.6356 17.6365 17.6375 17.6437 17.6497 17.6556 17.6594 17.6619 17.6653 17.6684 17.6683 17.6672 17.6658 17.6655 17.6639 17.6615 17.6591 17.6563 17.6543 17.6523 17.6503 17.6476 17.6435 17.6364 17.6292 17.6218 17.6116 17.6008 17.5916 17.5824 17.5704 17.5583 17.5462 17.5362 17.5254 17.5145 17.5035 17.4912 17.4909 17.4901 17.4893 17.4885 17.4877 17.4713 17.4548 17.4381 17.4214 17.3888 17.3586 17.3193 17.2773 17.2226 17.1603 17.0979 17.0355 16.9673 16.8949 16.8227 16.747 16.6714 16.6042 16.5403 16.4768 16.4106 16.352 16.2995 16.249 16.2099 16.1714 16.1349 16.0983 16.0618 16.0353 16.0209 16.0053 15.9898 15.9742 15.9629 15.9734 15.9828 15.9921 16.0013 16.0098 16.0503 16.1004 16.1505 16.2006 16.2506 16.2791 16.3076 16.3361 16.3646 16.4024 16.5397 16.6718 16.8038 16.9357 17.0673 17.1649 17.2312 17.2968 17.3619 17.3872 17.3677 17.3408 17.3138 17.2867 17.2426 17.1818 17.1272 17.0727 17.0182 16.9646 16.9089 16.8561 16.8033 16.7506 16.6985 16.6493 16.6064 16.5634 16.5205 16.4855 16.4553 16.4302 16.4051 16.38 16.3539 16.3342 16.3142 16.2942 16.2742 16.2557 16.2446 16.2209 16.1971 16.1732 16.1461 16.1217 16.0885 16.0552 16.0218 15.9845 15.9514 15.9184 15.8854 15.8523 15.8215 15.7951 15.7639 15.7326 15.701 15.6623 15.6223 15.5847 15.5473 15.5097 15.4715 15.4247 15.3817 15.3406 15.3003 15.2612 15.214 15.1669 15.1201 15.072 15.0225 14.9688 14.9152 14.8617 14.807 14.7514 14.6937 14.6353 14.5763 14.5157 14.4538 14.3907 14.3257 14.2588 14.1898 14.1189 14.0466 13.9739 13.9007 13.8275 13.7543 13.6788 13.6015 13.5225 13.4423 13.3606 13.2765 13.1921 13.1075 13.0227 12.9379 12.8502 12.7591 12.6654 12.569 12.4693 12.3653 12.2575 12.1462 12.0315 11.9134 11.7903 11.6671 11.5437 11.4201 11.2964 11.1679 11.0392 10.9103 10.7809 10.6513 10.5169 10.3814 10.244 10.1045 9.9642 9.81846 9.67216 9.52375 9.37302 9.22185 9.06495 8.90792 8.74857 8.58661 8.42463 8.25663 8.08863 7.91671 7.74088 7.56505 7.38281 7.20056 7.01296 6.8201 6.62726 6.42739 6.22753 6.01966 5.80418 5.58871 5.36532 5.14194 4.91268 4.67771 4.44273 4.19917 3.94984 3.67972 3.39428 3.10132 2.79766 2.51161 2.23881 1.97185 1.72512 1.46926 1.11422 0.758222 0.402048 0