# vtk DataFile Version 2.0
track0
ASCII
DATASET POLYDATA
POINTS 11245 double
-0.0205 0.001 1e-05
-0.0204991 0.00100536 1e-05
-0.0204976 0.00101063 1e-05
-0.0204947 0.00101518 1e-05
-0.0204905 0.00101864 1e-05
-0.0204746 0.00102682 1e-05
-0.0201831 0.00105563 1e-05
-0.0203616 0.00128791 1e-05
-0.0204489 0.00141936 1e-05
-0.0201625 0.00144439 1e-05
-0.0201519 0.00173163 1e-05
-0.0202219 0.00184007 1e-05
-0.0200495 0.00193025 1e-05
-0.0200808 0.00212222 1e-05
-0.0201295 0.00229098 1e-05
-0.0200088 0.00238763 1e-05
-0.0199911 0.00254124 1e-05
-0.0200041 0.00269531 1e-05
-0.0199827 0.00277425 1e-05
-0.019869 0.00287784 1e-05
-0.0198179 0.00302292 1e-05
-0.0198054 0.00317624 1e-05
-0.01976 0.00329221 1e-05
-0.0196347 0.00340323 1e-05
-0.0195486 0.00354672 1e-05
-0.0194776 0.0036983 1e-05
-0.019391 0.00384149 1e-05
-0.0193841 0.00384734 1e-05
-0.0193107 0.00390807 1e-05
-0.0192439 0.00397591 1e-05
-0.019179 0.00404572 1e-05
-0.0191113 0.00411266 1e-05
-0.0190172 0.00419782 1e-05
-0.0189564 0.00424672 1e-05
-0.0188939 0.00429333 1e-05
-0.0188297 0.00433763 1e-05
-0.018764 0.00437961 1e-05
-0.0186585 0.00444232 1e-05
-0.0184263 0.00456527 1e-05
-0.0181851 0.00466953 1e-05
-0.017937 0.00475576 1e-05
-0.0176828 0.00482213 1e-05
-0.0174976 0.00485371 1e-05
-0.0172058 0.00488447 1e-05
-0.0169124 0.00488624 1e-05
-0.0166199 0.00486392 1e-05
-0.0163297 0.00482075 1e-05
-0.0160387 0.00475667 1e-05
-0.015829 0.0046938 1e-05
-0.015623 0.00461981 1e-05
-0.0154212 0.00453507 1e-05
-0.0152223 0.00444384 1e-05
-0.0152192 0.00444232 1e-05
-0.015103 0.00438406 1e-05
-0.0149896 0.00432054 1e-05
-0.0148793 0.00425171 1e-05
-0.0147713 0.00417927 1e-05
-0.0146381 0.00408403 1e-05
-0.0145772 0.00403669 1e-05
-0.0145172 0.00398825 1e-05
-0.0144581 0.00393871 1e-05
-0.0144 0.00388804 1e-05
-0.014354 0.00384734 1e-05
-0.01423 0.00373631 1e-05
-0.0141126 0.00361838 1e-05
-0.0140026 0.0034934 1e-05
-0.0138986 0.00336343 1e-05
-0.0138442 0.00329221 1e-05
-0.0137671 0.00318862 1e-05
-0.0136975 0.00307984 1e-05
-0.0136343 0.00296726 1e-05
-0.0135749 0.00285262 1e-05
-0.0135377 0.00277425 1e-05
-0.0134947 0.0026776 1e-05
-0.0134589 0.00257807 1e-05
-0.013427 0.00247718 1e-05
-0.0133997 0.00237498 1e-05
-0.0133818 0.00229098 1e-05
-0.0133668 0.0022008 1e-05
-0.0133578 0.00210982 1e-05
-0.0133541 0.00201847 1e-05
-0.0133565 0.00192708 1e-05
-0.0133651 0.00184007 1e-05
-0.0133799 0.00175593 1e-05
-0.0134024 0.00167352 1e-05
-0.0134319 0.00159331 1e-05
-0.0134683 0.00151602 1e-05
-0.013525 0.00141936 1e-05
-0.0135825 0.00134085 1e-05
-0.0136509 0.00127164 1e-05
-0.0137252 0.00120868 1e-05
-0.0138039 0.00115148 1e-05
-0.013998 0.00102682 1e-05
-0.014126 0.000957784 1e-05
-0.0142607 0.00090293 1e-05
-0.0143986 0.000856842 1e-05
-0.0145373 0.00081278 1e-05
-0.0146381 0.000782406 1e-05
-0.0147223 0.000758038 1e-05
-0.0148069 0.000735026 1e-05
-0.0148918 0.00071316 1e-05
-0.0149772 0.000693317 1e-05
-0.0151518 0.000660566 1e-05
-0.0153292 0.000638084 1e-05
-0.015507 0.000618987 1e-05
-0.015685 0.000602527 1e-05
-0.0158632 0.000588048 1e-05
-0.0160387 0.000568421 1e-05
-0.0162841 0.000518505 1e-05
-0.0165333 0.000493814 1e-05
-0.0167834 0.000482818 1e-05
-0.0170338 0.000475947 1e-05
-0.0174976 0.0004059 1e-05
-0.0174976 0.0004059 1e-05
-0.0174976 0.0004059 1e-05
-0.0174976 0.0004059 1e-05
-0.0174976 0.0004059 1e-05
-0.0174976 0.0004059 1e-05
-0.0174951 0.000388488 1e-05
-0.0174897 0.000371757 1e-05
-0.017482 0.000355938 1e-05
-0.0174726 0.000341058 1e-05
-0.0174557 0.000318841 1e-05
-0.0173838 0.000255072 1e-05
-0.0172967 0.000214401 1e-05
-0.0172047 0.000186607 1e-05
-0.0171106 0.000167065 1e-05
-0.0160387 4.45345e-06 1e-05
-0.0160288 3.56276e-06 1e-05
-0.0160188 3.10745e-06 1e-05
-0.0160089 2.69396e-06 1e-05
-0.0159989 2.28047e-06 1e-05
-0.015944 0 1e-05
-0.0205 0.00367778 1e-05
-0.0203955 0.00371169 1e-05
-0.0203045 0.0037732 1e-05
-0.020217 0.00383977 1e-05
-0.0201979 0.00384734 1e-05
-0.0199618 0.00393431 1e-05
-0.019766 0.00409241 1e-05
-0.0196201 0.00429748 1e-05
-0.0194752 0.00444232 1e-05
-0.0193836 0.00449614 1e-05
-0.0192963 0.00455663 1e-05
-0.0192132 0.00462285 1e-05
-0.0191277 0.00468596 1e-05
-0.0190172 0.00476144 1e-05
-0.0189141 0.00482516 1e-05
-0.0188083 0.00488434 1e-05
-0.0187002 0.00493907 1e-05
-0.01859 0.00498946 1e-05
-0.0183687 0.00508 1e-05
-0.0181944 0.00513505 1e-05
-0.0180182 0.00518313 1e-05
-0.0178402 0.00522441 1e-05
-0.0176607 0.00525874 1e-05
-0.0174976 0.00528177 1e-05
-0.0172058 0.00530973 1e-05
-0.0169127 0.00531462 1e-05
-0.0166201 0.00529767 1e-05
-0.0163293 0.00526052 1e-05
-0.0160387 0.00520558 1e-05
-0.0159401 0.00518046 1e-05
-0.015842 0.00515334 1e-05
-0.0157445 0.0051243 1e-05
-0.0156473 0.00509403 1e-05
-0.0156042 0.00508 1e-05
-0.015411 0.00501584 1e-05
-0.0152211 0.00494225 1e-05
-0.0150354 0.00485887 1e-05
-0.014854 0.00476647 1e-05
-0.0146381 0.00464679 1e-05
-0.0145718 0.00460589 1e-05
-0.014506 0.00456411 1e-05
-0.0144408 0.00452143 1e-05
-0.0143762 0.00447796 1e-05
-0.0143237 0.00444232 1e-05
-0.0141503 0.00432332 1e-05
-0.0139835 0.00419531 1e-05
-0.0138244 0.00405778 1e-05
-0.0136699 0.00391504 1e-05
-0.0135996 0.00384734 1e-05
-0.0135383 0.00378726 1e-05
-0.0134792 0.0037251 1e-05
-0.0134216 0.00366154 1e-05
-0.0133649 0.00359718 1e-05
-0.0132934 0.00351367 1e-05
-0.013257 0.00346938 1e-05
-0.013221 0.00342472 1e-05
-0.0131855 0.00337969 1e-05
-0.0131505 0.00333429 1e-05
-0.0131186 0.00329221 1e-05
-0.0130406 0.00318862 1e-05
-0.0129645 0.0030836 1e-05
-0.0128913 0.00297658 1e-05
-0.0128213 0.00286744 1e-05
-0.0127641 0.00277425 1e-05
-0.0127065 0.0026776 1e-05
-0.0126503 0.00258012 1e-05
-0.0125957 0.00248176 1e-05
-0.0125426 0.0023826 1e-05
-0.0124959 0.00229098 1e-05
-0.0124524 0.0022008 1e-05
-0.0124092 0.00211048 1e-05
-0.0123663 0.00202003 1e-05
-0.0123237 0.00192946 1e-05
-0.0122829 0.00184007 1e-05
-0.0122482 0.00175593 1e-05
-0.0122119 0.00167241 1e-05
-0.0121745 0.00158945 1e-05
-0.0121355 0.00150716 1e-05
-0.0120917 0.00141936 1e-05
-0.0120739 0.00138454 1e-05
-0.0120546 0.00135051 1e-05
-0.012034 0.00131723 1e-05
-0.0120121 0.0012848 1e-05
-0.0120025 0.00127177 1e-05
-0.0119651 0.00122278 1e-05
-0.0119246 0.00117628 1e-05
-0.011881 0.00113259 1e-05
-0.0118346 0.00109201 1e-05
-0.0117486 0.00102682 1e-05
-0.0116345 0.000953567 1e-05
-0.0115125 0.000894501 1e-05
-0.0113859 0.000846171 1e-05
-0.0112563 0.000806292 1e-05
-0.0107632 0.000716218 1e-05
-0.0105252 0.000725785 1e-05
-0.0102871 0.000723165 1e-05
-0.0100489 0.000721874 1e-05
-0.00981077 0.0007214 1e-05
-0.00957337 0.000721444 1e-05
-0.00934491 0.000731044 1e-05
-0.00911627 0.000727779 1e-05
-0.00888763 0.000725551 1e-05
-0.00865897 0.000724034 1e-05
-0.00843108 0.000723017 1e-05
-0.00821175 0.000732109 1e-05
-0.00799227 0.00072813 1e-05
-0.00777277 0.000725151 1e-05
-0.00755326 0.000722893 1e-05
-0.00733443 0.000721164 1e-05
-0.00712387 0.000729612 1e-05
-0.00691317 0.000725482 1e-05
-0.00670246 0.00072227 1e-05
-0.00649174 0.000719738 1e-05
-0.0062816 0.000717719 1e-05
-0.00607944 0.000725472 1e-05
-0.00587718 0.000721597 1e-05
-0.0056749 0.000718513 1e-05
-0.00547261 0.00071603 1e-05
-0.00527083 0.00071401 1e-05
-0.00507675 0.000721089 1e-05
-0.00488258 0.000717616 1e-05
-0.00468839 0.000714813 1e-05
-0.0044942 0.000712527 1e-05
-0.00430044 0.000710648 1e-05
-0.00411412 0.000717134 1e-05
-0.00392771 0.000714119 1e-05
-0.00374129 0.000711661 1e-05
-0.00355486 0.000709644 1e-05
-0.00336883 0.000707978 1e-05
-0.00318995 0.000714001 1e-05
-0.00301099 0.000711435 1e-05
-0.00283202 0.000709369 1e-05
-0.00265305 0.000707703 1e-05
-0.00247443 0.000706362 1e-05
-0.0023027 0.000712211 1e-05
-0.00213088 0.000710308 1e-05
-0.00195905 0.000708928 1e-05
-0.00178722 0.000707974 1e-05
-0.00161577 0.000707368 1e-05
-0.0014509 0.000713806 1e-05
-0.00128591 0.000713127 1e-05
-0.00112091 0.000713125 1e-05
-0.000955915 0.000713685 1e-05
-0.000791418 0.00071471 1e-05
-0.000633135 0.000723357 1e-05
-0.000474619 0.000724519 1e-05
-0.000316112 0.000726462 1e-05
-0.000157613 0.000729061 1e-05
0 0.000732195 1e-05
0.000105677 0.000740615 1e-05
0.000211656 0.000743309 1e-05
0.000317642 0.000745645 1e-05
0.000423625 0.000748139 1e-05
0.000528387 0.000751655 1e-05
0.000634886 0.000761268 1e-05
0.000741748 0.000765143 1e-05
0.000848666 0.000766912 1e-05
0.000955587 0.000768419 1e-05
0.00106088 0.000771779 1e-05
0.00116821 0.000780632 1e-05
0.00127585 0.000784047 1e-05
0.00138354 0.000784382 1e-05
0.00149123 0.000784388 1e-05
0.00159752 0.000786846 1e-05
0.00170568 0.000794254 1e-05
0.00181406 0.000796796 1e-05
0.00192248 0.000796086 1e-05
0.00203089 0.00079502 1e-05
0.00213833 0.000796404 1e-05
0.00224733 0.000802063 1e-05
0.00235646 0.000803711 1e-05
0.00246561 0.000802566 1e-05
0.00257475 0.000801032 1e-05
0.00268334 0.000801416 1e-05
0.00279319 0.000805156 1e-05
0.0029031 0.00080587 1e-05
0.003013 0.000804543 1e-05
0.0031229 0.000802809 1e-05
0.00323259 0.000802224 1e-05
0.00334329 0.00080396 1e-05
0.00345401 0.00080356 1e-05
0.00356471 0.00080183 1e-05
0.00367541 0.00079969 1e-05
0.00378611 0.000797964 1e-05
0.00389767 0.000797601 1e-05
0.00400922 0.000795798 1e-05
0.00412076 0.000793185 1e-05
0.00423228 0.000790147 1e-05
0.00434393 0.000786959 1e-05
0.00445636 0.000784344 1e-05
0.00456877 0.000780787 1e-05
0.00468116 0.000776685 1e-05
0.00479353 0.000772103 1e-05
0.00490609 0.000767023 1e-05
0.0050194 0.000761877 1e-05
0.00513267 0.000756117 1e-05
0.00524592 0.000749793 1e-05
0.00535913 0.000742893 1e-05
0.00547262 0.000735379 1e-05
0.00555476 0.00072954 1e-05
0.00563687 0.000723415 1e-05
0.00571896 0.000716941 1e-05
0.00580102 0.000710112 1e-05
0.00584888 0.000705915 1e-05
0.00588781 0.000702395 1e-05
0.00592674 0.000698789 1e-05
0.00596566 0.000695096 1e-05
0.00600457 0.000691313 1e-05
0.00604356 0.000687433 1e-05
0.00615863 0.000675696 1e-05
0.00627361 0.000663076 1e-05
0.0063885 0.000649589 1e-05
0.00650327 0.000635195 1e-05
0.00661893 0.000619725 1e-05
0.0067349 0.000603596 1e-05
0.00685066 0.000586044 1e-05
0.00696621 0.000567104 1e-05
[...]
POINT_DATA 11245
 FIELD attributes 1
U 3 11245 float
1.13246 	6.39876 	0 1.59137 	5.97917 	0 3.06024 	4.65981 	0 4.29038 	3.52864 	0 5.1813 	2.67993 	0 7.15381 	0.707046 	0 -4.22628 	5.50141 	0 -5.18511 	7.80966 	0 7.56599 	0.661527 	0 0.172559 	4.66463 	0 -9.05204 	14.0256 	0 5.93264 	3.10453 	0 -2.52946 	15.5156 	0 -6.42178 	22.2955 	0 7.16773 	5.74061 	0 1.97781 	17.2197 	0 -2.2498 	26.6748 	0 4.29403 	15.8461 	0 9.07732 	8.26909 	0 6.22438 	17.6638 	0 2.3904 	29.3726 	0 7.48937 	19.1112 	0 11.9511 	10.5955 	0 10.9778 	18.2832 	0 10.8642 	23.211 	0 12.864 	21.2633 	0 16.0825 	13.7024 	0 16.231 	13.4304 	0 16.3915 	16.6279 	0 16.8088 	18.0995 	0 17.5782 	17.3596 	0 18.3602 	16.618 	0 19.4168 	15.6295 	0 20.1827 	15.046 	0 20.9571 	14.4652 	0 21.7388 	13.8877 	0 22.0842 	13.1242 	0 22.0678 	11.6855 	0 24.2698 	10.4934 	0 26.3519 	9.15543 	0 27.0721 	7.06896 	0 27.2257 	4.64209 	0 27.3519 	2.88311 	0 28.0701 	0.169787 	0 28.3241 	-2.16088 	0 28.2503 	-4.20263 	0 27.1954 	-5.98875 	0 25.8008 	-7.73708 	0 25.1902 	-9.0477 	0 24.5485 	-10.3085 	0 23.3383 	-10.7021 	0 22.1179 	-11.0716 	0 22.0988 	-11.0769 	0 21.4717 	-12.0214 	0 20.8479 	-13.0118 	0 20.01 	-13.4255 	0 19.1014 	-13.6566 	0 17.9554 	-13.9608 	0 17.5183 	-14.1383 	0 17.08 	-14.319 	0 16.6404 	-14.503 	0 16.3079 	-14.4521 	0 16.0591 	-14.3774 	0 14.8047 	-14.864 	0 13.5082 	-15.356 	0 12.3192 	-15.3982 	0 11.4475 	-14.9759 	0 10.9739 	-14.7484 	0 9.64788 	-15.0844 	0 8.53665 	-15.1987 	0 7.76364 	-14.9776 	0 6.95084 	-14.6588 	0 6.35881 	-14.2928 	0 5.14783 	-14.2892 	0 4.40355 	-13.9527 	0 3.63729 	-13.6264 	0 2.84788 	-13.3122 	0 2.15836 	-12.9717 	0 1.24724 	-12.6131 	0 0.486799 	-12.2031 	0 -0.304171 	-11.8072 	0 -1.12605 	-11.4287 	0 -1.94724 	-11.045 	0 -2.88694 	-10.5479 	0 -3.70053 	-10.0848 	0 -4.54902 	-9.65102 	0 -5.42764 	-9.25134 	0 -6.4381 	-8.78887 	0 -8.024 	-8.11774 	0 -9.00537 	-7.63893 	0 -9.95681 	-7.23426 	0 -10.7424 	-6.90036 	0 -11.652 	-6.28292 	0 -13.1605 	-5.35891 	0 -14.0493 	-4.69358 	0 -13.1941 	-4.19395 	0 -12.3808 	-3.72996 	0 -11.8235 	-3.42081 	0 -12.4262 	-3.37993 	0 -13.0616 	-3.36367 	0 -13.881 	-3.22508 	0 -15.0718 	-2.82737 	0 -17.5769 	-2.2278 	0 -18.2851 	-1.96432 	0 -19.3217 	-1.78633 	0 -20.6135 	-1.67492 	0 -19.9549 	-2.23174 	0 -16.4023 	-3.33652 	0 -24.6292 	-2.44039 	0 -37.3321 	-1.64086 	0 -49.7036 	-1.3643 	0 -35.1436 	-5.30757 	0 1.86628 	-13.085 	0 1.86628 	-13.085 	0 1.86628 	-13.085 	0 1.86628 	-13.085 	0 1.86628 	-13.085 	0 1.86628 	-13.085 	0 4.25284 	-13.1213 	0 6.37044 	-13.1071 	0 8.22439 	-13.0526 	0 9.84436 	-12.9667 	0 14.8278 	-13.1452 	0 23.0799 	-10.7774 	0 30.0062 	-9.06308 	0 38.0149 	-7.89284 	0 46.6108 	-7.07121 	0 0.353947 	-0.0317874 	0 1.18818 	-0.0543862 	0 1.49261 	-0.0620346 	0 1.294 	-0.05378 	0 1.09539 	-0.0455254 	0 0 	0 	0
9.83292 	3.1908 	0 9.65831 	6.52541 	0 10.078 	7.6748 	0 11.8158 	4.68075 	0 12.0606 	4.44139 	0 12.9621 	10.4676 	0 13.4042 	18.844 	0 15.3398 	15.3334 	0 17.3387 	10.1872 	0 17.8514 	12.3618 	0 18.3284 	14.6069 	0 18.9062 	13.9582 	0 19.5016 	13.3192 	0 20.2723 	12.5278 	0 21.1475 	11.8344 	0 22.0463 	11.158 	0 22.9663 	10.4992 	0 23.0535 	9.43211 	0 23.1802 	7.32453 	0 24.2065 	6.6032 	0 25.213 	5.84687 	0 26.0622 	4.98695 	0 26.0932 	3.68252 	0 26.1619 	2.50674 	0 26.7711 	0.447063 	0 27.4976 	-1.5927 	0 27.2007 	-3.47625 	0 26.2554 	-4.96238 	0 25.2944 	-6.44212 	0 25.1297 	-6.94908 	0 24.9455 	-7.42762 	0 24.5234 	-7.64003 	0 24.103 	-7.84959 	0 23.9166 	-7.9416 	0 23.2772 	-9.02382 	0 22.6825 	-10.1814 	0 21.9952 	-11.202 	0 20.881 	-11.5759 	0 19.5518 	-12.0562 	0 19.2434 	-12.2261 	0 18.9371 	-12.3989 	0 18.6443 	-12.5352 	0 18.3997 	-12.5103 	0 18.2015 	-12.4904 	0 17.0435 	-13.0756 	0 15.878 	-13.7243 	0 14.9469 	-13.8141 	0 14.0949 	-13.5605 	0 13.6998 	-13.4438 	0 13.0394 	-13.7144 	0 12.5092 	-13.8064 	0 12.1011 	-13.731 	0 11.6908 	-13.6594 	0 11.1624 	-13.5728 	0 10.9191 	-13.5527 	0 10.6744 	-13.5343 	0 10.4284 	-13.5175 	0 10.2131 	-13.4751 	0 10.0767 	-13.3838 	0 9.59541 	-13.2482 	0 8.92297 	-13.0394 	0 8.23427 	-12.8375 	0 7.68731 	-12.5194 	0 7.27446 	-12.2106 	0 6.88921 	-11.9531 	0 6.49788 	-11.6992 	0 6.07626 	-11.3387 	0 5.53819 	-10.8696 	0 5.03313 	-10.4432 	0 4.80924 	-10.0578 	0 4.58743 	-9.67144 	0 4.37029 	-9.28324 	0 4.0424 	-8.8646 	0 3.46169 	-8.38402 	0 3.45619 	-7.967 	0 3.37668 	-7.47624 	0 3.30464 	-6.98468 	0 3.24146 	-6.49231 	0 3.01855 	-5.89265 	0 3.20197 	-5.64815 	0 3.35851 	-5.43367 	0 3.52207 	-5.22115 	0 3.69277 	-5.01101 	0 3.76637 	-4.92523 	0 3.9839 	-4.57298 	0 4.21197 	-4.22684 	0 4.45009 	-3.88861 	0 4.69745 	-3.56012 	0 5.2547 	-3.37467 	0 6.41125 	-3.10376 	0 7.48782 	-2.85746 	0 8.50889 	-2.61921 	0 10.1193 	-1.84845 	0 15.3418 	0.616789 	0 15.4256 	-0.169722 	0 16.1979 	-0.0878093 	0 16.9379 	-0.0337131 	0 17.6581 	0.00328416 	0 18.8649 	0.792733 	0 18.7377 	-0.267579 	0 19.2637 	-0.187742 	0 19.7667 	-0.131111 	0 20.2541 	-0.0904129 	0 21.1587 	0.877128 	0 20.9296 	-0.379442 	0 21.321 	-0.289324 	0 21.6916 	-0.223141 	0 22.0473 	-0.174196 	0 22.7559 	0.913001 	0 22.4933 	-0.44094 	0 22.8057 	-0.347682 	0 23.0996 	-0.277581 	0 23.3799 	-0.22464 	0 23.964 	0.919165 	0 23.6878 	-0.453902 	0 23.9445 	-0.365006 	0 24.1854 	-0.296844 	0 24.4144 	-0.244402 	0 24.9187 	0.908839 	0 24.6312 	-0.440501 	0 24.8453 	-0.358665 	0 25.046 	-0.294787 	0 25.2363 	-0.244796 	0 25.6895 	0.894327 	0 25.3899 	-0.410732 	0 25.5659 	-0.336976 	0 25.7306 	-0.278427 	0 25.8865 	-0.231855 	0 26.3013 	0.885558 	0 25.9853 	-0.372565 	0 26.1259 	-0.301581 	0 26.2562 	-0.244344 	0 26.3784 	-0.198114 	0 26.7633 	0.911542 	0 26.4256 	-0.292694 	0 26.5315 	-0.2131 	0 26.6265 	-0.147869 	0 26.7127 	-0.0943339 	0 27.0832 	1.0575 	0 26.7069 	-0.109879 	0 26.7519 	-0.000340825 	0 26.783 	0.0909458 	0 26.8026 	0.167064 	0 27.1567 	1.48351 	0 26.6992 	0.195738 	4.80964e-21 26.7685 	0.32806 	3.80101e-20 26.8216 	0.439769 	7.08501e-20 26.8608 	0.534145 	1.03386e-19 27.3871 	2.18214 	1.35105e-19 26.9985 	0.686223 	3.96789e-19 27.0795 	0.597065 	3.97759e-19 27.2024 	0.640024 	3.74006e-19 27.3882 	0.919081 	3.16446e-19 27.9234 	2.52055 	6.97049e-20 27.6228 	1.0016 	1.27601e-19 27.5825 	0.456409 	1.44864e-19 27.6604 	0.389901 	1.42415e-19 27.8623 	0.888964 	1.2009e-19 28.2399 	2.32956 	6.58354e-20 28.0984 	0.891324 	2.47463e-20 28.0467 	0.0874648 	2.61111e-20 28.0555 	0.00148512 	7.79789e-20 28.1478 	0.650825 	1.30694e-19 28.2804 	1.93709 	1.81545e-19 28.3287 	0.664246 	1.24794e-19 28.3648 	-0.185793 	7.26058e-20 28.3121 	-0.278406 	2.49544e-20 28.2298 	0.363877 	4.70595e-20 28.1031 	1.45898 	1.14985e-19 28.3247 	0.427573 	2.64302e-19 28.4589 	-0.298368 	3.53744e-19 28.3568 	-0.398579 	3.23743e-19 28.1044 	0.0993708 	1.84593e-19 27.7478 	0.944668 	-1.6302e-20 28.091 	0.182506 	-2.71186e-20 28.2703 	-0.341506 	-3.53551e-20 28.1312 	-0.443738 	-3.66588e-20 27.7686 	-0.148148 	-5.95829e-20 27.2399 	0.427199 	-9.76101e-20 27.6541 	-0.0999568 	-2.59234e-19 27.8116 	-0.434645 	-3.44306e-19 27.6481 	-0.534466 	-3.36158e-19 27.2588 	-0.424893 	-2.4502e-19 26.619 	-0.0867661 	-6.34174e-20 27.0647 	-0.437449 	8.41518e-20 27.1293 	-0.635544 	1.52019e-19 26.9448 	-0.734076 	1.67976e-19 26.6127 	-0.759873 	1.44253e-19 25.9064 	-0.602468 	2.11496e-20 26.3509 	-0.83396 	1.3929e-20 26.2404 	-0.957715 	1.00632e-20 26.0248 	-1.06119 	6.85373e-21 25.8075 	-1.16451 	3.68195e-21 25.0799 	-1.13906 	3.35534e-20 25.3829 	-1.29082 	9.46568e-21 25.1275 	-1.40308 	6.9345e-21 24.8697 	-1.51587 	4.35353e-21 24.6096 	-1.62921 	1.72159e-21 24.1078 	-1.71399 	2.79103e-21 24.1449 	-1.80108 	-4.88726e-21 23.9255 	-1.88664 	-8.24873e-21 23.7044 	-1.97282 	-1.16341e-20 23.4818 	-2.05962 	-1.50441e-20 23.351 	-2.11064 	-1.7048e-20 23.2449 	-2.15318 	-1.81208e-20 23.1384 	-2.19588 	-1.91866e-20 23.0315 	-2.23876 	-2.02455e-20 22.9242 	-2.28182 	-2.12973e-20 22.9576 	-2.34157 	-2.2745e-20 22.4531 	-2.46437 	-3.65909e-20 22.0974 	-2.59415 	-4.18616e-20 21.7374 	-2.72613 	-4.74699e-20 21.3874 	-2.86058 	-5.24679e-20 21.6064 	-3.00498 	-1.87398e-20 20.8414 	-3.16009 	-1.23504e-20 20.2073 	-3.31233 	-5.91363e-21 19.8011 	-3.45662 	5.5074e-22 19.9818 	-3.54715 	1.12049e-20 20.1681 	-3.63981 	2.20831e-20 19.4134 	-3.81411 	8.01499e-20 18.7568 	-3.97849 	1.27916e-19 18.6872 	-4.05989 	1.11533e-19 18.6732 	-4.13715 	8.78274e-20 18.9187 	-4.19217 	2.8264e-20 18.6175 	-4.27107 	3.05614e-20 18.5367 	-4.30985 	3.06377e-20 18.5568 	-4.33018 	2.96896e-20 18.5774 	-4.35054 	2.87474e-20 18.5947 	-4.36741 	2.79724e-20 18.6158 	-4.40081 	2.20406e-20 18.6378 	-4.4343 	1.60957e-20 18.6607 	-4.46788 	1.01376e-20 18.8639 	-4.49738 	-2.60988e-21 19.2983 	-4.52151 	-2.41161e-20 19.2345 	-4.51268 	-9.94343e-20 19.1748 	-4.50428 	-1.74206e-19 19.5045 	-4.5205 	-1.76884e-19 20.2643 	-4.53262 	-8.52663e-20 21.0076 	-4.54462 	6.233e-21 21.1012 	-4.49831 	1.11644e-19 21.4831 	-4.4509 	1.34284e-19 22.0072 	-4.40281 	1.13747e-19 22.514 	-4.35456 	9.42735e-20 23.0294 	-4.31082 	6.52592e-20 23.0443 	-4.30516 	6.48931e-20 23.0729 	-4.29974 	6.43553e-20 23.105 	-4.29438 	6.3774e-20 23.137 	-4.28903 	6.3192e-20 23.1696 	-4.28355 	6.2596e-20 23.5963 	-4.21258 	4.64838e-20 24.0108 	-4.14156 	3.04772e-20 24.4137 	-4.07049 	1.45717e-20 24.7794 	-4.00073 	0 24.8307 	-3.94743 	0 25.383 	-3.80292 	0 25.8738 	-3.67067 	7.13154e-21 26.2616 	-3.5624 	2.7986e-20 26.3243 	-3.48788 	5.25911e-20 26.3701 	-3.41539 	7.71765e-20 26.8529 	-3.23691 	2.57434e-19 27.3221 	-3.05833 	4.38227e-19 27.5306 	-2.92578 	4.38144e-19 27.5598 	-2.8463 	2.74578e-19 27.5846 	-2.76757 	1.12647e-19 27.9925 	-2.56199 	2.68992e-19 28.2545 	-2.39285 	3.35344e-19 28.3628 	-2.26292 	3.04595e-19 28.4416 	-2.14625 	2.35573e-19 28.4363 	-2.07417 	3.95087e-20 28.7689 	-1.86117 	7.00246e-21 28.8264 	-1.74244 	4.91086e-21 28.8804 	-1.62319 	2.80322e-21 28.9308 	-1.50344 	6.79584e-22 28.9105 	-1.43199 	0 29.071 	-1.27858 	-2.42483e-20 29.0757 	-1.18332 	-8.18147e-20 29.0783 	-1.08759 	-1.39109e-19 29.0788 	-0.991382 	-1.96128e-19 29.044 	-0.920203 	-2.61335e-19 29.0808 	-0.824863 	-2.60682e-19 29.0406 	-0.758309 	-2.01387e-19 28.9995 	-0.691386 	-1.42654e-19 28.9575 	-0.624092 	-8.44848e-20 28.9006 	-0.566332 	-5.68747e-21 28.8543 	-0.517965 	6.50825e-20 28.7782 	-0.480163 	1.15727e-19 28.7018 	-0.442139 	1.66682e-19 28.6251 	-0.40389 	2.1795e-19 28.5458 	-0.366886 	2.65356e-19 28.5206 	-0.361721 	2.49785e-19 28.4908 	-0.3581 	2.34795e-19 28.4609 	-0.354473 	2.19803e-19 28.4311 	-0.35084 	2.04808e-19 28.397 	-0.34668 	1.87662e-19 28.3237 	-0.337378 	1.49617e-19 28.2504 	-0.328047 	1.11588e-19 28.177 	-0.318688 	7.35756e-20 28.1036 	-0.309301 	3.55793e-20 28.0169 	-0.300538 	0 27.9025 	-0.306445 	0 27.7786 	-0.312656 	0 27.6548 	-0.318907 	0 27.531 	-0.325199 	0 27.3813 	-0.332498 	0 27.2661 	-0.352042 	0 27.1328 	-0.372544 	0 26.9994 	-0.39317 	0 26.866 	-0.413921 	0 26.697 	-0.43571 	8.87371e-21 26.5896 	-0.465634 	0 26.4586 	-0.49829 	0 26.3273 	-0.531129 	0 26.1957 	-0.564154 	0 26.0209 	-0.598549 	1.45374e-20 25.9272 	-0.637895 	0 25.8082 	-0.6838 	0 25.6886 	-0.729919 	0 25.5684 	-0.776257 	0 25.4014 	-0.825041 	0 25.3246 	-0.873533 	0 25.2224 	-0.93303 	0 25.1192 	-0.992745 	0 25.0151 	-1.05268 	0 24.8644 	-1.11526 	0 24.8051 	-1.17306 	0 24.7157 	-1.24389 	0 24.6251 	-1.31493 	0 24.5332 	-1.38616 	0 24.3973 	-1.4587 	0 24.3543 	-1.53171 	0 24.2752 	-1.60877 	0 24.1872 	-1.68687 	0 24.0844 	-1.76343 	0 23.9602 	-1.83779 	0 23.9226 	-1.92522 	0 23.8692 	-2.01013 	0 23.7729 	-2.08726 	0 23.6447 	-2.15357 	0 23.5116 	-2.21913 	0 23.4697 	-2.31013 	0 23.4262 	-2.40134 	0 23.3284 	-2.47023 	2.2666e-20 23.1757 	-2.51649 	6.83336e-20 23.0216 	-2.56311 	1.14095e-19 22.9628 	-2.64335 	4.38441e-19 22.8953 	-2.71932 	6.90925e-19 22.7942 	-2.77592 	6.32041e-19 22.6567 	-2.8184 	4.31276e-19 22.4856 	-2.84815 	1.00221e-19 22.3979 	-2.90635 	4.90766e-20 22.2848 	-2.9508 	3.40471e-20 22.1696 	-2.99466 	2.11318e-20 22.0537 	-3.0387 	8.28579e-21 21.9234 	-3.08004 	0 21.8929 	-3.09103 	-6.55937e-22 21.8636 	-3.10386 	-5.1499e-21 21.8343 	-3.11672 	-9.64779e-21 21.8049 	-3.12959 	-1.41496e-20 21.777 	-3.14181 	-1.84164e-20 21.6979 	-3.17372 	-2.63798e-20 21.6184 	-3.20575 	-3.43133e-20 21.5386 	-3.23788 	-4.22166e-20 21.4584 	-3.27012 	-5.00893e-20 21.3818 	-3.29576 	-1.10937e-19 21.2706 	-3.33377 	-4.70112e-20 21.1903 	-3.39866 	-9.61423e-20 21.1091 	-3.46356 	-1.44748e-19 21.042 	-3.53467 	-2.44785e-19 20.9904 	-3.61301 	-4.02278e-19 20.8804 	-3.66033 	-8.04074e-19 20.7697 	-3.70772 	-1.20562e-18 20.7318 	-3.80773 	-1.16054e-18 20.7559 	-3.95127 	-6.53329e-19 20.7779 	-4.09536 	-1.42629e-19 20.7077 	-4.18926 	-5.24037e-20 20.6653 	-4.30245 	-2.59439e-21 20.6564 	-4.43884 	-1.42492e-21 20.6457 	-4.5751 	-2.72487e-22 20.695 	-4.75777 	0 20.6894 	-4.81039 	0 20.6943 	-4.8702 	0 20.7016 	-4.93172 	0 20.7086 	-4.99313 	0 20.7144 	-5.04753 	0 20.7193 	-5.15802 	0 20.7227 	-5.26783 	0 20.7245 	-5.37697 	0 20.7353 	-5.49196 	-1.33782e-20 20.7881 	-5.63437 	-8.15553e-20 20.7537 	-5.80188 	-3.2027e-20 20.7343 	-5.97796 	7.15615e-21 20.7512 	-6.17423 	8.35344e-21 20.8131 	-6.39576 	-1.64587e-19 20.8722 	-6.62051 	-3.4336e-19 20.8581 	-6.82855 	-8.40058e-19 20.8478 	-7.03437 	-1.01907e-18 20.8408 	-7.23802 	-9.05003e-19 20.8298 	-7.43971 	-7.87968e-19 20.817 	-7.60938 	-6.86045e-19 20.8167 	-7.61651 	-6.90797e-19 20.8163 	-7.62364 	-6.95553e-19 20.8159 	-7.63077 	-7.00314e-19 20.8165 	-7.63848 	-6.91502e-19 20.8181 	-7.64676 	-6.69391e-19 20.7937 	-7.8521 	7.96035e-20 20.7674 	-8.05463 	7.56123e-19 20.7373 	-8.25549 	1.44691e-18 20.715 	-8.4543 	1.17312e-18 20.6965 	-8.65799 	1.97057e-19 20.6416 	-8.86872 	2.10302e-19 20.5794 	-9.07009 	2.58741e-19 20.5031 	-9.24761 	4.06131e-19 20.4233 	-9.42321 	5.56571e-19 20.3371 	-9.60321 	7.15639e-19 20.3371 	-9.60337 	7.15519e-19 20.337 	-9.60352 	7.15399e-19 20.337 	-9.60368 	7.15279e-19 20.3369 	-9.60384 	7.15289e-19 20.3369 	-9.60399 	7.15352e-19 20.2468 	-9.7791 	1.10649e-18 20.1542 	-9.95337 	1.50592e-18 20.0592 	-10.1269 	1.91595e-18 19.9512 	-10.2776 	1.04007e-18 19.832 	-10.4253 	-3.80127e-19 19.7395 	-10.5575 	-1.2165e-18 19.6414 	-10.6831 	-1.896e-18 19.521 	-10.7773 	-1.77179e-18 19.3991 	-10.8709 	-1.64356e-18 19.2914 	-10.952 	-1.52816e-18 19.2621 	-10.9925 	-1.51982e-18 19.2326 	-11.0329 	-1.51116e-18 19.203 	-11.0733 	-1.5022e-18 19.1689 	-11.1066 	-1.38937e-18 19.1334 	-11.1389 	-1.25345e-18 18.9945 	-11.2908 	-9.27184e-19 18.8493 	-11.4356 	-5.79787e-19 18.6784 	-11.5426 	-3.23134e-19 18.4853 	-11.6176 	-3.73183e-19 18.2807 	-11.6968 	-4.22089e-19 18.2161 	-11.7348 	-9.42309e-19 18.1512 	-11.7726 	-1.44809e-18 18.0743 	-11.7925 	-1.04752e-18 17.9972 	-11.8124 	-6.44954e-19 17.9235 	-11.8314 	-2.59431e-19 17.8086 	-11.8986 	1.14736e-19 17.6933 	-11.9661 	4.931e-19 17.5775 	-12.0338 	8.75688e-19 17.4407 	-12.071 	4.21372e-19 17.2966 	-12.1071 	-1.20719e-19 17.1273 	-12.1811 	3.08734e-20 16.9568 	-12.2553 	1.83284e-19 16.7579 	-12.2843 	1.34418e-19 16.5579 	-12.3136 	8.67888e-20 16.3777 	-12.34 	4.51976e-20 16.3495 	-12.3517 	1.55407e-20 16.3213 	-12.3634 	-1.41164e-20 16.293 	-12.3752 	-4.37737e-20 16.2593 	-12.3789 	-1.96554e-20 16.2252 	-12.3825 	5.82859e-21 16.027 	-12.441 	8.46604e-19 15.8179 	-12.4879 	1.54543e-18 15.5917 	-12.512 	1.73504e-18 15.3416 	-12.4991 	8.94346e-19 15.075 	-12.4868 	5.14825e-21 15.0105 	-12.4925 	8.98211e-21 14.9459 	-12.4983 	1.28206e-20 14.8746 	-12.4925 	-1.20414e-19 14.8025 	-12.4852 	-2.71195e-19 14.7324 	-12.4782 	-4.17768e-19 14.5741 	-12.486 	-9.06397e-19 14.4156 	-12.4946 	-1.3959e-18 14.2561 	-12.5027 	-1.84773e-18 14.0717 	-12.4707 	-1.08025e-18 13.8779 	-12.4379 	-2.75838e-19 13.7282 	-12.4346 	9.99845e-21 13.5782 	-12.432 	2.97114e-19 13.4115 	-12.3997 	4.87942e-19 13.2425 	-12.3642 	6.67837e-19 13.083 	-12.3313 	8.38453e-19 13.0088 	-12.3252 	9.16546e-19 12.9346 	-12.3192 	9.94914e-19 12.8595 	-12.3121 	1.05877e-18 12.7707 	-12.2849 	8.90935e-19 12.6797 	-12.2571 	7.19289e-19 12.471 	-12.2254 	1.705e-18 12.2614 	-12.1948 	2.68342e-18 12.0235 	-12.1233 	2.07817e-18 11.7766 	-12.0404 	9.95367e-19 11.5046 	-11.9469 	-2.94159e-19 11.4985 	-11.9455 	-2.97608e-19 11.4925 	-11.944 	-3.01058e-19 11.4858 	-11.9415 	-3.04103e-19 11.479 	-11.9389 	-3.07047e-19 11.4722 	-11.9362 	-3.09986e-19 11.2567 	-11.8601 	-5.93712e-19 11.0408 	-11.7858 	-8.79158e-19 10.823 	-11.7079 	-1.10482e-18 10.5884 	-11.5769 	-6.88696e-19 10.3376 	-11.4385 	-2.46571e-19 10.2629 	-11.4101 	-2.00605e-19 10.1881 	-11.3819 	-1.5473e-19 10.1088 	-11.3383 	-1.71208e-19 10.0285 	-11.2915 	-2.01338e-19 9.94981 	-11.2459 	-2.30883e-19 9.81195 	-11.1768 	-4.01425e-19 9.67387 	-11.1085 	-5.72522e-19 9.53274 	-11.0309 	-6.29485e-19 9.38364 	-10.9271 	-3.74209e-19 9.2278 	-10.8194 	-1.08447e-19 9.12285 	-10.7613 	-5.7437e-20 9.01769 	-10.7035 	-6.44885e-21 8.90682 	-10.6291 	-7.32369e-21 8.79308 	-10.5467 	-3.35263e-20 8.68203 	-10.4667 	-5.905e-20 8.58333 	-10.3992 	-6.40094e-20 8.4845 	-10.3319 	-6.89071e-20 8.384 	-10.2569 	-6.57296e-20 8.28067 	-10.1679 	-4.83462e-20 8.17427 	-10.0766 	-3.04244e-20 8.05742 	-9.98953 	1.00778e-19 7.9403 	-9.90285 	2.31682e-19 7.81945 	-9.80246 	2.42249e-19 7.69603 	-9.69288 	1.71601e-19 7.57514 	-9.58606 	1.02399e-19 7.49983 	-9.52003 	8.71651e-20 7.42443 	-9.45414 	7.19132e-20 7.34894 	-9.38205 	6.34276e-20 7.27336 	-9.30183 	6.37554e-20 7.19639 	-9.22026 	6.40751e-20 7.08214 	-9.11322 	3.80496e-20 6.96765 	-9.00644 	1.20382e-20 6.85237 	-8.88939 	1.68327e-20 6.73644 	-8.76345 	4.81683e-20 6.62217 	-8.63967 	7.90026e-20 6.56093 	-8.57149 	7.9109e-20 6.49965 	-8.50337 	7.92033e-20 6.43944 	-8.43057 	9.07535e-20 6.38038 	-8.35278 	1.14484e-19 6.32092 	-8.27445 	1.3838e-19 6.22025 	-8.15629 	2.34213e-19 6.11948 	-8.03821 	3.29953e-19 6.01998 	-7.91352 	3.36812e-19 5.9218 	-7.78213 	2.54519e-19 5.82412 	-7.65137 	1.72642e-19 5.77347 	-7.5793 	1.73023e-19 5.72285 	-7.50721 	1.73404e-19 5.67416 	-7.4318 	1.45191e-19 5.62738 	-7.35312 	8.89946e-20 5.58099 	-7.27488 	3.31597e-20 5.49867 	-7.15271 	1.6272e-19 5.41646 	-7.03043 	2.92557e-19 5.33713 	-6.90367 	2.6767e-19 5.26081 	-6.77225 	8.42656e-20 5.184 	-6.63928 	-1.00531e-19 5.14571 	-6.56618 	-6.87437e-20 5.10753 	-6.49298 	-3.69511e-20 5.07183 	-6.41788 	-2.06155e-20 5.03877 	-6.34076 	-2.06693e-20 5.0067 	-6.26543 	-2.07341e-20 4.94318 	-6.13838 	-1.23287e-20 4.88008 	-6.01105 	-3.91597e-21 4.82152 	-5.88122 	0 4.76706 	-5.74912 	0 4.71136 	-5.61196 	0 4.68958 	-5.54912 	0 4.66797 	-5.48618 	0 4.64855 	-5.42252 	0 4.63227 	-5.35786 	0 4.61686 	-5.29568 	0 4.57087 	-5.15537 	0 4.52588 	-5.01454 	0 4.48917 	-4.87197 	0 4.45788 	-4.72807 	0 4.42543 	-4.57112 	0 4.42059 	-4.53832 	0 4.41583 	-4.50547 	0 4.41183 	-4.47256 	0 4.4101 	-4.43948 	0 4.40851 	-4.40743 	0 4.388 	-4.24645 	0 4.36958 	-4.0848 	0 4.36191 	-3.92356 	-3.84982e-20 4.36026 	-3.75919 	-7.02102e-20 4.36087 	-3.62 	-9.15287e-20 4.3596 	-3.59611 	1.46324e-19 4.35839 	-3.57221 	3.81145e-19 4.35905 	-3.54901 	1.96116e-19 4.35976 	-3.52579 	1.18245e-20 4.36057 	-3.50164 	-1.78955e-19 4.36933 	-3.38736 	-1.11568e-18 4.37942 	-3.27276 	-2.03229e-18 4.39087 	-3.15789 	-2.92781e-18 4.4045 	-3.046 	-1.74962e-18 4.41763 	-2.94859 	-6.14252e-19 4.43485 	-2.84093 	-1.28033e-18 4.45294 	-2.73459 	-1.6925e-18 4.47063 	-2.63219 	-1.34746e-18 4.48984 	-2.52986 	-1.00945e-18 4.5131 	-2.411 	-5.67604e-19 4.51381 	-2.4076 	-5.37836e-19 4.51444 	-2.4043 	-5.27702e-19 4.51498 	-2.40109 	-5.37888e-19 4.51551 	-2.39789 	-5.48055e-19 4.51606 	-2.39464 	-5.58324e-19 4.53461 	-2.30569 	-7.88861e-19 4.55419 	-2.21691 	-1.00585e-18 4.5748 	-2.12834 	-1.20904e-18 4.58942 	-2.04747 	-8.53471e-19 4.59683 	-1.98086 	1.27013e-20 4.6217 	-1.9041 	-5.0681e-19 4.64768 	-1.82752 	-1.02869e-18 4.6623 	-1.76215 	-9.30208e-19 4.66429 	-1.70176 	-2.90217e-19 4.66676 	-1.64512 	3.13432e-19 4.68727 	-1.58018 	2.10494e-19 4.69612 	-1.52817 	3.43923e-19 4.70337 	-1.47855 	5.19239e-19 4.71128 	-1.42897 	6.92782e-19 4.71734 	-1.38155 	8.69681e-19 4.71931 	-1.37472 	9.59795e-19 4.71945 	-1.36968 	9.33344e-19 4.7196 	-1.36464 	9.06953e-19 