# vtk DataFile Version 2.0
track0
ASCII
DATASET POLYDATA
POINTS 12654 double
-0.0205 0.001 1e-05
-0.0204991 0.00100536 1e-05
-0.0204976 0.00101063 1e-05
-0.0204947 0.00101518 1e-05
-0.0204905 0.00101864 1e-05
-0.0204746 0.00102682 1e-05
-0.0201831 0.00105563 1e-05
-0.0203615 0.00128795 1e-05
-0.0204488 0.00141936 1e-05
-0.0201625 0.0014444 1e-05
-0.0201519 0.00173163 1e-05
-0.0202218 0.00184007 1e-05
-0.0200495 0.00193025 1e-05
-0.0200808 0.00212221 1e-05
-0.0201294 0.00229098 1e-05
-0.0200087 0.00238763 1e-05
-0.0199911 0.00254122 1e-05
-0.0200041 0.00269528 1e-05
-0.0199827 0.00277425 1e-05
-0.019869 0.00287784 1e-05
-0.0198179 0.00302292 1e-05
-0.0198054 0.00317623 1e-05
-0.0197599 0.00329221 1e-05
-0.0196347 0.00340323 1e-05
-0.0195486 0.00354672 1e-05
-0.0194776 0.0036983 1e-05
-0.019391 0.0038415 1e-05
-0.0193841 0.00384734 1e-05
-0.0193107 0.00390807 1e-05
-0.0192439 0.00397591 1e-05
-0.019179 0.00404572 1e-05
-0.0191113 0.00411265 1e-05
-0.0190172 0.00419782 1e-05
-0.0189564 0.00424672 1e-05
-0.0188939 0.00429333 1e-05
-0.0188297 0.00433763 1e-05
-0.018764 0.00437961 1e-05
-0.0186584 0.00444232 1e-05
-0.0184262 0.00456522 1e-05
-0.0181851 0.00466943 1e-05
-0.0179369 0.00475559 1e-05
-0.0176828 0.0048219 1e-05
-0.0174976 0.00485343 1e-05
-0.0172058 0.00488411 1e-05
-0.0169124 0.00488581 1e-05
-0.0166199 0.00486339 1e-05
-0.0163297 0.00482013 1e-05
-0.0160387 0.00475597 1e-05
-0.0158296 0.00469324 1e-05
-0.0156242 0.00461947 1e-05
-0.015423 0.00453501 1e-05
-0.0152246 0.0044441 1e-05
-0.015221 0.00444232 1e-05
-0.0151044 0.00438394 1e-05
-0.0149906 0.00432028 1e-05
-0.01488 0.00425128 1e-05
-0.0147717 0.00417865 1e-05
-0.0146381 0.00408314 1e-05
-0.0145774 0.00403598 1e-05
-0.0145176 0.00398773 1e-05
-0.0144587 0.00393838 1e-05
-0.0144008 0.00388792 1e-05
-0.014355 0.00384734 1e-05
-0.0142309 0.00373631 1e-05
-0.0141134 0.00361838 1e-05
-0.0140033 0.0034934 1e-05
-0.0138992 0.00336342 1e-05
-0.0138448 0.00329221 1e-05
-0.0137676 0.00318862 1e-05
-0.013698 0.00307984 1e-05
-0.0136347 0.00296725 1e-05
-0.0135752 0.0028526 1e-05
-0.0135381 0.00277425 1e-05
-0.013495 0.0026776 1e-05
-0.0134591 0.00257806 1e-05
-0.0134272 0.00247718 1e-05
-0.0133999 0.00237496 1e-05
-0.0133819 0.00229098 1e-05
-0.0133669 0.0022008 1e-05
-0.0133578 0.00210982 1e-05
-0.0133542 0.00201846 1e-05
-0.0133565 0.00192706 1e-05
-0.013365 0.00184007 1e-05
-0.0133798 0.00175593 1e-05
-0.0134023 0.00167351 1e-05
-0.0134317 0.00159329 1e-05
-0.0134681 0.00151599 1e-05
-0.0135247 0.00141936 1e-05
-0.0135821 0.00134085 1e-05
-0.0136504 0.00127163 1e-05
-0.0137246 0.00120865 1e-05
-0.0138032 0.00115143 1e-05
-0.013997 0.00102682 1e-05
-0.0141252 0.000957595 1e-05
-0.0142602 0.000902622 1e-05
-0.0143984 0.000856442 1e-05
-0.0145372 0.000812298 1e-05
-0.0146381 0.000781912 1e-05
-0.014722 0.000757642 1e-05
-0.0148062 0.000734718 1e-05
-0.0148908 0.000712933 1e-05
-0.0149759 0.00069316 1e-05
-0.0151495 0.000660566 1e-05
-0.0153273 0.00063798 1e-05
-0.0155056 0.000618814 1e-05
-0.0156841 0.00060231 1e-05
-0.0158627 0.000587801 1e-05
-0.0160387 0.00056809 1e-05
-0.0162827 0.00051824 1e-05
-0.0165306 0.000493488 1e-05
-0.0167794 0.00048242 1e-05
-0.0170284 0.000475619 1e-05
-0.0174976 0.000406382 1e-05
-0.0174976 0.000406382 1e-05
-0.0174976 0.000406382 1e-05
-0.0174976 0.000406382 1e-05
-0.0174976 0.000406382 1e-05
-0.0174976 0.000406382 1e-05
-0.0174952 0.000388874 1e-05
-0.0174898 0.000372043 1e-05
-0.0174821 0.000356132 1e-05
-0.0174727 0.00034117 1e-05
-0.0174557 0.000318841 1e-05
-0.0173838 0.000255072 1e-05
-0.0172967 0.000214401 1e-05
-0.0172047 0.000186608 1e-05
-0.0171105 0.000167068 1e-05
-0.0160387 4.48754e-06 1e-05
-0.0160287 3.59004e-06 1e-05
-0.0160187 3.1313e-06 1e-05
-0.0160086 2.7147e-06 1e-05
-0.0159986 2.29811e-06 1e-05
-0.0159433 0 1e-05
-0.0205 0.00367778 1e-05
-0.0203955 0.00371169 1e-05
-0.0203045 0.00377319 1e-05
-0.0202171 0.00383976 1e-05
-0.020198 0.00384734 1e-05
-0.0199618 0.0039343 1e-05
-0.019766 0.00409242 1e-05
-0.0196202 0.0042975 1e-05
-0.0194753 0.00444232 1e-05
-0.0193837 0.00449614 1e-05
-0.0192963 0.00455664 1e-05
-0.0192132 0.00462286 1e-05
-0.0191277 0.00468597 1e-05
-0.0190172 0.00476146 1e-05
-0.0189141 0.00482517 1e-05
-0.0188083 0.00488434 1e-05
-0.0187001 0.00493906 1e-05
-0.0185899 0.00498944 1e-05
-0.0183684 0.00508 1e-05
-0.0181943 0.00513498 1e-05
-0.018018 0.005183 1e-05
-0.0178401 0.00522421 1e-05
-0.0176607 0.00525848 1e-05
-0.0174976 0.00528145 1e-05
-0.0172058 0.0053093 1e-05
-0.0169127 0.0053141 1e-05
-0.0166201 0.00529706 1e-05
-0.0163294 0.00525982 1e-05
-0.0160387 0.00520478 1e-05
-0.0159408 0.00517982 1e-05
-0.0158435 0.00515289 1e-05
-0.0157466 0.00512407 1e-05
-0.0156502 0.00509405 1e-05
-0.015607 0.00508 1e-05
-0.0154132 0.00501572 1e-05
-0.0152228 0.00494197 1e-05
-0.0150366 0.0048584 1e-05
-0.0148546 0.00476576 1e-05
-0.0146381 0.00464574 1e-05
-0.0145721 0.00460506 1e-05
-0.0145067 0.0045635 1e-05
-0.0144418 0.00452105 1e-05
-0.0143775 0.00447781 1e-05
-0.0143252 0.00444232 1e-05
-0.0141517 0.00432332 1e-05
-0.0139847 0.00419532 1e-05
-0.0138255 0.0040578 1e-05
-0.0136709 0.00391506 1e-05
-0.0136005 0.00384734 1e-05
-0.0135391 0.00378714 1e-05
-0.0134798 0.00372485 1e-05
-0.013422 0.00366114 1e-05
-0.0133651 0.00359665 1e-05
-0.0132934 0.00351294 1e-05
-0.0132571 0.00346879 1e-05
-0.0132212 0.00342428 1e-05
-0.0131858 0.00337941 1e-05
-0.0131509 0.00333415 1e-05
-0.0131191 0.00329221 1e-05
-0.013041 0.00318862 1e-05
-0.0129649 0.00308359 1e-05
-0.0128916 0.00297658 1e-05
-0.0128215 0.00286743 1e-05
-0.0127642 0.00277425 1e-05
-0.0127065 0.0026776 1e-05
-0.0126503 0.00258012 1e-05
-0.0125956 0.00248176 1e-05
-0.0125424 0.0023826 1e-05
-0.0124956 0.00229098 1e-05
-0.0124521 0.0022008 1e-05
-0.0124088 0.00211048 1e-05
-0.0123658 0.00202004 1e-05
-0.012323 0.00192947 1e-05
-0.0122821 0.00184007 1e-05
-0.0122472 0.00175593 1e-05
-0.0122109 0.00167242 1e-05
-0.0121732 0.00158947 1e-05
-0.0121341 0.00150722 1e-05
-0.01209 0.00141936 1e-05
-0.0120725 0.00138549 1e-05
-0.0120536 0.00135238 1e-05
-0.0120335 0.00131999 1e-05
-0.0120122 0.0012884 1e-05
-0.0120025 0.00127525 1e-05
-0.0119646 0.00122557 1e-05
-0.0119235 0.00117843 1e-05
-0.0118794 0.00113418 1e-05
-0.0118322 0.00109312 1e-05
-0.0117443 0.00102682 1e-05
-0.0116294 0.000953567 1e-05
-0.0115065 0.00089455 1e-05
-0.011379 0.00084629 1e-05
-0.0112487 0.000806468 1e-05
-0.0107632 0.00071953 1e-05
-0.0105252 0.000728627 1e-05
-0.0102871 0.000725092 1e-05
-0.010049 0.000723217 1e-05
-0.00981085 0.000722356 1e-05
-0.00957337 0.000722137 1e-05
-0.00934491 0.000731663 1e-05
-0.00911628 0.00072823 1e-05
-0.00888764 0.00072588 1e-05
-0.00865899 0.000724274 1e-05
-0.00843108 0.000723189 1e-05
-0.00821175 0.000732249 1e-05
-0.00799227 0.000728227 1e-05
-0.00777277 0.000725213 1e-05
-0.00755327 0.000722925 1e-05
-0.00733443 0.000721169 1e-05
-0.00712387 0.000729579 1e-05
-0.00691317 0.000725428 1e-05
-0.00670246 0.000722194 1e-05
-0.00649174 0.000719639 1e-05
-0.0062816 0.000717596 1e-05
-0.00607944 0.000725291 1e-05
-0.00587718 0.000721396 1e-05
-0.00567491 0.000718287 1e-05
-0.00547262 0.000715775 1e-05
-0.00527083 0.000713723 1e-05
-0.00507675 0.000720698 1e-05
-0.00488258 0.000717192 1e-05
-0.0046884 0.000714342 1e-05
-0.00449421 0.000712 1e-05
-0.00430044 0.000710057 1e-05
-0.00411412 0.000716351 1e-05
-0.00392772 0.00071326 1e-05
-0.0037413 0.000710695 1e-05
-0.00355489 0.000708545 1e-05
-0.00336883 0.000706725 1e-05
-0.00318995 0.000712336 1e-05
-0.003011 0.000709541 1e-05
-0.00283205 0.000707174 1e-05
-0.0026531 0.000705148 1e-05
-0.00247443 0.0007034 1e-05
-0.0023027 0.000708292 1e-05
-0.00213092 0.000705733 1e-05
-0.00195913 0.000703441 1e-05
-0.00178734 0.000701366 1e-05
-0.00161577 0.000699469 1e-05
-0.0014509 0.000703285 1e-05
-0.00128601 0.00070052 1e-05
-0.00112112 0.000697761 1e-05
-0.000956226 0.000695005 1e-05
-0.000791418 0.000692254 1e-05
-0.000633135 0.000693838 1e-05
-0.000474885 0.000690197 1e-05
-0.000316634 0.000686604 1e-05
-0.000158382 0.000683051 1e-05
0 0.000679527 1e-05
0.000105677 0.000678937 1e-05
0.000211335 0.000676795 1e-05
0.000317 0.000675099 1e-05
0.000422671 0.000673794 1e-05
0.000528387 0.000672836 1e-05
0.000634886 0.000672939 1e-05
0.000741385 0.000673059 1e-05
0.000847881 0.000673894 1e-05
0.00095437 0.000675364 1e-05
0.00106088 0.000677403 1e-05
0.00116821 0.000680647 1e-05
0.00127553 0.000684072 1e-05
0.00138283 0.000688207 1e-05
0.0014901 0.000692989 1e-05
0.00159752 0.000698368 1e-05
0.00170568 0.000705799 1e-05
0.00181385 0.000713136 1e-05
0.00192196 0.000721258 1e-05
0.00203001 0.000730117 1e-05
0.00213833 0.000739703 1e-05
0.00224733 0.000752061 1e-05
0.0023563 0.000764645 1e-05
0.00246519 0.000777999 1e-05
0.00257398 0.00079211 1e-05
0.00268334 0.00080751 1e-05
0.00279319 0.000824871 1e-05
0.00290287 0.000843259 1e-05
0.00301238 0.000862628 1e-05
0.00312175 0.000882802 1e-05
0.00323259 0.000904168 1e-05
0.00334329 0.000926487 1e-05
0.00345376 0.000949965 1e-05
0.003564 0.000974461 1e-05
0.00367405 0.000999798 1e-05
0.00378611 0.0010265 1e-05
0.00382363 0.00103567 1e-05
0.00386113 0.00104495 1e-05
0.00389861 0.00105431 1e-05
0.00393607 0.00106375 1e-05
0.00396966 0.00107229 1e-05
0.00404452 0.00109147 1e-05
0.00411928 0.00111099 1e-05
0.00419395 0.00113087 1e-05
0.00426853 0.0011511 1e-05
0.00434393 0.00117185 1e-05
0.00445636 0.00120287 1e-05
0.00456852 0.00123485 1e-05
0.00468043 0.00126772 1e-05
0.00479218 0.0013011 1e-05
0.00490609 0.00133527 1e-05
0.00501636 0.00136849 1e-05
0.00512645 0.00140233 1e-05
0.00523641 0.00143658 1e-05
0.00534629 0.00147109 1e-05
0.0054411 0.00150114 1e-05
0.0054474 0.00150315 1e-05
0.00545371 0.00150516 1e-05
0.00546001 0.00150718 1e-05
0.00546631 0.00150919 1e-05
0.00547262 0.00151121 1e-05
0.00558681 0.00154776 1e-05
0.00570092 0.00158452 1e-05
0.00581497 0.0016215 1e-05
0.00592895 0.00165868 1e-05
0.00604356 0.00169623 1e-05
0.00615863 0.00173404 1e-05
0.00627371 0.00177185 1e-05
0.00638878 0.00180965 1e-05
0.00650386 0.00184745 1e-05
[...]
POINT_DATA 12654
 FIELD attributes 2
p 1 12654 float
113.778 129.014 133.36 135.96 136.673 134.533 123.704 761.381 739.94 577.015 646.289 285.813 271.568 247.85 -59.4709 1.26577 93.833 -46.5768 -157.836 -66.8721 105.519 -39.9071 -180.899 -114.489 -55.5639 -81.178 -222.675 -229.315 -211.183 -206.244 -222.145 -239.8 -265.628 -283.153 -301.822 -321.589 -321.197 -294.849 -340.546 -388.03 -401.004 -402.901 -408.975 -412.545 -415.902 -419.992 -402.631 -380.598 -364.063 -349.458 -328.294 -308.442 -308.104 -295.452 -283.802 -269.307 -254.222 -235.961 -228.168 -220.591 -213.24 -212.605 -213.141 -179.167 -147.411 -137.866 -146.179 -151.122 -116.195 -92.2261 -83.9788 -83.0413 -92.8311 -63.64 -56.3171 -49.2592 -42.5114 -45.8116 -30.9534 -25.347 -20.1326 -15.3779 -18.5996 -7.62839 -5.22618 -3.38985 -2.16205 -26.153 -3.62792 -4.29413 -7.6865 -20.6917 -99.504 -96.268 -107.843 -148.279 -188.813 -218.186 -240.354 -262.561 -288.788 -323.287 -391.113 -446.734 -502.902 -559.481 -623.162 -692.783 -805.705 -917.64 -1030.86 -1172.74 -1442.69 -1442.69 -1442.69 -1442.69 -1442.69 -1442.69 -1441.17 -1437.92 -1433.36 -1427.82 -1421.27 -1372.33 -1320.52 -1268.64 -1217.26 -714.79 -710.197 -706.189 -702.71 -699.232 -680.042
97.4928 97.3891 72.7015 -5.38535 -16.6799 -24.9591 21.0244 -46.6585 -146.199 -142.395 -135.908 -149.769 -164.648 -184.641 -202.421 -221.424 -241.568 -238.043 -230.823 -250.288 -270.467 -289.118 -295.506 -303.048 -309.533 -320.95 -317.322 -307.496 -299.339 -295.598 -291.797 -284.717 -277.799 -274.764 -262.261 -251.233 -239.563 -221.907 -201.51 -195.297 -189.212 -184.158 -182.945 -182.01 -151.883 -121.507 -110.025 -112.772 -114.453 -96.801 -85.7535 -80.816 -75.93 -69.7379 -66.7434 -63.7732 -60.8284 -58.9402 -59.2319 -45.0552 -36.3647 -27.8249 -26.3129 -27.6358 -12.184 3.31363 9.65095 7.33499 5.08897 20.5385 31.8422 35.9573 37.9113 34.7567 48.7184 51.3318 53.9272 56.5002 56.1623 59.8478 59.9895 60.1193 60.2363 60.2807 60.7742 61.2593 61.7332 62.1934 58.6226 59.5817 59.9447 59.8063 54.2915 35.1592 30.936 24.8738 18.8989 12.9776 5.87884 2.77996 -1.57695 -5.88636 -10.1631 -15.2283 -16.1278 -18.7842 -21.3917 -23.9639 -27.7594 -27.4979 -29.2156 -30.8874 -32.5251 -35.5672 -34.8051 -35.9478 -37.0524 -38.128 -40.5704 -39.4979 -40.2046 -40.8807 -41.5331 -43.487 -42.2112 -42.6151 -42.9952 -43.3565 -44.9734 -43.6104 -43.7659 -43.903 -44.0255 -45.3048 -43.8334 -43.7511 -43.6578 -43.5556 -44.5416 -42.9801 -42.3636 -41.747 -41.1302 -41.3041 -39.6577 -38.7594 -37.8598 -36.9593 -36.5664 -35.5297 -34.8498 -34.1624 -33.4684 -32.9589 -31.9885 -31.0203 -30.0568 -29.0973 -28.2185 -27.1165 -25.9137 -24.7309 -23.5663 -22.3758 -21.8198 -20.8971 -20.0066 -19.1465 -17.8941 -17.9349 -17.4475 -16.9934 -16.3754 -15.5149 -15.2593 -15.0429 -14.8869 -14.761 -14.6667 -14.1282 -13.833 -13.9388 -14.0815 -14.6281 -14.4428 -14.4971 -14.6424 -14.7911 -14.9277 -15.137 -15.36 -15.5967 -15.6242 -15.0655 -16.0027 -16.9179 -17.4014 -17.1466 -16.8902 -17.9723 -18.6417 -19.0174 -19.3981 -19.7312 -19.743 -19.7548 -19.7666 -19.7779 -19.7884 -20.2664 -20.7842 -21.3035 -21.8738 -22.4983 -23.0415 -23.5846 -24.2565 -25.0731 -26.0521 -26.3913 -26.7521 -27.1301 -27.508 -27.8954 -28.314 -28.7325 -29.1511 -29.5025 -29.7357 -30.4783 -31.2659 -32.1167 -32.7165 -33.314 -34.0965 -34.7613 -35.2773 -35.7971 -36.4077 -36.5802 -36.7093 -36.8238 -36.9386 -37.0585 -37.4473 -37.8401 -38.2369 -38.6875 -39.3866 -39.4194 -39.6265 -40.1325 -41.0511 -41.9654 -41.9653 -42.0011 -42.4365 -43.1358 -44.0285 -44.0209 -44.418 -44.8228 -45.2353 -45.687 -45.6877 -45.7101 -45.7325 -45.755 -45.778 -46.1316 -46.4929 -46.862 -47.2391 -47.8183 -47.8341 -48.1776 -48.537 -49.0294 -49.6941 -49.6755 -49.7067 -50.0344 -50.6747 -51.3201 -51.2582 -51.2045 -51.4896 -52.1154 -52.7483 -52.6635 -52.5869 -52.823 -53.4102 -54.0064 -53.881 -53.8114 -54.039 -54.5428 -55.1208 -54.9709 -54.9251 -55.1375 -55.5892 -56.1476 -55.9993 -55.9525 -56.1576 -56.5963 -57.1215 -56.9915 -56.9098 -57.1078 -57.5512 -58.0256 -57.9218 -57.8243 -58.0095 -58.4126 -58.826 -58.7481 -58.6762 -58.793 -59.136 -59.4882 -59.4329 -59.398 -59.4681 -59.6859 -59.9773 -59.9374 -59.9628 -60.0161 -60.0753 -60.2824 -60.2742 -60.3034 -60.3357 -60.3712 -60.4027 -60.4168 -60.4311 -60.4458 -60.4607 -60.4799 -60.4784 -60.5177 -60.5612 -60.6095 -60.6741 -60.5961 -60.5584 -60.5941 -60.6414 -60.6927 -60.6336 -60.5772 -60.5274 -60.5437 -60.5848 -60.5391 -60.5009 -60.465 -60.4312 -60.4027 -60.4017 -60.4008 -60.3998 -60.3988 -60.3973 -60.3643 -60.3374 -60.3122 -60.2881 -60.2624 -60.2047 -60.1483 -60.1255 -60.111 -60.0981 -60.064 -60.0314 -60.0002 -59.9703 -59.956 -59.9542 -59.9528 -59.9517 -59.9506 -59.9495 -59.941 -59.9332 -59.9262 -59.9277 -59.948 -59.9319 -59.9166 -59.9372 -59.9883 -60.0409 -60.0553 -60.0891 -60.1343 -60.1806 -60.2254 -60.2304 -60.2353 -60.2403 -60.2477 -60.2582 -60.3209 -60.3948 -60.4702 -60.5784 -60.7108 -60.7873 -60.8694 -60.9958 -61.1253 -61.2786 -61.3044 -61.3351 -61.3717 -61.4086 -61.4445 -61.5601 -61.6775 -61.7968 -61.9504 -62.1272 -62.2799 -62.4367 -62.6512 -62.8816 -63.1371 -63.1733 -63.2119 -63.2583 -63.305 -63.3503 -63.554 -63.7621 -63.9748 -64.2342 -64.5108 -64.7131 -64.9231 -65.1778 -65.439 -65.6636 -65.7518 -65.8407 -65.9321 -66.0375 -66.1445 -66.4938 -66.8568 -67.2676 -67.7097 -68.1943 -68.207 -68.2196 -68.233 -68.2469 -68.2606 -68.6994 -69.152 -69.65 -70.2278 -70.8477 -70.9117 -70.976 -71.048 -71.1261 -71.2025 -71.6909 -72.1897 -72.7443 -73.3818 -74.0495 -74.1583 -74.2678 -74.3934 -74.5324 -74.6681 -75.1984 -75.7337 -76.3296 -77.0205 -77.7207 -77.8911 -78.0624 -78.2641 -78.4853 -78.7032 -79.2053 -79.7069 -80.2567 -80.9174 -81.5708 -81.8342 -82.0977 -82.4315 -82.792 -83.1521 -83.519 -83.8843 -84.2707 -84.7636 -85.2504 -85.6416 -86.0299 -86.5672 -87.1289 -87.7003 -87.8328 -87.9651 -88.099 -88.282 -88.4647 -88.8754 -89.2797 -89.8524 -90.5735 -91.2872 -91.3526 -91.4176 -91.5361 -91.6559 -91.7764 -92.0805 -92.3843 -92.6876 -93.1171 -93.561 -93.6973 -93.84 -94.1246 -94.4127 -94.7056 -94.7505 -94.7956 -94.8408 -94.8962 -94.954 -94.9898 -95.1157 -95.27 -95.5106 -95.7671 -95.7216 -95.6817 -95.6935 -95.7079 -95.7248 -95.7079 -95.6933 -95.681 -95.6564 -95.6323 -95.3887 -95.1494 -94.9077 -94.7337 -94.6047 -94.5281 -94.4525 -94.383 -94.3142 -94.2463 -93.9305 -93.6218 -93.3202 -92.9376 -92.5358 -92.0079 -91.4723 -90.8653 -90.2719 -89.7161 -89.6736 -89.6311 -89.5887 -89.5332 -89.4741 -88.6598 -87.8776 -87.1074 -86.1405 -85.1421 -84.5714 -83.9875 -83.2961 -82.6107 -81.952 -81.5495 -81.1486 -80.7494 -80.2437 -79.706 -78.5111 -77.3258 -75.9996 -74.4969 -72.9629 -72.5365 -72.0992 -71.5611 -71.0244 -70.4974 -69.4668 -68.441 -67.42 -66.1568 -64.8596 -63.5039 -62.1544 -60.5312 -58.9086 -57.3595 -57.0138 -56.6683 -56.3193 -55.916 -55.5103 -53.4636 -51.4237 -49.2764 -46.9725 -44.5949 -44.1877 -43.7807 -43.3309 -42.8738 -42.4205 -40.4808 -38.5442 -36.5815 -34.465 -32.2917 -31.1307 -29.9705 -28.7363 -27.4834 -26.2513 -24.8212 -23.3918 -21.9462 -20.4427 -18.9153 -17.005 -15.0954 -13.128 -11.1408 -9.18975 -8.294 -7.39833 -6.4984 -5.58729 -4.66977 -2.08771 0.494156 3.08365 5.67633 8.23491 8.61336 8.9918 9.36764 9.73775 10.1084 13.1247 16.1412 19.0998 22.0175 24.9224 25.0137 25.1051 25.1938 25.2812 25.3687 28.2258 31.0817 33.8717 36.5315 39.1463 39.6384 40.1304 40.5958 41.0486 41.5038 43.7437 45.9803 48.1379 50.1266 52.0457 52.9378 53.829 54.6408 55.4215 56.2185 57.7045 59.1861 60.6048 61.8434 63.0255 64.3093 65.5881 66.6797 67.7198 68.822 69.4687 70.113 70.7367 71.2287 71.7028 73.2486 74.7758 75.9472 77.0346 77.9335 78.0365 78.1372 78.2058 78.2741 78.3434 79.1508 79.9346 80.694 81.0445 81.3083 81.82 82.2247 82.332 82.4199 82.5049 82.5184 82.5318 82.5449 82.5391 82.5191 82.475 82.3566 82.2086 81.7895 81.2673 80.9614 80.6261 79.9598 79.2092 78.4122 78.0231 77.4755 76.8911 76.2995 75.5329 75.2677 75.0011 74.7329 74.4605 74.077 73.1386 72.0991 71.0453 69.8849 68.4885 67.4878 66.4608 65.2569 63.7544 62.2602 61.1641 60.0639 58.7244 57.185 55.6487 54.507 53.2688 51.8693 50.41 48.8671 47.7063 46.3559 44.976 43.5936 42.1127 40.9248 39.6094 38.2919 36.9726 35.6145 34.4525 33.2342 32.0144 30.7934 29.5662 29.2622 28.9483 28.6344 28.3204 27.9672 27.1791 26.3907 25.602 24.8129 24.0349 23.0217 22.0243 21.0264 20.028 19.0532 18.1303 17.2403 16.3499 15.4591 14.6012 13.7674 12.9782 12.1888 11.3991 10.6487 9.90168 9.20682 8.51177 7.81652 7.16502 6.50059 5.89287 5.285 4.67699 4.11572 3.52715 2.99995 2.47265 1.94524 1.46855 0.95101 0.499562 0.0480469 -0.403534 -0.800694 -1.24984 -1.63114 -2.01249 -2.39387 -2.71974 -3.10372 -3.42085 -3.73801 -4.05518 -4.31861 -4.63959 -4.89763 -5.15567 -5.41373 -5.62282 -5.88195 -6.08587 -6.2898 -6.49372 -6.65723 -6.85701 -7.01169 -7.16636 -7.32102 -7.44618 -7.58753 -7.6961 -7.80465 -7.9132 -8.00479 -8.0888 -8.15456 -8.22031 -8.28605 -8.34819 -8.35907 -8.36602 -8.37297 -8.37992 -8.38641 -8.40544 -8.42447 -8.44351 -8.46254 -8.48719 -8.46796 -8.45548 -8.44299 -8.43051 -8.43148 -8.36769 -8.31943 -8.27117 -8.22291 -8.19545 -8.08976 -8.00857 -7.92736 -7.84616 -7.79511 -7.65369 -7.54585 -7.438 -7.33015 -7.26304 -7.09277 -6.96612 -6.83948 -6.71404 -6.63733 -6.44817 -6.3035 -6.16475 -6.03746 -5.94865 -5.74841 -5.58378 -5.43798 -5.31482 -5.22035 -5.01658 -4.83552 -4.68597 -4.56949 -4.47017 -4.27026 -4.07881 -3.92637 -3.81364 -3.70639 -3.51291 -3.31942 -3.16401 -3.04424 -2.92451 -2.73237 -2.54022 -2.37879 -2.2483 -2.11786 -1.92384 -1.72981 -1.5643 -1.42689 -1.28956 -1.09242 -0.895271 -0.728214 -0.589199 -0.450259 -0.252742 -0.0552056 0.1089 0.244653 0.379254 0.573515 0.759883 0.916387 1.04687 1.16752 1.35112 1.51885 1.66494 1.79209 1.8998 2.07474 2.22353 2.3572 2.47937 2.56997 2.73048 2.86112 2.98601 3.10909 3.19518 3.34989 3.47541 3.60095 3.72649 3.82366 3.9777 4.1057 4.23371 4.36172 4.46847 4.61843 4.74575 4.87308 5.00041 5.11341 5.25305 5.37698 5.50092 5.62486 5.74166 5.86593 5.98074 6.09555 6.21038 6.3233 6.36147 6.39757 6.43366 6.46976 6.50757 6.5752 6.64283 6.71046 6.77809 6.84701 6.94646 7.04729 7.14813 7.24896 7.35521 7.45885 7.56615 7.67345 7.78074 7.89762 8.00899 8.12426 8.23953 8.3548 8.48016 8.59433 8.71101 8.82768 8.94436 9.06936 9.17966 9.29199 9.40433 9.51666 9.63446 9.73571 9.8409 9.94609 10.0516 10.1601 10.2499 10.3472 10.4459 10.546 10.6506 10.7338 10.8229 10.9146 11.0083 11.1051 11.1785 11.2561 11.3371 11.4216 11.5093 11.5726 11.6384 11.708 11.7813 11.8568 11.9079 11.961 12.0184 12.0792 12.1413 12.179 12.217 12.2559 12.2948 12.3336 12.3496 12.366 12.3832 12.3999 12.4164 12.412 12.4075 12.4024 12.3942 12.385 12.3559 12.3266 12.2967 12.2636 12.2291 12.176 12.1228 12.0694 12.013 11.9541 11.8781 11.8016 11.7247 11.6451 11.5609 11.4614 11.363 11.2651 11.1664 11.0625 10.9453 10.8307 10.7162 10.6016 10.4812 10.349 10.2229 10.0966 9.97032 9.84188 9.7044 9.57236 9.44014 9.30776 9.17389 9.03523 8.90351 8.77151 8.63923 8.50821 8.37655 8.25172 8.12654 8.00099 7.878 7.75704 7.64401 7.53055 7.41667 7.30778 7.19968 7.10439 7.00861 6.91301 6.8304 6.74637 6.66951 6.59453 6.52448 6.46042 6.39843 6.33715 6.28098 6.23684 6.19271 6.15155 6.10992 6.07859 6.05627 6.03367 6.01533 5.99966 5.99181 5.98343 5.97437 5.97068 5.97972 5.98865 5.99747 6.00587 6.00846 6.01368 6.0189 6.02412 6.02929 6.04817 6.06701 6.08582 6.1046 6.13056 6.17424 6.21283 6.25133 6.29436 6.34149 6.39756 6.45367 6.50904 6.56753 6.62601 6.69345 6.76199 6.83459 6.90471 6.97177 7.04771 7.12936 7.21102 7.29268 7.37294 7.404 7.43469 7.46539 7.49609 7.53006 7.58451 7.63895 7.69338 7.74781 7.80084 7.89036 7.97783 8.06526 8.1526 8.23742 8.33057 8.42314 8.51543 8.60704 8.69794 8.79708 8.89621 8.99538 9.09183 9.18807 9.29357 9.39906 9.49545 9.57973 9.66397 9.75838 9.85281 9.9288 9.98706 10.0453 10.1131 10.181 10.2298 10.2638 10.2977 10.3405 10.3834 10.4029 10.4073 10.4113 10.4236 10.429 10.4132 10.3872 10.3547 10.3296 10.2822 10.225 10.1663 10.0957 10.0595 10.0069 9.95347 9.89925 9.87706 9.82645 9.77536 9.72376 9.6653 9.59217 9.46338 9.33027 9.1642 8.961 8.72921 8.70476 8.68022 8.65253 8.62091 8.59392 8.37675 8.1562 7.88673 7.59 7.5342 7.46035 7.37926 7.28656 7.19379 7.0812 6.9824 6.88352 6.7846 6.6753 6.5788 6.40029 6.21855 6.02832 5.80784 5.63112 5.46238 5.28891 5.08967 4.8861 4.69395 4.56649 4.41676 4.26612 4.1155 3.95433 3.91015 3.86598 3.8218 3.77763 3.73417 3.53246 3.33433 3.1361 2.93967 2.74825 2.53704 2.32571 2.12903 1.94425 1.75303 1.53954 1.33189 1.13912 0.946548 0.755611 0.651619 0.558003 0.466621 0.375132 0.29095 0.187655 0.0842327 -0.0193097 -0.119439 -0.209904 -0.416796 -0.611147 -0.799983 -0.952476 -1.12375 -1.32808 -1.51609 -1.67549 -1.83519 -2.02539 -2.03255 -2.03913 -2.0445 -2.04988 -2.05523 -2.21447 -2.37447 -2.53514 -2.6653 -2.80449 -2.95507 -3.10023 -3.20168 -3.30348 -3.39378 -3.4336 -3.47347 -3.5122 -3.53185 -3.55417 -3.71285 -3.87023 -3.9751 -4.05182 -4.14519 -4.1546 -4.16401 -4.16938 -4.17168 -4.17417 -4.26504 -4.35435 -4.42012 -4.43539 -4.45047 -4.47073 -4.48466 -4.46901 -4.4547 -4.42798 -4.42978 -4.43143 -4.43293 -4.43277 -4.4163 -4.36595 -4.29093 -4.21399 -4.13519 -4.02519 -3.90596 -3.7455 -3.58303 -3.52669 -3.47529 -3.42427 -3.37364 -3.31249 -3.23536 -3.02644 -2.8123 -2.57567 -2.29312 -2.00221 -1.93017 -1.85812 -1.77883 -1.69648 -1.62579 -1.39377 -1.16175 -0.917372 -0.65657 -0.388263 -0.31576 -0.243234 -0.170492 -0.0973014 -0.0287967 0.265849 0.561083 0.855253 1.14921 1.41791 1.42457 1.43122 1.43773 1.44422 1.45071 1.71506 1.97959 2.24179 2.46828 2.68059 2.81056 2.9406 3.05202 3.1629 3.27401 3.39139 3.50874 3.62607 3.72103 3.81718 4.05055 4.2837 4.47041 4.65597 4.8533 4.85431 4.85531 4.85612 4.85692 4.85772 5.04262 5.2271 5.41114 5.54698 5.69966 5.79624 5.89259 5.9644 6.03428 6.10347 6.18315 6.26263 6.34091 6.38797 6.44129 6.57484 6.70724 6.79667 6.87816 6.95788 6.97927 7.00061 7.01938 7.02796 7.03716 7.14668 7.25397 7.31887 7.36131 7.40859 7.4107 7.41281 7.41389 7.41344 7.41298 7.45912 7.50273 7.51986 7.5066 7.48957 7.48846 7.48735 7.48416 7.47967 7.47505 7.4535 7.42964 7.38636 7.30638 7.22602 7.20057 7.17503 7.14201 7.10726 7.06747 6.99908 6.92993 6.85894 6.76968 6.68026 6.57358 6.46643 6.31177 6.15657 5.93965 5.91658 5.89347 5.87032 5.83996 5.80749 5.58637 5.37093 5.15595 4.95718 4.75804 4.60169 4.40749 4.13018 3.85423 3.48481 3.43723 3.38959 3.34187 3.28299 3.21147 2.81617 2.48985 2.16744 2.00428 1.91012 1.8014 1.6924 1.21814 0.649491 0