# vtk DataFile Version 2.0
track0
ASCII
DATASET POLYDATA
POINTS 12654 double
-0.0205 0.001 1e-05
-0.0204991 0.00100536 1e-05
-0.0204976 0.00101063 1e-05
-0.0204947 0.00101518 1e-05
-0.0204905 0.00101864 1e-05
-0.0204746 0.00102682 1e-05
-0.0201831 0.00105563 1e-05
-0.0203615 0.00128795 1e-05
-0.0204488 0.00141936 1e-05
-0.0201625 0.0014444 1e-05
-0.0201519 0.00173163 1e-05
-0.0202218 0.00184007 1e-05
-0.0200495 0.00193025 1e-05
-0.0200808 0.00212221 1e-05
-0.0201294 0.00229098 1e-05
-0.0200087 0.00238763 1e-05
-0.0199911 0.00254122 1e-05
-0.0200041 0.00269528 1e-05
-0.0199827 0.00277425 1e-05
-0.019869 0.00287784 1e-05
-0.0198179 0.00302292 1e-05
-0.0198054 0.00317623 1e-05
-0.0197599 0.00329221 1e-05
-0.0196347 0.00340323 1e-05
-0.0195486 0.00354672 1e-05
-0.0194776 0.0036983 1e-05
-0.019391 0.0038415 1e-05
-0.0193841 0.00384734 1e-05
-0.0193107 0.00390807 1e-05
-0.0192439 0.00397591 1e-05
-0.019179 0.00404572 1e-05
-0.0191113 0.00411265 1e-05
-0.0190172 0.00419782 1e-05
-0.0189564 0.00424672 1e-05
-0.0188939 0.00429333 1e-05
-0.0188297 0.00433763 1e-05
-0.018764 0.00437961 1e-05
-0.0186584 0.00444232 1e-05
-0.0184262 0.00456522 1e-05
-0.0181851 0.00466943 1e-05
-0.0179369 0.00475559 1e-05
-0.0176828 0.0048219 1e-05
-0.0174976 0.00485343 1e-05
-0.0172058 0.00488411 1e-05
-0.0169124 0.00488581 1e-05
-0.0166199 0.00486339 1e-05
-0.0163297 0.00482013 1e-05
-0.0160387 0.00475597 1e-05
-0.0158296 0.00469324 1e-05
-0.0156242 0.00461947 1e-05
-0.015423 0.00453501 1e-05
-0.0152246 0.0044441 1e-05
-0.015221 0.00444232 1e-05
-0.0151044 0.00438394 1e-05
-0.0149906 0.00432028 1e-05
-0.01488 0.00425128 1e-05
-0.0147717 0.00417865 1e-05
-0.0146381 0.00408314 1e-05
-0.0145774 0.00403598 1e-05
-0.0145176 0.00398773 1e-05
-0.0144587 0.00393838 1e-05
-0.0144008 0.00388792 1e-05
-0.014355 0.00384734 1e-05
-0.0142309 0.00373631 1e-05
-0.0141134 0.00361838 1e-05
-0.0140033 0.0034934 1e-05
-0.0138992 0.00336342 1e-05
-0.0138448 0.00329221 1e-05
-0.0137676 0.00318862 1e-05
-0.013698 0.00307984 1e-05
-0.0136347 0.00296725 1e-05
-0.0135752 0.0028526 1e-05
-0.0135381 0.00277425 1e-05
-0.013495 0.0026776 1e-05
-0.0134591 0.00257806 1e-05
-0.0134272 0.00247718 1e-05
-0.0133999 0.00237496 1e-05
-0.0133819 0.00229098 1e-05
-0.0133669 0.0022008 1e-05
-0.0133578 0.00210982 1e-05
-0.0133542 0.00201846 1e-05
-0.0133565 0.00192706 1e-05
-0.013365 0.00184007 1e-05
-0.0133798 0.00175593 1e-05
-0.0134023 0.00167351 1e-05
-0.0134317 0.00159329 1e-05
-0.0134681 0.00151599 1e-05
-0.0135247 0.00141936 1e-05
-0.0135821 0.00134085 1e-05
-0.0136504 0.00127163 1e-05
-0.0137246 0.00120865 1e-05
-0.0138032 0.00115143 1e-05
-0.013997 0.00102682 1e-05
-0.0141252 0.000957595 1e-05
-0.0142602 0.000902622 1e-05
-0.0143984 0.000856442 1e-05
-0.0145372 0.000812298 1e-05
-0.0146381 0.000781912 1e-05
-0.014722 0.000757642 1e-05
-0.0148062 0.000734718 1e-05
-0.0148908 0.000712933 1e-05
-0.0149759 0.00069316 1e-05
-0.0151495 0.000660566 1e-05
-0.0153273 0.00063798 1e-05
-0.0155056 0.000618814 1e-05
-0.0156841 0.00060231 1e-05
-0.0158627 0.000587801 1e-05
-0.0160387 0.00056809 1e-05
-0.0162827 0.00051824 1e-05
-0.0165306 0.000493488 1e-05
-0.0167794 0.00048242 1e-05
-0.0170284 0.000475619 1e-05
-0.0174976 0.000406382 1e-05
-0.0174976 0.000406382 1e-05
-0.0174976 0.000406382 1e-05
-0.0174976 0.000406382 1e-05
-0.0174976 0.000406382 1e-05
-0.0174976 0.000406382 1e-05
-0.0174952 0.000388874 1e-05
-0.0174898 0.000372043 1e-05
-0.0174821 0.000356132 1e-05
-0.0174727 0.00034117 1e-05
-0.0174557 0.000318841 1e-05
-0.0173838 0.000255072 1e-05
-0.0172967 0.000214401 1e-05
-0.0172047 0.000186608 1e-05
-0.0171105 0.000167068 1e-05
-0.0160387 4.48754e-06 1e-05
-0.0160287 3.59004e-06 1e-05
-0.0160187 3.1313e-06 1e-05
-0.0160086 2.7147e-06 1e-05
-0.0159986 2.29811e-06 1e-05
-0.0159433 0 1e-05
-0.0205 0.00367778 1e-05
-0.0203955 0.00371169 1e-05
-0.0203045 0.00377319 1e-05
-0.0202171 0.00383976 1e-05
-0.020198 0.00384734 1e-05
-0.0199618 0.0039343 1e-05
-0.019766 0.00409242 1e-05
-0.0196202 0.0042975 1e-05
-0.0194753 0.00444232 1e-05
-0.0193837 0.00449614 1e-05
-0.0192963 0.00455664 1e-05
-0.0192132 0.00462286 1e-05
-0.0191277 0.00468597 1e-05
-0.0190172 0.00476146 1e-05
-0.0189141 0.00482517 1e-05
-0.0188083 0.00488434 1e-05
-0.0187001 0.00493906 1e-05
-0.0185899 0.00498944 1e-05
-0.0183684 0.00508 1e-05
-0.0181943 0.00513498 1e-05
-0.018018 0.005183 1e-05
-0.0178401 0.00522421 1e-05
-0.0176607 0.00525848 1e-05
-0.0174976 0.00528145 1e-05
-0.0172058 0.0053093 1e-05
-0.0169127 0.0053141 1e-05
-0.0166201 0.00529706 1e-05
-0.0163294 0.00525982 1e-05
-0.0160387 0.00520478 1e-05
-0.0159408 0.00517982 1e-05
-0.0158435 0.00515289 1e-05
-0.0157466 0.00512407 1e-05
-0.0156502 0.00509405 1e-05
-0.015607 0.00508 1e-05
-0.0154132 0.00501572 1e-05
-0.0152228 0.00494197 1e-05
-0.0150366 0.0048584 1e-05
-0.0148546 0.00476576 1e-05
-0.0146381 0.00464574 1e-05
-0.0145721 0.00460506 1e-05
-0.0145067 0.0045635 1e-05
-0.0144418 0.00452105 1e-05
-0.0143775 0.00447781 1e-05
-0.0143252 0.00444232 1e-05
-0.0141517 0.00432332 1e-05
-0.0139847 0.00419532 1e-05
-0.0138255 0.0040578 1e-05
-0.0136709 0.00391506 1e-05
-0.0136005 0.00384734 1e-05
-0.0135391 0.00378714 1e-05
-0.0134798 0.00372485 1e-05
-0.013422 0.00366114 1e-05
-0.0133651 0.00359665 1e-05
-0.0132934 0.00351294 1e-05
-0.0132571 0.00346879 1e-05
-0.0132212 0.00342428 1e-05
-0.0131858 0.00337941 1e-05
-0.0131509 0.00333415 1e-05
-0.0131191 0.00329221 1e-05
-0.013041 0.00318862 1e-05
-0.0129649 0.00308359 1e-05
-0.0128916 0.00297658 1e-05
-0.0128215 0.00286743 1e-05
-0.0127642 0.00277425 1e-05
-0.0127065 0.0026776 1e-05
-0.0126503 0.00258012 1e-05
-0.0125956 0.00248176 1e-05
-0.0125424 0.0023826 1e-05
-0.0124956 0.00229098 1e-05
-0.0124521 0.0022008 1e-05
-0.0124088 0.00211048 1e-05
-0.0123658 0.00202004 1e-05
-0.012323 0.00192947 1e-05
-0.0122821 0.00184007 1e-05
-0.0122472 0.00175593 1e-05
-0.0122109 0.00167242 1e-05
-0.0121732 0.00158947 1e-05
-0.0121341 0.00150722 1e-05
-0.01209 0.00141936 1e-05
-0.0120725 0.00138549 1e-05
-0.0120536 0.00135238 1e-05
-0.0120335 0.00131999 1e-05
-0.0120122 0.0012884 1e-05
-0.0120025 0.00127525 1e-05
-0.0119646 0.00122557 1e-05
-0.0119235 0.00117843 1e-05
-0.0118794 0.00113418 1e-05
-0.0118322 0.00109312 1e-05
-0.0117443 0.00102682 1e-05
-0.0116294 0.000953567 1e-05
-0.0115065 0.00089455 1e-05
-0.011379 0.00084629 1e-05
-0.0112487 0.000806468 1e-05
-0.0107632 0.00071953 1e-05
-0.0105252 0.000728627 1e-05
-0.0102871 0.000725092 1e-05
-0.010049 0.000723217 1e-05
-0.00981085 0.000722356 1e-05
-0.00957337 0.000722137 1e-05
-0.00934491 0.000731663 1e-05
-0.00911628 0.00072823 1e-05
-0.00888764 0.00072588 1e-05
-0.00865899 0.000724274 1e-05
-0.00843108 0.000723189 1e-05
-0.00821175 0.000732249 1e-05
-0.00799227 0.000728227 1e-05
-0.00777277 0.000725213 1e-05
-0.00755327 0.000722925 1e-05
-0.00733443 0.000721169 1e-05
-0.00712387 0.000729579 1e-05
-0.00691317 0.000725428 1e-05
-0.00670246 0.000722194 1e-05
-0.00649174 0.000719639 1e-05
-0.0062816 0.000717596 1e-05
-0.00607944 0.000725291 1e-05
-0.00587718 0.000721396 1e-05
-0.00567491 0.000718287 1e-05
-0.00547262 0.000715775 1e-05
-0.00527083 0.000713723 1e-05
-0.00507675 0.000720698 1e-05
-0.00488258 0.000717192 1e-05
-0.0046884 0.000714342 1e-05
-0.00449421 0.000712 1e-05
-0.00430044 0.000710057 1e-05
-0.00411412 0.000716351 1e-05
-0.00392772 0.00071326 1e-05
-0.0037413 0.000710695 1e-05
-0.00355489 0.000708545 1e-05
-0.00336883 0.000706725 1e-05
-0.00318995 0.000712336 1e-05
-0.003011 0.000709541 1e-05
-0.00283205 0.000707174 1e-05
-0.0026531 0.000705148 1e-05
-0.00247443 0.0007034 1e-05
-0.0023027 0.000708292 1e-05
-0.00213092 0.000705733 1e-05
-0.00195913 0.000703441 1e-05
-0.00178734 0.000701366 1e-05
-0.00161577 0.000699469 1e-05
-0.0014509 0.000703285 1e-05
-0.00128601 0.00070052 1e-05
-0.00112112 0.000697761 1e-05
-0.000956226 0.000695005 1e-05
-0.000791418 0.000692254 1e-05
-0.000633135 0.000693838 1e-05
-0.000474885 0.000690197 1e-05
-0.000316634 0.000686604 1e-05
-0.000158382 0.000683051 1e-05
0 0.000679527 1e-05
0.000105677 0.000678937 1e-05
0.000211335 0.000676795 1e-05
0.000317 0.000675099 1e-05
0.000422671 0.000673794 1e-05
0.000528387 0.000672836 1e-05
0.000634886 0.000672939 1e-05
0.000741385 0.000673059 1e-05
0.000847881 0.000673894 1e-05
0.00095437 0.000675364 1e-05
0.00106088 0.000677403 1e-05
0.00116821 0.000680647 1e-05
0.00127553 0.000684072 1e-05
0.00138283 0.000688207 1e-05
0.0014901 0.000692989 1e-05
0.00159752 0.000698368 1e-05
0.00170568 0.000705799 1e-05
0.00181385 0.000713136 1e-05
0.00192196 0.000721258 1e-05
0.00203001 0.000730117 1e-05
0.00213833 0.000739703 1e-05
0.00224733 0.000752061 1e-05
0.0023563 0.000764645 1e-05
0.00246519 0.000777999 1e-05
0.00257398 0.00079211 1e-05
0.00268334 0.00080751 1e-05
0.00279319 0.000824871 1e-05
0.00290287 0.000843259 1e-05
0.00301238 0.000862628 1e-05
0.00312175 0.000882802 1e-05
0.00323259 0.000904168 1e-05
0.00334329 0.000926487 1e-05
0.00345376 0.000949965 1e-05
0.003564 0.000974461 1e-05
0.00367405 0.000999798 1e-05
0.00378611 0.0010265 1e-05
0.00382363 0.00103567 1e-05
0.00386113 0.00104495 1e-05
0.00389861 0.00105431 1e-05
0.00393607 0.00106375 1e-05
0.00396966 0.00107229 1e-05
0.00404452 0.00109147 1e-05
0.00411928 0.00111099 1e-05
0.00419395 0.00113087 1e-05
0.00426853 0.0011511 1e-05
0.00434393 0.00117185 1e-05
0.00445636 0.00120287 1e-05
0.00456852 0.00123485 1e-05
0.00468043 0.00126772 1e-05
0.00479218 0.0013011 1e-05
0.00490609 0.00133527 1e-05
0.00501636 0.00136849 1e-05
0.00512645 0.00140233 1e-05
0.00523641 0.00143658 1e-05
0.00534629 0.00147109 1e-05
0.0054411 0.00150114 1e-05
0.0054474 0.00150315 1e-05
0.00545371 0.00150516 1e-05
0.00546001 0.00150718 1e-05
0.00546631 0.00150919 1e-05
0.00547262 0.00151121 1e-05
0.00558681 0.00154776 1e-05
0.00570092 0.00158452 1e-05
0.00581497 0.0016215 1e-05
0.00592895 0.00165868 1e-05
0.00604356 0.00169623 1e-05
0.00615863 0.00173404 1e-05
0.00627371 0.00177185 1e-05
0.00638878 0.00180965 1e-05
0.00650386 0.00184745 1e-05
[...]
POINT_DATA 12654
 FIELD attributes 1
U 3 12654 float
1.13317 	6.39878 	0 1.59205 	5.97919 	0 3.0608 	4.65984 	0 4.29082 	3.52871 	0 5.18166 	2.68001 	0 7.15415 	0.707041 	0 -4.22418 	5.50106 	0 -5.18656 	7.81108 	0 7.56526 	0.661737 	0 0.172084 	4.66583 	0 -9.04982 	14.0265 	0 5.9322 	3.10447 	0 -2.52838 	15.5166 	0 -6.42097 	22.2993 	0 7.167 	5.74092 	0 1.97799 	17.2214 	0 -2.24937 	26.6793 	0 4.29283 	15.8508 	0 9.07743 	8.26979 	0 6.22446 	17.6658 	0 2.39052 	29.3763 	0 7.4895 	19.1143 	0 11.952 	10.5964 	0 10.9782 	18.2853 	0 10.8643 	23.2135 	0 12.8643 	21.2653 	0 16.0838 	13.7026 	0 16.2321 	13.4308 	0 16.3925 	16.6288 	0 16.8097 	18.1007 	0 17.5793 	17.3604 	0 18.3615 	16.6185 	0 19.4184 	15.6295 	0 20.1845 	15.0457 	0 20.9591 	14.4645 	0 21.7411 	13.8867 	0 22.0867 	13.1229 	0 22.071 	11.6835 	0 24.273 	10.4899 	0 26.3552 	9.15053 	0 27.0773 	7.06361 	0 27.2322 	4.63606 	0 27.3593 	2.87662 	0 28.0792 	0.162378 	0 28.338 	-2.17144 	0 28.2663 	-4.21389 	0 27.2077 	-5.99823 	0 25.8134 	-7.7462 	0 25.2053 	-9.05248 	0 24.5666 	-10.3099 	0 23.3606 	-10.7027 	0 22.1444 	-11.0716 	0 22.1219 	-11.0779 	0 21.493 	-12.0241 	0 20.8671 	-13.0164 	0 20.0272 	-13.4318 	0 19.116 	-13.6636 	0 17.9664 	-13.9686 	0 17.531 	-14.1454 	0 17.0942 	-14.3254 	0 16.6562 	-14.5086 	0 16.3248 	-14.4579 	0 16.0766 	-14.3836 	0 14.8212 	-14.8698 	0 13.5234 	-15.3602 	0 12.3327 	-15.4036 	0 11.4603 	-14.9813 	0 10.9864 	-14.7538 	0 9.65925 	-15.0893 	0 8.54616 	-15.2041 	0 7.77241 	-14.9826 	0 6.95887 	-14.6628 	0 6.36692 	-14.2969 	0 5.15467 	-14.2935 	0 4.41006 	-13.9566 	0 3.64344 	-13.6299 	0 2.85362 	-13.3152 	0 2.16401 	-12.9743 	0 1.25257 	-12.6156 	0 0.492174 	-12.2052 	0 -0.298779 	-11.809 	0 -1.12068 	-11.4301 	0 -1.94163 	-11.0462 	0 -2.88077 	-10.549 	0 -3.69394 	-10.0857 	0 -4.54208 	-9.65166 	0 -5.42041 	-9.2517 	0 -6.43001 	-8.78925 	0 -8.01483 	-8.11804 	0 -8.99361 	-7.63921 	0 -9.94406 	-7.23423 	0 -10.7299 	-6.90001 	0 -11.6371 	-6.28292 	0 -13.1478 	-5.3564 	0 -14.0341 	-4.68971 	0 -13.1761 	-4.18881 	0 -12.3601 	-3.72372 	0 -11.8019 	-3.41431 	0 -12.4022 	-3.37392 	0 -13.035 	-3.35797 	0 -13.8511 	-3.21977 	0 -15.0368 	-2.82317 	0 -17.5274 	-2.22593 	0 -18.2336 	-1.96063 	0 -19.2717 	-1.78176 	0 -20.5673 	-1.6701 	0 -19.9048 	-2.23003 	0 -16.3392 	-3.33767 	0 -24.4869 	-2.44555 	0 -37.0895 	-1.64968 	0 -49.501 	-1.35216 	0 -35.4041 	-5.22439 	0 1.79917 	-13.0835 	0 1.79917 	-13.0835 	0 1.79917 	-13.0835 	0 1.79917 	-13.0835 	0 1.79917 	-13.0835 	0 1.79917 	-13.0835 	0 4.20403 	-13.1213 	0 6.33771 	-13.108 	0 8.20471 	-13.0537 	0 9.83493 	-12.9676 	0 14.8304 	-13.1454 	0 23.0825 	-10.7773 	0 30.0095 	-9.06288 	0 38.019 	-7.89254 	0 46.6158 	-7.07082 	0 0.35677 	-0.032039 	0 1.19753 	-0.0548041 	0 1.50429 	-0.0625069 	0 1.30416 	-0.0541909 	0 1.10403 	-0.0458748 	0 0 	0 	0
9.83282 	3.19125 	0 9.65813 	6.52582 	0 10.0777 	7.67573 	0 11.8157 	4.68088 	0 12.0608 	4.4412 	0 12.9622 	10.4683 	0 13.4037 	18.8464 	0 15.3401 	15.3334 	0 17.3396 	10.1864 	0 17.8523 	12.3615 	0 18.3294 	14.6075 	0 18.9075 	13.9583 	0 19.5032 	13.3189 	0 20.2744 	12.5268 	0 21.1499 	11.8327 	0 22.0492 	11.1558 	0 22.9696 	10.4964 	0 23.0575 	9.42883 	0 23.1858 	7.31938 	0 24.2121 	6.59719 	0 25.2185 	5.84002 	0 26.0693 	4.98007 	0 26.1015 	3.67514 	0 26.1713 	2.49885 	0 26.7825 	0.438154 	0 27.5111 	-1.60247 	0 27.2104 	-3.48526 	0 26.2714 	-4.97414 	0 25.3115 	-6.45363 	0 25.1484 	-6.9565 	0 24.9663 	-7.43161 	0 24.5478 	-7.64255 	0 24.1311 	-7.85068 	0 23.9446 	-7.94295 	0 23.3037 	-9.02724 	0 22.7077 	-10.1871 	0 22.0194 	-11.2107 	0 20.9025 	-11.5857 	0 19.57 	-12.0674 	0 19.2635 	-12.2364 	0 18.9591 	-12.4084 	0 18.668 	-12.5441 	0 18.4247 	-12.5194 	0 18.2273 	-12.4997 	0 17.0689 	-13.0846 	0 15.9027 	-13.7329 	0 14.9697 	-13.823 	0 14.1168 	-13.5694 	0 13.7212 	-13.4527 	0 13.0589 	-13.7236 	0 12.5268 	-13.8159 	0 12.1174 	-13.7402 	0 11.7058 	-13.6682 	0 11.1756 	-13.5812 	0 10.9327 	-13.5611 	0 10.6886 	-13.5426 	0 10.4431 	-13.5258 	0 10.2283 	-13.4833 	0 10.0922 	-13.392 	0 9.60952 	-13.2557 	0 8.9365 	-13.0465 	0 8.24718 	-12.8442 	0 7.69982 	-12.5257 	0 7.28693 	-12.2164 	0 6.90095 	-11.9583 	0 6.50887 	-11.7039 	0 6.08718 	-11.3429 	0 5.54953 	-10.8731 	0 5.04489 	-10.4462 	0 4.82086 	-10.0601 	0 4.59908 	-9.67312 	0 4.38225 	-9.28431 	0 4.05601 	-8.86542 	0 3.47624 	-8.38431 	0 3.47104 	-7.96644 	0 3.39245 	-7.47504 	0 3.32146 	-6.98284 	0 3.25948 	-6.48983 	0 3.04141 	-5.89026 	0 3.22098 	-5.65195 	0 3.37418 	-5.44299 	0 3.53404 	-5.2359 	0 3.70067 	-5.03108 	0 3.77492 	-4.94454 	0 3.99568 	-4.58724 	0 4.22723 	-4.23619 	0 4.4691 	-3.89328 	0 4.72042 	-3.56039 	0 5.28971 	-3.37057 	0 6.4516 	-3.09873 	0 7.53287 	-2.85166 	0 8.55714 	-2.61392 	0 10.1922 	-1.82521 	0 15.3087 	0.585224 	0 15.3805 	-0.228309 	0 16.1758 	-0.127404 	0 16.9307 	-0.0612281 	0 17.661 	-0.0162874 	0 18.8819 	0.787355 	0 18.7513 	-0.281601 	0 19.282 	-0.198166 	0 19.7888 	-0.138999 	0 20.2791 	-0.0964894 	0 21.1891 	0.875224 	0 20.9584 	-0.384024 	0 21.3523 	-0.29321 	0 21.7252 	-0.226505 	0 22.083 	-0.177164 	0 22.7962 	0.910528 	0 22.5329 	-0.443969 	0 22.848 	-0.350723 	0 23.1447 	-0.280623 	0 23.4277 	-0.227677 	0 24.0166 	0.9141 	0 23.7415 	-0.457187 	0 24.0022 	-0.368846 	0 24.2471 	-0.30111 	0 24.4802 	-0.248997 	0 24.9903 	0.898218 	0 24.7064 	-0.446188 	0 24.9276 	-0.365817 	0 25.1357 	-0.303103 	0 25.3335 	-0.25404 	0 25.7958 	0.871297 	0 25.5077 	-0.42293 	0 25.6981 	-0.353542 	0 25.8778 	-0.29851 	0 26.049 	-0.254781 	0 26.4777 	0.830486 	0 26.188 	-0.409055 	0 26.3701 	-0.348806 	0 26.5433 	-0.300395 	0 26.7092 	-0.261435 	0 27.1319 	0.773003 	0 26.8511 	-0.400041 	0 27.035 	-0.360685 	0 27.213 	-0.328743 	0 27.3863 	-0.302805 	0 27.8084 	0.643627 	0 27.5418 	-0.461744 	0 27.7699 	-0.464758 	0 27.9979 	-0.467905 	0 28.2258 	-0.471161 	0 28.6827 	0.286956 	0 28.4192 	-0.653771 	-2.27257e-20 28.6557 	-0.650569 	-6.64254e-20 28.8909 	-0.648733 	-1.10098e-19 29.125 	-0.648023 	-1.53749e-19 29.5315 	-0.164779 	-1.94934e-19 29.4034 	-0.596134 	-2.70253e-19 29.5988 	-0.475207 	-2.22237e-19 29.7793 	-0.367566 	-1.76609e-19 29.9469 	-0.271618 	-1.33084e-19 30.2053 	0.0292994 	-5.25901e-20 30.3206 	0.0340869 	-4.70242e-20 30.5642 	0.239672 	-3.28559e-20 30.7817 	0.425141 	-1.98854e-20 30.976 	0.592726 	-7.98005e-21 31.2644 	0.945222 	9.45364e-21 31.4063 	1.00201 	-3.04299e-20 31.6534 	1.22004 	-8.37096e-20 31.8746 	1.4209 	-1.36516e-19 32.0725 	1.60617 	-1.8889e-19 32.5305 	2.23466 	-2.39828e-19 32.5437 	2.2077 	-1.85798e-19 32.6739 	2.45441 	-1.32925e-19 32.7808 	2.68782 	-7.95008e-20 32.8658 	2.90868 	-2.55595e-20 33.293 	3.77454 	-9.74585e-20 33.6179 	3.88182 	-3.25648e-19 33.5334 	4.1127 	-3.53797e-19 33.4356 	4.33693 	-3.8544e-19 33.3041 	4.68994 	-2.93947e-19 33.1208 	5.23442 	-2.06839e-20 33.7397 	5.65657 	-3.89091e-21 34.3388 	6.07332 	1.18129e-20 34.0591 	6.28248 	1.76825e-20 33.2627 	6.41193 	6.02118e-20 32.448 	6.54201 	1.03472e-19 33.104 	7.0359 	2.45724e-19 33.4746 	7.43794 	3.11385e-19 33.3361 	7.67499 	2.37614e-19 33.1836 	7.90831 	1.62191e-19 32.2056 	7.86729 	-3.6226e-21 32.3908 	8.01386 	2.1515e-20 32.384 	8.09069 	3.1507e-20 32.3054 	8.14153 	3.58321e-20 32.2264 	8.19233 	4.01043e-20 32.1552 	8.23787 	4.38903e-20 32.0771 	8.37774 	7.45666e-20 31.9988 	8.51813 	1.05429e-19 31.9202 	8.65906 	1.36479e-19 31.7323 	8.7316 	1.48554e-19 31.2498 	8.62091 	1.0961e-19 31.9119 	9.10088 	1.47199e-19 32.4515 	9.53075 	1.85008e-19 32.1888 	9.61563 	2.10607e-19 31.3028 	9.3892 	1.74655e-19 30.3999 	9.15858 	1.37855e-19 31.0692 	9.5506 	2.59291e-19 31.2676 	9.73782 	2.29832e-19 31.1319 	9.77967 	9.33288e-20 30.9948 	9.82094 	-4.40758e-20 30.8751 	9.85607 	-1.63515e-19 30.8728 	9.86133 	-1.71144e-19 30.8704 	9.86659 	-1.78776e-19 30.8681 	9.87185 	-1.86412e-19 30.8534 	9.87186 	-1.84803e-19 30.8212 	9.86434 	-1.69899e-19 30.9315 	9.96547 	-2.27434e-19 30.9339 	10.0288 	-2.69792e-19 30.9373 	10.0925 	-3.12472e-19 30.5862 	10.0221 	-2.30349e-19 29.8753 	9.816 	-2.18262e-20 30.587 	10.049 	-1.59626e-21 31.2987 	10.282 	1.86322e-20 31.2514 	10.2635 	3.26742e-20 30.8742 	10.1446 	5.24444e-20 30.1608 	9.92502 	7.94786e-20 30.5025 	10.004 	7.46154e-20 30.6446 	10.0258 	3.83887e-20 30.6282 	10.0021 	-2.27417e-20 30.6119 	9.97835 	-8.38579e-20 30.5952 	9.95406 	-1.46514e-19 30.5987 	9.93765 	-1.94871e-19 30.6022 	9.92124 	-2.43266e-19 30.6057 	9.90484 	-2.91699e-19 30.4969 	9.8466 	-3.57895e-19 30.1915 	9.71526 	-4.55042e-19 30.7283 	9.80612 	-8.68005e-19 31.1192 	9.85306 	-1.18828e-18 31.0977 	9.77536 	-1.23655e-18 30.5114 	9.5236 	-8.45699e-19 29.9296 	9.27372 	-4.57144e-19 30.5466 	9.32544 	-2.06703e-19 30.8526 	9.29742 	-5.55978e-20 30.7688 	9.16946 	-2.90744e-20 30.6881 	9.0423 	-1.42754e-21 30.3198 	8.84497 	-2.23282e-21 30.4726 	8.84747 	4.83498e-20 30.5007 	8.82364 	5.60291e-20 30.4866 	8.79089 	4.92382e-20 30.4726 	8.75818 	4.2546e-20 30.4583 	8.72419 	3.56881e-20 30.4309 	8.62381 	5.86113e-20 30.4048 	8.52365 	8.2142e-20 30.3801 	8.42373 	1.06283e-19 30.3077 	8.31286 	1.49362e-19 29.9922 	8.14731 	2.84148e-19 30.2928 	8.07763 	9.47609e-19 30.4771 	7.97949 	1.41804e-18 30.4532 	7.83094 	1.54595e-18 30.0069 	7.60592 	8.36224e-19 29.5684 	7.3839 	1.34348e-19 29.8906 	7.28668 	7.032e-20 30.1894 	7.18627 	1.0342e-20 30.0699 	7.02815 	7.73518e-21 29.7613 	6.83259 	-7.8233e-22 29.3131 	6.61103 	-1.37123e-20 29.6211 	6.48509 	-1.64545e-19 29.4948 	6.31736 	-1.28602e-19 29.3737 	6.1502 	-9.36635e-20 29.258 	5.9836 	-5.97456e-20 29.1207 	5.81516 	-1.63609e-20 29.1367 	5.80554 	-1.75822e-20 29.1283 	5.79453 	-1.67036e-20 29.1199 	5.78352 	-1.58263e-20 29.1115 	5.77251 	-1.49502e-20 29.103 	5.76127 	-1.40573e-20 28.9954 	5.60247 	-1.072e-20 28.892 	5.44388 	-7.39462e-21 28.793 	5.28551 	-4.0814e-21 28.6984 	5.12736 	-7.80567e-22 28.4991 	4.9575 	-1.03047e-21 28.5141 	4.82519 	5.61557e-20 28.3986 	4.65241 	7.1892e-20 28.2858 	4.47898 	8.66086e-20 28.1144 	4.30082 	7.31505e-20 27.863 	4.11769 	2.1679e-20 27.8622 	3.98188 	1.48119e-20 27.8497 	3.84117 	9.90506e-21 27.7251 	3.66627 	1.81659e-20 27.4676 	3.48371 	3.63311e-20 27.2175 	3.30236 	5.44816e-20 27.1987 	3.16883 	1.81298e-19 27.1851 	3.03529 	3.08276e-19 27.0483 	2.87877 	3.06551e-19 26.788 	2.69887 	1.75854e-19 26.535 	2.5197 	4.59242e-20 26.4943 	2.39671 	2.46734e-20 26.4583 	2.27353 	3.50208e-21 26.323 	2.13821 	-1.26534e-20 26.0568 	1.96035 	2.60368e-20 25.7977 	1.78269 	6.51153e-20 25.7297 	1.67264 	-3.21454e-19 25.6536 	1.56008 	-6.45836e-19 25.5084 	1.43412 	-5.98302e-19 25.268 	1.27047 	-2.53964e-19 25.0101 	1.09765 	1.60946e-19 24.9138 	0.998584 	8.31712e-20 24.8044 	0.894056 	2.3522e-20 24.6556 	0.776076 	1.04945e-20 24.4344 	0.626241 	-1.20875e-19 24.1869 	0.462761 	-3.02308e-19 24.0664 	0.372502 	-5.91134e-19 23.9395 	0.276487 	-8.27067e-19 23.7908 	0.166413 	-9.25169e-19 23.5789 	0.0264675 	-8.14333e-19 23.3495 	-0.124201 	-6.33668e-19 23.2127 	-0.205708 	-1.19003e-18 23.0771 	-0.290372 	-1.6874e-18 22.9323 	-0.392463 	-1.79564e-18 22.726 	-0.526587 	-1.20487e-18 22.5191 	-0.664513 	-5.53585e-19 22.3739 	-0.739193 	-1.23776e-18 22.2317 	-0.814512 	-1.92129e-18 22.0825 	-0.911483 	-1.92351e-18 21.8956 	-1.034 	-1.28366e-18 21.7129 	-1.1578 	-6.42577e-19 21.5665 	-1.22629 	-1.01183e-18 21.4228 	-1.29544 	-1.38073e-18 21.2629 	-1.38369 	-1.32255e-18 21.101 	-1.49128 	-8.62881e-19 20.9427 	-1.60016 	-4.01148e-19 20.8005 	-1.66274 	-4.83738e-19 20.6576 	-1.72782 	-5.38824e-19 20.4949 	-1.80571 	-4.15969e-19 20.3501 	-1.89414 	-2.01064e-19 20.2152 	-1.98831 	5.81641e-20 20.0808 	-2.04438 	1.51135e-19 19.9374 	-2.10787 	2.12111e-19 19.7925 	-2.17459 	2.61894e-19 19.6503 	-2.24211 	3.12465e-19 19.5324 	-2.32094 	4.06635e-19 19.4304 	-2.36189 	7.9402e-19 19.3255 	-2.40696 	7.05759e-19 19.2221 	-2.45247 	6.15854e-19 19.1202 	-2.49843 	5.24283e-19 19.0383 	-2.53632 	4.48147e-19 19.0112 	-2.55017 	4.38327e-19 18.9843 	-2.56406 	4.2846e-19 18.9575 	-2.57799 	4.18548e-19 18.9309 	-2.59196 	4.0859e-19 18.8976 	-2.60571 	4.46277e-19 18.783 	-2.65351 	7.70812e-19 18.6724 	-2.70431 	9.3051e-19 18.5638 	-2.7558 	1.09363e-18 18.4563 	-2.80796 	1.23475e-18 18.3262 	-2.86049 	8.57136e-19 18.218 	-2.89413 	1.40448e-18 18.1155 	-2.93143 	1.83142e-18 18.0227 	-2.97523 	2.0293e-18 17.9153 	-3.01958 	1.30042e-18 17.8089 	-3.06476 	5.41793e-19 17.7112 	-3.09186 	3.3152e-19 17.6148 	-3.11943 	1.21422e-19 17.5114 	-3.14751 	2.36309e-20 17.421 	-3.18282 	0 17.3359 	-3.22114 	0 17.2517 	-3.2421 	0 17.1635 	-3.26461 	-5.48895e-21 17.0763 	-3.28755 	-1.12115e-20 16.9902 	-3.31088 	-1.69448e-20 16.9137 	-3.33225 	-2.21199e-20 16.9108 	-3.33316 	-2.22283e-20 16.908 	-3.33406 	-2.23367e-20 16.9052 	-3.33497 	-2.2445e-20 16.9022 	-3.33587 	-2.17601e-20 16.8985 	-3.33668 	-1.56921e-20 16.8217 	-3.358 	2.54483e-19 16.7461 	-3.38016 	4.72111e-19 16.6716 	-3.4027 	6.93526e-19 16.5943 	-3.42526 	6.95462e-19 16.5003 	-3.44674 	-3.20195e-19 16.4311 	-3.4587 	-3.97319e-19 16.3627 	-3.47092 	-4.7365e-19 16.2926 	-3.4892 	-3.64667e-19 16.2134 	-3.50967 	-7.74145e-20 16.1349 	-3.53057 	2.11762e-19 16.0742 	-3.54099 	-7.71519e-19 16.0069 	-3.55187 	-1.04254e-18 15.9346 	-3.56318 	-7.60365e-19 15.8631 	-3.57476 	-4.75312e-19 15.7949 	-3.58951 	1.953e-19 15.7861 	-3.59085 	1.6363e-19 15.776 	-3.59259 	1.52988e-19 15.7655 	-3.59447 	1.49229e-19 15.7551 	-3.59636 	1.45471e-19 15.7448 	-3.59824 	1.41751e-19 15.6925 	-3.60838 	1.03457e-19 15.6407 	-3.61869 	6.51174e-20 15.5894 	-3.62918 	2.67331e-20 15.5333 	-3.64006 	-1.73997e-21 15.4656 	-3.65164 	-7.48184e-21 15.4094 	-3.65874 	-4.25314e-21 15.3537 	-3.66603 	-1.03495e-21 15.2921 	-3.67889 	4.64073e-20 15.221 	-3.69573 	1.58637e-19 15.1504 	-3.71293 	2.71455e-19 15.1045 	-3.72142 	2.24721e-19 15.0483 	-3.73313 	1.76622e-19 14.9867 	-3.74675 	1.27881e-19 14.9257 	-3.76062 	7.9365e-20 14.8687 	-3.77396 	3.38164e-20 14.8622 	-3.7755 	2.21898e-20 14.8557 	-3.77704 	1.05612e-20 14.8493 	-3.77859 	-1.06934e-21 14.8417 	-3.78033 	2.56789e-22 14.8327 	-3.78232 	1.82409e-20 14.7687 	-3.79985 	5.80369e-19 14.7053 	-3.81939 	9.40162e-19 14.6426 	-3.83928 	1.30398e-18 14.5661 	-3.86328 	9.04249e-19 14.4799 	-3.89044 	-2.19626e-20 14.4179 	-3.91047 	6.83484e-20 14.3546 	-3.93155 	1.40406e-19 14.2686 	-3.96072 	-5.80223e-22 14.1837 	-3.99055 	-1.40793e-19 14.0997 	-4.02643 	-2.71928e-19 14.0841 	-4.03328 	-4.48366e-19 14.0657 	-4.04129 	-4.95443e-19 14.0436 	-4.05072 	-3.84071e-19 14.0216 	-4.0602 	-2.72367e-19 14.0003 	-4.06944 	-1.63561e-19 13.9363 	-4.09666 	7.23065e-20 13.873 	-4.12424 	3.10073e-19 13.8103 	-4.15217 	5.49756e-19 13.7351 	-4.18481 	3.83816e-19 13.6522 	-4.2208 	-2.66135e-20 13.5624 	-4.26101 	4.30012e-19 13.4737 	-4.30199 	8.85668e-19 13.3634 	-4.35282 	7.35343e-19 13.2523 	-4.40665 	4.69856e-19 13.1423 	-4.466 	3.77756e-20 13.1236 	-4.4762 	1.96789e-20 13.104 	-4.48692 	5.51955e-21 13.0807 	-4.49937 	5.40347e-21 13.0574 	-4.51187 	5.28809e-21 13.035 	-4.52398 	5.1774e-21 12.9427 	-4.57255 	3.53153e-21 12.8512 	-4.62184 	1.87815e-21 12.7607 	-4.67187 	2.17215e-22 12.6647 	-4.72795 	0 12.5669 	-4.78686 	0 12.4673 	-4.84069 	0 12.3686 	-4.89576 	0 12.2689 	-4.95812 	0 12.1704 	-5.02151 	0 12.0888 	-5.07554 	0 12.0601 	-5.09442 	0 12.0315 	-5.11339 	0 12.0036 	-5.13262 	0 11.9802 	-5.15321 	0 11.9568 	-5.17407 	0 11.8194 	-5.25859 	0 11.6845 	-5.34499 	0 11.5748 	-5.43757 	0 11.4794 	-5.53425 	0 11.3871 	-5.6387 	0 11.3827 	-5.64188 	0 11.3784 	-5.64505 	0 11.3749 	-5.64835 	0 11.372 	-5.65172 	0 11.3691 	-5.65506 	0 11.2709 	-5.75066 	0 11.1752 	-5.84792 	0 11.1059 	-5.94929 	-7.8367e-21 11.0899 	-6.0574 	-3.23383e-20 11.0755 	-6.17252 	-5.82396e-20 11.0621 	-6.18715 	-5.81726e-20 11.0489 	-6.20181 	-5.81119e-20 11.0421 	-6.21725 	-6.00529e-20 11.0406 	-6.23332 	-6.36047e-20 11.0392 	-6.249 	-6.70719e-20 11.0152 	-6.34253 	-1.30465e-19 10.9935 	-6.43712 	-1.94682e-19 11.0141 	-6.53631 	-1.86389e-19 11.1016 	-6.64215 	-5.91078e-20 11.1938 	-6.75264 	7.30734e-20 11.1886 	-6.77546 	7.83143e-20 11.1837 	-6.79833 	8.35764e-20 11.1937 	-6.82285 	8.16197e-20 11.2162 	-6.84872 	7.3719e-20 11.2382 	-6.87397 	6.60202e-20 11.3095 	-6.96832 	3.19326e-20 11.3823 	-7.06312 	-2.09767e-21 11.4987 	-7.16124 	-1.02956e-20 11.6856 	-7.26434 	2.41662e-20 11.875 	-7.36891 	5.9119e-20 11.8993 	-7.4036 	3.54676e-20 11.9239 	-7.43835 	1.18649e-20 11.9757 	-7.47566 	2.72893e-20 12.0451 	-7.51458 	6.79408e-20 12.1135 	-7.55295 	1.08002e-19 12.2612 	-7.6405 	1.89774e-19 12.4088 	-7.72802 	2.71507e-19 12.5804 	-7.817 	2.88365e-19 12.8075 	-7.90932 	1.54677e-19 13.0321 	-8.00091 	2.13921e-20 13.1218 	-8.05858 	-2.90879e-20 13.2116 	-8.11627 	-7.95662e-20 13.3432 	-8.17819 	-8.36404e-20 13.4909 	-8.2417 	-6.92964e-20 13.6386 	-8.30533 	-5.49491e-20 13.7863 	-8.37169 	-8.19666e-20 13.9335 	-8.43791 	-1.08948e-19 14.0831 	-8.50408 	-1.26646e-19 14.2461 	-8.57041 	-1.00311e-19 14.4071 	-8.63605 	-7.41673e-20 14.6177 	-8.7362 	-4.68885e-20 14.8273 	-8.83614 	-1.96044e-20 15.0663 	-8.9395 	-1.10651e-20 15.3097 	-9.04325 	-6.06075e-21 15.5578 	-9.14936 	-9.01341e-22 15.6161 	-9.1755 	2.57345e-21 15.6743 	-9.20162 	6.0481e-21 15.7319 	-9.22765 	9.37766e-21 15.7741 	-9.25138 	8.67998e-21 15.8163 	-9.27505 	7.98378e-21 16.1159 	-9.40849 	-1.42821e-20 16.4139 	-9.54159 	-3.65587e-20 16.6698 	-9.66735 	-3.98576e-20 16.8878 	-9.78772 	-2.41564e-20 17.1037 	-9.90694 	-8.59493e-21 17.1773 	-9.94056 	-9.07779e-21 17.2508 	-9.97415 	-9.56012e-21 17.3141 	-10.007 	-8.54593e-21 17.3772 	-10.0399 	-7.48806e-21 17.4405 	-10.0729 	-6.42398e-21 17.6095 	-10.1662 	-2.95264e-21 17.7784 	-10.2595 	5.1898e-22 17.9471 	-10.3528 	3.99087e-21 18.0057 	-10.4293 	-4.2582e-21 18.0565 	-10.5048 	-1.34681e-20 18.2942 	-10.6208 	-9.26483e-20 18.5242 	-10.7357 	-1.64933e-19 18.6424 	-10.8341 	-1.28781e-19 18.7611 	-10.9327 	-9.25422e-20 18.8809 	-11.0318 	-5.60687e-20 18.902 	-11.05 	-5.48421e-20 18.923 	-11.0683 	-5.36147e-20 18.9441 	-11.0866 	-5.23865e-20 18.9364 	-11.0993 	-5.15669e-20 18.9234 	-11.1109 	-5.08185e-20 19.1524 	-11.2494 	-3.45526e-20 19.3122 	-11.371 	-1.13566e-20 19.4343 	-11.4849 	1.18245e-20 19.3808 	-11.5647 	2.98487e-20 19.3296 	-11.6459 	4.79179e-20 19.4528 	-11.717 	3.55497e-20 19.5658 	-11.7863 	2.29261e-20 19.5909 	-11.8386 	8.07876e-21 19.6162 	-11.891 	-6.76424e-21 19.6417 	-11.9432 	-2.15053e-20 19.6675 	-11.9947 	-3.09927e-20 19.6936 	-12.0463 	-4.04657e-20 19.7199 	-12.098 	-4.99244e-20 19.6621 	-12.128 	-4.87255e-20 19.5842 	-12.1532 	-4.49549e-20 19.7458 	-12.2862 	-1.53749e-19 19.9076 	-12.4193 	-2.62422e-19 19.9191 	-12.5141 	-2.31777e-19 19.8169 	-12.578 	-1.14014e-19 19.686 	-12.6347 	2.22533e-20 19.726 	-12.6643 	-4.07477e-21 19.7611 	-12.6927 	-2.54399e-20 19.7557 	-12.711 	-6.85036e-21 19.7504 	-12.7293 	1.17661e-20 19.7451 	-12.7475 	3.03038e-20 19.7343 	-12.8167 	8.1035e-20 19.724 	-12.8861 	1.32032e-19 19.7141 	-12.9558 	1.83292e-19 19.5913 	-12.9882 	1.32528e-19 19.4375 	-13.0118 	5.46901e-20 19.526 	-13.126 	4.61577e-20 19.5871 	-13.2315 	4.11539e-20 19.4948 	-13.2879 	5.55033e-20 19.4025 	-13.3444 	7.00314e-20 19.314 	-13.3988 	8.41369e-20 19.3091 	-13.4029 	8.2116e-20 19.3042 	-13.4071 	8.00946e-20 19.2993 	-13.4112 	7.80727e-20 19.2881 	-13.4127 	7.61607e-20 19.2751 	-13.4135 	7.42741e-20 19.24 	-13.4939 	4.55584e-20 19.1774 	-13.5631 	1.78381e-20 19.1151 	-13.6326 	-1.00374e-20 18.9186 	-13.6469 	-1.10682e-20 18.7035 	-13.6564 	-9.5983e-21 18.7248 	-13.7226 	1.55653e-19 18.7321 	-13.7833 	2.88453e-19 18.6465 	-13.8066 	2.06356e-19 18.5607 	-13.83 	1.23774e-19 18.4774 	-13.8526 	4.3224e-20 18.4378 	-13.8689 	4.25504e-21 18.3983 	-13.8852 	-3.48389e-20 18.3586 	-13.9016 	-7.4058e-20 18.2921 	-13.9035 	-2.97831e-20 18.2179 	-13.9019 	3.63073e-20 18.1795 	-13.9749 	-1.11219e-19 18.1404 	-14.0478 	-2.58631e-19 18.012 	-14.0762 	-2.78347e-19 17.8018 	-14.0635 	-1.64107e-19 17.5852 	-14.0508 	-4.71052e-20 17.5798 	-14.077 	-5.43315e-20 17.5695 	-14.1007 	-6.0572e-20 17.5174 	-14.1036 	-5.82968e-20 17.4653 	-14.1064 	-5.6036e-20 17.414 	-14.1092 	-5.38248e-20 17.3242 	-14.1236 	-3.60512e-20 17.2342 	-14.1381 	-1.827