# vtk DataFile Version 2.0
track0
ASCII
DATASET POLYDATA
POINTS 10949 double
-0.0205 0.001 1e-05
-0.0202034 0.00100002 1e-05
-0.0199069 0.00100023 1e-05
-0.0196103 0.00100066 1e-05
-0.0193137 0.0010013 1e-05
-0.0190172 0.00100214 1e-05
-0.0187132 0.00100341 1e-05
-0.0184093 0.00100432 1e-05
-0.0181054 0.00100523 1e-05
-0.0178015 0.00100614 1e-05
-0.0174976 0.00100705 1e-05
-0.0172058 0.00100823 1e-05
-0.016914 0.00100895 1e-05
-0.0166222 0.00100962 1e-05
-0.0163305 0.00101024 1e-05
-0.0160387 0.00101082 1e-05
-0.0157586 0.00101168 1e-05
-0.0154784 0.00101209 1e-05
-0.0151983 0.00101247 1e-05
-0.0149182 0.00101281 1e-05
-0.0146381 0.00101312 1e-05
-0.0143692 0.00101374 1e-05
-0.0141002 0.00101394 1e-05
-0.0138313 0.00101411 1e-05
-0.0135624 0.00101426 1e-05
-0.0132934 0.00101438 1e-05
-0.0130353 0.00101482 1e-05
-0.0127771 0.00101487 1e-05
-0.0125189 0.0010149 1e-05
-0.0122607 0.00101491 1e-05
-0.0120025 0.0010149 1e-05
-0.0117547 0.00101523 1e-05
-0.0115068 0.00101517 1e-05
-0.0112589 0.0010151 1e-05
-0.0110111 0.00101501 1e-05
-0.0107632 0.00101491 1e-05
-0.0105252 0.00101516 1e-05
-0.0102873 0.00101502 1e-05
-0.0100493 0.00101488 1e-05
-0.00981133 0.00101472 1e-05
-0.00957337 0.00101455 1e-05
-0.00934491 0.00101474 1e-05
-0.00911645 0.00101455 1e-05
-0.008888 0.00101434 1e-05
-0.00865954 0.00101413 1e-05
-0.00843108 0.0010139 1e-05
-0.00821175 0.00101405 1e-05
-0.00799242 0.00101381 1e-05
-0.00777309 0.00101355 1e-05
-0.00755376 0.00101328 1e-05
-0.00733443 0.00101299 1e-05
-0.00712387 0.00101312 1e-05
-0.0069133 0.00101282 1e-05
-0.00670273 0.00101251 1e-05
-0.00649217 0.00101219 1e-05
-0.0062816 0.00101186 1e-05
-0.00607944 0.00101196 1e-05
-0.00587729 0.00101162 1e-05
-0.00567514 0.00101126 1e-05
-0.00547298 0.0010109 1e-05
-0.00527083 0.00101051 1e-05
-0.00507675 0.0010106 1e-05
-0.00488268 0.00101021 1e-05
-0.0046886 0.0010098 1e-05
-0.00449452 0.00100939 1e-05
-0.00430044 0.00100895 1e-05
-0.00411412 0.00100901 1e-05
-0.0039278 0.00100857 1e-05
-0.00374147 0.00100811 1e-05
-0.00355515 0.00100764 1e-05
-0.00336883 0.00100715 1e-05
-0.00318995 0.00100718 1e-05
-0.00301107 0.00100668 1e-05
-0.00283219 0.00100616 1e-05
-0.00265331 0.00100561 1e-05
-0.00247443 0.00100505 1e-05
-0.0023027 0.00100504 1e-05
-0.00213097 0.00100446 1e-05
-0.00195924 0.00100385 1e-05
-0.00178751 0.00100322 1e-05
-0.00161577 0.00100256 1e-05
-0.0014509 0.00100249 1e-05
-0.00128603 0.00100181 1e-05
-0.00112116 0.00100108 1e-05
-0.000956294 0.00100031 1e-05
-0.000791418 0.000999495 1e-05
-0.000633135 0.000999324 1e-05
-0.000474853 0.000998454 1e-05
-0.000316572 0.000997538 1e-05
-0.000158291 0.000996573 1e-05
0 0.00099556 1e-05
0.000105677 0.000995353 1e-05
0.000211353 0.000994622 1e-05
0.000317028 0.000993861 1e-05
0.000422702 0.000993068 1e-05
0.000528387 0.000992243 1e-05
0.000634886 0.000992016 1e-05
0.000741382 0.000991166 1e-05
0.000847878 0.000990294 1e-05
0.000954374 0.000989399 1e-05
0.00106088 0.000988481 1e-05
0.00116821 0.000988269 1e-05
0.00127553 0.000987352 1e-05
0.00138286 0.000986413 1e-05
0.00149018 0.000985452 1e-05
0.00159752 0.000984469 1e-05
0.00170568 0.000984268 1e-05
0.00181384 0.000983308 1e-05
0.00192199 0.000982327 1e-05
0.00203015 0.000981326 1e-05
0.00213833 0.000980305 1e-05
0.00224733 0.000980113 1e-05
0.00235633 0.000979132 1e-05
0.00246532 0.000978131 1e-05
0.00257432 0.000977111 1e-05
0.00268334 0.000976114 1e-05
0.00279319 0.000975923 1e-05
0.00290303 0.000975003 1e-05
0.00301288 0.000973991 1e-05
0.00312272 0.000972958 1e-05
0.00323259 0.000972038 1e-05
0.00334329 0.000971837 1e-05
0.00345399 0.000970985 1e-05
0.00356469 0.000969965 1e-05
0.00367539 0.000968923 1e-05
0.00378611 0.000968063 1e-05
0.00389767 0.000967842 1e-05
0.00400923 0.000967039 1e-05
0.00412079 0.00096601 1e-05
0.00423235 0.00096496 1e-05
0.00434393 0.000964142 1e-05
0.00445636 0.000963893 1e-05
0.00456879 0.000963122 1e-05
0.00468122 0.000962082 1e-05
0.00479365 0.00096102 1e-05
0.00490609 0.000960229 1e-05
0.0050194 0.000959943 1e-05
0.0051327 0.000959188 1e-05
0.005246 0.000958131 1e-05
0.0053593 0.000957053 1e-05
0.00547262 0.000956272 1e-05
0.00558681 0.000955943 1e-05
0.00570099 0.00095519 1e-05
0.00581518 0.000954112 1e-05
0.00592936 0.000953012 1e-05
0.00604356 0.000952231 1e-05
0.00615863 0.000951852 1e-05
0.0062737 0.000951091 1e-05
0.00638877 0.000949987 1e-05
0.00650384 0.000948863 1e-05
0.00661893 0.00094807 1e-05
0.0067349 0.000947638 1e-05
0.00685087 0.000946859 1e-05
0.00696683 0.000945735 1e-05
0.0070828 0.000944599 1e-05
0.00719878 0.000943787 1e-05
0.00731565 0.000943299 1e-05
0.00743252 0.000942495 1e-05
0.00754939 0.000941377 1e-05
0.00766625 0.000940247 1e-05
0.00778313 0.000939408 1e-05
0.00790091 0.00093886 1e-05
0.00801869 0.000938025 1e-05
0.00813647 0.000936904 1e-05
0.00825424 0.000935771 1e-05
0.00837203 0.000934899 1e-05
0.00849073 0.000934289 1e-05
0.00860942 0.000933416 1e-05
0.00872811 0.000932284 1e-05
0.00884681 0.000931139 1e-05
0.00896551 0.00093023 1e-05
0.00908513 0.000929555 1e-05
0.00920475 0.000928641 1e-05
0.00932436 0.000927491 1e-05
0.00944398 0.000926327 1e-05
0.0095636 0.000925375 1e-05
0.00968415 0.000924634 1e-05
0.0098047 0.000923675 1e-05
0.00992524 0.0009225 1e-05
0.0100458 0.000921311 1e-05
0.0101663 0.000920314 1e-05
0.0102878 0.000919505 1e-05
0.0104093 0.000918497 1e-05
0.0105308 0.000917291 1e-05
0.0106523 0.000916072 1e-05
0.0107738 0.000915025 1e-05
0.0108962 0.000914147 1e-05
0.0110186 0.000913086 1e-05
0.0111411 0.000911845 1e-05
0.0112635 0.000910591 1e-05
0.0113859 0.000909492 1e-05
0.0115093 0.000908543 1e-05
0.0116327 0.000907427 1e-05
0.0117561 0.000906159 1e-05
0.0118794 0.000904882 1e-05
0.0120028 0.000903728 1e-05
0.0121272 0.000902707 1e-05
0.0122515 0.000901534 1e-05
0.0123759 0.00090024 1e-05
0.0125002 0.000898937 1e-05
0.0126245 0.000897724 1e-05
0.0127498 0.000896631 1e-05
0.0128752 0.000895397 1e-05
0.0130005 0.000894071 1e-05
0.0131258 0.000892735 1e-05
0.0132511 0.000891462 1e-05
0.0133774 0.000890294 1e-05
0.0135036 0.000888998 1e-05
0.0136299 0.000887633 1e-05
0.0137562 0.000886258 1e-05
0.0138825 0.000884922 1e-05
0.0140098 0.00088368 1e-05
0.014137 0.000882319 1e-05
0.0142643 0.00088091 1e-05
0.0143915 0.000879491 1e-05
0.0145188 0.000878091 1e-05
0.0146471 0.000876772 1e-05
0.0147753 0.000875345 1e-05
0.0149036 0.000873887 1e-05
0.0150318 0.000872418 1e-05
0.0151601 0.000870952 1e-05
0.0152893 0.000869557 1e-05
0.0154186 0.000868061 1e-05
0.0155478 0.00086655 1e-05
0.0156771 0.000865028 1e-05
0.0158063 0.000863495 1e-05
0.0159366 0.000862022 1e-05
0.0160668 0.000860464 1e-05
0.0161971 0.000858895 1e-05
0.0163273 0.000857315 1e-05
0.0164576 0.000855725 1e-05
0.0165889 0.000854173 1e-05
0.0167201 0.000852554 1e-05
0.0168514 0.000850924 1e-05
0.0169827 0.000849283 1e-05
0.0171139 0.000847631 1e-05
0.0172462 0.000846001 1e-05
0.0173785 0.000844317 1e-05
0.0175108 0.000842623 1e-05
0.0176431 0.000840918 1e-05
0.0177754 0.000839201 1e-05
0.0179087 0.00083749 1e-05
0.018042 0.000835739 1e-05
0.0181753 0.000833978 1e-05
0.0183087 0.000832204 1e-05
0.018442 0.00083042 1e-05
0.0185763 0.000828627 1e-05
0.0187107 0.000826807 1e-05
0.018845 0.000824975 1e-05
0.0189794 0.000823131 1e-05
0.0191137 0.000821275 1e-05
0.0192296 0.000819671 1e-05
0.0193455 0.000818052 1e-05
0.0194613 0.000816424 1e-05
0.0195772 0.000814788 1e-05
0.0196879 0.000813215 1e-05
0.0197085 0.000812922 1e-05
0.0197291 0.000812628 1e-05
0.0197496 0.000812334 1e-05
0.0197702 0.000812039 1e-05
0.0197907 0.000811745 1e-05
0.0199272 0.000809787 1e-05
0.0200636 0.000807818 1e-05
0.0202001 0.000805836 1e-05
0.0203365 0.000803842 1e-05
0.020473 0.000801835 1e-05
0.0206105 0.000799793 1e-05
0.020748 0.000797746 1e-05
0.0208855 0.000795685 1e-05
0.021023 0.000793612 1e-05
0.0211606 0.000791526 1e-05
0.0212991 0.000789401 1e-05
0.0214377 0.000787272 1e-05
0.0215763 0.000785131 1e-05
0.0217149 0.000782977 1e-05
0.0218535 0.000780811 1e-05
0.0219931 0.0007786 1e-05
0.0221328 0.000776389 1e-05
0.0222724 0.000774166 1e-05
0.0224121 0.000771929 1e-05
0.0225517 0.00076968 1e-05
0.0226925 0.000767384 1e-05
0.0228332 0.000765089 1e-05
0.022974 0.000762781 1e-05
0.0231147 0.000760459 1e-05
0.0232555 0.000758124 1e-05
0.0233973 0.00075574 1e-05
0.0235391 0.000753357 1e-05
0.023681 0.000750961 1e-05
0.0238228 0.00074855 1e-05
0.0239647 0.000746124 1e-05
0.0241076 0.000743652 1e-05
0.0242505 0.000741177 1e-05
0.0243935 0.000738691 1e-05
0.0245364 0.000736192 1e-05
0.0246794 0.000733676 1e-05
0.0248234 0.000731115 1e-05
0.0249675 0.000728551 1e-05
0.0251115 0.000725977 1e-05
0.0252556 0.000723389 1e-05
0.0253996 0.000720782 1e-05
0.0255448 0.000718131 1e-05
0.02569 0.000715473 1e-05
0.0258351 0.000712805 1e-05
0.0259803 0.000710122 1e-05
0.0261255 0.000707419 1e-05
0.0262718 0.000704672 1e-05
0.0264181 0.000701916 1e-05
0.0265644 0.00069915 1e-05
0.0267107 0.000696368 1e-05
0.026857 0.000693566 1e-05
0.0270044 0.000690722 1e-05
0.0271519 0.000687866 1e-05
0.0272993 0.000684999 1e-05
0.0274468 0.000682115 1e-05
0.0275942 0.000679214 1e-05
0.0277428 0.000676272 1e-05
0.0278914 0.000673316 1e-05
0.0280399 0.000670347 1e-05
0.0281885 0.000667362 1e-05
0.0283371 0.000664361 1e-05
0.0284869 0.000661321 1e-05
0.0286366 0.000658265 1e-05
0.0287863 0.000655194 1e-05
0.0289361 0.000652109 1e-05
0.0290858 0.000649009 1e-05
0.0292367 0.00064587 1e-05
0.0293876 0.000642715 1e-05
0.0295385 0.000639543 1e-05
0.0296894 0.000636357 1e-05
0.0298403 0.000633158 1e-05
0.0299924 0.000629921 1e-05
0.0301445 0.000626666 1e-05
0.0302966 0.000623394 1e-05
0.0304486 0.000620107 1e-05
0.0306007 0.000616809 1e-05
0.030754 0.000613473 1e-05
0.0309072 0.000610118 1e-05
0.0310605 0.000606745 1e-05
0.0312138 0.000603359 1e-05
0.031367 0.00059996 1e-05
0.0315215 0.000596525 1e-05
0.0316759 0.000593069 1e-05
0.0318304 0.000589596 1e-05
0.0319848 0.000586109 1e-05
0.0321393 0.00058261 1e-05
0.0322949 0.000579073 1e-05
0.0324506 0.000575515 1e-05
0.0326062 0.000571941 1e-05
0.0327619 0.000568352 1e-05
0.0329175 0.000564751 1e-05
[...]
POINT_DATA 10949
 FIELD attributes 2
p 1 10949 float
-4.02808 -4.07852 -4.14132 -4.2048 -4.26896 -4.41306 -4.47826 -4.55738 -4.6365 -4.71562 -4.80561 -4.79822 -4.81699 -4.8357 -4.85434 -4.89264 -4.87851 -4.89095 -4.90331 -4.91562 -4.95002 -4.94261 -4.95737 -4.97208 -4.98674 -5.02164 -5.01319 -5.02503 -5.03684 -5.04861 -5.08023 -5.07099 -5.08143 -5.09184 -5.10223 -5.13289 -5.12381 -5.13435 -5.14487 -5.15537 -5.18686 -5.17726 -5.18786 -5.19843 -5.20898 -5.24167 -5.23098 -5.24159 -5.25218 -5.26275 -5.29707 -5.28504 -5.29588 -5.3067 -5.31749 -5.35403 -5.34058 -5.35199 -5.36336 -5.37472 -5.41427 -5.39931 -5.41154 -5.42373 -5.43589 -5.47906 -5.46233 -5.47555 -5.48874 -5.5019 -5.5494 -5.53064 -5.54495 -5.55921 -5.57343 -5.62583 -5.60426 -5.61955 -5.6348 -5.64999 -5.70823 -5.68283 -5.69867 -5.71443 -5.7301 -5.79508 -5.75629 -5.76414 -5.77191 -5.77958 -5.84251 -5.76751 -5.76228 -5.75699 -5.75161 -5.83274 -5.74809 -5.74362 -5.73911 -5.73454 -5.82552 -5.75486 -5.75398 -5.75306 -5.7521 -5.83686 -5.77421 -5.77248 -5.77071 -5.76892 -5.84205 -5.78695 -5.7858 -5.78464 -5.78693 -5.85163 -5.81109 -5.80793 -5.80899 -5.81958 -5.87326 -5.84253 -5.83715 -5.8396 -5.85551 -5.90177 -5.87716 -5.87044 -5.87416 -5.89443 -5.93646 -5.91604 -5.90834 -5.91334 -5.93754 -5.97709 -5.95938 -5.95045 -5.95646 -5.98411 -6.02198 -6.00597 -5.99543 -6.00212 -6.03282 -6.06939 -6.05448 -6.04202 -6.04919 -6.08273 -6.11831 -6.10416 -6.09012 -6.09842 -6.13321 -6.16788 -6.1543 -6.14083 -6.14976 -6.18368 -6.2175 -6.20443 -6.19148 -6.20084 -6.2339 -6.26685 -6.25422 -6.2417 -6.25131 -6.28355 -6.31568 -6.30349 -6.29142 -6.30116 -6.33255 -6.36384 -6.35224 -6.34075 -6.35053 -6.38093 -6.41124 -6.40028 -6.38942 -6.39915 -6.4285 -6.45776 -6.44748 -6.4373 -6.44691 -6.47518 -6.50337 -6.49381 -6.48595 -6.49586 -6.52097 -6.54807 -6.53925 -6.53454 -6.54412 -6.56585 -6.59189 -6.58382 -6.58201 -6.5913 -6.60986 -6.63482 -6.62749 -6.62834 -6.63737 -6.65297 -6.6769 -6.67029 -6.67357 -6.68236 -6.69524 -6.71818 -6.71229 -6.71777 -6.72634 -6.73672 -6.75868 -6.75352 -6.76098 -6.76934 -6.77771 -6.79841 -6.79501 -6.80318 -6.81136 -6.81955 -6.83744 -6.83645 -6.84447 -6.85249 -6.86053 -6.87584 -6.87703 -6.88491 -6.8928 -6.90069 -6.91367 -6.9168 -6.92455 -6.93231 -6.94009 -6.95096 -6.9558 -6.96344 -6.97109 -6.97874 -6.98774 -6.99299 -6.99944 -7.00589 -7.01235 -7.01853 -7.01969 -7.02085 -7.02202 -7.02318 -7.02433 -7.03185 -7.03939 -7.04694 -7.0545 -7.06184 -7.06929 -7.07674 -7.08421 -7.09168 -7.09859 -7.10613 -7.11353 -7.12093 -7.12835 -7.13476 -7.14253 -7.14988 -7.15724 -7.16461 -7.17043 -7.17857 -7.18589 -7.19321 -7.20054 -7.20569 -7.21422 -7.22145 -7.22869 -7.23564 -7.24033 -7.2491 -7.25645 -7.26344 -7.26953 -7.27354 -7.28199 -7.28945 -7.29621 -7.30139 -7.30496 -7.31326 -7.32087 -7.32734 -7.33128 -7.33411 -7.34213 -7.34982 -7.35578 -7.35832 -7.36046 -7.36816 -7.37587 -7.38117 -7.38289 -7.38462 -7.39216 -7.39971 -7.4045 -7.40598 -7.40747 -7.41495 -7.42243 -7.42685 -7.42819 -7.42954 -7.43697 -7.44442 -7.44856 -7.44983 -7.4511 -7.45853 -7.46597 -7.46991 -7.47116 -7.47241 -7.47985 -7.48677 -7.49057 -7.49237 -7.49363 -7.50111 -7.50726 -7.51113 -7.51359 -7.5149 -7.52241 -7.52783 -7.53177 -7.53492 -7.53629 -7.54385 -7.54854 -7.55257 -7.55645 -7.55788 -7.56537 -7.56948 -7.5736 -7.57773 -7.57975 -7.5865 -7.59072 -7.59494 -7.59917 -7.60195 -7.608 -7.61233 -7.61666 -7.62101 -7.62457 -7.62993 -7.63438 -7.63884 -7.6433 -7.64767 -7.64846 -7.64914 -7.64981 -7.65049 -7.65116 -7.65512 -7.65908 -7.66305 -7.66702 -7.66974 -7.67567 -7.68045 -7.68524 -7.69003 -7.69215 -7.69956 -7.70448 -7.70941 -7.71435 -7.71522 -7.72409 -7.72915 -7.73423 -7.73931 -7.73899 -7.74891 -7.7545 -7.75972 -7.76369 -7.76346 -7.77345 -7.78053 -7.7859 -7.78863 -7.78865 -7.79871 -7.80727 -7.81277 -7.8143 -7.81454 -7.82468 -7.83469 -7.8402 -7.84065 -7.8411 -7.8513 -7.86152 -7.86698 -7.8676 -7.86823 -7.87848 -7.88874 -7.89428 -7.89503 -7.89579 -7.90605 -7.91633 -7.92192 -7.92275 -7.92359 -7.93382 -7.94339 -7.94869 -7.95052 -7.95137 -7.96151 -7.96955 -7.97478 -7.97801 -7.97879 -7.98876 -7.99519 -8.00026 -8.00483 -8.00544 -8.01504 -8.01984 -8.02464 -8.02946 -8.03083 -8.03854 -8.04294 -8.04736 -8.05179 -8.05438 -8.06001 -8.06387 -8.06776 -8.07165 -8.07539 -8.07589 -8.07622 -8.07655 -8.07688 -8.0772 -8.08015 -8.08312 -8.08609 -8.08909 -8.09069 -8.09468 -8.09712 -8.09958 -8.10206 -8.10152 -8.10629 -8.10766 -8.10906 -8.11037 -8.10714 -8.11171 -8.11268 -8.11277 -8.11101 -8.1064 -8.10948 -8.11099 -8.10952 -8.10429 -8.09804 -8.09935 -8.10069 -8.09706 -8.08885 -8.08067 -8.0799 -8.07917 -8.07368 -8.06322 -8.05279 -8.04964 -8.04627 -8.03807 -8.02587 -8.01288 -8.007 -7.99852 -7.98748 -7.9752 -7.95933 -7.9504 -7.93624 -7.92204 -7.90789 -7.89056 -7.87561 -7.85789 -7.84021 -7.82259 -7.80603 -7.80583 -7.80562 -7.80542 -7.80522 -7.80499 -7.7838 -7.76262 -7.7415 -7.72044 -7.6967 -7.67478 -7.64966 -7.6246 -7.59921 -7.56912 -7.54452 -7.51714 -7.48799 -7.45558 -7.42143 -7.39244 -7.36351 -7.3297 -7.29143 -7.25319 -7.21978 -7.18644 -7.14886 -7.10669 -7.06446 -7.02671 -6.98649 -6.94422 -6.9018 -6.8558 -6.81291 -6.76674 -6.72065 -6.67462 -6.62841 -6.62567 -6.62275 -6.61983 -6.61692 -6.61402 -6.56764 -6.52133 -6.47509 -6.4289 -6.37978 -6.3303 -6.27824 -6.22625 -6.17266 -6.11676 -6.06458 -6.01247 -5.95783 -5.90031 -5.84278 -5.78863 -5.73454 -5.67765 -5.61977 -5.56161 -5.50653 -5.44969 -5.39241 -5.33515 -5.27767 -5.25165 -5.22503 -5.1984 -5.17178 -5.14526 -5.11516 -5.08505 -5.05495 -5.02484 -4.99378 -4.93827 -4.8833 -4.82831 -4.77297 -4.71637 -4.66305 -4.61018 -4.55873 -4.50643 -4.4541 -4.405 -4.35584 -4.30711 -4.26075 -4.2144 -4.17125 -4.12844 -4.08607 -4.04461 -4.00635 -3.97157 -3.93771 -3.90376 -3.86969 -3.83814 -3.81812 -3.7986 -3.77902 -3.75938 -3.72547 -3.72404 -3.72262 -3.72119 -3.71977 -3.71839 -3.70656 -3.69496 -3.68341 -3.67192 -3.66145 -3.66348 -3.66814 -3.67292 -3.67783 -3.68412 -3.7043 -3.72764 -3.75117 -3.77488 -3.79925 -3.80903 -3.81974 -3.83046 -3.84119 -3.8488 -3.88169 -3.9146 -3.94752 -3.98046 -4.01711 -4.07882 -4.14299 -4.20721 -4.27147 -4.34629 -4.42713 -4.51202 -4.59881 -4.69301 -4.79117 -4.8946 -4.99812 -5.10986 -5.22985 -5.35035 -5.47595 -5.60583 -5.74083 -5.87589 -6.01714 -6.09832 -6.18374 -6.2692 -6.35466 -6.43639 -6.50396 -6.57153 -6.6391 -6.70686 -6.77761 -6.94014 -7.10708 -7.27401 -7.4435 -7.61514 -7.79135 -7.96757 -8.14634 -8.32933 -8.51216 -8.69931 -8.88551 -9.07126 -9.25705 -9.4447 -9.50415 -9.56202 -9.6199 -9.67779 -9.7389 -9.86858 -9.99831 -10.1281 -10.2579 -10.3835 -10.5694 -10.7563 -10.9434 -11.1249 -11.3024 -11.4829 -11.6635 -11.8379 -12.0054 -12.1727 -12.3417 -12.5073 -12.661 -12.8135 -12.9644 -13.1157 -13.2511 -13.3847 -13.5188 -13.6486 -13.7681 -13.8756 -13.9838 -14.0926 -14.1991 -14.2814 -14.3587 -14.4367 -14.5155 -14.5935 -14.6387 -14.6825 -14.7271 -14.7726 -14.8161 -14.827 -14.8352 -14.8443 -14.8543 -14.8567 -14.8365 -14.8082 -14.7809 -14.7545 -14.7092 -14.6589 -14.5973 -14.5342 -14.46 -14.3753 -14.2883 -14.202 -14.1008 -13.9822 -13.8637 -13.7435 -13.6189 -13.4787 -13.3371 -13.1893 -13.0936 -12.9871 -12.8796 -12.7723 -12.686 -12.6249 -12.5638 -12.5029 -12.4406 -12.3713 -12.1909 -12.0077 -11.8252 -11.6306 -11.4292 -11.2302 -11.0313 -10.818 -10.6046 -10.3883 -10.3086 -10.2263 -10.142 -10.0578 -9.97974 -9.83932 -9.69913 -9.55918 -9.41578 -9.26771 -9.03598 -8.80478 -8.56973 -8.33035 -8.08907 -7.95601 -7.82168 -7.68507 -7.54861 -7.42377 -7.31403 -7.20439 -7.09485 -6.98355 -6.8708 -6.62344 -6.37649 -6.12861 -5.87895 -5.62698 -5.51375 -5.40032 -5.28598 -5.17172 -5.06408 -4.9257 -4.78743 -4.64927 -4.5103 -4.37028 -4.11883 -3.86774 -3.61613 -3.3649 -3.11149 -3.06675 -3.02201 -2.97723 -2.93245 -2.88859 -2.68142 -2.47447 -2.26774 -2.0614 -1.85312 -1.65506 -1.45726 -1.26014 -1.06324 -0.882735 -0.827221 -0.771722 -0.71624 -0.660992 -0.605596 -0.357205 -0.10914 0.137735 0.383507 0.632564 0.701413 0.770232 0.838606 0.906932 0.973258 1.15068 1.32792 1.50495 1.68037 1.85772 2.02855 2.19919 2.36806 2.53661 2.69309 2.76786 2.84259 2.91722 2.99109 3.06537 3.3045 3.54324 3.77905 4.01364 4.25262 4.25986 4.26711 4.27424 4.28133 4.28841 4.51577 4.74275 4.96843 5.18932 5.41501 5.48259 5.55013 5.61601 5.68131 5.74449 5.90577 6.06683 6.22653 6.38237 6.54116 6.64975 6.7582 6.86333 6.96698 7.0651 7.17877 7.29231 7.40383 7.51207 7.62211 7.74034 7.85839 7.9727 8.0842 8.18898 8.2839 8.37872 8.47129 8.56142 8.65297 8.76166 8.87018 8.97567 9.07784 9.17451 9.26915 9.36369 9.4548 9.54336 9.63341 9.72032 9.80713 9.89128 9.97123 10.0482 10.1542 10.2602 10.3622 10.4619 10.5633 10.6207 10.6781 10.7343 10.7877 10.8402 10.9661 11.0919 11.2091 11.3226 11.437 11.4648 11.4926 11.5194 11.544 11.5686 11.71 11.8515 11.9886 12.1242 12.2581 12.2594 12.2607 12.2619 12.2631 12.2643 12.4023 12.5398 12.6693 12.7814 12.9032 12.9208 12.9385 12.9566 12.9749 12.9932 13.0979 13.2026 13.3096 13.4201 13.5488 13.573 13.5971 13.6179 13.6346 13.6511 13.7699 13.8888 13.9851 14.0633 14.1614 14.167 14.1725 14.1785 14.1861 14.1937 14.2706 14.352 14.4451 14.5648 14.6755 14.6954 14.7155 14.7493 14.7831 14.8223 14.8845 14.9463 15.0076 15.0304 15.0461 15.1483 15.2504 15.2921 15.3169 15.3263 15.3601 15.3801 15.3896 15.3991 15.41 15.4272 15.4444 15.4617 15.4929 15.5574 15.5342 15.5329 15.5532 15.6429 15.7377 15.7041 15.6686 15.6963 15.7805 15.867 15.8259 15.8352 15.8639 15.8923 15.9601 15.9393 15.9555 15.9716 15.9876 16.011 16.017 16.0229 16.0289 16.0348 16.0273 16.0594 16.0797 16.0998 16.1198 16.0763 16.143 16.1666 16.1842 16.1664 16.1106 16.1733 16.2325 16.2443 16.19 16.1336 16.1932 16.254 16.258 16.2039 16.1479 16.205 16.2633 16.2586 16.2117 16.1567 16.2117 16.245 16.241 16.2153 16.1617 16.2151 16.2297 16.2267 16.2173 16.1653 16.2174 16.2185 16.2166 16.2147 16.1694 16.2131 16.2123 16.2115 16.2108 16.1754 16.2114 16.2119 16.2125 16.2132 16.1851 16.2165 16.2185 16.2205 16.2226 16.2001 16.2291 16.233 16.237 16.241 16.2228 16.2518 16.2583 16.2648 16.2713 16.257 16.288 16.2987 16.3095 16.3203 16.3111 16.3472 16.3628 16.3785 16.3942 16.3881 16.4317 16.4571 16.4824 16.5078 16.5108 16.568 16.6016 16.6353 16.6691 16.6682 16.7293 16.7794 16.8294 16.8793 16.8935 16.9687 16.9325 16.8973 16.8631 16.7729 16.6907 16.5864 16.482 16.3776 16.2678 16.2158 16.1559 16.0961 16.0362 15.9719 15.9405 15.8987 15.857 15.8153 15.7658 15.7202 15.6674 15.6146 15.5618 15.5031 15.4523 15.396 15.3397 15.2835 15.2222 15.1717 15.1155 15.0594 15.0032 14.9413 14.8879 14.8283 14.7687 14.7091 14.6428 14.5851 14.5204 14.4556 14.3909 14.3187 14.2565 14.1863 14.1161 14.0459 13.9673 13.8998 13.8232 13.7466 13.67 13.5838 13.5099 13.4259 13.3418 13.2577 13.163 13.0817 12.989 12.8962 12.8035 12.6991 12.6091 12.5067 12.4044 12.302 12.1873 12.0873 11.9736 11.8598 11.746 11.6186 11.5069 11.3811 11.2554 11.1296 10.9902 10.8655 10.7242 10.5828 10.4415 10.2841 10.1432 9.98783 9.8325 9.67718 9.50824 9.35148 9.17258 8.99371 8.81488 8.61527 8.43349 8.24186 8.05024 7.85862 7.65784 7.46051 7.22496 6.98953 6.75423 6.48383 6.23861 6.0069 5.77518 5.54346 5.32445 5.0803 4.73931 4.39898 4.05925 3.6347 3.27056 3.02059 2.7713 2.52259 2.37971 2.15432 1.65772 1.15953 0.65998 0