# vtk DataFile Version 2.0
track0
ASCII
DATASET POLYDATA
POINTS 10949 double
-0.0205 0.001 1e-05
-0.0202034 0.00100002 1e-05
-0.0199069 0.00100023 1e-05
-0.0196103 0.00100066 1e-05
-0.0193137 0.0010013 1e-05
-0.0190172 0.00100214 1e-05
-0.0187132 0.00100341 1e-05
-0.0184093 0.00100432 1e-05
-0.0181054 0.00100523 1e-05
-0.0178015 0.00100614 1e-05
-0.0174976 0.00100705 1e-05
-0.0172058 0.00100823 1e-05
-0.016914 0.00100895 1e-05
-0.0166222 0.00100962 1e-05
-0.0163305 0.00101024 1e-05
-0.0160387 0.00101082 1e-05
-0.0157586 0.00101168 1e-05
-0.0154784 0.00101209 1e-05
-0.0151983 0.00101247 1e-05
-0.0149182 0.00101281 1e-05
-0.0146381 0.00101312 1e-05
-0.0143692 0.00101374 1e-05
-0.0141002 0.00101394 1e-05
-0.0138313 0.00101411 1e-05
-0.0135624 0.00101426 1e-05
-0.0132934 0.00101438 1e-05
-0.0130353 0.00101482 1e-05
-0.0127771 0.00101487 1e-05
-0.0125189 0.0010149 1e-05
-0.0122607 0.00101491 1e-05
-0.0120025 0.0010149 1e-05
-0.0117547 0.00101523 1e-05
-0.0115068 0.00101517 1e-05
-0.0112589 0.0010151 1e-05
-0.0110111 0.00101501 1e-05
-0.0107632 0.00101491 1e-05
-0.0105252 0.00101516 1e-05
-0.0102873 0.00101502 1e-05
-0.0100493 0.00101488 1e-05
-0.00981133 0.00101472 1e-05
-0.00957337 0.00101455 1e-05
-0.00934491 0.00101474 1e-05
-0.00911645 0.00101455 1e-05
-0.008888 0.00101434 1e-05
-0.00865954 0.00101413 1e-05
-0.00843108 0.0010139 1e-05
-0.00821175 0.00101405 1e-05
-0.00799242 0.00101381 1e-05
-0.00777309 0.00101355 1e-05
-0.00755376 0.00101328 1e-05
-0.00733443 0.00101299 1e-05
-0.00712387 0.00101312 1e-05
-0.0069133 0.00101282 1e-05
-0.00670273 0.00101251 1e-05
-0.00649217 0.00101219 1e-05
-0.0062816 0.00101186 1e-05
-0.00607944 0.00101196 1e-05
-0.00587729 0.00101162 1e-05
-0.00567514 0.00101126 1e-05
-0.00547298 0.0010109 1e-05
-0.00527083 0.00101051 1e-05
-0.00507675 0.0010106 1e-05
-0.00488268 0.00101021 1e-05
-0.0046886 0.0010098 1e-05
-0.00449452 0.00100939 1e-05
-0.00430044 0.00100895 1e-05
-0.00411412 0.00100901 1e-05
-0.0039278 0.00100857 1e-05
-0.00374147 0.00100811 1e-05
-0.00355515 0.00100764 1e-05
-0.00336883 0.00100715 1e-05
-0.00318995 0.00100718 1e-05
-0.00301107 0.00100668 1e-05
-0.00283219 0.00100616 1e-05
-0.00265331 0.00100561 1e-05
-0.00247443 0.00100505 1e-05
-0.0023027 0.00100504 1e-05
-0.00213097 0.00100446 1e-05
-0.00195924 0.00100385 1e-05
-0.00178751 0.00100322 1e-05
-0.00161577 0.00100256 1e-05
-0.0014509 0.00100249 1e-05
-0.00128603 0.00100181 1e-05
-0.00112116 0.00100108 1e-05
-0.000956294 0.00100031 1e-05
-0.000791418 0.000999495 1e-05
-0.000633135 0.000999324 1e-05
-0.000474853 0.000998454 1e-05
-0.000316572 0.000997538 1e-05
-0.000158291 0.000996573 1e-05
0 0.00099556 1e-05
0.000105677 0.000995353 1e-05
0.000211353 0.000994622 1e-05
0.000317028 0.000993861 1e-05
0.000422702 0.000993068 1e-05
0.000528387 0.000992243 1e-05
0.000634886 0.000992016 1e-05
0.000741382 0.000991166 1e-05
0.000847878 0.000990294 1e-05
0.000954374 0.000989399 1e-05
0.00106088 0.000988481 1e-05
0.00116821 0.000988269 1e-05
0.00127553 0.000987352 1e-05
0.00138286 0.000986413 1e-05
0.00149018 0.000985452 1e-05
0.00159752 0.000984469 1e-05
0.00170568 0.000984268 1e-05
0.00181384 0.000983308 1e-05
0.00192199 0.000982327 1e-05
0.00203015 0.000981326 1e-05
0.00213833 0.000980305 1e-05
0.00224733 0.000980113 1e-05
0.00235633 0.000979132 1e-05
0.00246532 0.000978131 1e-05
0.00257432 0.000977111 1e-05
0.00268334 0.000976114 1e-05
0.00279319 0.000975923 1e-05
0.00290303 0.000975003 1e-05
0.00301288 0.000973991 1e-05
0.00312272 0.000972958 1e-05
0.00323259 0.000972038 1e-05
0.00334329 0.000971837 1e-05
0.00345399 0.000970985 1e-05
0.00356469 0.000969965 1e-05
0.00367539 0.000968923 1e-05
0.00378611 0.000968063 1e-05
0.00389767 0.000967842 1e-05
0.00400923 0.000967039 1e-05
0.00412079 0.00096601 1e-05
0.00423235 0.00096496 1e-05
0.00434393 0.000964142 1e-05
0.00445636 0.000963893 1e-05
0.00456879 0.000963122 1e-05
0.00468122 0.000962082 1e-05
0.00479365 0.00096102 1e-05
0.00490609 0.000960229 1e-05
0.0050194 0.000959943 1e-05
0.0051327 0.000959188 1e-05
0.005246 0.000958131 1e-05
0.0053593 0.000957053 1e-05
0.00547262 0.000956272 1e-05
0.00558681 0.000955943 1e-05
0.00570099 0.00095519 1e-05
0.00581518 0.000954112 1e-05
0.00592936 0.000953012 1e-05
0.00604356 0.000952231 1e-05
0.00615863 0.000951852 1e-05
0.0062737 0.000951091 1e-05
0.00638877 0.000949987 1e-05
0.00650384 0.000948863 1e-05
0.00661893 0.00094807 1e-05
0.0067349 0.000947638 1e-05
0.00685087 0.000946859 1e-05
0.00696683 0.000945735 1e-05
0.0070828 0.000944599 1e-05
0.00719878 0.000943787 1e-05
0.00731565 0.000943299 1e-05
0.00743252 0.000942495 1e-05
0.00754939 0.000941377 1e-05
0.00766625 0.000940247 1e-05
0.00778313 0.000939408 1e-05
0.00790091 0.00093886 1e-05
0.00801869 0.000938025 1e-05
0.00813647 0.000936904 1e-05
0.00825424 0.000935771 1e-05
0.00837203 0.000934899 1e-05
0.00849073 0.000934289 1e-05
0.00860942 0.000933416 1e-05
0.00872811 0.000932284 1e-05
0.00884681 0.000931139 1e-05
0.00896551 0.00093023 1e-05
0.00908513 0.000929555 1e-05
0.00920475 0.000928641 1e-05
0.00932436 0.000927491 1e-05
0.00944398 0.000926327 1e-05
0.0095636 0.000925375 1e-05
0.00968415 0.000924634 1e-05
0.0098047 0.000923675 1e-05
0.00992524 0.0009225 1e-05
0.0100458 0.000921311 1e-05
0.0101663 0.000920314 1e-05
0.0102878 0.000919505 1e-05
0.0104093 0.000918497 1e-05
0.0105308 0.000917291 1e-05
0.0106523 0.000916072 1e-05
0.0107738 0.000915025 1e-05
0.0108962 0.000914147 1e-05
0.0110186 0.000913086 1e-05
0.0111411 0.000911845 1e-05
0.0112635 0.000910591 1e-05
0.0113859 0.000909492 1e-05
0.0115093 0.000908543 1e-05
0.0116327 0.000907427 1e-05
0.0117561 0.000906159 1e-05
0.0118794 0.000904882 1e-05
0.0120028 0.000903728 1e-05
0.0121272 0.000902707 1e-05
0.0122515 0.000901534 1e-05
0.0123759 0.00090024 1e-05
0.0125002 0.000898937 1e-05
0.0126245 0.000897724 1e-05
0.0127498 0.000896631 1e-05
0.0128752 0.000895397 1e-05
0.0130005 0.000894071 1e-05
0.0131258 0.000892735 1e-05
0.0132511 0.000891462 1e-05
0.0133774 0.000890294 1e-05
0.0135036 0.000888998 1e-05
0.0136299 0.000887633 1e-05
0.0137562 0.000886258 1e-05
0.0138825 0.000884922 1e-05
0.0140098 0.00088368 1e-05
0.014137 0.000882319 1e-05
0.0142643 0.00088091 1e-05
0.0143915 0.000879491 1e-05
0.0145188 0.000878091 1e-05
0.0146471 0.000876772 1e-05
0.0147753 0.000875345 1e-05
0.0149036 0.000873887 1e-05
0.0150318 0.000872418 1e-05
0.0151601 0.000870952 1e-05
0.0152893 0.000869557 1e-05
0.0154186 0.000868061 1e-05
0.0155478 0.00086655 1e-05
0.0156771 0.000865028 1e-05
0.0158063 0.000863495 1e-05
0.0159366 0.000862022 1e-05
0.0160668 0.000860464 1e-05
0.0161971 0.000858895 1e-05
0.0163273 0.000857315 1e-05
0.0164576 0.000855725 1e-05
0.0165889 0.000854173 1e-05
0.0167201 0.000852554 1e-05
0.0168514 0.000850924 1e-05
0.0169827 0.000849283 1e-05
0.0171139 0.000847631 1e-05
0.0172462 0.000846001 1e-05
0.0173785 0.000844317 1e-05
0.0175108 0.000842623 1e-05
0.0176431 0.000840918 1e-05
0.0177754 0.000839201 1e-05
0.0179087 0.00083749 1e-05
0.018042 0.000835739 1e-05
0.0181753 0.000833978 1e-05
0.0183087 0.000832204 1e-05
0.018442 0.00083042 1e-05
0.0185763 0.000828627 1e-05
0.0187107 0.000826807 1e-05
0.018845 0.000824975 1e-05
0.0189794 0.000823131 1e-05
0.0191137 0.000821275 1e-05
0.0192296 0.000819671 1e-05
0.0193455 0.000818052 1e-05
0.0194613 0.000816424 1e-05
0.0195772 0.000814788 1e-05
0.0196879 0.000813215 1e-05
0.0197085 0.000812922 1e-05
0.0197291 0.000812628 1e-05
0.0197496 0.000812334 1e-05
0.0197702 0.000812039 1e-05
0.0197907 0.000811745 1e-05
0.0199272 0.000809787 1e-05
0.0200636 0.000807818 1e-05
0.0202001 0.000805836 1e-05
0.0203365 0.000803842 1e-05
0.020473 0.000801835 1e-05
0.0206105 0.000799793 1e-05
0.020748 0.000797746 1e-05
0.0208855 0.000795685 1e-05
0.021023 0.000793612 1e-05
0.0211606 0.000791526 1e-05
0.0212991 0.000789401 1e-05
0.0214377 0.000787272 1e-05
0.0215763 0.000785131 1e-05
0.0217149 0.000782977 1e-05
0.0218535 0.000780811 1e-05
0.0219931 0.0007786 1e-05
0.0221328 0.000776389 1e-05
0.0222724 0.000774166 1e-05
0.0224121 0.000771929 1e-05
0.0225517 0.00076968 1e-05
0.0226925 0.000767384 1e-05
0.0228332 0.000765089 1e-05
0.022974 0.000762781 1e-05
0.0231147 0.000760459 1e-05
0.0232555 0.000758124 1e-05
0.0233973 0.00075574 1e-05
0.0235391 0.000753357 1e-05
0.023681 0.000750961 1e-05
0.0238228 0.00074855 1e-05
0.0239647 0.000746124 1e-05
0.0241076 0.000743652 1e-05
0.0242505 0.000741177 1e-05
0.0243935 0.000738691 1e-05
0.0245364 0.000736192 1e-05
0.0246794 0.000733676 1e-05
0.0248234 0.000731115 1e-05
0.0249675 0.000728551 1e-05
0.0251115 0.000725977 1e-05
0.0252556 0.000723389 1e-05
0.0253996 0.000720782 1e-05
0.0255448 0.000718131 1e-05
0.02569 0.000715473 1e-05
0.0258351 0.000712805 1e-05
0.0259803 0.000710122 1e-05
0.0261255 0.000707419 1e-05
0.0262718 0.000704672 1e-05
0.0264181 0.000701916 1e-05
0.0265644 0.00069915 1e-05
0.0267107 0.000696368 1e-05
0.026857 0.000693566 1e-05
0.0270044 0.000690722 1e-05
0.0271519 0.000687866 1e-05
0.0272993 0.000684999 1e-05
0.0274468 0.000682115 1e-05
0.0275942 0.000679214 1e-05
0.0277428 0.000676272 1e-05
0.0278914 0.000673316 1e-05
0.0280399 0.000670347 1e-05
0.0281885 0.000667362 1e-05
0.0283371 0.000664361 1e-05
0.0284869 0.000661321 1e-05
0.0286366 0.000658265 1e-05
0.0287863 0.000655194 1e-05
0.0289361 0.000652109 1e-05
0.0290858 0.000649009 1e-05
0.0292367 0.00064587 1e-05
0.0293876 0.000642715 1e-05
0.0295385 0.000639543 1e-05
0.0296894 0.000636357 1e-05
0.0298403 0.000633158 1e-05
0.0299924 0.000629921 1e-05
0.0301445 0.000626666 1e-05
0.0302966 0.000623394 1e-05
0.0304486 0.000620107 1e-05
0.0306007 0.000616809 1e-05
0.030754 0.000613473 1e-05
0.0309072 0.000610118 1e-05
0.0310605 0.000606745 1e-05
0.0312138 0.000603359 1e-05
0.031367 0.00059996 1e-05
0.0315215 0.000596525 1e-05
0.0316759 0.000593069 1e-05
0.0318304 0.000589596 1e-05
0.0319848 0.000586109 1e-05
0.0321393 0.00058261 1e-05
0.0322949 0.000579073 1e-05
0.0324506 0.000575515 1e-05
0.0326062 0.000571941 1e-05
0.0327619 0.000568352 1e-05
0.0329175 0.000564751 1e-05
[...]
POINT_DATA 10949
 FIELD attributes 1
U 3 10949 float
10.0023 	0.000537611 	0 10.008 	0.00732189 	0 10.0136 	0.0144161 	0 10.0192 	0.0215271 	0 10.0248 	0.0286549 	0 10.0314 	0.0416714 	0 10.035 	0.0300914 	0 10.038 	0.0300775 	0 10.041 	0.0300633 	0 10.044 	0.0300489 	0 10.0462 	0.0406908 	0 10.0443 	0.0246504 	0 10.0432 	0.023082 	0 10.042 	0.02149 	0 10.0409 	0.0198739 	0 10.0396 	0.0306888 	0 10.0363 	0.0147591 	0 10.0341 	0.0135681 	0 10.0319 	0.0123544 	0 10.0296 	0.0111177 	0 10.0275 	0.0229222 	0 10.0243 	0.0074174 	0 10.022 	0.00648727 	0 10.0196 	0.00553679 	0 10.0172 	0.00456549 	0 10.0149 	0.0171325 	0 10.0118 	0.0018766 	0 10.0093 	0.00114931 	0 10.0067 	0.000404686 	0 10.0042 	-0.000357688 	0 10.0016 	0.0130794 	0 9.99875 	-0.00230955 	0 9.9962 	-0.00288766 	0 9.99365 	-0.0034802 	0 9.9911 	-0.00408754 	0 9.9884 	0.0103999 	0 9.9858 	-0.0055814 	0 9.98333 	-0.00610183 	0 9.98085 	-0.00663558 	0 9.97837 	-0.00718299 	0 9.97556 	0.00851828 	0 9.97328 	-0.00844622 	0 9.97089 	-0.00896627 	0 9.9685 	-0.00949972 	0 9.96611 	-0.0100469 	0 9.96317 	0.00707614 	0 9.96122 	-0.011203 	0 9.95893 	-0.0117443 	0 9.95663 	-0.0122995 	0 9.95433 	-0.012869 	0 9.95123 	0.00592814 	0 9.94966 	-0.0139705 	0 9.94749 	-0.0145446 	0 9.9453 	-0.0151332 	0 9.94312 	-0.0157367 	0 9.93984 	0.00499268 	0 9.93873 	-0.0168297 	0 9.93668 	-0.0174568 	0 9.93464 	-0.0180995 	0 9.93259 	-0.0187582 	0 9.9291 	0.00415284 	0 9.9285 	-0.0199102 	0 9.92663 	-0.0206359 	0 9.92475 	-0.0213794 	0 9.92287 	-0.0221409 	0 9.91916 	0.00318214 	0 9.91916 	-0.0234753 	0 9.91746 	-0.0243514 	0 9.91575 	-0.0252483 	0 9.91403 	-0.0261665 	0 9.91 	0.00185567 	0 9.91065 	-0.0278142 	0 9.90913 	-0.0289512 	0 9.9076 	-0.0301144 	0 9.90606 	-0.0313043 	0 9.90167 	-0.00030113 	0 9.9031 	-0.0335718 	0 9.90177 	-0.035064 	0 9.90043 	-0.0365894 	0 9.89908 	-0.0381489 	0 9.89418 	-0.00365704 	0 9.89624 	-0.0413721 	0 9.89475 	-0.0437556 	0 9.89325 	-0.0461903 	0 9.89172 	-0.0486772 	0 9.88569 	-0.0106543 	0 9.88766 	-0.0543513 	1.08708e-21 9.88593 	-0.0572579 	2.80663e-21 9.88418 	-0.0602266 	4.52506e-21 9.88241 	-0.0632586 	6.24236e-21 9.87569 	-0.0193213 	7.4994e-21 9.87819 	-0.0683197 	-4.19058e-21 9.87628 	-0.0711887 	-6.98545e-21 9.87436 	-0.0740984 	-9.79044e-21 9.87242 	-0.0770495 	-1.26057e-20 9.86371 	-0.0209844 	-3.98337e-22 9.86951 	-0.0787514 	-2.01421e-21 9.86776 	-0.0808206 	-3.61654e-21 9.86599 	-0.082918 	-5.21794e-21 9.86422 	-0.0850441 	-6.81838e-21 9.8517 	-0.0194102 	-7.8769e-21 9.86248 	-0.0843425 	-6.95128e-21 9.86068 	-0.0862806 	-4.78474e-21 9.85887 	-0.0882437 	-2.6176e-21 9.85705 	-0.0902322 	-4.49852e-22 9.83831 	-0.0182847 	-3.0769e-21 9.85482 	-0.0875224 	-1.18157e-21 9.85269 	-0.0893199 	-8.03372e-21 9.85056 	-0.0911391 	-1.4884e-20 9.84841 	-0.0929802 	-2.17323e-20 9.82183 	-0.0173315 	-2.78155e-20 9.84491 	-0.088613 	-4.26286e-20 9.8425 	-0.0903558 	-3.87055e-20 9.84007 	-0.0921179 	-3.47856e-20 9.836 	-0.0899558 	-2.99165e-20 9.80247 	-0.0170306 	-7.96069e-21 9.83 	-0.0823381 	-7.79734e-21 9.83038 	-0.0905887 	-2.20585e-21 9.82768 	-0.0923872 	4.00015e-21 9.81852 	-0.0821917 	1.04089e-20 9.78033 	-0.0177854 	1.77336e-20 9.81093 	-0.0754986 	5.47271e-20 9.81578 	-0.0904923 	6.17177e-20 9.81272 	-0.0923026 	5.94499e-20 9.79747 	-0.0761079 	4.54315e-20 9.755 	-0.0193547 	4.93825e-21 9.78827 	-0.0704306 	-4.31888e-20 9.79827 	-0.0903839 	-6.3798e-20 9.79482 	-0.0921907 	-6.8373e-20 9.77274 	-0.0716108 	-5.40532e-20 9.72643 	-0.0215946 	-1.49063e-20 9.76202 	-0.0669262 	-9.49904e-21 9.77774 	-0.0904807 	-1.06141e-20 9.77389 	-0.09229 	-1.82423e-20 9.7444 	-0.0685858 	-2.95852e-20 9.69471 	-0.024457 	-4.3932e-20 9.73228 	-0.0648445 	-5.17507e-20 9.75418 	-0.0909739 	-5.51083e-20 9.74991 	-0.0927826 	-5.09208e-20 9.71259 	-0.0668903 	-3.98221e-20 9.65996 	-0.0278579 	-2.54734e-20 9.69919 	-0.0639511 	-1.70464e-20 9.72765 	-0.0918549 	-8.84956e-21 9.72296 	-0.0936401 	-1.46405e-21 9.6775 	-0.066254 	-1.59209e-21 9.62234 	-0.031628 	-3.57007e-21 9.66291 	-0.0639526 	-1.67925e-21 9.69819 	-0.0929997 	0 9.69309 	-0.0947486 	0 9.63935 	-0.0664254 	-1.8388e-21 9.58208 	-0.0356472 	-3.81804e-21 9.62366 	-0.0646462 	-1.92757e-21 9.66482 	-0.0936695 	-4.57201e-23 9.65777 	-0.0946015 	-6.84919e-21 9.59842 	-0.0672393 	-1.31903e-20 9.53947 	-0.0398499 	-1.95653e-20 9.58177 	-0.0659154 	-3.59006e-20 9.62366 	-0.0920033 	-5.22036e-20 9.61572 	-0.0929703 	-5.40404e-20 9.5551 	-0.0685908 	-4.42697e-20 9.49487 	-0.0441869 	-3.45111e-20 9.5376 	-0.0676531 	-6.60972e-20 9.57995 	-0.09114 	-9.76697e-20 9.5712 	-0.0921213 	-8.92213e-20 9.50969 	-0.0703718 	-4.47393e-20 9.44853 	-0.0486006 	-2.29015e-22 9.49144 	-0.0697515 	8.77004e-23 9.53399 	-0.0909212 	3.81431e-22 9.52456 	-0.0919015 	2.49042e-21 9.46246 	-0.0724839 	6.83444e-21 9.4007 	-0.0530469 	1.11921e-20 9.44354 	-0.0721329 	6.62738e-21 9.48605 	-0.091236 	2.04944e-21 9.47602 	-0.0922066 	-1.0858e-21 9.41365 	-0.0748618 	-3.04803e-21 9.35159 	-0.0574998 	-5.00542e-21 9.39415 	-0.0747424 	-3.14656e-21 9.43639 	-0.0920005 	-1.29289e-21 9.42587 	-0.0929561 	-1.31435e-21 9.36351 	-0.0774569 	-5.66476e-21 9.30142 	-0.0619424 	-1.00262e-20 9.3435 	-0.0775371 	-5.44443e-21 9.38528 	-0.0931459 	-8.51653e-22 9.37439 	-0.0940818 	-5.53039e-21 9.31227 	-0.080229 	-1.89579e-20 9.2504 	-0.0663625 	-3.23941e-20 9.29184 	-0.0804795 	-8.71621e-20 9.33299 	-0.0946093 	-1.41921e-19 9.32182 	-0.0955217 	-1.41973e-19 9.26015 	-0.0831406 	-8.25417e-20 9.19872 	-0.0707474 	-2.31033e-20 9.23936 	-0.0835402 	-1.4119e-20 9.27535 	-0.0953213 	-5.47714e-21 9.26265 	-0.0958452 	-5.84612e-22 9.20742 	-0.0861637 	0 9.1466 	-0.0750877 	0 9.18633 	-0.0866952 	0 9.2144 	-0.0958737 	0 9.20186 	-0.0964143 	0 9.15424 	-0.0892765 	0 9.09419 	-0.0793767 	0 9.1329 	-0.0899205 	0 9.15319 	-0.0968853 	1.84141e-21 9.14079 	-0.0974384 	6.97613e-21 9.10077 	-0.092455 	1.43544e-20 9.04161 	-0.0836067 	2.32962e-20 9.07922 	-0.0931947 	8.21517e-20 9.0919 	-0.0982804 	1.10845e-19 9.07963 	-0.0988432 	1.09266e-19 9.04713 	-0.0956797 	8.24592e-20 8.98898 	-0.0877731 	2.3565e-20 9.02542 	-0.0965021 	1.47008e-20 9.03069 	-0.0999974 	1.20111e-20 9.01857 	-0.100568 	1.27702e-20 8.99345 	-0.0989364 	1.52139e-20 8.93638 	-0.091873 	2.18085e-20 8.97161 	-0.0998294 	5.9717e-20 8.96972 	-0.101983 	6.40757e-20 8.95773 	-0.10256 	5.93135e-20 8.93983 	-0.102212 	4.94923e-20 8.88392 	-0.0959047 	7.05808e-21 8.91789 	-0.103167 	-3.86861e-20 8.90911 	-0.104194 	-5.22076e-20 8.89726 	-0.104775 	-6.34198e-20 8.88538 	-0.105356 	-7.46277e-20 8.83167 	-0.0998682 	-4.67498e-20 8.86071 	-0.106009 	-9.37073e-20 8.84901 	-0.106593 	-8.85168e-20 8.83729 	-0.107177 	-8.33202e-20 8.82554 	-0.107761 	-7.81173e-20 8.77973 	-0.103762 	-3.13418e-20 8.80112 	-0.108559 	-2.18799e-20 8.78955 	-0.109145 	-1.5339e-20 8.77795 	-0.109732 	-8.79899e-21 8.76633 	-0.110319 	-2.25986e-21 8.72819 	-0.107588 	0 8.74225 	-0.111236 	6.70206e-22 8.7308 	-0.111825 	2.40175e-21 8.71932 	-0.112415 	4.13351e-21 8.70782 	-0.113005 	5.86549e-21 8.67709 	-0.111353 	7.60073e-21 8.68416 	-0.114021 	6.91935e-21 8.67282 	-0.114615 	7.02844e-21 8.66146 	-0.115209 	7.13798e-21 8.65008 	-0.115803 	7.24796e-21 8.62648 	-0.115067 	7.88028e-21 8.62688 	-0.116901 	9.78889e-21 8.61566 	-0.117499 	1.32028e-20 8.60441 	-0.118098 	1.66176e-20 8.59314 	-0.118697 	2.00333e-20 8.57637 	-0.118737 	2.42009e-20 8.57206 	-0.119773 	3.06849e-20 8.56255 	-0.120289 	2.91528e-20 8.55302 	-0.120805 	2.76152e-20 8.54347 	-0.12132 	2.60722e-20 8.53433 	-0.121814 	2.45918e-20 8.53258 	-0.121906 	2.4409e-20 8.53084 	-0.121997 	2.42262e-20 8.52909 	-0.122089 	2.40432e-20 8.52734 	-0.122181 	2.38601e-20 8.52522 	-0.122333 	2.44086e-20 8.51437 	-0.122886 	2.08904e-20 8.50305 	-0.123493 	1.73291e-20 8.49171 	-0.1241 	1.37667e-20 8.48035 	-0.124707 	1.02034e-20 8.46629 	-0.125698 	7.62704e-21 8.45825 	-0.12596 	6.16465e-21 8.44703 	-0.126566 	1.20162e-21 8.43577 	-0.127172 	-3.75916e-21 8.4245 	-0.127779 	-8.71766e-21 8.4085 	-0.128987 	-1.93238e-20 8.40305 	-0.129051 	-2.7948e-20 8.3919 	-0.129655 	-3.07881e-20 8.38074 	-0.130259 	-3.36304e-20 8.36954 	-0.130863 	-3.64748e-20 8.35182 	-0.132196 	-3.27415e-20 8.34876 	-0.132144 	-5.08258e-20 8.3377 	-0.132747 	-4.68407e-20 8.32661 	-0.13335 	-4.2862e-20 8.3155 	-0.133953 	-3.88895e-20 8.29623 	-0.135336 	-7.39155e-21 8.2954 	-0.13524 	-2.69693e-21 8.28442 	-0.135859 	-4.93409e-21 8.27341 	-0.136479 	-7.17066e-21 8.26238 	-0.137099 	-9.40665e-21 8.2417 	-0.138507 	-1.1982e-20 8.24302 	-0.138478 	-3.33798e-20 8.23207 	-0.139096 	-3.83235e-20 8.22109 	-0.139714 	-4.32695e-20 8.20896 	-0.140403 	-4.49858e-20 8.18803 	-0.141645 	-2.15432e-20 8.1889 	-0.141759 	2.65122e-20 8.18035 	-0.142252 	4.4376e-20 8.16937 	-0.142842 	5.45066e-20 8.15548 	-0.14357 	4.94489e-20 8.13496 	-0.144616 	9.6704e-21 8.13533 	-0.144808 	3.60105e-21 8.12905 	-0.145243 	8.32751e-22 8.11808 	-0.145848 	3.81821e-22 8.10258 	-0.146637 	1.92356e-22 8.08249 	-0.147613 	2.66943e-22 8.0825 	-0.147981 	1.86378e-22 8.07839 	-0.148454 	-1.66914e-21 8.06746 	-0.1491 	-6.47564e-21 8.05046 	-0.149895 	-1.12402e-20 8.03075 	-0.150757 	-1.59854e-20 8.03047 	-0.151272 	-1.08506e-20 8.02848 	-0.15181 	-5.71202e-21 8.01758 	-0.152473 	-5.56169e-22 7.99916 	-0.153193 	0 7.9798 	-0.15392 	0 7.97928 	-0.154546 	0 7.97874 	-0.155173 	0 7.96773 	-0.155826 	-2.49209e-21 7.94875 	-0.156421 	-4.92735e-21 7.92972 	-0.157016 	-7.36205e-21 7.929 	-0.157728 	-2.70089e-20 7.92825 	-0.158441 	-4.66553e-20 7.91795 	-0.159057 	-5.04039e-20 7.89927 	-0.159534 	-3.8867e-20 7.88056 	-0.160011 	-2.73297e-20 7.87966 	-0.160792 	-8.1055e-20 7.87874 	-0.161574 	-1.3478e-19 7.86915 	-0.162153 	-1.36748e-19 7.85076 	-0.162528 	-8.62819e-20 7.83234 	-0.162904 	-3.58155e-20 7.83129 	-0.163743 	-6.41584e-20 7.83021 	-0.164583 	-9.25025e-20 7.82133 	-0.165128 	-8.83048e-20 7.8032 	-0.165418 	-5.20828e-20 7.78505 	-0.165708 	-1.58607e-20 7.78387 	-0.166597 	-1.03971e-20 7.78265 	-0.167486 	-4.93439e-21 7.77448 	-0.168002 	0 7.75658 	-0.168222 	0 7.73867 	-0.168442 	0 7.73736 	-0.169374 	0 7.73499 	-0.170241 	0 7.7266 	-0.170731 	0 7.71087 	-0.170963 	0 7.69317 	-0.171126 	0 7.69175 	-0.172097 	0 7.68778 	-0.17289 	0 7.67941 	-0.173378 	0 7.66602 	-0.173663 	0 7.64852 	-0.173782 	0 7.64699 	-0.174787 	0 7.64146 	-0.175489 	0 7.63311 	-0.175978 	0 7.622 	-0.176343 	0 7.60467 	-0.176429 	0 7.60305 	-0.177467 	0 7.59599 	-0.178063 	0 7.58765 	-0.178557 	0 7.57876 	-0.179025 	0 7.5616 	-0.179086 	0 7.55963 	-0.180133 	0 7.55132 	-0.180634 	0 7.54298 	-0.181136 	0 7.53462 	-0.181638 	0 7.51925 	-0.18177 	0 7.51571 	-0.182711 	0 7.50739 	-0.183222 	0 7.49906 	-0.183734 	0 7.49069 	-0.184246 	0 7.47758 	-0.184494 	-2.248e-21 7.4725 	-0.185319 	0 7.46418 	-0.185843 	0 7.45583 	-0.186368 	0 7.44746 	-0.186892 	0 7.43656 	-0.18727 	-1.21788e-21 7.42996 	-0.187973 	0 7.42163 	-0.188512 	0 7.41327 	-0.189051 	0 7.40489 	-0.18959 	0 7.39615 	-0.19011 	0 7.39514 	-0.190214 	1.43685e-23 7.39391 	-0.190296 	3.32216e-23 7.39268 	-0.190378 	5.2075e-23 7.39145 	-0.19046 	7.0929e-23 7.39022 	-0.190542 	8.96803e-23 7.38288 	-0.191016 	1.8784e-22 7.37552 	-0.191491 	2.85983e-22 7.36813 	-0.191966 	3.84109e-22 7.36073 	-0.192441 	4.82219e-22 7.35276 	-0.1927 	5.28478e-22 7.34532 	-0.19348 	5.84008e-21 7.33667 	-0.194056 	6.84617e-21 7.328 	-0.194633 	7.85592e-21 7.3193 	-0.195209 	8.86935e-21 7.30952 	-0.195329 	1.69371e-21 7.30328 	-0.19636 	-1.65336e-21 7.29461 	-0.196958 	-5.97831e-21 7.28591 	-0.197557 	-1.03024e-20 7.27718 	-0.198157 	-1.46256e-20 7.267 	-0.19807 	-2.25106e-20 7.26182 	-0.199344 	-3.01138e-20 7.25312 	-0.199969 	-3.06716e-20 7.24439 	-0.200594 	-3.12316e-20 7.23563 	-0.20122 	-3.17935e-20 7.22515 	-0.20094 	-2.27111e-20 7.22058 	-0.202388 	-1.34324e-20 7.21218 	-0.203108 	-8.34607e-21 7.20341 	-0.203764 	-3.63039e-21 7.19427 	-0.20421 	0 7.18392 	-0.203959 	0 7.17908 	-0.205419 	0 7.17176 	-0.206395 	0 7.16296 	-0.207086 	0 7.15346 	-0.207342 	0 7.14327 	-0.207149 	0 7.13819 	-0.208626 	0 7.13184 	-0.209856 	0 7.12299 	-0.210586 	0 7.11323 	-0.210666 	0 7.10316 	-0.210537 	0 7.09786 	-0.212039 	0 7.09239 	-0.213519 	-2.29381e-24 7.08347 	-0.214276 	-7.08141e-23 7.07351 	-0.214216 	9.45604e-24 7.06355 	-0.214155 	8.9744e-23 7.05803 	-0.215691 	-1.71006e-20 7.05246 	-0.217227 	-3.42907e-20 7.04416 	-0.218011 	-3.36527e-20 7.03428 	-0.218026 	-1.40173e-20 7.02439 	-0.218041 	5.61946e-21 7.01868 	-0.21962 	3.44965e-21 7.0129 	-0.221199 	1.28093e-21 7.0053 	-0.222041 	1.55757e-21 6.99547 	-0.222139 	5.28824e-21 6.98563 	-0.222237 	9.01875e-21 6.97973 	-0.22387 	4.83824e-21 6.97376 	-0.225502 	6.55984e-22 6.96684 	-0.226411 	-3.56734e-21 6.95703 	-0.226601 	-4.51486e-21 6.94721 	-0.226792 	-5.46351e-21 6.94112 	-0.228488 	-5.53016e-21 6.93488 	-0.230082 	-5.34149e-21 6.92805 	-0.231028 	-3.52348e-21 6.91889 	-0.231465 	-2.15305e-21 6.90906 	-0.231757 	-9.1005e-22 6.90278 	-0.233529 	-2.8961e-21 6.8962 	-0.234988 	-4.10663e-21 6.88925 	-0.236028 	-4.27553e-21 6.88097 	-0.236782 	-3.7615e-21 6.8711 	-0.237187 	-2.41251e-21 6.86462 	-0.239045 	-4.51712e-21 6.85772 	-0.240389 	-5.29463e-21 6.85062 	-0.241535 	-5.56313e-21 6.84317 	-0.242612 	-6.05425e-21 6.83322 	-0.24314 	-8.28828e-21 6.82653 	-0.245079 	-6.33687e-21 6.81933 	-0.246343 	-4.37656e-21 6.81206 	-0.247607 	-2.41709e-21 6.80475 	-0.248871 	-4.58464e-22 6.79533 	-0.249674 	0 6.78829 	-0.251518 	-6.92939e-22 6.78089 	-0.252912 	-2.78975e-21 6.77344 	-0.254305 	-4.8874e-21 6.76592 	-0.255699 	-6.98589e-21 6.75728 	-0.256853 	-9.08892e-21 6.74988 	-0.258621 	-8.53791e-21 6.74226 	-0.260157 	-8.69169e-21 6.73458 	-0.261693 	-8.84731e-21 6.72683 	-0.263229 	-9.00477e-21 6.71893 	-0.264742 	-9.11055e-21 6.71812 	-0.26494 	-9.60692e-21 6.71731 	-0.265117 	-9.50512e-21 6.71649 	-0.265293 	-9.40325e-21 6.71567 	-0.26547 	-9.30131e-21 6.71486 	-0.265645 	-9.20015e-21 6.7076 	-0.267149 	-7.78855e-21 6.70029 	-0.268652 	-6.36865e-21 6.69292 	-0.270155 	-4.94042e-21 6.6855 	-0.271657 	-3.50385e-21 6.67803 	-0.272987 	-6.50617e-21 6.67035 	-0.275013 	-7.03675e-21 6.6619 	-0.276857 	-6.89989e-21 6.65336 	-0.278701 	-6.76095e-21 6.64475 	-0.280545 	-6.61992e-21 6.63612 	-0.282032 	-2.35366e-21 6.62884 	-0.284438 	-5.35029e-21 6.62002 	-0.286461 	-1.76147e-21 6.61111 	-0.288484 	1.82729e-21 6.60211 	-0.290495 	5.37875e-21 6.59314 	-0.292001 	7.19407e-21 6.58583 	-0.294703 	1.95594e-20 6.57694 	-0.297014 	2.39562e-20 6.56759 	-0.299227 	2.63888e-20 6.5582 	-0.301245 	2.03328e-20 6.5488 	-0.302966 	1.33963e-21 6.54096 	-0.305863 	4.1055e-21 6.53238 	-0.308591 	5.11835e-21 6.52252 	-0.311006 	2.8617e-21 6.51267 	-0.313054 	5.51719e-22 6.50275 	-0.315002 	-1.77588e-21 6.49431 	-0.318104 	-3.57521e-22 6.48575 	-0.321205 	1.05556e-21 6.47556 	-0.323809 	6.88689e-22 6.46513 	-0.325992 	4.33509e-21 6.45461 	-0.328175 	7.98492e-21 6.4455 	-0.331492 	4.95357e-21 6.43625 	-0.334808 	1.92598e-21 6.4263 	-0.337696 	4.96461e-21 6.41517 	-0.340118 	1.37219e-20 6.40394 	-0.34254 	2.24859e-20 6.39405 	-0.346076 	2.77217e-20 6.38403 	-0.349592 	3.25347e-20 6.37394 	-0.352734 	2.89264e-20 6.3623 	-0.355475 	2.29437e-20 6.35024 	-0.358134 	1.64727e-20 6.33948 	-0.361886 	2.25647e-20 6.3286 	-0.36545 	2.51418e-20 6.31758 	-0.368829 	2.42881e-20 6.30598 	-0.37208 	2.19875e-20 6.29297 	-0.374966 	1.55775e-20 6.28124 	-0.378926 	2.15681e-20 6.26933 	-0.382536 	2.10064e-20 6.25726 	-0.38614 	2.03339e-20 6.24505 	-0.389743 	1.96537e-20 6.23156 	-0.393018 	1.30052e-20 6.21869 	-0.397001 	1.09705e-20 6.2056 	-0.400806 	8.22685e-21 6.19236 	-0.404611 	5.4877e-21 6.17895 	-0.408415 	2.75305e-21 6.16616 	-0.411997 	1.81899e-22 6.16601 	-0.412042 	1.4137e-22 6.16586 	-0.412086 	1.00841e-22 6.1657 	-0.41213 	6.03117e-23 6.16555 	-0.412175 	1.97815e-23 6.16539 	-0.412218 	3.83976e-23 6.15188 	-0.416182 	-2.36334e-21 6.1382 	-0.420142 	-4.7407e-21 6.12435 	-0.424101 	-7.11409e-21 6.11033 	-0.42806 	-9.4835e-21 6.09554 	-0.431863 	-5.97604e-21 6.08232 	-0.436339 	-3.28967e-20 6.06723 	-0.440418 	-3.62864e-20 6.05197 	-0.444497 	-3.97175e-20 6.03644 	-0.448553 	-3.97468e-20 6.0196 	-0.452338 	1.25071e-21 6.00568 	-0.457099 	-3.95346e-21 5.99005 	-0.461479 	-4.14071e-21 5.97325 	-0.465612 	-1.06959e-21 5.9554 	-0.469546 	3.93792e-21 5.9369 	-0.473375 	9.98822e-21 5.92135 	-0.47815 	5.3928e-21 5.90559 	-0.482926 	8.07535e-22 5.8872 	-0.487064 	0 5.86712 	-0.490837 	0 5.84684 	-0.494614 	0 5.82952 	-0.499307 	0 5.81199 	-0.504002 	0 5.79295 	-0.508368 	-1.11416e-21 5.77106 	-0.511983 	-2.35427e-21 5.7489 	-0.515587 	-3.59687e-21 5.7297 	-0.520081 	-1.14474e-20 5.70945 	-0.524339 	-1.17389e-20 5.6883 	-0.528401 	-5.76039e-21 5.66679 	-0.532419 	5.14768e-22 5.64268 	-0.535707 	1.1238e-20 5.62115 	-0.539735 	-6.1344e-22 5.59822 	-0.543368 	4.58858e-21 5.57508 	-0.547004 	9.83654e-21 5.55172 	-0.550642 	1.5131e-20 5.52798 	-0.554234 	2.15021e-20 5.52659 	-0.554439 	2.18628e-20 5.52513 	-0.554616 	2.11651e-20 5.52368 	-0.554793 	2.04674e-20 5.52222 	-0.55497 	1.97695e-20 5.52077 	-0.555146 	1.90759e-20 5.49839 	-0.558097 	8.15368e-21 5.47584 	-0.561051 	-2.79155e-21 5.45312 	-0.564009 	-1.37601e-20 5.43022 	-0.566972 	-2.47521e-20 5.4068 	-0.569521 	-2.13522e-20 5.38278 	-0.572817 	-4.40532e-20 5.35697 	-0.575161 	-5.14457e-20 5.33097 	-0.577511 	-5.88652e-20 5.30459 	-0.579544 	-5.26639e-20 5.27773 	-0.581138 	-2.75375e-20 5.25199 	-0.583508 	-3.28288e-20 5.22605 	-0.585883 	-3.81007e-20 5.1983 	-0.587084 	-3.24537e-20 5.16996 	-0.587479 	-1.92945e-20 5.14146 	-0.587879 	-6.11525e-21 5.11411 	-0.589025 	-2.26759e-21 5.0866 	-0.590177 	1.58875e-21 5.0586 	-0.590242 	2.22734e-21 5.02923 	-0.589411 	3.92265e-21 4.99941 	-0.588354 	5.91507e-21 4.97076 	-0.588015 	-7.3983e-21 4.94184 	-0.586645 	-1.06032e-20 4.91281 	-0.585 	-1.10974e-20 4.88371 	-0.583358 	-1.15836e-20 4.85366 	-0.581055 	-5.66951e-21 4.83973 	-0.579945 	-5.75911e-21 4.82579 	-0.578253 	-8.51359e-21 4.81185 	-0.576561 	-1.1268e-20 4.79791 	-0.574868 	-1.40225e-20 4.78402 	-0.573183 	-1.67663e-20 4.76893 	-0.571483 	-2.07843e-20 4.75385 	-0.569784 	-2.48027e-20 4.73876 	-0.568085 	-2.88213e-20 4.72366 	-0.566387 	-3.28403e-20 4.70883 	-0.56398 	-2.58831e-20 4.6807 	-0.559452 	-2.01964e-20 4.65211 	-0.554118 	-1.57526e-20 4.62359 	-0.548781 	-1.13141e-20 4.59531 	-0.543036 	-7.47521e-21 4.56778 	-0.535753 	-5.91033e-21 4.54053 	-0.529441 	-4.87622e-21 4.51324 	-0.522794 	-3.52603e-21 4.48556 	-0.515137 	-1.1989e-21 4.45916 	-0.505272 	-4.77484e-21 4.43306 	-0.495368 	-8.44956e-21 4.40738 	-0.486523 	-2.38118e-20 4.38194 	-0.477669 	-3.91736e-20 4.35764 	-0.466833 	-3.97318e-20 4.33358 	-0.454262 	-2.6623e-20 4.30996 	-0.441698 	-1.3537e-20 4.28706 	-0.430186 	-2.55473e-20 4.26506 	-0.417676 	-3.24732e-20 4.24419 	-0.40386 	-3.27268e-20 4.22367 	-0.389754 	-2.9648e-20 4.20327 	-0.374781 	-1.59283e-20 4.18407 	-0.360631 	2.01518e-21 4.16652 	-0.344446 	-3.77348e-21 4.14958 	-0.328255 	-9.39687e-21 4.13324 	-0.312056 	-1.48528e-20 4.11731 	-0.295394 	-2.93779e-20 4.10578 	-0.281081 	-2.57516e-20 4.0954 	-0.265797 	-2.28612e-20 4.08552 	-0.250512 	-1.99279e-20 4.07614 	-0.235227 	-1.69512e-20 4.06087 	-0.208917 	-1.17523e-20 4.06032 	-0.207865 	-1.15346e-20 4.05978 	-0.206813 	-1.13167e-20 4.05924 	-0.205761 	-1.10986e-20 4.0587 	-0.204709 	-1.08803e-20 4.05821 	-0.203612 	-1.04259e-20 4.05135 	-0.182929 	-1.00255e-20 4.04532 	-0.162228 	-9.65553e-21 4.04014 	-0.141523 	-9.31925e-21 4.03579 	-0.120815 	-9.01689e-21 4.03298 	-0.0995357 	-8.2727e-21 4.03308 	-0.0770123 	-8.69159e-21 4.03423 	-0.0544104 	-8.63089e-21 4.0363 	-0.0318255 	-8.60664e-21 4.03928 	-0.00925803 	-8.61881e-21 4.0439 	0.013891 	-8.08715e-21 4.05165 	0.0376938 	-8.81889e-21 4.06051 	0.0614755 	-9.02995e-21 4.07033 	0.0852159 	-9.27989e-21 4.08107 	0.108915 	-9.56843e-21 4.093 	0.132765 	-1.03987e-20 4.09681 	0.138655 	-1.03376e-20 4.10075 	0.144534 	-1.09757e-20 4.10475 	0.150409 	-1.16174e-20 4.1088 	0.15628 	-1.22626e-20 4.11171 	0.160436 	-1.27221e-20 4.12487 	0.179021 	-1.5059e-20 4.13857 	0.197564 	-1.7455e-20 4.15279 	0.216065 	-1.990