# vtk DataFile Version 2.0
track0
ASCII
DATASET POLYDATA
POINTS 11643 double
-0.0205 0.001 1e-05
-0.0204991 0.00100536 1e-05
-0.0204976 0.00101063 1e-05
-0.0204947 0.00101518 1e-05
-0.0204905 0.00101864 1e-05
-0.0204746 0.00102682 1e-05
-0.0201831 0.00105563 1e-05
-0.0203616 0.00128793 1e-05
-0.0204488 0.00141936 1e-05
-0.0201625 0.00144441 1e-05
-0.020152 0.00173164 1e-05
-0.0202219 0.00184007 1e-05
-0.0200496 0.00193025 1e-05
-0.0200809 0.00212222 1e-05
-0.0201295 0.00229098 1e-05
-0.0200088 0.00238763 1e-05
-0.0199912 0.00254122 1e-05
-0.0200041 0.00269527 1e-05
-0.0199828 0.00277425 1e-05
-0.0198691 0.00287784 1e-05
-0.019818 0.00302291 1e-05
-0.0198055 0.00317622 1e-05
-0.0197601 0.00329221 1e-05
-0.0196348 0.00340323 1e-05
-0.0195487 0.00354672 1e-05
-0.0194778 0.0036983 1e-05
-0.0193912 0.00384149 1e-05
-0.0193843 0.00384734 1e-05
-0.0193109 0.00390811 1e-05
-0.019244 0.00397601 1e-05
-0.0191791 0.00404587 1e-05
-0.0191113 0.00411286 1e-05
-0.0190172 0.0041981 1e-05
-0.0189565 0.00424695 1e-05
-0.018894 0.0042935 1e-05
-0.0188299 0.00433776 1e-05
-0.0187643 0.0043797 1e-05
-0.018659 0.00444232 1e-05
-0.0184267 0.00456539 1e-05
-0.0181854 0.00466975 1e-05
-0.0179371 0.00475604 1e-05
-0.0176828 0.00482245 1e-05
-0.0174976 0.00485401 1e-05
-0.0172058 0.00488473 1e-05
-0.0169124 0.00488647 1e-05
-0.0166199 0.00486412 1e-05
-0.0163297 0.00482092 1e-05
-0.0160387 0.00475682 1e-05
-0.015829 0.00469392 1e-05
-0.0156229 0.0046199 1e-05
-0.0154211 0.00453513 1e-05
-0.0152221 0.00444386 1e-05
-0.015219 0.00444232 1e-05
-0.0151028 0.00438407 1e-05
-0.0149894 0.00432057 1e-05
-0.0148792 0.00425175 1e-05
-0.0147712 0.00417933 1e-05
-0.0146381 0.00408413 1e-05
-0.0145772 0.00403677 1e-05
-0.0145171 0.00398832 1e-05
-0.014458 0.00393875 1e-05
-0.0143999 0.00388805 1e-05
-0.0143539 0.00384734 1e-05
-0.0142299 0.00373631 1e-05
-0.0141125 0.00361838 1e-05
-0.0140026 0.0034934 1e-05
-0.0138986 0.00336342 1e-05
-0.0138442 0.00329221 1e-05
-0.0137672 0.00318862 1e-05
-0.0136976 0.00307984 1e-05
-0.0136345 0.00296726 1e-05
-0.0135751 0.00285262 1e-05
-0.013538 0.00277425 1e-05
-0.013495 0.0026776 1e-05
-0.0134592 0.00257807 1e-05
-0.0134274 0.00247719 1e-05
-0.0134002 0.00237498 1e-05
-0.0133823 0.00229098 1e-05
-0.0133673 0.0022008 1e-05
-0.0133584 0.00210982 1e-05
-0.0133548 0.00201848 1e-05
-0.0133573 0.0019271 1e-05
-0.0133659 0.00184007 1e-05
-0.0133808 0.00175593 1e-05
-0.0134034 0.00167353 1e-05
-0.0134329 0.00159333 1e-05
-0.0134694 0.00151606 1e-05
-0.0135262 0.00141936 1e-05
-0.0135838 0.00134085 1e-05
-0.0136522 0.00127163 1e-05
-0.0137265 0.00120868 1e-05
-0.0138052 0.00115148 1e-05
-0.0139993 0.00102682 1e-05
-0.0141271 0.000957929 1e-05
-0.0142615 0.00090314 1e-05
-0.0143991 0.000857076 1e-05
-0.0145374 0.000813036 1e-05
-0.0146381 0.000782653 1e-05
-0.0147223 0.000758236 1e-05
-0.014807 0.000735178 1e-05
-0.0148919 0.000713271 1e-05
-0.0149773 0.000693385 1e-05
-0.0151519 0.000660566 1e-05
-0.0153293 0.000638057 1e-05
-0.015507 0.00061894 1e-05
-0.015685 0.000602465 1e-05
-0.0158632 0.000587975 1e-05
-0.0160387 0.000568318 1e-05
-0.0162835 0.000518423 1e-05
-0.0165322 0.000493692 1e-05
-0.0167818 0.000482653 1e-05
-0.0170315 0.000475799 1e-05
-0.0174976 0.000406056 1e-05
-0.0174976 0.000406056 1e-05
-0.0174976 0.000406056 1e-05
-0.0174976 0.000406056 1e-05
-0.0174976 0.000406056 1e-05
-0.0174976 0.000406056 1e-05
-0.0174951 0.000388613 1e-05
-0.0174897 0.000371849 1e-05
-0.017482 0.000356 1e-05
-0.0174726 0.000341092 1e-05
-0.0174557 0.000318841 1e-05
-0.0173838 0.000255072 1e-05
-0.0172967 0.000214398 1e-05
-0.0172047 0.000186603 1e-05
-0.0171106 0.000167061 1e-05
-0.0160387 4.43532e-06 1e-05
-0.0160288 3.54826e-06 1e-05
-0.0160189 3.09487e-06 1e-05
-0.016009 2.68316e-06 1e-05
-0.0159991 2.27145e-06 1e-05
-0.0159444 0 1e-05
-0.0205 0.00367778 1e-05
-0.0203955 0.00371169 1e-05
-0.0203045 0.00377319 1e-05
-0.0202172 0.00383975 1e-05
-0.020198 0.00384734 1e-05
-0.0199618 0.00393432 1e-05
-0.0197661 0.00409248 1e-05
-0.0196202 0.0042976 1e-05
-0.0194754 0.00444232 1e-05
-0.0193838 0.00449617 1e-05
-0.0192964 0.00455671 1e-05
-0.0192133 0.00462297 1e-05
-0.0191277 0.00468612 1e-05
-0.0190172 0.00476167 1e-05
-0.0189141 0.00482533 1e-05
-0.0188085 0.00488448 1e-05
-0.0187004 0.00493917 1e-05
-0.0185903 0.00498953 1e-05
-0.0183692 0.00508 1e-05
-0.0181949 0.0051351 1e-05
-0.0180185 0.00518323 1e-05
-0.0178404 0.00522453 1e-05
-0.0176608 0.00525888 1e-05
-0.0174976 0.0052819 1e-05
-0.0172058 0.00530981 1e-05
-0.0169127 0.00531464 1e-05
-0.0166201 0.00529764 1e-05
-0.0163294 0.00526042 1e-05
-0.0160387 0.00520543 1e-05
-0.0159402 0.00518034 1e-05
-0.0158423 0.00515326 1e-05
-0.015745 0.00512427 1e-05
-0.015648 0.00509405 1e-05
-0.0156049 0.00508 1e-05
-0.0154115 0.00501579 1e-05
-0.0152215 0.00494215 1e-05
-0.0150357 0.00485872 1e-05
-0.0148541 0.00476626 1e-05
-0.0146381 0.00464648 1e-05
-0.0145719 0.00460565 1e-05
-0.0145062 0.00456393 1e-05
-0.0144411 0.00452132 1e-05
-0.0143766 0.00447792 1e-05
-0.0143242 0.00444232 1e-05
-0.0141508 0.00432332 1e-05
-0.013984 0.00419531 1e-05
-0.0138248 0.00405779 1e-05
-0.0136704 0.00391504 1e-05
-0.0136 0.00384734 1e-05
-0.0135387 0.00378716 1e-05
-0.0134795 0.00372489 1e-05
-0.0134219 0.00366121 1e-05
-0.0133651 0.00359674 1e-05
-0.0132934 0.00351302 1e-05
-0.0132572 0.00346886 1e-05
-0.0132213 0.00342433 1e-05
-0.0131859 0.00337944 1e-05
-0.013151 0.00333417 1e-05
-0.0131192 0.00329221 1e-05
-0.0130413 0.00318862 1e-05
-0.0129653 0.00308359 1e-05
-0.0128921 0.00297657 1e-05
-0.0128222 0.00286742 1e-05
-0.012765 0.00277425 1e-05
-0.0127075 0.0026776 1e-05
-0.0126514 0.00258012 1e-05
-0.0125969 0.00248176 1e-05
-0.0125438 0.00238258 1e-05
-0.0124972 0.00229098 1e-05
-0.0124539 0.0022008 1e-05
-0.0124108 0.00211048 1e-05
-0.012368 0.00202002 1e-05
-0.0123255 0.00192945 1e-05
-0.0122849 0.00184007 1e-05
-0.0122503 0.00175593 1e-05
-0.0122142 0.00167241 1e-05
-0.0121768 0.00158944 1e-05
-0.0121381 0.00150713 1e-05
-0.0120944 0.00141936 1e-05
-0.0120761 0.00138325 1e-05
-0.0120561 0.00134798 1e-05
-0.0120348 0.00131353 1e-05
-0.0120121 0.00127999 1e-05
-0.0120025 0.00126714 1e-05
-0.0119655 0.00121907 1e-05
-0.0119255 0.00117344 1e-05
-0.0118826 0.00113055 1e-05
-0.0118369 0.00109068 1e-05
-0.0117526 0.00102682 1e-05
-0.0116389 0.000953567 1e-05
-0.0115173 0.00089448 1e-05
-0.011391 0.000846121 1e-05
-0.0112618 0.000806216 1e-05
-0.0107632 0.000715048 1e-05
-0.0105252 0.000724791 1e-05
-0.0102871 0.000722509 1e-05
-0.0100489 0.000721432 1e-05
-0.00981075 0.000721097 1e-05
-0.00957337 0.000721232 1e-05
-0.00934491 0.000730853 1e-05
-0.00911627 0.000727641 1e-05
-0.00888762 0.000725447 1e-05
-0.00865897 0.000723953 1e-05
-0.00843108 0.000722949 1e-05
-0.00821175 0.000732037 1e-05
-0.00799227 0.000728066 1e-05
-0.00777277 0.000725091 1e-05
-0.00755326 0.000722832 1e-05
-0.00733443 0.000721099 1e-05
-0.00712387 0.000729527 1e-05
-0.00691317 0.000725385 1e-05
-0.00670246 0.000722158 1e-05
-0.00649174 0.00071961 1e-05
-0.0062816 0.000717573 1e-05
-0.00607944 0.000725284 1e-05
-0.00587718 0.000721386 1e-05
-0.0056749 0.000718278 1e-05
-0.00547262 0.000715768 1e-05
-0.00527083 0.000713719 1e-05
-0.00507675 0.000720716 1e-05
-0.00488258 0.000717211 1e-05
-0.0046884 0.000714365 1e-05
-0.00449421 0.000712029 1e-05
-0.00430044 0.000710091 1e-05
-0.00411412 0.000716414 1e-05
-0.00392772 0.000713319 1e-05
-0.0037413 0.000710758 1e-05
-0.00355488 0.000708618 1e-05
-0.00336883 0.000706813 1e-05
-0.00318995 0.000712481 1e-05
-0.003011 0.000709711 1e-05
-0.00283205 0.000707381 1e-05
-0.00265309 0.000705403 1e-05
-0.00247443 0.00070371 1e-05
-0.0023027 0.000708741 1e-05
-0.00213091 0.000706255 1e-05
-0.00195912 0.000704085 1e-05
-0.00178733 0.000702171 1e-05
-0.00161577 0.000700469 1e-05
-0.0014509 0.000704682 1e-05
-0.001286 0.000702206 1e-05
-0.00112109 0.000699975 1e-05
-0.000956174 0.000697944 1e-05
-0.000791418 0.000696078 1e-05
-0.000633135 0.000699231 1e-05
-0.000474837 0.000696874 1e-05
-0.000316535 0.000694892 1e-05
-0.000158228 0.000693216 1e-05
0 0.000691794 1e-05
0.000105677 0.000693809 1e-05
0.000211373 0.000693231 1e-05
0.000317069 0.00069302 1e-05
0.000422766 0.000693135 1e-05
0.000528387 0.000693539 1e-05
0.000634886 0.000696629 1e-05
0.000741424 0.000697757 1e-05
0.000847957 0.000699275 1e-05
0.000954485 0.000701144 1e-05
0.00106088 0.000703328 1e-05
0.00116821 0.000708311 1e-05
0.0012756 0.000711503 1e-05
0.00138299 0.000715117 1e-05
0.00149036 0.000719118 1e-05
0.00159752 0.000723469 1e-05
0.00170568 0.000731088 1e-05
0.00181394 0.000737065 1e-05
0.00192218 0.000743579 1e-05
0.00203038 0.000750599 1e-05
0.00213833 0.000758082 1e-05
0.00224733 0.000769286 1e-05
0.00235642 0.000779627 1e-05
0.00246548 0.0007902 1e-05
0.00257449 0.000801362 1e-05
0.00268334 0.000814128 1e-05
0.00279319 0.00082954 1e-05
0.002903 0.000845209 1e-05
0.00301278 0.000861127 1e-05
0.00312243 0.00087789 1e-05
0.00323259 0.000896369 1e-05
0.00334329 0.000916654 1e-05
0.00345381 0.000937899 1e-05
0.00356415 0.000960114 1e-05
0.00367425 0.000983451 1e-05
0.00378611 0.00100835 1e-05
0.00384179 0.00102136 1e-05
0.00389741 0.00103467 1e-05
0.00395296 0.00104825 1e-05
0.00400844 0.0010621 1e-05
0.00405214 0.00107324 1e-05
0.0041105 0.00108835 1e-05
0.00416877 0.00110378 1e-05
0.00422696 0.00111953 1e-05
0.00428507 0.00113559 1e-05
0.00434393 0.00115217 1e-05
0.00445636 0.0011842 1e-05
0.00456837 0.00121769 1e-05
0.00467999 0.00125243 1e-05
0.00479128 0.00128822 1e-05
0.00490609 0.00132586 1e-05
0.00501075 0.00136088 1e-05
0.00511503 0.00139699 1e-05
0.00521901 0.00143399 1e-05
0.00532273 0.00147169 1e-05
0.00540044 0.00150053 1e-05
0.00541488 0.00150597 1e-05
0.00542931 0.00151142 1e-05
0.00544373 0.0015169 1e-05
0.00545815 0.00152238 1e-05
0.00547262 0.0015279 1e-05
0.00558681 0.00157156 1e-05
0.00570066 0.00161607 1e-05
0.00581421 0.00166136 1e-05
0.00592744 0.00170743 1e-05
0.00604356 0.00175529 1e-05
0.00614198 0.00179639 1e-05
0.0062402 0.00183796 1e-05
0.00633825 0.00187993 1e-05
0.00643617 0.00192221 1e-05
[...]
POINT_DATA 11643
 FIELD attributes 1
U 3 11643 float
1.13304 	6.39882 	0 1.5919 	5.97923 	0 3.06061 	4.65988 	0 4.2906 	3.52873 	0 5.18143 	2.68002 	0 7.15375 	0.707111 	0 -4.22596 	5.50205 	0 -5.18476 	7.81079 	0 7.565 	0.661889 	0 0.170419 	4.66742 	0 -9.04699 	14.0261 	0 5.93231 	3.10447 	0 -2.52821 	15.518 	0 -6.41882 	22.2986 	0 7.16681 	5.74124 	0 1.97783 	17.2231 	0 -2.24833 	26.6796 	0 4.29161 	15.8538 	0 9.07715 	8.2705 	0 6.22411 	17.6678 	0 2.39028 	29.3793 	0 7.48824 	19.1178 	0 11.9514 	10.5975 	0 10.9775 	18.2876 	0 10.8626 	23.2197 	0 12.863 	21.2685 	0 16.0824 	13.7047 	0 16.231 	13.4324 	0 16.3914 	16.6333 	0 16.809 	18.1057 	0 17.5791 	17.365 	0 18.3617 	16.6226 	0 19.4196 	15.6328 	0 20.1847 	15.0498 	0 20.9584 	14.4693 	0 21.7393 	13.8922 	0 22.0844 	13.1292 	0 22.0681 	11.6923 	0 24.2723 	10.4988 	0 26.3565 	9.1592 	0 27.0767 	7.06986 	0 27.2314 	4.64052 	0 27.3582 	2.8807 	0 28.0775 	0.166156 	0 28.3305 	-2.16399 	0 28.2577 	-4.20653 	0 27.2049 	-5.99338 	0 25.8102 	-7.74179 	0 25.1997 	-9.05263 	0 24.5582 	-10.3139 	0 23.3474 	-10.708 	0 22.1264 	-11.078 	0 22.1071 	-11.0835 	0 21.4798 	-12.0276 	0 20.8557 	-13.0174 	0 20.0175 	-13.431 	0 19.1088 	-13.6623 	0 17.9625 	-13.9666 	0 17.525 	-14.1443 	0 17.0861 	-14.3252 	0 16.646 	-14.5094 	0 16.313 	-14.4585 	0 16.0637 	-14.3838 	0 14.8082 	-14.8708 	0 13.5106 	-15.363 	0 12.3206 	-15.4053 	0 11.448 	-14.9829 	0 10.9739 	-14.7554 	0 9.64671 	-15.0916 	0 8.53431 	-15.2062 	0 7.76055 	-14.985 	0 6.94704 	-14.6658 	0 6.35477 	-14.2998 	0 5.14255 	-14.2967 	0 4.3979 	-13.9602 	0 3.63125 	-13.6338 	0 2.84143 	-13.3195 	0 2.15137 	-12.9783 	0 1.2389 	-12.6201 	0 0.478333 	-12.21 	0 -0.31276 	-11.8141 	0 -1.13474 	-11.4356 	0 -1.95636 	-11.0512 	0 -2.898 	-10.554 	0 -3.71152 	-10.091 	0 -4.55992 	-9.65724 	0 -5.43842 	-9.25759 	0 -6.44838 	-8.79486 	0 -8.03351 	-8.124 	0 -9.01902 	-7.64453 	0 -9.97034 	-7.23997 	0 -10.7528 	-6.90636 	0 -11.6625 	-6.289 	0 -13.1671 	-5.36754 	0 -14.0522 	-4.70298 	0 -13.1969 	-4.20254 	0 -12.3835 	-3.7377 	0 -11.8257 	-3.42768 	0 -12.4278 	-3.3862 	0 -13.0627 	-3.36943 	0 -13.8804 	-3.23128 	0 -15.0706 	-2.8322 	0 -17.5753 	-2.23056 	0 -18.2809 	-1.96623 	0 -19.3156 	-1.7876 	0 -20.606 	-1.67573 	0 -19.9407 	-2.23409 	0 -16.3835 	-3.33885 	0 -24.5764 	-2.44445 	0 -37.2353 	-1.64659 	0 -49.6203 	-1.36172 	0 -35.2495 	-5.27537 	0 1.84225 	-13.0851 	0 1.84225 	-13.0851 	0 1.84225 	-13.0851 	0 1.84225 	-13.0851 	0 1.84225 	-13.0851 	0 1.84225 	-13.0851 	0 4.235 	-13.1219 	0 6.35812 	-13.108 	0 8.2166 	-13.0535 	0 9.84017 	-12.9676 	0 14.8267 	-13.1457 	0 23.0766 	-10.7775 	0 30.0021 	-9.06295 	0 38.0101 	-7.89249 	0 46.6055 	-7.07071 	0 0.352555 	-0.0316698 	0 1.18327 	-0.0541662 	0 1.48674 	-0.0617897 	0 1.28896 	-0.0535699 	0 1.09118 	-0.04535 	0 0 	0 	0
9.83278 	3.19188 	0 9.65809 	6.52644 	0 10.0772 	7.67728 	0 11.8152 	4.68195 	0 12.0605 	4.44193 	0 12.9619 	10.4712 	0 13.4033 	18.8526 	0 15.3404 	15.3325 	0 17.3387 	10.1883 	0 17.8517 	12.3651 	0 18.329 	14.612 	0 18.9074 	13.9626 	0 19.5033 	13.3228 	0 20.2749 	12.5303 	0 21.1497 	11.8368 	0 22.0481 	11.1604 	0 22.9677 	10.5016 	0 23.0553 	9.43472 	0 23.1826 	7.32798 	0 24.2101 	6.60551 	0 25.2178 	5.84798 	0 26.0677 	4.98653 	0 26.0995 	3.68018 	0 26.169 	2.5029 	0 26.7797 	0.441991 	0 27.5078 	-1.59888 	0 27.2116 	-3.48279 	0 26.2671 	-4.96925 	0 25.3064 	-6.44915 	0 25.1421 	-6.95512 	0 24.9586 	-7.43296 	0 24.5374 	-7.64518 	0 24.1178 	-7.85454 	0 23.9313 	-7.94673 	0 23.2916 	-9.02965 	0 22.6967 	-10.1879 	0 22.0088 	-11.2092 	0 20.8936 	-11.5838 	0 19.5631 	-12.0649 	0 19.2553 	-12.2346 	0 18.9496 	-12.4074 	0 18.6572 	-12.5436 	0 18.4126 	-12.5188 	0 18.2145 	-12.4991 	0 17.0558 	-13.0846 	0 15.8895 	-13.7337 	0 14.9569 	-13.8239 	0 14.1036 	-13.5703 	0 13.7079 	-13.4536 	0 13.0458 	-13.7248 	0 12.5142 	-13.817 	0 12.1048 	-13.7415 	0 11.6933 	-13.6698 	0 11.163 	-13.5831 	0 10.9199 	-13.5631 	0 10.6756 	-13.5448 	0 10.4299 	-13.5281 	0 10.2149 	-13.4859 	0 10.0787 	-13.3946 	0 9.59567 	-13.2588 	0 8.9224 	-13.05 	0 8.23284 	-12.8481 	0 7.68484 	-12.5302 	0 7.27178 	-12.2211 	0 6.8858 	-11.9637 	0 6.49371 	-11.71 	0 6.0697 	-11.3492 	0 5.53153 	-10.8797 	0 5.02655 	-10.4531 	0 4.80246 	-10.0677 	0 4.58046 	-9.68136 	0 4.36332 	-9.29308 	0 4.03241 	-8.87349 	0 3.45157 	-8.39291 	0 3.4465 	-7.97659 	0 3.36707 	-7.48577 	0 3.29508 	-6.99414 	0 3.2319 	-6.5017 	0 3.00395 	-5.90018 	0 3.19364 	-5.64683 	0 3.35598 	-5.42449 	0 3.52586 	-5.20424 	0 3.70341 	-4.98657 	0 3.77659 	-4.9018 	0 3.99183 	-4.55527 	0 4.21726 	-4.21475 	0 4.45241 	-3.88198 	0 4.69648 	-3.5587 	0 5.24313 	-3.37864 	0 6.39825 	-3.10799 	0 7.4736 	-2.86188 	0 8.49407 	-2.62328 	0 10.1062 	-1.84794 	0 15.3741 	0.629454 	0 15.4608 	-0.148107 	0 16.225 	-0.0733889 	0 16.9599 	-0.0238758 	0 17.6767 	0.0101059 	0 18.8806 	0.795065 	0 18.7518 	-0.263442 	0 19.2769 	-0.184956 	0 19.7795 	-0.129274 	0 20.2666 	-0.0892537 	0 21.1728 	0.877259 	0 20.9406 	-0.378812 	0 21.3328 	-0.289185 	0 21.7042 	-0.223366 	0 22.0607 	-0.174691 	0 22.7729 	0.911551 	0 22.5066 	-0.442472 	0 22.8209 	-0.349459 	0 23.1168 	-0.279558 	0 23.3989 	-0.226782 	0 23.988 	0.914927 	0 23.7085 	-0.456856 	0 23.9689 	-0.368305 	0 24.2135 	-0.300435 	0 24.4461 	-0.248239 	0 24.9577 	0.899821 	0 24.6684 	-0.445274 	0 24.8886 	-0.364786 	0 25.0956 	-0.301998 	0 25.2923 	-0.252892 	0 25.7554 	0.873965 	0 25.4581 	-0.422641 	0 25.648 	-0.352307 	0 25.827 	-0.296551 	0 25.9974 	-0.252264 	0 26.4299 	0.837572 	0 26.1295 	-0.404567 	0 26.3078 	-0.342486 	0 26.4767 	-0.292599 	0 26.6382 	-0.252445 	0 27.0609 	0.792801 	0 26.7589 	-0.387363 	0 26.9399 	-0.340264 	0 27.1139 	-0.30197 	0 27.2821 	-0.270802 	0 27.713 	0.708266 	0 27.4233 	-0.411872 	0 27.6724 	-0.374353 	0 27.9155 	-0.343758 	0 28.1535 	-0.318801 	0 28.6568 	0.570744 	0 28.345 	-0.421922 	-1.2345e-20 28.6274 	-0.358497 	-3.93347e-20 28.8988 	-0.305892 	-6.61917e-20 29.1612 	-0.262165 	-9.29399e-20 29.7154 	0.566622 	-1.14988e-19 29.4001 	-0.160797 	-2.31955e-19 29.6164 	-0.0590772 	-2.03037e-19 29.8202 	0.0324318 	-1.7553e-19 30.013 	0.114882 	-1.49278e-19 30.5519 	0.886411 	-2.61256e-20 30.2712 	0.320437 	-4.76912e-20 30.4584 	0.433933 	-4.33819e-20 30.6316 	0.537492 	-3.95654e-20 30.7923 	0.632095 	-3.61932e-20 31.3652 	1.45633 	-1.23483e-20 31.0542 	0.922904 	-1.10588e-20 31.1945 	1.04974 	-5.0258e-20 31.3201 	1.16725 	-8.92463e-20 31.4323 	1.27617 	-1.2804e-19 32.0611 	2.25842 	-1.65265e-19 31.7604 	1.75346 	-1.24867e-19 31.8102 	1.91439 	-8.88843e-20 31.8438 	2.06601 	-5.25985e-20 31.8621 	2.20881 	-1.6027e-20 32.4196 	3.33241 	-1.00212e-19 32.4301 	3.07406 	-2.58372e-19 32.3637 	3.13737 	-3.06483e-19 32.2603 	3.30331 	-3.1903e-19 32.2214 	3.77914 	-2.20364e-19 32.2173 	4.52009 	-2.54163e-20 32.6138 	4.65351 	-1.00797e-20 33.0051 	4.7857 	5.07697e-21 32.783 	5.01172 	1.68922e-20 32.201 	5.4019 	5.37797e-20 31.5958 	5.78946 	9.09612e-20 32.2165 	6.19267 	2.29136e-19 32.6553 	6.57493 	3.18522e-19 32.541 	6.89733 	2.51956e-19 32.2557 	7.17992 	1.66853e-19 31.1948 	7.28557 	-4.342e-21 31.5227 	7.54385 	-1.88987e-20 31.4928 	7.70122 	-1.06483e-20 31.3556 	7.82845 	4.36622e-21 31.2151 	7.95496 	1.9477e-20 31.1017 	8.05413 	3.14683e-20 31.0187 	8.21275 	6.06868e-20 30.9335 	8.37109 	9.03067e-20 30.8459 	8.52914 	1.20329e-19 30.709 	8.64884 	1.26561e-19 30.4499 	8.67438 	7.24367e-20 30.9594 	9.25799 	7.65543e-20 31.1038 	9.67954 	9.09281e-20 30.8667 	9.92711 	1.13421e-19 30.0258 	9.84287 	1.13097e-19 29.1572 	9.75652 	1.12214e-19 29.6609 	10.2718 	2.09257e-19 29.8113 	10.6083 	2.02401e-19 29.5666 	10.7448 	7.94555e-20 29.3162 	10.8789 	-4.53384e-20 29.1237 	10.9778 	-1.40467e-19 29.1112 	11.0084 	-1.57351e-19 29.0987 	11.0391 	-1.74272e-19 29.0861 	11.0696 	-1.91231e-19 29.042 	11.0802 	-1.82102e-19 28.9763 	11.0771 	-1.55083e-19 29.2306 	11.429 	-2.52927e-19 29.168 	11.6345 	-3.09082e-19 29.1104 	11.8424 	-3.66431e-19 28.5024 	11.75 	-2.03262e-19 27.7622 	11.5918 	1.11099e-20 28.2591 	11.9587 	3.23379e-20 28.5649 	12.2291 	5.2682e-20 28.4092 	12.2667 	7.05018e-20 28.2518 	12.3034 	8.84741e-20 28.1086 	12.3357 	1.04795e-19 28.1039 	12.3582 	1.14676e-19 28.0992 	12.3807 	1.24575e-19 28.0945 	12.4032 	1.34492e-19 28.0368 	12.393 	1.22892e-19 27.9558 	12.3683 	1.01802e-19 28.4037 	12.6574 	5.63152e-20 28.4528 	12.7668 	-2.96989e-20 28.5037 	12.877 	-1.1526e-19 27.908 	12.6533 	-3.21175e-19 27.2993 	12.4236 	-5.30524e-19 27.7645 	12.6355 	-9.24233e-19 28.0874 	12.7823 	-1.17556e-18 28.0095 	12.7457 	-1.02574e-18 27.9315 	12.7091 	-8.75946e-19 27.8536 	12.6725 	-7.2613e-19 27.8544 	12.6774 	-7.12412e-19 27.8552 	12.6823 	-6.98683e-19 27.856 	12.6872 	-6.84943e-19 27.7802 	12.6514 	-7.14406e-19 27.666 	12.5952 	-7.65642e-19 28.1239 	12.7497 	-1.15825e-18 28.3298 	12.8004 	-1.35853e-18 28.339 	12.7681 	-1.40029e-18 27.8304 	12.5076 	-9.81921e-19 27.3248 	12.2487 	-5.65641e-19 27.7705 	12.3538 	-6.93844e-19 28.0388 	12.3905 	-7.24166e-19 27.9759 	12.2993 	-5.72673e-19 27.9143 	12.2086 	-4.21201e-19 27.8503 	12.113 	-2.60688e-19 27.848 	12.0954 	-2.22209e-19 27.8459 	12.0778 	-1.8372e-19 27.8438 	12.0602 	-1.4522e-19 27.7986 	12.0221 	-1.35381e-19 27.7174 	11.967 	-1.49478e-19 28.0357 	11.9839 	-7.66856e-19 28.0642 	11.8852 	-1.05374e-18 28.0936 	11.7867 	-1.33766e-18 27.7171 	11.5301 	-7.62802e-19 27.306 	11.2615 	-1.07541e-19 27.7383 	11.263 	-1.26455e-19 27.9615 	11.1964 	-9.89716e-20 27.8645 	11.0254 	-1.61379e-21 27.772 	10.8559 	9.61128e-20 27.5497 	10.6456 	1.75142e-19 27.6082 	10.6431 	2.05338e-19 27.6276 	10.6299 	2.12417e-19 27.6186 	10.6088 	2.02712e-19 27.6096 	10.5878 	1.93021e-19 27.6005 	10.5664 	1.83159e-19 27.5636 	10.4219 	1.58982e-19 27.5296 	10.2781 	1.35086e-19 27.4985 	10.1351 	1.11473e-19 27.392 	9.96761 	1.03089e-19 27.139 	9.75494 	1.23947e-19 27.3396 	9.65308 	7.50539e-20 27.5465 	9.55288 	2.63047e-20 27.474 	9.36885 	4.97838e-21 27.1357 	9.10807 	1.56475e-20 26.8075 	8.85306 	2.60932e-20 27.0527 	8.73199 	9.80791e-20 27.0593 	8.56264 	1.0875e-19 26.9519 	8.37028 	8.95593e-20 26.8507 	8.17932 	7.0729e-20 26.6673 	7.96747 	3.56768e-20 26.7146 	7.94328 	3.45366e-20 26.7013 	7.9095 	2.67522e-20 26.6813 	7.87465 	1.82095e-20 26.6615 	7.83983 	9.66962e-21 26.6409 	7.80354 	7.6196e-22 26.5678 	7.64507 	-2.82148e-20 26.4987 	7.4872 	-5.7347e-20 26.4334 	7.32993 	-8.6636e-20 26.3709 	7.17308 	-1.16483e-19 26.2388 	7.00588 	-1.71053e-19 26.2376 	6.84905 	-2.53045e-19 26.1786 	6.66286 	-2.93544e-19 26.0915 	6.46131 	-3.1161e-19 25.9225 	6.24998 	-2.51081e-19 25.7368 	6.03957 	-1.6887e-19 25.7373 	5.87206 	-1.01205e-19 25.7442 	5.70534 	-3.3459e-20 25.646 	5.52012 	1.37718e-19 25.435 	5.30326 	4.07832e-19 25.2331 	5.08987 	6.74443e-19 25.2249 	4.91404 	1.16579e-18 25.1788 	4.73852 	1.39653e-18 25.0629 	4.56314 	1.18159e-18 24.919 	4.37589 	8.33606e-19 24.7101 	4.16509 	2.02834e-19 24.6831 	3.98477 	-8.82997e-19 24.5557 	3.81173 	-7.29888e-19 24.4347 	3.6389 	-5.83046e-19 24.3202 	3.46629 	-4.42586e-19 24.1563 	3.27713 	2.21262e-19 24.0653 	3.11185 	2.84069e-19 23.9387 	2.95168 	1.86632e-19 23.8179 	2.79146 	9.12609e-20 23.7031 	2.6312 	-2.00606e-21 23.5689 	2.43881 	-1.17345e-19 23.5542 	2.41869 	-1.55113e-19 23.5365 	2.39905 	-1.73788e-19 23.519 	2.37941 	-1.92484e-19 23.5015 	2.35977 	-2.11203e-19 23.4821 	2.33788 	-2.32079e-19 23.3671 	2.20101 	-4.22965e-19 23.2563 	2.06399 	-6.10026e-19 23.1498 	1.92681 	-7.93199e-19 23.0477 	1.78947 	-9.72421e-19 22.9676 	1.6556 	-9.38765e-19 22.8191 	1.51512 	-5.57192e-19 22.6825 	1.36893 	-1.6691e-19 22.5511 	1.22237 	2.23596e-19 22.4252 	1.07542 	6.14317e-19 22.3327 	0.931727 	8.53607e-19 22.1772 	0.806241 	8.43778e-19 22.0349 	0.670245 	8.18173e-19 21.8976 	0.533693 	7.94753e-19 21.7653 	0.396579 	7.73562e-19 21.6653 	0.25951 	7.63459e-19 21.5088 	0.144346 	1.71112e-19 21.3633 	0.0189137 	7.50919e-21 21.2224 	-0.107209 	-1.47148e-19 21.0861 	-0.234032 	-2.92685e-19 20.9693 	-0.362404 	-1.62922e-19 20.854 	-0.442232 	-1.37902e-19 20.744 	-0.527232 	-1.53989e-19 20.6363 	-0.612666 	-1.70297e-19 20.5309 	-0.698537 	-1.8683e-19 20.491 	-0.732029 	-1.93333e-19 20.4458 	-0.771961 	-1.97573e-19 20.4011 	-0.812005 	-2.01761e-19 20.357 	-0.85216 	-2.05896e-19 20.3135 	-0.892428 	-2.09978e-19 20.2632 	-0.935787 	-2.08553e-19 20.1187 	-1.03658 	1.11504e-19 19.9799 	-1.13935 	6.8608e-20 19.8451 	-1.24309 	4.32733e-20 19.7144 	-1.34781 	3.58498e-20 19.5605 	-1.46504 	-1.52767e-18 19.41 	-1.54709 	-1.32626e-18 19.2775 	-1.63759 	-1.39255e-18 19.1485 	-1.72903 	-1.4539e-18 19.0199 	-1.82285 	-1.56524e-18 18.8564 	-1.93496 	-2.33804e-18 18.7021 	-1.99852 	-3.25239e-18 18.566 	-2.07093 	-3.53547e-18 18.4443 	-2.15025 	-3.34561e-18 18.3021 	-2.24246 	-2.65481e-18 18.1529 	-2.34117 	-1.75737e-18 18.0066 	-2.3915 	-3.74866e-18 17.8624 	-2.4426 	-5.74074e-18 17.7253 	-2.51079 	-5.57459e-18 17.5868 	-2.5954 	-3.22826e-18 17.4505 	-2.68162 	-8.72938e-19 17.313 	-2.71998 	-6.63121e-19 17.1718 	-2.76295 	-5.34635e-19 17.0157 	-2.81896 	-6.57081e-19 16.8728 	-2.88265 	-8.72521e-19 16.7503 	-2.95938 	-1.24761e-18 16.6258 	-2.99081 	-3.36257e-18 16.4873 	-3.03559 	-3.18846e-18 16.3506 	-3.08117 	-3.00673e-18 16.2158 	-3.12757 	-2.81721e-18 16.1051 	-3.16694 	-2.65265e-18 16.0954 	-3.1708 	-2.65229e-18 16.0857 	-3.17467 	-2.65192e-18 16.0761 	-3.17854 	-2.65152e-18 16.0664 	-3.18244 	-2.65194e-18 16.0539 	-3.18686 	-2.68193e-18 15.9197 	-3.22841 	-2.72848e-18 15.789 	-3.27278 	-2.645e-18 15.6601 	-3.31805 	-2.56641e-18 15.5291 	-3.36517 	-2.30998e-18 15.3712 	-3.42019 	-7.81604e-19 15.2361 	-3.44406 	-4.94362e-19 15.1023 	-3.46868 	-2.06554e-19 14.9789 	-3.50996 	-1.68062e-19 14.8393 	-3.55742 	-8.68264e-19 14.7002 	-3.60631 	-1.57717e-18 14.5773 	-3.62686 	-3.91413e-18 14.4473 	-3.65057 	-5.0088e-18 14.3079 	-3.67828 	-4.49204e-18 14.1698 	-3.70686 	-3.96774e-18 14.0424 	-3.74617 	-2.39881e-18 14.014 	-3.75108 	-1.99709e-18 13.9831 	-3.75695 	-1.91557e-18 13.9513 	-3.76321 	-1.95432e-18 13.9195 	-3.76952 	-1.99369e-18 13.8888 	-3.77569 	-2.03249e-18 13.7929 	-3.79623 	-1.86574e-18 13.6976 	-3.81725 	-1.70187e-18 13.603 	-3.83874 	-1.54096e-18 13.5054 	-3.8604 	-1.0031e-18 13.4005 	-3.88216 	2.51069e-19 13.2737 	-3.89515 	2.96628e-18 13.1478 	-3.90884 	5.67952e-18 13.0278 	-3.93115 	6.06236e-18 12.9067 	-3.95742 	4.14296e-18 12.7854 	-3.98479 	2.20738e-18 12.6984 	-3.99402 	2.95628e-18 12.6094 	-4.00395 	3.02431e-18 12.5187 	-4.01456 	2.49884e-18 12.4286 	-4.02558 	1.97154e-18 12.3459 	-4.03614 	1.48348e-18 12.3172 	-4.03997 	1.3353e-18 12.2886 	-4.04384 	1.18696e-18 12.26 	-4.04776 	1.03847e-18 12.2316 	-4.05122 	9.7546e-19 12.2034 	-4.05435 	9.77475e-19 12.0836 	-4.059 	6.43502e-19 11.9756 	-4.07242 	3.28816e-19 11.8683 	-4.08646 	1.33816e-20 11.765 	-4.09785 	3.12124e-19 11.6614 	-4.10982 	6.42725e-19 11.572 	-4.11308 	5.46585e-19 11.4846 	-4.11612 	2.6771e-19 11.4004 	-4.11846 	-3.39029e-19 11.3167 	-4.12116 	-9.45785e-19 11.239 	-4.12403 	-1.51158e-18 11.2223 	-4.1246 	-1.59422e-18 11.2056 	-4.1252 	-1.67682e-18 11.1889 	-4.1258 	-1.75939e-18 11.1738 	-4.12615 	-1.79753e-18 11.1593 	-4.12642 	-1.82007e-18 11.0547 	-4.12199 	-4.36326e-18 10.9607 	-4.12418 	-5.61138e-18 10.8676 	-4.12687 	-6.75502e-18 10.7879 	-4.13235 	-3.88609e-18 10.7078 	-4.13831 	-9.89375e-19 10.6453 	-4.13774 	3.53449e-19 10.5846 	-4.13817 	1.26015e-18 10.5307 	-4.14191 	4.89378e-19 10.4769 	-4.14586 	-2.85202e-19 10.426 	-4.14982 	-1.02668e-18 10.3953 	-4.15053 	-1.28176e-18 10.3647 	-4.15131 	-1.5375e-18 10.3341 	-4.15213 	-1.79389e-18 10.314 	-4.15423 	-1.45455e-18 10.2951 	-4.15655 	-1.03498e-18 10.2012 	-4.16072 	-2.30242e-18 10.108 	-4.16543 	-3.56806e-18 10.0407 	-4.17447 	-3.41789e-18 10.0013 	-4.18978 	-1.90444e-18 9.96172 	-4.20567 	-3.69781e-19 9.93897 	-4.21002 	-1.98494e-19 9.917 	-4.21441 	-3.6243e-20 9.90785 	-4.21891 	-3.53926e-20 9.89873 	-4.22343 	-3.45454e-20 9.88987 	-4.22788 	-3.37212e-20 9.85864 	-4.23653 	-2.24265e-20 9.8277 	-4.24534 	-1.11181e-20 9.7981 	-4.25421 	0 9.82692 	-4.25695 	0 9.85578 	-4.25963 	0 9.82952 	-4.27061 	0 9.80366 	-4.28175 	0 9.84803 	-4.28029 	-2.27402e-19 9.89345 	-4.27843 	-4.59443e-19 9.93759 	-4.27648 	-6.87049e-19 9.9507 	-4.27478 	-7.02186e-19 9.96375 	-4.27306 	-7.17388e-19 9.97857 	-4.27089 	-7.32678e-19 10.0185 	-4.26262 	-7.48367e-19 10.0581 	-4.25434 	-7.64226e-19 10.1359 	-4.24002 	-4.43869e-19 10.212 	-4.22543 	-1.24396e-19 10.3505 	-4.19154 	0 10.5383 	-4.14585 	-1.2131e-19 10.7186 	-4.10081 	-2.54357e-19 10.7425 	-4.09491 	-1.22364e-19 10.768 	-4.08837 	0 10.8155 	-4.07371 	0 10.8627 	-4.05904 	0 10.9117 	-4.04374 	0 11.0664 	-3.99442 	0 11.2179 	-3.94503 	0 11.3662 	-3.89556 	0 11.5662 	-3.81887 	0 11.7602 	-3.74227 	0 11.9801 	-3.65811 	0 12.2062 	-3.56705 	0 12.4653 	-3.45345 	0 12.7159 	-3.34065 	0 12.9771 	-3.22137 	-1.57446e-20 12.9968 	-3.2129 	-5.16628e-21 13.0177 	-3.20339 	0 13.04 	-3.1929 	0 13.0622 	-3.18241 	0 13.0852 	-3.17148 	0 13.3231 	-3.05796 	0 13.5543 	-2.94533 	0 13.7791 	-2.83357 	0 13.9955 	-2.71676 	0 14.1977 	-2.59682 	0 14.4623 	-2.45968 	0 14.7196 	-2.32383 	0 14.9473 	-2.19089 	-2.61138e-20 15.147 	-2.06169 	-7.457e-20 15.3369 	-1.93624 	-1.21469e-19 15.5903 	-1.79694 	-9.18966e-20 15.8087 	-1.66525 	-6.43275e-20 15.9941 	-1.54079 	-3.87203e-20 16.1738 	-1.41787 	-1.41568e-20 16.3283 	-1.30689 	-2.0264e-20 16.5453 	-1.18085 	1.92758e-19 16.7032 	-1.07256 	2.012e-19 16.8579 	-0.965005 	2.12667e-19 17.0094 	-0.858181 	2.27082e-19 17.1476 	-0.757403 	1.58003e-19 17.2749 	-0.678445 	1.06768e-19 17.3787 	-0.60744 	4.03925e-20 17.4812 	-0.536756 	-2.5908e-20 17.5823 	-0.466389 	-9.21331e-20 17.8029 	-0.311471 	-2.39023e-19 17.8166 	-0.303062 	-2.40469e-19 17.8289 	-0.295141 	-2.40133e-19 17.8412 	-0.287224 	-2.39806e-19 17.8535 	-0.279312 	-2.39489e-19 17.8695 	-0.269041 	-2.3909e-19 17.9611 	-0.209779 	-2.4134e-19 18.0517 	-0.150852 	-2.43126e-19 18.1413 	-0.0922567 	-2.44454e-19 18.2298 	-0.0339873 	-2.45332e-19 18.3133 	0.0224225 	-2.36918e-19 18.3997 	0.0697233 	-1.88982e-19 18.4837 	0.115806 	-1.41309e-19 18.5669 	0.161641 	-9.3847e-20 18.6495 	0.207231 	-4.65934e-20 18.7308 	0.252375 	0 18.7365 	0.254603 	0 18.742 	0.256698 	0 18.7475 	0.258792 	0 18.7531 	0.260886 	0 18.7581 	0.262812 	0 18.822 	0.287392 	0 18.8857 	0.31191 	0 18.949 	0.336367 	0 19.0122 	0.360763 	0 19.0708 	0.382921 	0 19.1366 	0.3941 	0 19.1944 	0.402269 	0 19.2521 	0.410422 	0 19.3098 	0.41856 	0 19.358 	0.421831 	0 19.424 	0.419086 	-1.24761e-21 19.4729 	0.409967 	-3.10414e-21 19.5217 	0.400867 	-4.96248e-21 19.5707 	0.391784 	-6.82259e-21 19.6055 	0.375601 	-8.84918e-21 19.6721 	0.35962 	-4.48101e-20 19.7142 	0.334795 	-4.19462e-20 19.7564 	0.310007 	-3.89073e-20 19.7987 	0.285255 	-3.56946e-20 19.8239 	0.252307 	1.46073e-20 19.8897 	0.223675 	1.1862e-20 19.9266 	0.185634 	9.94013e-21 19.9637 	0.147641 	8.03518e-21 20.0008 	0.109696 	6.14702e-21 20.0193 	0.0645395 	1.65851e-20 20.0805 	0.0250034 	3.37612e-21 20.112 	-0.0234954 	-4.62412e-21 20.1436 	-0.0719431 	-1.26451e-20 20.1753 	-0.12034 	-2.06868e-20 20.1892 	-0.174722 	-1.79631e-20 20.2422 	-0.224985 	-2.21705e-20 20.2687 	-0.284561 	-1.85572e-20 20.2954 	-0.344097 	-1.4991e-20 20.322 	-0.403592 	-1.14717e-20 20.3351 	-0.469261 	-6.71122e-21 20.3778 	-0.534351 	-9.64863e-21 20.4007 	-0.605556 	-8.17106e-21 20.4236 	-0.676708 	-6.71594e-21 20.4464 	-0.747808 	-5.28321e-21 20.4623 	-0.82175 	-1.98838e-21 20.4897 	-0.888691 	-4.51068e-21 20.5071 	-0.958264 	-4.64763e-21 20.5244 	-1.02778 	-4.79484e-21 20.5417 	-1.09725 	-4.95231e-21 20.5483 	-1.12391 	-5.0167e-21 20.5531 	-1.14313 	-5.16183e-21 20.5579 	-1.16234 	-5.30938e-21 20.5627 	-1.18155 	-5.45935e-21 20.5675 	-1.20074 	-5.61174e-21 20.5697 	-1.22071 	-4.90064e-21 20.5894 	-1.30771 	-3.78543e-21 20.6078 	-1.39541 	-2.6653e-21 20.6259 	-1.48296 	-1.53781e-21 20.6439 	-1.57035 	-4.03013e-22 20.6479 	-1.66202 	0 20.6732 	-1.75286 	-1.01811e-22 20.6912 	-1.84951 	-8.39308e-22 20.7089 	-1.94595 	-1.56919e-21 20.7199 	-2.04429 	-2.29753e-21 20.7167 	-2.14739 	-3.03427e-21 20.7458 	-2.248 	-8.96743e-21 20.7737 	-2.34