# vtk DataFile Version 2.0
track0
ASCII
DATASET POLYDATA
POINTS 11643 double
-0.0205 0.001 1e-05
-0.0204991 0.00100536 1e-05
-0.0204976 0.00101063 1e-05
-0.0204947 0.00101518 1e-05
-0.0204905 0.00101864 1e-05
-0.0204746 0.00102682 1e-05
-0.0201831 0.00105563 1e-05
-0.0203616 0.00128793 1e-05
-0.0204488 0.00141936 1e-05
-0.0201625 0.00144441 1e-05
-0.020152 0.00173164 1e-05
-0.0202219 0.00184007 1e-05
-0.0200496 0.00193025 1e-05
-0.0200809 0.00212222 1e-05
-0.0201295 0.00229098 1e-05
-0.0200088 0.00238763 1e-05
-0.0199912 0.00254122 1e-05
-0.0200041 0.00269527 1e-05
-0.0199828 0.00277425 1e-05
-0.0198691 0.00287784 1e-05
-0.019818 0.00302291 1e-05
-0.0198055 0.00317622 1e-05
-0.0197601 0.00329221 1e-05
-0.0196348 0.00340323 1e-05
-0.0195487 0.00354672 1e-05
-0.0194778 0.0036983 1e-05
-0.0193912 0.00384149 1e-05
-0.0193843 0.00384734 1e-05
-0.0193109 0.00390811 1e-05
-0.019244 0.00397601 1e-05
-0.0191791 0.00404587 1e-05
-0.0191113 0.00411286 1e-05
-0.0190172 0.0041981 1e-05
-0.0189565 0.00424695 1e-05
-0.018894 0.0042935 1e-05
-0.0188299 0.00433776 1e-05
-0.0187643 0.0043797 1e-05
-0.018659 0.00444232 1e-05
-0.0184267 0.00456539 1e-05
-0.0181854 0.00466975 1e-05
-0.0179371 0.00475604 1e-05
-0.0176828 0.00482245 1e-05
-0.0174976 0.00485401 1e-05
-0.0172058 0.00488473 1e-05
-0.0169124 0.00488647 1e-05
-0.0166199 0.00486412 1e-05
-0.0163297 0.00482092 1e-05
-0.0160387 0.00475682 1e-05
-0.015829 0.00469392 1e-05
-0.0156229 0.0046199 1e-05
-0.0154211 0.00453513 1e-05
-0.0152221 0.00444386 1e-05
-0.015219 0.00444232 1e-05
-0.0151028 0.00438407 1e-05
-0.0149894 0.00432057 1e-05
-0.0148792 0.00425175 1e-05
-0.0147712 0.00417933 1e-05
-0.0146381 0.00408413 1e-05
-0.0145772 0.00403677 1e-05
-0.0145171 0.00398832 1e-05
-0.014458 0.00393875 1e-05
-0.0143999 0.00388805 1e-05
-0.0143539 0.00384734 1e-05
-0.0142299 0.00373631 1e-05
-0.0141125 0.00361838 1e-05
-0.0140026 0.0034934 1e-05
-0.0138986 0.00336342 1e-05
-0.0138442 0.00329221 1e-05
-0.0137672 0.00318862 1e-05
-0.0136976 0.00307984 1e-05
-0.0136345 0.00296726 1e-05
-0.0135751 0.00285262 1e-05
-0.013538 0.00277425 1e-05
-0.013495 0.0026776 1e-05
-0.0134592 0.00257807 1e-05
-0.0134274 0.00247719 1e-05
-0.0134002 0.00237498 1e-05
-0.0133823 0.00229098 1e-05
-0.0133673 0.0022008 1e-05
-0.0133584 0.00210982 1e-05
-0.0133548 0.00201848 1e-05
-0.0133573 0.0019271 1e-05
-0.0133659 0.00184007 1e-05
-0.0133808 0.00175593 1e-05
-0.0134034 0.00167353 1e-05
-0.0134329 0.00159333 1e-05
-0.0134694 0.00151606 1e-05
-0.0135262 0.00141936 1e-05
-0.0135838 0.00134085 1e-05
-0.0136522 0.00127163 1e-05
-0.0137265 0.00120868 1e-05
-0.0138052 0.00115148 1e-05
-0.0139993 0.00102682 1e-05
-0.0141271 0.000957929 1e-05
-0.0142615 0.00090314 1e-05
-0.0143991 0.000857076 1e-05
-0.0145374 0.000813036 1e-05
-0.0146381 0.000782653 1e-05
-0.0147223 0.000758236 1e-05
-0.014807 0.000735178 1e-05
-0.0148919 0.000713271 1e-05
-0.0149773 0.000693385 1e-05
-0.0151519 0.000660566 1e-05
-0.0153293 0.000638057 1e-05
-0.015507 0.00061894 1e-05
-0.015685 0.000602465 1e-05
-0.0158632 0.000587975 1e-05
-0.0160387 0.000568318 1e-05
-0.0162835 0.000518423 1e-05
-0.0165322 0.000493692 1e-05
-0.0167818 0.000482653 1e-05
-0.0170315 0.000475799 1e-05
-0.0174976 0.000406056 1e-05
-0.0174976 0.000406056 1e-05
-0.0174976 0.000406056 1e-05
-0.0174976 0.000406056 1e-05
-0.0174976 0.000406056 1e-05
-0.0174976 0.000406056 1e-05
-0.0174951 0.000388613 1e-05
-0.0174897 0.000371849 1e-05
-0.017482 0.000356 1e-05
-0.0174726 0.000341092 1e-05
-0.0174557 0.000318841 1e-05
-0.0173838 0.000255072 1e-05
-0.0172967 0.000214398 1e-05
-0.0172047 0.000186603 1e-05
-0.0171106 0.000167061 1e-05
-0.0160387 4.43532e-06 1e-05
-0.0160288 3.54826e-06 1e-05
-0.0160189 3.09487e-06 1e-05
-0.016009 2.68316e-06 1e-05
-0.0159991 2.27145e-06 1e-05
-0.0159444 0 1e-05
-0.0205 0.00367778 1e-05
-0.0203955 0.00371169 1e-05
-0.0203045 0.00377319 1e-05
-0.0202172 0.00383975 1e-05
-0.020198 0.00384734 1e-05
-0.0199618 0.00393432 1e-05
-0.0197661 0.00409248 1e-05
-0.0196202 0.0042976 1e-05
-0.0194754 0.00444232 1e-05
-0.0193838 0.00449617 1e-05
-0.0192964 0.00455671 1e-05
-0.0192133 0.00462297 1e-05
-0.0191277 0.00468612 1e-05
-0.0190172 0.00476167 1e-05
-0.0189141 0.00482533 1e-05
-0.0188085 0.00488448 1e-05
-0.0187004 0.00493917 1e-05
-0.0185903 0.00498953 1e-05
-0.0183692 0.00508 1e-05
-0.0181949 0.0051351 1e-05
-0.0180185 0.00518323 1e-05
-0.0178404 0.00522453 1e-05
-0.0176608 0.00525888 1e-05
-0.0174976 0.0052819 1e-05
-0.0172058 0.00530981 1e-05
-0.0169127 0.00531464 1e-05
-0.0166201 0.00529764 1e-05
-0.0163294 0.00526042 1e-05
-0.0160387 0.00520543 1e-05
-0.0159402 0.00518034 1e-05
-0.0158423 0.00515326 1e-05
-0.015745 0.00512427 1e-05
-0.015648 0.00509405 1e-05
-0.0156049 0.00508 1e-05
-0.0154115 0.00501579 1e-05
-0.0152215 0.00494215 1e-05
-0.0150357 0.00485872 1e-05
-0.0148541 0.00476626 1e-05
-0.0146381 0.00464648 1e-05
-0.0145719 0.00460565 1e-05
-0.0145062 0.00456393 1e-05
-0.0144411 0.00452132 1e-05
-0.0143766 0.00447792 1e-05
-0.0143242 0.00444232 1e-05
-0.0141508 0.00432332 1e-05
-0.013984 0.00419531 1e-05
-0.0138248 0.00405779 1e-05
-0.0136704 0.00391504 1e-05
-0.0136 0.00384734 1e-05
-0.0135387 0.00378716 1e-05
-0.0134795 0.00372489 1e-05
-0.0134219 0.00366121 1e-05
-0.0133651 0.00359674 1e-05
-0.0132934 0.00351302 1e-05
-0.0132572 0.00346886 1e-05
-0.0132213 0.00342433 1e-05
-0.0131859 0.00337944 1e-05
-0.013151 0.00333417 1e-05
-0.0131192 0.00329221 1e-05
-0.0130413 0.00318862 1e-05
-0.0129653 0.00308359 1e-05
-0.0128921 0.00297657 1e-05
-0.0128222 0.00286742 1e-05
-0.012765 0.00277425 1e-05
-0.0127075 0.0026776 1e-05
-0.0126514 0.00258012 1e-05
-0.0125969 0.00248176 1e-05
-0.0125438 0.00238258 1e-05
-0.0124972 0.00229098 1e-05
-0.0124539 0.0022008 1e-05
-0.0124108 0.00211048 1e-05
-0.012368 0.00202002 1e-05
-0.0123255 0.00192945 1e-05
-0.0122849 0.00184007 1e-05
-0.0122503 0.00175593 1e-05
-0.0122142 0.00167241 1e-05
-0.0121768 0.00158944 1e-05
-0.0121381 0.00150713 1e-05
-0.0120944 0.00141936 1e-05
-0.0120761 0.00138325 1e-05
-0.0120561 0.00134798 1e-05
-0.0120348 0.00131353 1e-05
-0.0120121 0.00127999 1e-05
-0.0120025 0.00126714 1e-05
-0.0119655 0.00121907 1e-05
-0.0119255 0.00117344 1e-05
-0.0118826 0.00113055 1e-05
-0.0118369 0.00109068 1e-05
-0.0117526 0.00102682 1e-05
-0.0116389 0.000953567 1e-05
-0.0115173 0.00089448 1e-05
-0.011391 0.000846121 1e-05
-0.0112618 0.000806216 1e-05
-0.0107632 0.000715048 1e-05
-0.0105252 0.000724791 1e-05
-0.0102871 0.000722509 1e-05
-0.0100489 0.000721432 1e-05
-0.00981075 0.000721097 1e-05
-0.00957337 0.000721232 1e-05
-0.00934491 0.000730853 1e-05
-0.00911627 0.000727641 1e-05
-0.00888762 0.000725447 1e-05
-0.00865897 0.000723953 1e-05
-0.00843108 0.000722949 1e-05
-0.00821175 0.000732037 1e-05
-0.00799227 0.000728066 1e-05
-0.00777277 0.000725091 1e-05
-0.00755326 0.000722832 1e-05
-0.00733443 0.000721099 1e-05
-0.00712387 0.000729527 1e-05
-0.00691317 0.000725385 1e-05
-0.00670246 0.000722158 1e-05
-0.00649174 0.00071961 1e-05
-0.0062816 0.000717573 1e-05
-0.00607944 0.000725284 1e-05
-0.00587718 0.000721386 1e-05
-0.0056749 0.000718278 1e-05
-0.00547262 0.000715768 1e-05
-0.00527083 0.000713719 1e-05
-0.00507675 0.000720716 1e-05
-0.00488258 0.000717211 1e-05
-0.0046884 0.000714365 1e-05
-0.00449421 0.000712029 1e-05
-0.00430044 0.000710091 1e-05
-0.00411412 0.000716414 1e-05
-0.00392772 0.000713319 1e-05
-0.0037413 0.000710758 1e-05
-0.00355488 0.000708618 1e-05
-0.00336883 0.000706813 1e-05
-0.00318995 0.000712481 1e-05
-0.003011 0.000709711 1e-05
-0.00283205 0.000707381 1e-05
-0.00265309 0.000705403 1e-05
-0.00247443 0.00070371 1e-05
-0.0023027 0.000708741 1e-05
-0.00213091 0.000706255 1e-05
-0.00195912 0.000704085 1e-05
-0.00178733 0.000702171 1e-05
-0.00161577 0.000700469 1e-05
-0.0014509 0.000704682 1e-05
-0.001286 0.000702206 1e-05
-0.00112109 0.000699975 1e-05
-0.000956174 0.000697944 1e-05
-0.000791418 0.000696078 1e-05
-0.000633135 0.000699231 1e-05
-0.000474837 0.000696874 1e-05
-0.000316535 0.000694892 1e-05
-0.000158228 0.000693216 1e-05
0 0.000691794 1e-05
0.000105677 0.000693809 1e-05
0.000211373 0.000693231 1e-05
0.000317069 0.00069302 1e-05
0.000422766 0.000693135 1e-05
0.000528387 0.000693539 1e-05
0.000634886 0.000696629 1e-05
0.000741424 0.000697757 1e-05
0.000847957 0.000699275 1e-05
0.000954485 0.000701144 1e-05
0.00106088 0.000703328 1e-05
0.00116821 0.000708311 1e-05
0.0012756 0.000711503 1e-05
0.00138299 0.000715117 1e-05
0.00149036 0.000719118 1e-05
0.00159752 0.000723469 1e-05
0.00170568 0.000731088 1e-05
0.00181394 0.000737065 1e-05
0.00192218 0.000743579 1e-05
0.00203038 0.000750599 1e-05
0.00213833 0.000758082 1e-05
0.00224733 0.000769286 1e-05
0.00235642 0.000779627 1e-05
0.00246548 0.0007902 1e-05
0.00257449 0.000801362 1e-05
0.00268334 0.000814128 1e-05
0.00279319 0.00082954 1e-05
0.002903 0.000845209 1e-05
0.00301278 0.000861127 1e-05
0.00312243 0.00087789 1e-05
0.00323259 0.000896369 1e-05
0.00334329 0.000916654 1e-05
0.00345381 0.000937899 1e-05
0.00356415 0.000960114 1e-05
0.00367425 0.000983451 1e-05
0.00378611 0.00100835 1e-05
0.00384179 0.00102136 1e-05
0.00389741 0.00103467 1e-05
0.00395296 0.00104825 1e-05
0.00400844 0.0010621 1e-05
0.00405214 0.00107324 1e-05
0.0041105 0.00108835 1e-05
0.00416877 0.00110378 1e-05
0.00422696 0.00111953 1e-05
0.00428507 0.00113559 1e-05
0.00434393 0.00115217 1e-05
0.00445636 0.0011842 1e-05
0.00456837 0.00121769 1e-05
0.00467999 0.00125243 1e-05
0.00479128 0.00128822 1e-05
0.00490609 0.00132586 1e-05
0.00501075 0.00136088 1e-05
0.00511503 0.00139699 1e-05
0.00521901 0.00143399 1e-05
0.00532273 0.00147169 1e-05
0.00540044 0.00150053 1e-05
0.00541488 0.00150597 1e-05
0.00542931 0.00151142 1e-05
0.00544373 0.0015169 1e-05
0.00545815 0.00152238 1e-05
0.00547262 0.0015279 1e-05
0.00558681 0.00157156 1e-05
0.00570066 0.00161607 1e-05
0.00581421 0.00166136 1e-05
0.00592744 0.00170743 1e-05
0.00604356 0.00175529 1e-05
0.00614198 0.00179639 1e-05
0.0062402 0.00183796 1e-05
0.00633825 0.00187993 1e-05
0.00643617 0.00192221 1e-05
[...]
POINT_DATA 11643
 FIELD attributes 2
p 1 11643 float
109.167 124.402 128.746 131.344 132.056 129.913 119.099 756.69 735.268 572.346 641.579 281.106 266.851 243.069 -64.2652 -3.52485 89.0102 -51.3839 -162.678 -71.7043 100.694 -44.7375 -185.768 -119.345 -60.3689 -86.0332 -227.547 -234.199 -216.048 -211.107 -227.016 -244.68 -270.53 -288.035 -306.681 -326.423 -326.022 -299.692 -345.424 -392.944 -405.839 -407.712 -413.771 -417.319 -420.565 -424.616 -407.397 -385.347 -368.747 -354.087 -332.852 -312.938 -312.647 -300.043 -288.437 -273.98 -258.938 -240.733 -232.902 -225.291 -217.907 -217.272 -217.812 -183.84 -152.019 -142.537 -150.862 -155.812 -120.895 -96.9647 -88.7227 -87.7725 -97.5756 -68.399 -61.0837 -54.0342 -47.2957 -50.6372 -35.7507 -30.1543 -24.9511 -20.2087 -23.5295 -12.4711 -10.0823 -8.26009 -7.04673 -31.2175 -8.72422 -9.21186 -12.6206 -25.8432 -104.748 -101.569 -113.07 -153.357 -193.743 -223.068 -245.34 -267.65 -293.961 -328.614 -396.852 -452.33 -508.35 -564.778 -628.283 -697.706 -810.979 -923.256 -1036.89 -1179.47 -1447.54 -1447.54 -1447.54 -1447.54 -1447.54 -1447.54 -1445.98 -1442.73 -1438.17 -1432.64 -1426.12 -1377.19 -1325.4 -1273.54 -1222.17 -719.729 -715.191 -711.23 -707.793 -704.355 -685.39
92.6126 92.5074 67.8309 -10.262 -21.57 -29.8428 16.1716 -51.6138 -151.11 -147.301 -140.811 -154.676 -169.561 -189.565 -207.332 -226.319 -246.446 -242.915 -235.673 -255.154 -275.35 -293.985 -300.365 -307.9 -314.367 -325.767 -322.21 -312.307 -304.132 -300.364 -296.535 -289.408 -282.447 -279.413 -266.938 -255.935 -244.279 -226.649 -206.283 -200.044 -193.933 -188.858 -187.64 -186.701 -156.571 -126.192 -114.697 -117.454 -119.139 -101.496 -90.4682 -85.533 -80.6495 -74.4583 -71.4632 -68.4926 -65.5474 -63.656 -63.9502 -49.7792 -41.0934 -32.5592 -31.039 -32.3702 -16.9184 -1.42107 4.91144 2.58335 0.326113 15.7719 27.146 31.2596 33.1267 29.9582 44.0346 46.6475 49.2429 51.8168 51.3157 55.1954 55.347 55.4853 55.6092 55.6521 56.131 56.6019 57.0626 57.5105 54.0492 55.0308 55.4184 55.2945 49.949 30.3707 26.1021 20.1166 14.1946 8.31172 1.26547 -1.82923 -6.16196 -10.4501 -14.7075 -19.7478 -20.6364 -23.27 -25.8555 -28.4061 -32.1741 -31.8931 -33.5811 -35.2234 -36.8317 -39.8376 -39.0449 -40.1466 -41.21 -42.2446 -44.6389 -43.5219 -44.1704 -44.7884 -45.3827 -47.2708 -45.9305 -46.2512 -46.5479 -46.8257 -48.3481 -46.8834 -46.9126 -46.9231 -46.9188 -48.0633 -46.4291 -46.151 -45.8602 -45.5592 -46.3469 -44.494 -43.5553 -42.6091 -41.6569 -41.58 -39.5385 -38.3168 -37.0858 -35.8472 -35.4489 -34.2953 -34.0354 -33.7666 -33.49 -33.9552 -33.4291 -33.2326 -33.0325 -32.8292 -32.988 -31.9475 -30.764 -29.5828 -28.4039 -27.4231 -26.0089 -24.1277 -22.2566 -20.3951 -18.7349 -17.0285 -14.9348 -12.7257 -10.7501 -9.01584 -6.97226 -4.93782 -3.08326 -1.82072 -0.621751 1.48778 3.25914 4.04681 4.7026 4.97058 5.87129 6.16177 6.26067 6.34161 6.39117 6.53731 6.66424 6.7719 6.98596 7.50215 7.09351 6.70708 6.37102 6.31822 6.22859 5.61313 4.87699 4.02359 3.13259 2.43485 2.34469 2.25383 2.16227 2.12778 2.13215 0.924936 -0.288831 -1.53275 -2.50029 -3.44963 -4.83816 -6.21837 -7.55306 -8.8981 -10.1186 -10.3175 -10.5168 -10.7164 -10.8443 -10.9412 -12.542 -14.1808 -15.8249 -17.0552 -18.2973 -19.6826 -20.9987 -22.1194 -23.2402 -24.3611 -24.6928 -25.0244 -25.3561 -25.643 -25.9074 -27.2167 -28.6356 -30.0866 -31.3424 -32.5909 -33.6405 -34.6309 -35.5104 -36.3904 -37.3236 -37.5703 -37.817 -38.0639 -38.3027 -38.5343 -39.3498 -40.4354 -41.5257 -42.6348 -43.7334 -44.5346 -45.3598 -46.2171 -47.0794 -48.052 -48.1412 -48.2338 -48.3288 -48.4239 -48.521 -49.2387 -49.9636 -50.6957 -51.5148 -52.4822 -52.8565 -53.2395 -54.0282 -55.1709 -56.3027 -56.6235 -57.1729 -57.8387 -58.5142 -59.3441 -59.3868 -59.4819 -59.5834 -59.6852 -59.7918 -60.3094 -60.8352 -61.3693 -61.9158 -62.7056 -62.8392 -63.2551 -63.8293 -64.6849 -65.617 -65.6566 -65.7081 -66.1498 -67.0393 -67.9311 -67.8744 -67.9857 -68.3733 -68.9141 -69.7627 -69.6169 -69.9468 -70.2882 -70.6412 -71.2651 -71.3092 -71.5905 -71.8829 -72.1866 -72.5854 -72.5958 -72.6282 -72.6607 -72.6935 -72.7302 -72.9694 -73.2169 -73.473 -73.7377 -74.0938 -74.2517 -74.5072 -74.7736 -75.0511 -75.474 -75.5692 -75.8013 -76.044 -76.2976 -76.6917 -76.7791 -76.9815 -77.194 -77.4168 -77.7166 -77.7848 -77.9068 -78.0341 -78.1666 -78.2201 -78.2877 -78.3565 -78.4265 -78.4979 -78.6066 -78.6811 -78.8177 -78.9636 -79.119 -79.4206 -79.2858 -79.3843 -79.4909 -79.6216 -79.9527 -79.7195 -79.6588 -79.73 -79.9303 -80.1905 -79.9717 -79.7591 -79.7609 -79.9517 -80.1517 -79.9583 -79.7961 -79.7215 -79.7302 -79.8783 -79.721 -79.6458 -79.5758 -79.5112 -79.4619 -79.4586 -79.4553 -79.452 -79.4489 -79.45 -79.3547 -79.2863 -79.223 -79.1703 -79.1605 -78.9558 -78.7553 -78.6971 -78.6674 -78.6425 -78.479 -78.3231 -78.1765 -78.0342 -77.9646 -77.9324 -77.8999 -77.8674 -77.8351 -77.8041 -77.7038 -77.6055 -77.5092 -77.4094 -77.3003 -77.1165 -76.9357 -76.7964 -76.6667 -76.5387 -76.4287 -76.309 -76.1812 -76.0549 -75.9397 -75.8972 -75.8548 -75.8126 -75.7675 -75.7201 -75.5252 -75.3719 -75.2204 -75.057 -74.8928 -74.7658 -74.6384 -74.5092 -74.381 -74.2625 -74.2336 -74.2048 -74.1759 -74.148 -74.1203 -73.967 -73.8347 -73.7037 -73.5857 -73.4673 -73.4045 -73.3429 -73.2851 -73.2277 -73.1734 -73.132 -73.0908 -73.0497 -73.0119 -72.9745 -72.9009 -72.828 -72.7618 -72.704 -72.6461 -72.6392 -72.6325 -72.6271 -72.6217 -72.6164 -72.5834 -72.5506 -72.5179 -72.4809 -72.4436 -72.4439 -72.4443 -72.4345 -72.4244 -72.4143 -72.4044 -72.3944 -72.3841 -72.3682 -72.3524 -72.3681 -72.3838 -72.3766 -72.3458 -72.3147 -72.3235 -72.3321 -72.3392 -72.3463 -72.3536 -72.3578 -72.3623 -72.3672 -72.3559 -72.3442 -72.4146 -72.4835 -72.545 -72.608 -72.6721 -72.6831 -72.6938 -72.7043 -72.7147 -72.7256 -72.822 -72.9203 -73.0204 -73.1205 -73.2175 -73.4157 -73.6161 -73.7991 -73.9604 -74.1195 -74.3682 -74.6123 -74.8521 -75.09 -75.276 -75.5447 -75.8093 -76.0739 -76.3384 -76.5797 -76.8052 -77.0331 -77.2604 -77.4872 -77.9875 -78.0226 -78.0581 -78.0936 -78.129 -78.175 -78.438 -78.7001 -78.9615 -79.2221 -79.4835 -79.7997 -80.1098 -80.4188 -80.7266 -81.0336 -81.0588 -81.0832 -81.1075 -81.1319 -81.1543 -81.4355 -81.716 -81.9957 -82.2746 -82.5421 -82.8217 -83.1025 -83.383 -83.6632 -83.9154 -84.1513 -84.39 -84.6293 -84.8692 -85.0666 -85.254 -85.4362 -85.6199 -85.8051 -85.9268 -86.0546 -86.1733 -86.2945 -86.4182 -86.4741 -86.5451 -86.6058 -86.67 -86.7377 -86.7469 -86.7709 -86.7861 -86.806 -86.8304 -86.8168 -86.8064 -86.7886 -86.7766 -86.7704 -86.7498 -86.7123 -86.6704 -86.6337 -86.602 -86.5918 -86.587 -86.5827 -86.5788 -86.5753 -86.5699 -86.4994 -86.4304 -86.3698 -86.3177 -86.2543 -86.1853 -86.0848 -85.994 -85.9003 -85.7887 -85.6885 -85.5942 -85.4643 -85.3015 -85.1491 -85.0066 -84.8726 -84.6927 -84.5007 -84.3029 -84.1471 -83.9497 -83.7547 -83.5683 -83.4404 -83.3954 -83.3511 -83.3076 -83.2623 -83.2075 -82.923 -82.6371 -82.366 -82.0793 -81.7768 -81.4434 -81.1257 -80.7664 -80.4065 -80.0464 -79.8943 -79.7354 -79.5676 -79.4024 -79.2571 -79.0125 -78.7751 -78.5447 -78.298 -78.0369 -77.5775 -77.1371 -76.6826 -76.224 -75.7728 -75.604 -75.4354 -75.261 -75.0889 -74.9322 -74.608 -74.2928 -73.9865 -73.6576 -73.3227 -72.7818 -72.2592 -71.7259 -71.2124 -70.7472 -70.7385 -70.7298 -70.721 -70.7111 -70.7011 -70.1212 -69.5638 -69.0262 -68.4656 -67.9034 -67.6396 -67.3799 -67.12 -66.8636 -66.6293 -66.29 -65.9568 -65.6275 -65.2718 -64.9134 -64.3845 -63.8681 -63.3426 -62.8258 -62.377 -62.2377 -62.0991 -61.9593 -61.8065 -61.6529 -60.9156 -60.1947 -59.4614 -58.7378 -58.0041 -57.9446 -57.8852 -57.8254 -57.7656 -57.7064 -56.9424 -56.1889 -55.4335 -54.6325 -53.8114 -53.5373 -53.2644 -52.9839 -52.7013 -52.4274 -51.7663 -51.1097 -50.4472 -49.7466 -49.0319 -48.4796 -47.93 -47.3589 -46.7822 -46.2286 -45.7207 -45.2143 -44.7016 -44.1591 -43.6093 -42.6841 -41.7624 -40.8028 -39.8339 -38.9063 -38.6395 -38.3728 -38.1029 -37.8175 -37.5305 -36.2186 -34.91 -33.5614 -32.1972 -30.8205 -30.7386 -30.6567 -30.5724 -30.4874 -30.4024 -29.0545 -27.7078 -26.3576 -24.982 -23.588 -23.0722 -22.5565 -22.0368 -21.5162 -20.9974 -20.0185 -19.0399 -18.0685 -17.1193 -16.1649 -15.2861 -14.4072 -13.5547 -12.7115 -11.8683 -11.2276 -10.587 -9.95568 -9.35124 -8.74668 -7.56216 -6.37753 -5.25097 -4.14585 -3.03106 -2.72886 -2.42665 -2.13085 -1.85317 -1.57594 -0.152934 1.2702 2.59851 3.889 5.15404 5.17274 5.19143 5.20868 5.22544 5.2422 6.51369 7.78453 9.01641 10.1357 11.2305 11.521 11.8115 12.0728 12.3254 12.5808 13.434 14.2865 15.1114 15.8395 16.5503 17.0839 17.6172 18.0823 18.5313 18.9948 19.443 19.8908 20.3261 20.6966 21.0596 21.7936 22.5262 23.1414 23.7369 24.3771 24.4617 24.5462 24.6297 24.6967 24.7632 25.4304 26.0756 26.6663 27.1479 27.6024 27.8067 28.0086 28.1607 28.3123 28.4715 28.7489 29.0246 29.2984 29.4997 29.6859 30.06 30.4274 30.6774 30.9232 31.1279 31.1632 31.1944 31.2155 31.2366 31.2582 31.4248 31.5872 31.7453 31.8341 31.8849 32.0185 32.1475 32.1698 32.1756 32.1514 32.1707 32.1663 32.1464 32.1259 32.102 32.0812 32.0588 32.0347 31.9957 31.9251 31.8544 31.7648 31.6579 31.4796 31.2994 31.1659 31.0281 30.8258 30.6036 30.374 30.1895 29.9503 29.7066 29.4606 29.2088 29.1393 29.0593 28.9792 28.899 28.8071 28.6198 28.4314 28.2422 28.0519 27.8369 27.5624 27.273 26.982 26.6877 26.3506 26.0706 25.7758 25.4746 25.1534 24.8127 24.5264 24.2352 23.9319 23.6013 23.265 22.9802 22.695 22.3953 22.0693 21.7431 21.4649 21.1864 20.896 20.5862 20.2761 20.0102 19.7441 19.4687 19.1783 18.8874 18.6373 18.3869 18.1309 17.8634 17.5955 17.3648 17.1341 16.8999 16.6558 16.4114 16.2006 15.9896 15.7773 15.5586 15.3385 15.149 14.9591 14.7683 14.5741 14.3771 14.2084 14.0393 13.87 13.6995 13.5252 13.3775 13.229 13.0804 12.9317 12.7796 12.6512 12.5225 12.3937 12.2647 12.1347 12.0883 12.0417 11.9952 11.9486 11.9059 11.8403 11.7747 11.709 11.6433 11.5799 11.4841 11.3893 11.2943 11.1992 11.1107 11.0288 10.9495 10.8704 10.795 10.7237 10.6567 10.5896 10.5257 10.4687 10.4115 10.3578 10.304 10.2561 10.2113 10.1663 10.1241 10.0856 10.0501 10.0144 9.98018 9.95475 9.93355 9.91229 9.89097 9.87189 9.86632 9.86075 9.85517 9.84958 9.84417 9.8257 9.80632 9.78685 9.76731 9.7485 9.73927 9.72888 9.71645 9.70454 9.69252 9.68911 9.68561 9.68216 9.67633 9.66984 9.6711 9.67176 9.6723 9.67276 9.67297 9.67312 9.67323 9.67335 9.67346 9.67357 9.6764 9.67916 9.68184 9.68455 9.68848 9.69499 9.70129 9.70672 9.71385 9.72094 9.72928 9.73825 9.74857 9.75883 9.76811 9.77186 9.77628 9.78089 9.78549 9.78993 9.79708 9.80421 9.81132 9.81864 9.82671 9.84101 9.85458 9.86735 9.88127 9.8952 9.90983 9.92466 9.93999 9.95529 9.96971 9.9736 9.97761 9.98168 9.98575 9.98975 10.001 10.0123 10.0235 10.0349 10.0466 10.0622 10.0779 10.0931 10.1086 10.124 10.1373 10.151 10.1649 10.1788 10.1924 10.194 10.1955 10.1971 10.1987 10.2003 10.2154 10.2304 10.2454 10.2605 10.2759 10.2901 10.3044 10.3192 10.3338 10.3482 10.3536 10.3593 10.3652 10.371 10.3769 10.3851 10.3934 10.4016 10.4101 10.4189 10.4324 10.4459 10.4598 10.4748 10.4898 10.5021 10.5155 10.5298 10.544 10.5591 10.5595 10.56 10.5604 10.5608 10.5613 10.5764 10.5914 10.6065 10.6225 10.6398 10.6546 10.6694 10.6861 10.7038 10.7215 10.7315 10.7427 10.7545 10.7663 10.779 10.7847 10.7904 10.7961 10.802 10.8086 10.8262 10.8444 10.8626 10.8827 10.9035 10.9217 10.9399 10.9606 10.982 11.0036 11.0178 11.0337 11.05 11.0663 11.0845 11.0895 11.0946 11.0996 11.1047 11.1104 11.1325 11.155 11.1775 11.201 11.2261 11.2486 11.2711 11.2952 11.3212 11.347 11.3705 11.3948 11.4205 11.4462 11.4728 11.4915 11.5117 11.5319 11.552 11.576 11.5813 11.5867 11.592 11.5974 11.603 11.6296 11.6565 11.6833 11.71 11.7381 11.7646 11.7918 11.8193 11.8476 11.8762 11.9033 11.9303 11.9586 11.9879 12.017 12.0448 12.0725 12.101 12.1307 12.1603 12.1886 12.217 12.246 12.2756 12.3057 12.3345 12.3636 12.3929 12.4223 12.4525 12.4815 12.511 12.5404 12.5697 12.6001 12.6294 12.659 12.6884 12.7178 12.7481 12.7776 12.8071 12.8366 12.866 12.8962 12.9258 12.9552 12.9845 13.0138 13.0439 13.0733 13.1025 13.1316 13.1608 13.1906 13.2198 13.2487 13.2774 13.3064 13.3357 13.3644 13.393 13.4211 13.4497 13.4784 13.5065 13.5346 13.5622 13.5898 13.6175 13.6446 13.6717 13.6988 13.7251 13.7515 13.7773 13.8031 13.8288 13.8543 13.879 13.9032 13.9273 13.9514 13.9754 13.999 14.0093 14.0196 14.0298 14.0401 14.0497 14.0619 14.0741 14.0863 14.0985 14.1106 14.1316 14.1519 14.1723 14.1925 14.2125 14.2316 14.2502 14.2681 14.2853 14.3024 14.3188 14.3351 14.3504 14.3643 14.3782 14.3912 14.4036 14.4151 14.4267 14.4366 14.444 14.45 14.456 14.4621 14.4682 14.4695 14.4709 14.4722 14.4735 14.4746 14.4791 14.4833 14.4876 14.4912 14.4938 14.496 14.4982 14.4977 14.4944 14.4911 14.488 14.4825 14.476 14.4694 14.4626 14.4618 14.4609 14.46 14.459 14.4574 14.4464 14.4348 14.4232 14.4101 14.3956 14.3809 14.3661 14.3488 14.33 14.3109 14.2995 14.2868 14.2734 14.2599 14.2456 14.2369 14.2283 14.2197 14.2106 14.2006 14.1756 14.1486 14.1211 14.0892 14.0567 14.0238 13.99 13.9527 13.9153 13.8755 13.8601 13.8431 13.8254 13.8076 13.7886 13.762 13.7354 13.7087 13.681 13.6503 13.6 13.5482 13.4946 13.4354 13.3762 13.3163 13.255 13.1894 13.1234 13.0547 13.0189 12.9817 12.9443 12.9069 12.8645 12.8306 12.7966 12.7627 12.7287 12.6935 12.6172 12.5383 12.4594 12.3778 12.2944 12.2089 12.1234 12.0328 11.9373 11.8419 11.7438 11.6417 11.5368 11.432 11.324 11.2659 11.2045 11.143 11.0815 11.0102 10.9555 10.9007 10.8459 10.7911 10.7334 10.6038 10.4711 10.3384 10.2038 10.0631 9.91849 9.77269 9.62191 9.46269 9.30342 9.13932 8.97522 8.80189 8.61971 8.43748 8.24939 8.0563 7.85708 7.65625 7.44893 7.23316 7.00312 6.77315 6.54324 6.30878 6.18387 6.0561 5.92834 5.80059 5.65348 5.52636 5.39924 5.2721 5.14496 5.01557 4.72141 4.4179 4.11428 3.81056 3.48 3.1291 2.81254 2.49747 2.19685 1.92504 1.64142 1.32965 0.955682 0.485722 0