# vtk DataFile Version 2.0
track0
ASCII
DATASET POLYDATA
POINTS 10873 double
-0.0205 0.001 1e-05
-0.0204991 0.00100536 1e-05
-0.0204976 0.00101063 1e-05
-0.0204947 0.00101518 1e-05
-0.0204905 0.00101864 1e-05
-0.0204746 0.00102682 1e-05
-0.0201831 0.00105563 1e-05
-0.0203616 0.00128793 1e-05
-0.0204488 0.00141936 1e-05
-0.0201625 0.0014444 1e-05
-0.020152 0.00173164 1e-05
-0.0202219 0.00184007 1e-05
-0.0200496 0.00193025 1e-05
-0.0200809 0.00212222 1e-05
-0.0201295 0.00229098 1e-05
-0.0200088 0.00238763 1e-05
-0.0199912 0.00254122 1e-05
-0.0200042 0.00269528 1e-05
-0.0199828 0.00277425 1e-05
-0.0198691 0.00287784 1e-05
-0.019818 0.00302292 1e-05
-0.0198055 0.00317623 1e-05
-0.0197601 0.00329221 1e-05
-0.0196348 0.00340323 1e-05
-0.0195487 0.00354672 1e-05
-0.0194778 0.0036983 1e-05
-0.0193912 0.00384149 1e-05
-0.0193843 0.00384734 1e-05
-0.0193109 0.00390812 1e-05
-0.019244 0.00397601 1e-05
-0.0191791 0.00404587 1e-05
-0.0191113 0.00411286 1e-05
-0.0190172 0.0041981 1e-05
-0.0189565 0.00424695 1e-05
-0.0188941 0.00429351 1e-05
-0.01883 0.00433776 1e-05
-0.0187643 0.0043797 1e-05
-0.018659 0.00444232 1e-05
-0.0184267 0.00456542 1e-05
-0.0181855 0.00466981 1e-05
-0.0179371 0.00475613 1e-05
-0.0176828 0.00482258 1e-05
-0.0174976 0.00485417 1e-05
-0.0172058 0.00488494 1e-05
-0.0169124 0.00488674 1e-05
-0.0166198 0.00486446 1e-05
-0.0163296 0.00482134 1e-05
-0.0160387 0.00475731 1e-05
-0.0158285 0.00469431 1e-05
-0.0156219 0.00462014 1e-05
-0.0154196 0.00453516 1e-05
-0.0152201 0.00444366 1e-05
-0.0152174 0.00444232 1e-05
-0.0151015 0.00438422 1e-05
-0.0149884 0.00432089 1e-05
-0.0148785 0.00425228 1e-05
-0.0147708 0.00418009 1e-05
-0.0146381 0.00408524 1e-05
-0.0145768 0.00403766 1e-05
-0.0145165 0.00398897 1e-05
-0.014457 0.00393916 1e-05
-0.0143985 0.0038882 1e-05
-0.0143524 0.00384734 1e-05
-0.0142284 0.00373631 1e-05
-0.0141109 0.00361837 1e-05
-0.014001 0.00349338 1e-05
-0.013897 0.0033634 1e-05
-0.0138426 0.00329221 1e-05
-0.0137655 0.00318862 1e-05
-0.013696 0.00307984 1e-05
-0.0136327 0.00296726 1e-05
-0.0135733 0.00285263 1e-05
-0.0135362 0.00277425 1e-05
-0.0134932 0.0026776 1e-05
-0.0134573 0.00257808 1e-05
-0.0134255 0.0024772 1e-05
-0.0133982 0.00237499 1e-05
-0.0133803 0.00229098 1e-05
-0.0133653 0.0022008 1e-05
-0.0133563 0.00210982 1e-05
-0.0133526 0.00201847 1e-05
-0.013355 0.00192709 1e-05
-0.0133636 0.00184007 1e-05
-0.0133784 0.00175593 1e-05
-0.013401 0.00167351 1e-05
-0.0134304 0.0015933 1e-05
-0.0134668 0.001516 1e-05
-0.0135235 0.00141936 1e-05
-0.013581 0.00134085 1e-05
-0.0136494 0.00127164 1e-05
-0.0137236 0.00120866 1e-05
-0.0138024 0.00115143 1e-05
-0.0139963 0.00102682 1e-05
-0.0141247 0.000957586 1e-05
-0.0142597 0.000902614 1e-05
-0.0143981 0.000856446 1e-05
-0.0145371 0.000812311 1e-05
-0.0146381 0.000781915 1e-05
-0.0147221 0.000757645 1e-05
-0.0148064 0.000734719 1e-05
-0.0148911 0.000712931 1e-05
-0.0149762 0.00069316 1e-05
-0.01515 0.000660566 1e-05
-0.0153278 0.000638011 1e-05
-0.0155059 0.000618864 1e-05
-0.0156843 0.000602371 1e-05
-0.0158629 0.000587868 1e-05
-0.0160387 0.00056818 1e-05
-0.0162831 0.000518312 1e-05
-0.0165314 0.000493577 1e-05
-0.0167807 0.000482528 1e-05
-0.0170301 0.000475696 1e-05
-0.0174976 0.000406189 1e-05
-0.0174976 0.000406189 1e-05
-0.0174976 0.000406189 1e-05
-0.0174976 0.000406189 1e-05
-0.0174976 0.000406189 1e-05
-0.0174976 0.000406189 1e-05
-0.0174951 0.000388719 1e-05
-0.0174897 0.000371928 1e-05
-0.017482 0.000356054 1e-05
-0.0174726 0.000341123 1e-05
-0.0174557 0.000318841 1e-05
-0.0173838 0.000255072 1e-05
-0.0172967 0.000214399 1e-05
-0.0172047 0.000186605 1e-05
-0.0171106 0.000167065 1e-05
-0.0160387 4.45914e-06 1e-05
-0.0160288 3.56731e-06 1e-05
-0.0160188 3.1117e-06 1e-05
-0.0160088 2.69797e-06 1e-05
-0.0159989 2.28424e-06 1e-05
-0.0159439 0 1e-05
-0.0205 0.00367778 1e-05
-0.0203955 0.00371169 1e-05
-0.0203045 0.00377319 1e-05
-0.0202171 0.00383976 1e-05
-0.020198 0.00384734 1e-05
-0.0199618 0.00393432 1e-05
-0.019766 0.00409247 1e-05
-0.0196202 0.00429759 1e-05
-0.0194754 0.00444232 1e-05
-0.0193838 0.00449618 1e-05
-0.0192964 0.00455671 1e-05
-0.0192133 0.00462297 1e-05
-0.0191277 0.00468613 1e-05
-0.0190172 0.00476167 1e-05
-0.0189142 0.00482534 1e-05
-0.0188085 0.00488448 1e-05
-0.0187005 0.00493918 1e-05
-0.0185903 0.00498954 1e-05
-0.0183694 0.00508 1e-05
-0.018195 0.00513515 1e-05
-0.0180186 0.00518331 1e-05
-0.0178404 0.00522465 1e-05
-0.0176608 0.00525905 1e-05
-0.0174976 0.0052821 1e-05
-0.0172058 0.00531006 1e-05
-0.0169127 0.00531496 1e-05
-0.0166201 0.00529802 1e-05
-0.0163293 0.00526087 1e-05
-0.0160387 0.00520596 1e-05
-0.0159397 0.00518077 1e-05
-0.0158413 0.00515356 1e-05
-0.0157434 0.00512441 1e-05
-0.0156459 0.00509404 1e-05
-0.0156028 0.00508 1e-05
-0.0154099 0.00501591 1e-05
-0.0152203 0.00494243 1e-05
-0.0150348 0.00485919 1e-05
-0.0148536 0.00476695 1e-05
-0.0146381 0.00464753 1e-05
-0.0145715 0.00460648 1e-05
-0.0145054 0.00456455 1e-05
-0.01444 0.00452171 1e-05
-0.014375 0.00447807 1e-05
-0.0143224 0.00444232 1e-05
-0.014149 0.00432332 1e-05
-0.0139821 0.00419531 1e-05
-0.0138229 0.00405776 1e-05
-0.0136684 0.00391501 1e-05
-0.0135981 0.00384734 1e-05
-0.0135372 0.00378756 1e-05
-0.0134783 0.0037257 1e-05
-0.013421 0.00366246 1e-05
-0.0133645 0.00359844 1e-05
-0.0132934 0.00351545 1e-05
-0.0132567 0.0034708 1e-05
-0.0132204 0.00342578 1e-05
-0.0131846 0.00338038 1e-05
-0.0131492 0.0033346 1e-05
-0.0131171 0.00329221 1e-05
-0.0130391 0.00318862 1e-05
-0.012963 0.0030836 1e-05
-0.0128897 0.00297658 1e-05
-0.0128197 0.00286743 1e-05
-0.0127625 0.00277425 1e-05
-0.0127049 0.0026776 1e-05
-0.0126487 0.00258012 1e-05
-0.0125941 0.00248176 1e-05
-0.0125409 0.00238259 1e-05
-0.0124942 0.00229098 1e-05
-0.0124507 0.0022008 1e-05
-0.0124075 0.00211048 1e-05
-0.0123646 0.00202003 1e-05
-0.0123219 0.00192945 1e-05
-0.0122811 0.00184007 1e-05
-0.0122463 0.00175593 1e-05
-0.0122101 0.00167241 1e-05
-0.0121726 0.00158946 1e-05
-0.0121336 0.00150718 1e-05
-0.0120896 0.00141936 1e-05
-0.0120722 0.00138547 1e-05
-0.0120534 0.00135233 1e-05
-0.0120334 0.0013199 1e-05
-0.0120121 0.00128828 1e-05
-0.0120025 0.00127517 1e-05
-0.0119648 0.0012255 1e-05
-0.0119239 0.00117836 1e-05
-0.0118799 0.0011341 1e-05
-0.0118329 0.00109302 1e-05
-0.0117455 0.00102682 1e-05
-0.0116311 0.000953567 1e-05
-0.0115087 0.000894532 1e-05
-0.0113817 0.000846245 1e-05
-0.0112518 0.000806402 1e-05
-0.0107632 0.000718146 1e-05
-0.0105252 0.000727452 1e-05
-0.0102871 0.000724304 1e-05
-0.010049 0.000722675 1e-05
-0.00981081 0.000721978 1e-05
-0.00957337 0.000721871 1e-05
-0.00934491 0.000731439 1e-05
-0.00911628 0.000728072 1e-05
-0.00888763 0.000725771 1e-05
-0.00865898 0.000724201 1e-05
-0.00843108 0.000723145 1e-05
-0.00821175 0.000732229 1e-05
-0.00799227 0.000728219 1e-05
-0.00777277 0.000725216 1e-05
-0.00755327 0.000722938 1e-05
-0.00733443 0.000721193 1e-05
-0.00712387 0.000729633 1e-05
-0.00691317 0.000725487 1e-05
-0.00670246 0.000722259 1e-05
-0.00649174 0.000719713 1e-05
-0.0062816 0.00071768 1e-05
-0.00607944 0.000725415 1e-05
-0.00587718 0.000721523 1e-05
-0.0056749 0.000718422 1e-05
-0.00547262 0.000715921 1e-05
-0.00527083 0.000713883 1e-05
-0.00507675 0.000720924 1e-05
-0.00488258 0.000717431 1e-05
-0.00468839 0.0007146 1e-05
-0.0044942 0.000712283 1e-05
-0.00430044 0.000710368 1e-05
-0.00411412 0.000716769 1e-05
-0.00392771 0.0007137 1e-05
-0.0037413 0.000711178 1e-05
-0.00355488 0.000709086 1e-05
-0.00336883 0.000707338 1e-05
-0.00318995 0.00071317 1e-05
-0.00301099 0.000710486 1e-05
-0.00283203 0.000708266 1e-05
-0.00265307 0.000706417 1e-05
-0.00247443 0.000704868 1e-05
-0.0023027 0.000710253 1e-05
-0.0021309 0.000707982 1e-05
-0.00195909 0.000706135 1e-05
-0.00178728 0.00070463 1e-05
-0.00161577 0.000703406 1e-05
-0.0014509 0.000708621 1e-05
-0.00128596 0.000707029 1e-05
-0.00112101 0.000706002 1e-05
-0.000956054 0.000705437 1e-05
-0.000791418 0.000705252 1e-05
-0.000633135 0.000711444 1e-05
-0.00047473 0.000711422 1e-05
-0.000316327 0.000712106 1e-05
-0.000157927 0.000713379 1e-05
0 0.000715136 1e-05
0.000105677 0.00072121 1e-05
0.000211515 0.000722964 1e-05
0.000317349 0.000724908 1e-05
0.00042318 0.000727022 1e-05
0.000528387 0.000729275 1e-05
0.000634886 0.000736557 1e-05
0.000741606 0.000739005 1e-05
0.000848328 0.000741372 1e-05
0.000955051 0.000743666 1e-05
0.00106088 0.000746036 1e-05
0.00116821 0.00075364 1e-05
0.00127576 0.000756727 1e-05
0.00138333 0.00075911 1e-05
0.0014909 0.000761463 1e-05
0.00159752 0.000764773 1e-05
0.00170568 0.000772895 1e-05
0.00181407 0.000776851 1e-05
0.00192251 0.000779299 1e-05
0.00203095 0.0007818 1e-05
0.00213833 0.000786196 1e-05
0.00224733 0.000795151 1e-05
0.00235657 0.000800484 1e-05
0.00246589 0.000803617 1e-05
0.00257521 0.00080699 1e-05
0.00268334 0.000813275 1e-05
0.00279319 0.000823835 1e-05
0.00290326 0.000831808 1e-05
0.00301348 0.000837205 1e-05
0.00312368 0.000843126 1e-05
0.00323259 0.000852586 1e-05
0.00334329 0.00086571 1e-05
0.00345414 0.000877538 1e-05
0.00356512 0.000888061 1e-05
0.00367604 0.000899205 1e-05
0.00378611 0.000912818 1e-05
0.00389767 0.000929165 1e-05
0.00400928 0.000945239 1e-05
0.00412088 0.000961342 1e-05
0.00423236 0.000978257 1e-05
0.00434393 0.000996278 1e-05
0.00444155 0.00101346 1e-05
0.00453913 0.00103083 1e-05
0.00463662 0.00104871 1e-05
0.00473401 0.0010671 1e-05
0.00481034 0.00108192 1e-05
0.00482949 0.00108572 1e-05
0.00484864 0.00108955 1e-05
0.00486778 0.00109339 1e-05
0.00488692 0.00109725 1e-05
0.00490609 0.00110114 1e-05
0.0050194 0.0011241 1e-05
0.00513257 0.00114771 1e-05
0.00524563 0.00117186 1e-05
0.00535857 0.00119653 1e-05
0.00547262 0.00122184 1e-05
0.00558681 0.001247 1e-05
0.00570084 0.00127287 1e-05
0.00581471 0.00129941 1e-05
0.00592853 0.00132619 1e-05
0.00604356 0.00135305 1e-05
0.00615863 0.00137971 1e-05
0.0062736 0.00140682 1e-05
0.00638853 0.00143413 1e-05
0.00650344 0.00146147 1e-05
0.00661893 0.00148898 1e-05
0.00664581 0.00149535 1e-05
0.00667268 0.00150174 1e-05
0.00669955 0.00150812 1e-05
0.00672642 0.0015145 1e-05
[...]
POINT_DATA 10873
 FIELD attributes 2
p 1 10873 float
95.9385 111.175 115.521 118.12 118.834 116.694 105.883 743.488 722.131 559.2 628.474 268.023 253.777 230.021 -77.2796 -16.5435 75.9901 -64.4022 -175.665 -84.702 87.6834 -57.7439 -198.749 -132.339 -73.376 -99.0388 -240.536 -247.184 -229.039 -224.101 -240.009 -257.671 -283.518 -301.019 -319.661 -339.398 -338.999 -312.682 -358.406 -405.92 -418.801 -420.678 -426.738 -430.285 -433.489 -437.518 -420.367 -398.312 -381.662 -366.95 -345.665 -325.707 -325.454 -312.886 -301.309 -286.888 -271.882 -253.728 -245.85 -238.192 -230.765 -230.13 -230.666 -196.688 -164.73 -155.337 -163.646 -168.586 -133.661 -109.846 -101.594 -100.472 -110.267 -81.2398 -73.9152 -66.8563 -60.1083 -63.2488 -48.5571 -42.9525 -37.7411 -32.9903 -36.0723 -25.2646 -22.8683 -21.0389 -19.8188 -43.6977 -21.1934 -21.9982 -25.402 -38.3168 -117.184 -113.983 -125.551 -166.037 -206.622 -236.046 -258.245 -280.483 -306.76 -341.29 -409.18 -464.78 -520.925 -577.479 -641.118 -710.697 -823.812 -935.934 -1049.38 -1191.64 -1460.58 -1460.58 -1460.58 -1460.58 -1460.58 -1460.58 -1459.04 -1455.79 -1451.23 -1445.7 -1439.17 -1390.23 -1338.44 -1286.57 -1235.2 -732.711 -728.146 -724.163 -720.706 -717.249 -698.16
79.5792 79.4733 54.7906 -23.2963 -34.5945 -42.8684 3.12925 -64.6431 -164.131 -160.323 -153.838 -167.702 -182.584 -202.586 -220.347 -239.328 -259.448 -255.923 -248.687 -268.168 -288.364 -306.987 -313.368 -320.904 -327.369 -338.766 -335.262 -325.316 -317.135 -313.344 -309.487 -302.324 -295.327 -292.298 -279.853 -268.874 -257.241 -239.644 -219.32 -213.041 -206.892 -201.791 -200.56 -199.613 -169.478 -139.093 -127.538 -130.278 -131.954 -114.424 -103.46 -98.5513 -93.6929 -87.543 -84.5076 -81.4972 -78.5128 -76.6002 -76.8918 -62.6443 -53.9462 -45.3994 -43.9344 -45.2538 -29.7942 -14.2888 -7.95029 -10.2658 -12.512 2.94153 14.2002 18.3178 20.3086 17.1508 31.0765 33.6908 36.2873 38.8618 38.5341 42.2078 42.3501 42.4806 42.5985 42.643 43.1367 43.6222 44.097 44.5585 41.006 41.978 42.3547 42.2275 36.7846 17.5241 13.2951 7.26341 1.31177 -4.59068 -11.6668 -14.7568 -19.0995 -23.3955 -27.6594 -32.71 -33.5966 -36.236 -38.8265 -41.3818 -45.1574 -44.8732 -46.5652 -48.2113 -49.8232 -52.8382 -52.0411 -53.1441 -54.2088 -55.2443 -57.645 -56.5139 -57.1564 -57.768 -58.3558 -60.2467 -58.8765 -59.1837 -59.4663 -59.7295 -61.2572 -59.7446 -59.7543 -59.7443 -59.7185 -60.8801 -59.1591 -58.8543 -58.5323 -58.1965 -59.0346 -57.0032 -56.0357 -55.0498 -54.0489 -54.1784 -51.5245 -50.0246 -48.5044 -46.9673 -47.0845 -44.3802 -43.6543 -42.9223 -42.185 -43.7957 -41.9793 -41.7868 -41.5958 -41.459 -43.0246 -41.702 -41.1268 -40.6791 -40.4657 -41.164 -40.1739 -39.3753 -38.689 -38.2752 -38.2753 -37.4944 -36.662 -35.7886 -35.1719 -34.7344 -34.0721 -33.3612 -32.4416 -31.8386 -31.3239 -30.864 -30.3738 -30.0164 -29.7783 -29.614 -29.5042 -29.5168 -29.876 -30.3245 -30.9263 -31.3208 -32.1216 -32.9403 -33.7768 -34.447 -34.5919 -34.7374 -34.8835 -35.0259 -35.0212 -36.3652 -37.6167 -38.8812 -39.9517 -40.3854 -42.102 -43.829 -45.1756 -46.0223 -46.8753 -48.6473 -50.0928 -51.2635 -52.4344 -53.5914 -54.0038 -54.3199 -54.6147 -54.9096 -55.2033 -56.1358 -57.0683 -58.0008 -58.8946 -59.5073 -60.7491 -62.0044 -63.2769 -64.1452 -65.0028 -66.2577 -67.4833 -68.2937 -69.1193 -69.957 -70.9739 -71.6163 -72.2435 -72.8744 -73.5819 -73.7005 -73.8192 -73.938 -74.057 -74.1533 -74.8053 -75.5096 -76.2214 -76.9337 -77.5556 -77.9647 -78.4579 -79.0969 -79.697 -80.3013 -80.6149 -80.9393 -81.3083 -81.8703 -82.4425 -82.6541 -82.8993 -83.1822 -83.531 -84.0695 -84.1878 -84.4225 -84.672 -84.9366 -85.3387 -85.438 -85.617 -85.8083 -86.0121 -86.3684 -86.3752 -86.382 -86.3888 -86.3956 -86.4063 -86.5901 -86.7941 -87.0143 -87.2508 -87.642 -87.6609 -87.8397 -88.035 -88.2468 -88.6854 -88.6341 -88.7753 -88.9327 -89.1063 -89.4904 -89.4103 -89.4916 -89.5883 -89.7008 -89.9462 -89.8722 -89.8927 -89.9276 -89.9773 -90.0005 -90.0119 -90.0236 -90.0355 -90.0477 -90.0708 -90.032 -90.029 -90.0405 -90.0668 -90.2139 -89.9589 -89.9396 -89.9331 -89.9465 -90.1728 -89.7888 -89.6297 -89.6158 -89.739 -89.9334 -89.5745 -89.2267 -89.1392 -89.2827 -89.4394 -89.1048 -88.8171 -88.6303 -88.526 -88.6426 -88.3939 -88.2315 -88.0752 -87.925 -87.8031 -87.7696 -87.7367 -87.7043 -87.6724 -87.6418 -87.3651 -87.1781 -86.999 -86.8315 -86.6782 -86.3086 -85.9455 -85.6776 -85.5241 -85.3769 -85.0455 -84.7384 -84.4436 -84.1548 -83.9059 -83.8944 -83.8828 -83.8713 -83.8595 -83.8473 -83.5468 -83.2653 -82.9886 -82.7147 -82.4412 -82.0894 -81.7416 -81.4081 -81.1387 -80.9152 -80.7899 -80.6686 -80.5516 -80.4353 -80.3241 -80.1485 -79.9742 -79.8013 -79.6342 -79.4709 -79.1492 -78.8308 -78.5622 -78.3585 -78.1569 -78.043 -77.935 -77.8387 -77.7431 -77.6524 -77.5244 -77.3974 -77.2712 -77.1606 -77.055 -76.8401 -76.6281 -76.4355 -76.2782 -76.1363 -76.1015 -76.0673 -76.0363 -76.0055 -75.9756 -75.8453 -75.7169 -75.5904 -75.4806 -75.373 -75.2719 -75.1726 -75.0745 -74.9792 -74.8957 -74.8531 -74.8108 -74.7686 -74.7217 -74.6749 -74.5267 -74.3829 -74.227 -74.0721 -73.9217 -73.913 -73.9043 -73.8924 -73.8795 -73.8669 -73.6927 -73.5234 -73.3472 -73.128 -72.8972 -72.8529 -72.8091 -72.7555 -72.6953 -72.6412 -72.4294 -72.2207 -71.9852 -71.7074 -71.4019 -71.3263 -71.2511 -71.163 -71.0611 -70.9675 -70.6447 -70.322 -69.9194 -69.4269 -68.9469 -68.8122 -68.6773 -68.4926 -68.2837 -68.0709 -67.6425 -67.2174 -66.7576 -66.0958 -65.4923 -65.0799 -64.6682 -63.9772 -63.2988 -62.4315 -62.3223 -62.2133 -62.1046 -61.9658 -61.8116 -61.1094 -60.3636 -59.6328 -58.643 -57.6701 -57.1087 -56.491 -55.627 -54.7768 -53.8499 -53.6339 -53.3196 -52.9814 -52.6462 -52.2456 -51.8287 -51.4165 -51.0089 -50.6041 -50.1333 -49.4651 -48.7556 -48.061 -47.3168 -46.5369 -45.9149 -45.3132 -44.6554 -43.9311 -43.228 -42.6452 -42.0816 -41.4801 -40.839 -40.2146 -39.6649 -39.1221 -38.5771 -38.0314 -37.4861 -36.9754 -36.4837 -36.006 -35.5374 -35.0715 -34.6121 -34.1924 -33.7875 -33.3926 -32.9997 -32.5934 -32.2474 -31.919 -31.5994 -31.2838 -30.9366 -30.652 -30.4017 -30.1593 -29.9233 -29.6402 -29.3928 -29.2174 -29.052 -28.8938 -28.6697 -28.455 -28.3248 -28.2467 -28.1751 -28.0411 -27.9153 -27.8021 -27.7669 -27.7524 -27.681 -27.6337 -27.6006 -27.5744 -27.6214 -27.6278 -27.6524 -27.679 -27.7074 -27.7336 -27.7584 -27.7846 -27.8122 -27.8411 -27.8635 -27.9481 -28.0818 -28.2212 -28.3634 -28.5093 -28.6726 -28.8417 -29.0275 -29.253 -29.4856 -29.7262 -29.9749 -30.229 -30.4877 -30.7079 -30.7223 -30.7367 -30.7511 -30.7651 -30.7787 -31.0977 -31.4268 -31.7601 -32.0927 -32.4278 -32.8023 -33.1808 -33.5507 -33.9356 -34.3476 -34.5047 -34.6607 -34.8155 -34.9706 -35.119 -35.3945 -35.6713 -35.9495 -36.2209 -36.4919 -36.9593 -37.4297 -37.8882 -38.3558 -38.8413 -38.9784 -39.1149 -39.2484 -39.3821 -39.5121 -39.8769 -40.2427 -40.6096 -40.9741 -41.3429 -41.8117 -42.2814 -42.7483 -43.2164 -43.6488 -43.719 -43.7893 -43.8596 -43.9296 -43.9998 -44.5419 -45.0882 -45.6343 -46.169 -46.7109 -46.8636 -47.0165 -47.1677 -47.3188 -47.4676 -47.8615 -48.2555 -48.6491 -49.0404 -49.4343 -49.7383 -50.0422 -50.3416 -50.6399 -50.933 -51.1704 -51.4079 -51.6446 -51.8776 -52.1112 -52.5599 -53.0086 -53.4493 -53.8884 -54.324 -54.4009 -54.4778 -54.5545 -54.63 -54.7054 -55.2094 -55.7134 -56.211 -56.6985 -57.1846 -57.2883 -57.392 -57.49 -57.5874 -57.6855 -58.0597 -58.4343 -58.8078 -59.1613 -59.5131 -59.8189 -60.1251 -60.4075 -60.6895 -60.9828 -61.1289 -61.2751 -61.4213 -61.5533 -61.6844 -62.1012 -62.5191 -62.9087 -63.2821 -63.6524 -63.7569 -63.8598 -63.9502 -64.0406 -64.1333 -64.3997 -64.6669 -64.9349 -65.1661 -65.3884 -65.7308 -66.0653 -66.3443 -66.6253 -66.9029 -66.9245 -66.9446 -66.9611 -66.9775 -66.9942 -67.2384 -67.4845 -67.7326 -67.9331 -68.1081 -68.3515 -68.5852 -68.7455 -68.9095 -69.0619 -69.1085 -69.1446 -69.1707 -69.197 -69.2247 -69.3349 -69.4474 -69.5621 -69.6466 -69.6869 -69.8119 -69.9414 -70.0119 -70.0166 -70.0276 -70.1152 -70.1433 -70.1392 -70.1428 -70.135 -70.1514 -70.1352 -70.1198 -70.1053 -70.0893 -70.0743 -70.0627 -70.0545 -70.0495 -69.986 -69.9561 -69.8915 -69.8353 -69.762 -69.6201 -69.5732 -69.5055 -69.4133 -69.2627 -69.0878 -69.0081 -68.9215 -68.7884 -68.5902 -68.3788 -68.2595 -68.1216 -67.9435 -67.7321 -67.4856 -67.3239 -67.1082 -66.8852 -66.6716 -66.4113 -66.2528 -66.0569 -65.8657 -65.6792 -65.5739 -65.4947 -65.4168 -65.3401 -65.2647 -65.1607 -64.8997 -64.6218 -64.3541 -64.0653 -63.7285 -63.4542 -63.1897 -62.8816 -62.5299 -62.1813 -61.9313 -61.6529 -61.3619 -61.0764 -60.8595 -60.7966 -60.7342 -60.6721 -60.6024 -60.5246 -60.1862 -59.8484 -59.5187 -59.1408 -58.7531 -58.4324 -58.1009 -57.7449 -57.3945 -57.1068 -57.069 -57.0312 -56.9935 -56.951 -56.907 -56.5217 -56.1465 -55.7772 -55.3693 -54.9586 -54.72 -54.4805 -54.2249 -53.9709 -53.737 -53.5792 -53.4221 -53.2657 -53.0936 -52.9199 -52.4976 -52.0792 -51.6413 -51.2021 -50.7662 -50.708 -50.6498 -50.588 -50.5263 -50.4651 -50.0713 -49.6794 -49.2882 -48.88 -48.4694 -48.2135 -47.9581 -47.6945 -47.4306 -47.1735 -46.9491 -46.725 -46.5001 -46.2669 -46.0332 -45.5751 -45.1178 -44.6489 -44.1788 -43.7204 -43.6674 -43.6144 -43.5612 -43.5073 -43.4533 -42.9016 -42.3556 -41.8149 -41.2728 -40.7295 -40.6137 -40.4979 -40.3825 -40.2671 -40.1515 -39.7042 -39.2569 -38.8117 -38.3722 -37.9328 -37.6978 -37.4628 -37.2323 -37.0033 -36.7728 -36.4303 -36.0878 -35.7472 -35.414 -35.0811 -34.6862 -34.2911 -33.9022 -33.5147 -33.1208 -32.9317 -32.7425 -32.5538 -32.368 -32.1824 -31.5903 -30.9978 -30.4298 -29.8673 -29.313 -29.2952 -29.2773 -29.2602 -29.2432 -29.2261 -28.6826 -28.1389 -27.5965 -27.0759 -26.5582 -26.306 -26.0538 -25.8039 -25.5541 -25.2985 -25.0074 -24.7162 -24.425 -24.1351 -23.8462 -23.2998 -22.7532 -22.2203 -21.6873 -21.1618 -21.1422 -21.1229 -21.1059 -21.0888 -21.0717 -20.5839 -20.0962 -19.6087 -19.183 -18.7704 -18.4413 -18.1119 -17.7808 -17.4499 -17.1017 -16.9958 -16.8898 -16.7839 -16.673 -16.5607 -16.0999 -15.6452 -15.1952 -14.7505 -14.3097 -14.0097 -13.7261 -13.48 -13.2338 -12.9737 -12.8428 -12.712 -12.5812 -12.4692 -12.3698 -12.0421 -11.7165 -11.3928 -11.0731 -10.7565 -10.469 -10.1788 -9.88498 -9.59146 -9.27233 -9.23614 -9.19995 -9.16377 -9.12751 -9.0912 -8.76881 -8.4563 -8.14436 -7.8727 -7.63104 -7.38022 -7.12982 -6.87844 -6.62687 -6.37703 -6.24513 -6.11307 -5.98098 -5.849 -5.7087 -5.58368 -5.45877 -5.33397 -5.21069 -5.0924 -4.84049 -4.60637 -4.37651 -4.19329 -4.02227 -3.83915 -3.65645 -3.49597 -3.34219 -3.19312 -3.06277 -2.9149 -2.76546 -2.61635 -2.44705 -2.42244 -2.39783 -2.37324 -2.34865 -2.32297 -2.14922 -1.97927 -1.80981 -1.64518 -1.51465 -1.37118 -1.23049 -1.0988 -0.991736 -0.885526 -0.765666 -0.64612 -0.525056 -0.402033 -0.279693 -0.146935 -0.0315069 0.0760831 0.183429 0.28 0.359608 0.433149 0.506531 0.579752 0.667281 0.68421 0.701129 0.718039 0.734941 0.751099 0.845006 0.938388 1.03154 1.12447 1.21208 1.30658 1.393 1.47919 1.56153 1.63305 1.71144 1.7892 1.8662 1.94023 2.01297 2.09138 2.16962 2.24385 2.31089 2.37765 2.45037 2.52294 2.5933 2.66152 2.72949 2.80029 2.87095 2.93207 2.9843 3.03632 3.09231 3.14751 3.19581 3.2429 3.28965 3.34235 3.39369 3.44164 3.48922 3.53653 3.58722 3.63596 3.68196 3.72682 3.77073 3.81771 3.85961 3.89625 3.92963 3.95959 3.99168 4.02517 4.05995 4.0974 4.13778 4.18052 4.22118 4.25978 4.29825 4.33659 4.37857 4.41569 4.44677 4.47413 4.49885 4.52725 4.55341 4.57539 4.59665 4.61757 4.64394 4.66932 4.69117 4.71375 4.73648 4.76376 4.79116 4.82035 4.85326 4.8863 4.92161 4.95692 4.99009 5.02116 5.05224 5.08553 5.11883 5.15139 5.1843 5.21722 5.25388 5.29054 5.32369 5.35384 5.38399 5.41646 5.44892 5.47972 5.50855 5.53738 5.56395 5.59052 5.61952 5.65092 5.68234 5.71007 5.73781 5.76867 5.80231 5.83596 5.86708 5.8982 5.93278 5.97013 6.00749 6.04306 6.07863 6.11624 6.15521 6.19418 6.23214 6.27011 6.30679 6.34146 6.37614 6.40996 6.44378 6.47618 6.50674 6.53729 6.5665 6.5957 6.6266 6.65941 6.69222 6.72336 6.75448 6.7873 6.82246 6.85764 6.89121 6.9241 6.95487 6.98471 7.014 7.04142 7.06953 7.09786 7.12614 7.1553 7.18069 7.20818 7.23562 7.26302 7.27867 7.28363 7.2886 7.29357 7.29853 7.30396 7.33401 7.36391 7.39376 7.4235 7.45295 7.47974 7.50639 7.53219 7.5569 7.58182 7.60387 7.62551 7.64667 7.66775 7.6891 7.69088 7.69257 7.69415 7.69573 7.69726 7.71385 7.73039 7.7469 7.76265 7.77798 7.79201 7.80566 7.81365 7.82161 7.82851 7.82893 7.82927 7.82941 7.82955 7.82968 7.833 7.83632 7.83964 7.84227 7.8447 7.84317 7.84189 7.84133 7.84076 7.84015 7.8401 7.84002 7.83992 7.83981 7.8397 7.83617 7.83253 7.82878 7.82337 7.81677 7.80782 7.79877 7.78905 7.77785 7.76657 7.75291 7.73988 7.72684 7.71359 7.6995 7.68278 7.66432 7.6457 7.62593 7.60193 7.57554 7.54884 7.52136 7.49135 7.46009 7.43511 7.40813 7.37792 7.34751 7.33195 7.31996 7.30796 7.29595 7.28222 7.26813 7.22235 7.17642 7.13221 7.08875 7.04417 7.04189 7.0396 7.03739 7.0352 7.03302 6.99033 6.94762 6.90521 6.8638 6.82213 6.81007 6.79801 6.78944 6.78207 6.77436 6.74309 6.71192 6.68358 6.66636 6.64954 6.63076 6.61263 6.59658 6.58064 6.55494 6.55299 6.55104 6.5491 6.54724 6.54555 6.53167 6.52181 6.51306 6.51143 6.52244 6.53061 6.54288 6.56475 6.59649 6.63181 6.66498 6.70681 6.75252 6.79913 6.83489 6.83703 6.83917 6.8413 6.84391 6.84672 6.90139 6.957 7.01226 7.07827 7.14783 7.16598 7.18412 7.20262 7.22143 7.23705 7.28568 7.33411 7.38285 7.43177 7.48363 7.49011 7.49659 7.50277 7.50663 7.51038 7.55773 7.60476 7.64199 7.66533 7.68452 7.69918 7.71383 7.72075 7.72767 7.73465 7.74626 7.75788 7.7695 7.7634 7.75575 7.77238 7.78793 7.77852 7.76912 7.7599 7.75816 7.75642 7.75468 7.74897 7.74304 7.72868 7.7121 7.68899 7.64059 7.5799 7.57425 7.56854 7.5563 7.54235 7.52853 7.48273 7.43667 7.38735 7.32268 7.23608 7.20631 7.1763 7.14087 7.10097 7.06155 6.98273 6.90353 6.82354 6.74273 6.62575 6.58766 6.54946 6.5114 6.4744 6.43752 6.2941 6.14954 6.00675 5.86505 5.72589 5.68424 5.64432 5.60878 5.57313 5.52887 5.4177 5.30613 5.19418 5.08976 4.99341 4.8377 4.6808 4.54631 4.43272 4.31764 4.18018 4.04152 3.91972 3.81415 3.70633 3.5796 3.45117 3.34405 3.25757 3.16655 3.11118 3.05616 3.00675 2.95661 2.94983 2.88455 2.81694 2.75047 2.6851 2.6123 2.59014 2.56774 2.54508 2.52179 2.50502 2.42602 2.34894 2.27461 2.20131 2.16747 2.09338 2.0206 1.95019 1.88047 1.82242 1.81485 1.80775 1.80104 1.79435 1.78768 1.72274 1.65846 1.59481 1.5383 1.48091 1.3796 1.28108 1.21629 1.15477 1.06062 1.05622 1.05183 1.04833 1.04665 1.04482 0.943353 0.854043 0.787661 0.764542 0.74236 0.723326 0.713778 0.711498 0.720095 0.736908 0.754442 0.775104 0.847358 0.922918 0.999809 0.999996 1.00018 1.00041 1.00084 1.00127 1.07165 1.1461 1.14913 0.994135 0.839175 0.826234 0.813296 0.815029 0.836612 0.857998 0.693209 0.525968 0.589846 0.810989 1.03146 1.03112 1.03077 1.03086 1.03129 1.03172 1.23804 1.44398 1.41084 0.815134 0.0980968 0.118781 0.13938 0.115027 0.0575099 0