# vtk DataFile Version 2.0
track0
ASCII
DATASET POLYDATA
POINTS 10873 double
-0.0205 0.001 1e-05
-0.0204991 0.00100536 1e-05
-0.0204976 0.00101063 1e-05
-0.0204947 0.00101518 1e-05
-0.0204905 0.00101864 1e-05
-0.0204746 0.00102682 1e-05
-0.0201831 0.00105563 1e-05
-0.0203616 0.00128793 1e-05
-0.0204488 0.00141936 1e-05
-0.0201625 0.0014444 1e-05
-0.020152 0.00173164 1e-05
-0.0202219 0.00184007 1e-05
-0.0200496 0.00193025 1e-05
-0.0200809 0.00212222 1e-05
-0.0201295 0.00229098 1e-05
-0.0200088 0.00238763 1e-05
-0.0199912 0.00254122 1e-05
-0.0200042 0.00269528 1e-05
-0.0199828 0.00277425 1e-05
-0.0198691 0.00287784 1e-05
-0.019818 0.00302292 1e-05
-0.0198055 0.00317623 1e-05
-0.0197601 0.00329221 1e-05
-0.0196348 0.00340323 1e-05
-0.0195487 0.00354672 1e-05
-0.0194778 0.0036983 1e-05
-0.0193912 0.00384149 1e-05
-0.0193843 0.00384734 1e-05
-0.0193109 0.00390812 1e-05
-0.019244 0.00397601 1e-05
-0.0191791 0.00404587 1e-05
-0.0191113 0.00411286 1e-05
-0.0190172 0.0041981 1e-05
-0.0189565 0.00424695 1e-05
-0.0188941 0.00429351 1e-05
-0.01883 0.00433776 1e-05
-0.0187643 0.0043797 1e-05
-0.018659 0.00444232 1e-05
-0.0184267 0.00456542 1e-05
-0.0181855 0.00466981 1e-05
-0.0179371 0.00475613 1e-05
-0.0176828 0.00482258 1e-05
-0.0174976 0.00485417 1e-05
-0.0172058 0.00488494 1e-05
-0.0169124 0.00488674 1e-05
-0.0166198 0.00486446 1e-05
-0.0163296 0.00482134 1e-05
-0.0160387 0.00475731 1e-05
-0.0158285 0.00469431 1e-05
-0.0156219 0.00462014 1e-05
-0.0154196 0.00453516 1e-05
-0.0152201 0.00444366 1e-05
-0.0152174 0.00444232 1e-05
-0.0151015 0.00438422 1e-05
-0.0149884 0.00432089 1e-05
-0.0148785 0.00425228 1e-05
-0.0147708 0.00418009 1e-05
-0.0146381 0.00408524 1e-05
-0.0145768 0.00403766 1e-05
-0.0145165 0.00398897 1e-05
-0.014457 0.00393916 1e-05
-0.0143985 0.0038882 1e-05
-0.0143524 0.00384734 1e-05
-0.0142284 0.00373631 1e-05
-0.0141109 0.00361837 1e-05
-0.014001 0.00349338 1e-05
-0.013897 0.0033634 1e-05
-0.0138426 0.00329221 1e-05
-0.0137655 0.00318862 1e-05
-0.013696 0.00307984 1e-05
-0.0136327 0.00296726 1e-05
-0.0135733 0.00285263 1e-05
-0.0135362 0.00277425 1e-05
-0.0134932 0.0026776 1e-05
-0.0134573 0.00257808 1e-05
-0.0134255 0.0024772 1e-05
-0.0133982 0.00237499 1e-05
-0.0133803 0.00229098 1e-05
-0.0133653 0.0022008 1e-05
-0.0133563 0.00210982 1e-05
-0.0133526 0.00201847 1e-05
-0.013355 0.00192709 1e-05
-0.0133636 0.00184007 1e-05
-0.0133784 0.00175593 1e-05
-0.013401 0.00167351 1e-05
-0.0134304 0.0015933 1e-05
-0.0134668 0.001516 1e-05
-0.0135235 0.00141936 1e-05
-0.013581 0.00134085 1e-05
-0.0136494 0.00127164 1e-05
-0.0137236 0.00120866 1e-05
-0.0138024 0.00115143 1e-05
-0.0139963 0.00102682 1e-05
-0.0141247 0.000957586 1e-05
-0.0142597 0.000902614 1e-05
-0.0143981 0.000856446 1e-05
-0.0145371 0.000812311 1e-05
-0.0146381 0.000781915 1e-05
-0.0147221 0.000757645 1e-05
-0.0148064 0.000734719 1e-05
-0.0148911 0.000712931 1e-05
-0.0149762 0.00069316 1e-05
-0.01515 0.000660566 1e-05
-0.0153278 0.000638011 1e-05
-0.0155059 0.000618864 1e-05
-0.0156843 0.000602371 1e-05
-0.0158629 0.000587868 1e-05
-0.0160387 0.00056818 1e-05
-0.0162831 0.000518312 1e-05
-0.0165314 0.000493577 1e-05
-0.0167807 0.000482528 1e-05
-0.0170301 0.000475696 1e-05
-0.0174976 0.000406189 1e-05
-0.0174976 0.000406189 1e-05
-0.0174976 0.000406189 1e-05
-0.0174976 0.000406189 1e-05
-0.0174976 0.000406189 1e-05
-0.0174976 0.000406189 1e-05
-0.0174951 0.000388719 1e-05
-0.0174897 0.000371928 1e-05
-0.017482 0.000356054 1e-05
-0.0174726 0.000341123 1e-05
-0.0174557 0.000318841 1e-05
-0.0173838 0.000255072 1e-05
-0.0172967 0.000214399 1e-05
-0.0172047 0.000186605 1e-05
-0.0171106 0.000167065 1e-05
-0.0160387 4.45914e-06 1e-05
-0.0160288 3.56731e-06 1e-05
-0.0160188 3.1117e-06 1e-05
-0.0160088 2.69797e-06 1e-05
-0.0159989 2.28424e-06 1e-05
-0.0159439 0 1e-05
-0.0205 0.00367778 1e-05
-0.0203955 0.00371169 1e-05
-0.0203045 0.00377319 1e-05
-0.0202171 0.00383976 1e-05
-0.020198 0.00384734 1e-05
-0.0199618 0.00393432 1e-05
-0.019766 0.00409247 1e-05
-0.0196202 0.00429759 1e-05
-0.0194754 0.00444232 1e-05
-0.0193838 0.00449618 1e-05
-0.0192964 0.00455671 1e-05
-0.0192133 0.00462297 1e-05
-0.0191277 0.00468613 1e-05
-0.0190172 0.00476167 1e-05
-0.0189142 0.00482534 1e-05
-0.0188085 0.00488448 1e-05
-0.0187005 0.00493918 1e-05
-0.0185903 0.00498954 1e-05
-0.0183694 0.00508 1e-05
-0.018195 0.00513515 1e-05
-0.0180186 0.00518331 1e-05
-0.0178404 0.00522465 1e-05
-0.0176608 0.00525905 1e-05
-0.0174976 0.0052821 1e-05
-0.0172058 0.00531006 1e-05
-0.0169127 0.00531496 1e-05
-0.0166201 0.00529802 1e-05
-0.0163293 0.00526087 1e-05
-0.0160387 0.00520596 1e-05
-0.0159397 0.00518077 1e-05
-0.0158413 0.00515356 1e-05
-0.0157434 0.00512441 1e-05
-0.0156459 0.00509404 1e-05
-0.0156028 0.00508 1e-05
-0.0154099 0.00501591 1e-05
-0.0152203 0.00494243 1e-05
-0.0150348 0.00485919 1e-05
-0.0148536 0.00476695 1e-05
-0.0146381 0.00464753 1e-05
-0.0145715 0.00460648 1e-05
-0.0145054 0.00456455 1e-05
-0.01444 0.00452171 1e-05
-0.014375 0.00447807 1e-05
-0.0143224 0.00444232 1e-05
-0.014149 0.00432332 1e-05
-0.0139821 0.00419531 1e-05
-0.0138229 0.00405776 1e-05
-0.0136684 0.00391501 1e-05
-0.0135981 0.00384734 1e-05
-0.0135372 0.00378756 1e-05
-0.0134783 0.0037257 1e-05
-0.013421 0.00366246 1e-05
-0.0133645 0.00359844 1e-05
-0.0132934 0.00351545 1e-05
-0.0132567 0.0034708 1e-05
-0.0132204 0.00342578 1e-05
-0.0131846 0.00338038 1e-05
-0.0131492 0.0033346 1e-05
-0.0131171 0.00329221 1e-05
-0.0130391 0.00318862 1e-05
-0.012963 0.0030836 1e-05
-0.0128897 0.00297658 1e-05
-0.0128197 0.00286743 1e-05
-0.0127625 0.00277425 1e-05
-0.0127049 0.0026776 1e-05
-0.0126487 0.00258012 1e-05
-0.0125941 0.00248176 1e-05
-0.0125409 0.00238259 1e-05
-0.0124942 0.00229098 1e-05
-0.0124507 0.0022008 1e-05
-0.0124075 0.00211048 1e-05
-0.0123646 0.00202003 1e-05
-0.0123219 0.00192945 1e-05
-0.0122811 0.00184007 1e-05
-0.0122463 0.00175593 1e-05
-0.0122101 0.00167241 1e-05
-0.0121726 0.00158946 1e-05
-0.0121336 0.00150718 1e-05
-0.0120896 0.00141936 1e-05
-0.0120722 0.00138547 1e-05
-0.0120534 0.00135233 1e-05
-0.0120334 0.0013199 1e-05
-0.0120121 0.00128828 1e-05
-0.0120025 0.00127517 1e-05
-0.0119648 0.0012255 1e-05
-0.0119239 0.00117836 1e-05
-0.0118799 0.0011341 1e-05
-0.0118329 0.00109302 1e-05
-0.0117455 0.00102682 1e-05
-0.0116311 0.000953567 1e-05
-0.0115087 0.000894532 1e-05
-0.0113817 0.000846245 1e-05
-0.0112518 0.000806402 1e-05
-0.0107632 0.000718146 1e-05
-0.0105252 0.000727452 1e-05
-0.0102871 0.000724304 1e-05
-0.010049 0.000722675 1e-05
-0.00981081 0.000721978 1e-05
-0.00957337 0.000721871 1e-05
-0.00934491 0.000731439 1e-05
-0.00911628 0.000728072 1e-05
-0.00888763 0.000725771 1e-05
-0.00865898 0.000724201 1e-05
-0.00843108 0.000723145 1e-05
-0.00821175 0.000732229 1e-05
-0.00799227 0.000728219 1e-05
-0.00777277 0.000725216 1e-05
-0.00755327 0.000722938 1e-05
-0.00733443 0.000721193 1e-05
-0.00712387 0.000729633 1e-05
-0.00691317 0.000725487 1e-05
-0.00670246 0.000722259 1e-05
-0.00649174 0.000719713 1e-05
-0.0062816 0.00071768 1e-05
-0.00607944 0.000725415 1e-05
-0.00587718 0.000721523 1e-05
-0.0056749 0.000718422 1e-05
-0.00547262 0.000715921 1e-05
-0.00527083 0.000713883 1e-05
-0.00507675 0.000720924 1e-05
-0.00488258 0.000717431 1e-05
-0.00468839 0.0007146 1e-05
-0.0044942 0.000712283 1e-05
-0.00430044 0.000710368 1e-05
-0.00411412 0.000716769 1e-05
-0.00392771 0.0007137 1e-05
-0.0037413 0.000711178 1e-05
-0.00355488 0.000709086 1e-05
-0.00336883 0.000707338 1e-05
-0.00318995 0.00071317 1e-05
-0.00301099 0.000710486 1e-05
-0.00283203 0.000708266 1e-05
-0.00265307 0.000706417 1e-05
-0.00247443 0.000704868 1e-05
-0.0023027 0.000710253 1e-05
-0.0021309 0.000707982 1e-05
-0.00195909 0.000706135 1e-05
-0.00178728 0.00070463 1e-05
-0.00161577 0.000703406 1e-05
-0.0014509 0.000708621 1e-05
-0.00128596 0.000707029 1e-05
-0.00112101 0.000706002 1e-05
-0.000956054 0.000705437 1e-05
-0.000791418 0.000705252 1e-05
-0.000633135 0.000711444 1e-05
-0.00047473 0.000711422 1e-05
-0.000316327 0.000712106 1e-05
-0.000157927 0.000713379 1e-05
0 0.000715136 1e-05
0.000105677 0.00072121 1e-05
0.000211515 0.000722964 1e-05
0.000317349 0.000724908 1e-05
0.00042318 0.000727022 1e-05
0.000528387 0.000729275 1e-05
0.000634886 0.000736557 1e-05
0.000741606 0.000739005 1e-05
0.000848328 0.000741372 1e-05
0.000955051 0.000743666 1e-05
0.00106088 0.000746036 1e-05
0.00116821 0.00075364 1e-05
0.00127576 0.000756727 1e-05
0.00138333 0.00075911 1e-05
0.0014909 0.000761463 1e-05
0.00159752 0.000764773 1e-05
0.00170568 0.000772895 1e-05
0.00181407 0.000776851 1e-05
0.00192251 0.000779299 1e-05
0.00203095 0.0007818 1e-05
0.00213833 0.000786196 1e-05
0.00224733 0.000795151 1e-05
0.00235657 0.000800484 1e-05
0.00246589 0.000803617 1e-05
0.00257521 0.00080699 1e-05
0.00268334 0.000813275 1e-05
0.00279319 0.000823835 1e-05
0.00290326 0.000831808 1e-05
0.00301348 0.000837205 1e-05
0.00312368 0.000843126 1e-05
0.00323259 0.000852586 1e-05
0.00334329 0.00086571 1e-05
0.00345414 0.000877538 1e-05
0.00356512 0.000888061 1e-05
0.00367604 0.000899205 1e-05
0.00378611 0.000912818 1e-05
0.00389767 0.000929165 1e-05
0.00400928 0.000945239 1e-05
0.00412088 0.000961342 1e-05
0.00423236 0.000978257 1e-05
0.00434393 0.000996278 1e-05
0.00444155 0.00101346 1e-05
0.00453913 0.00103083 1e-05
0.00463662 0.00104871 1e-05
0.00473401 0.0010671 1e-05
0.00481034 0.00108192 1e-05
0.00482949 0.00108572 1e-05
0.00484864 0.00108955 1e-05
0.00486778 0.00109339 1e-05
0.00488692 0.00109725 1e-05
0.00490609 0.00110114 1e-05
0.0050194 0.0011241 1e-05
0.00513257 0.00114771 1e-05
0.00524563 0.00117186 1e-05
0.00535857 0.00119653 1e-05
0.00547262 0.00122184 1e-05
0.00558681 0.001247 1e-05
0.00570084 0.00127287 1e-05
0.00581471 0.00129941 1e-05
0.00592853 0.00132619 1e-05
0.00604356 0.00135305 1e-05
0.00615863 0.00137971 1e-05
0.0062736 0.00140682 1e-05
0.00638853 0.00143413 1e-05
0.00650344 0.00146147 1e-05
0.00661893 0.00148898 1e-05
0.00664581 0.00149535 1e-05
0.00667268 0.00150174 1e-05
0.00669955 0.00150812 1e-05
0.00672642 0.0015145 1e-05
[...]
POINT_DATA 10873
 FIELD attributes 1
U 3 10873 float
1.13279 	6.39881 	0 1.59167 	5.97922 	0 3.06046 	4.65986 	0 4.29052 	3.52871 	0 5.18139 	2.67999 	0 7.15381 	0.707087 	0 -4.22609 	5.50183 	0 -5.18512 	7.81043 	0 7.56543 	0.66175 	0 0.17123 	4.66638 	0 -9.04921 	14.026 	0 5.93244 	3.10454 	0 -2.52892 	15.5171 	0 -6.42012 	22.2971 	0 7.16713 	5.74102 	0 1.97751 	17.2218 	0 -2.24921 	26.6772 	0 4.29209 	15.8509 	0 9.07703 	8.26997 	0 6.22371 	17.6663 	0 2.38943 	29.3767 	0 7.4879 	19.1154 	0 11.9509 	10.5968 	0 10.9768 	18.286 	0 10.8618 	23.2176 	0 12.8622 	21.2667 	0 16.0815 	13.7041 	0 16.23 	13.432 	0 16.3903 	16.6324 	0 16.8078 	18.1047 	0 17.5779 	17.3642 	0 18.3604 	16.622 	0 19.4182 	15.6326 	0 20.1832 	15.0497 	0 20.9568 	14.4695 	0 21.7377 	13.8926 	0 22.0826 	13.1299 	0 22.0662 	11.6935 	0 24.2705 	10.5008 	0 26.3548 	9.16201 	0 27.0743 	7.07309 	0 27.2286 	4.6444 	0 27.3552 	2.88507 	0 28.0741 	0.17138 	0 28.3248 	-2.1565 	0 28.2512 	-4.19819 	0 27.2014 	-5.98561 	0 25.8071 	-7.73353 	0 25.1951 	-9.04741 	0 24.5514 	-10.3106 	0 23.3378 	-10.7055 	0 22.1139 	-11.0762 	0 22.097 	-11.0809 	0 21.4716 	-12.0225 	0 20.8493 	-13.0096 	0 20.0135 	-13.4218 	0 19.1074 	-13.6523 	0 17.9651 	-13.9554 	0 17.5253 	-14.1339 	0 17.0841 	-14.3156 	0 16.6418 	-14.5007 	0 16.3072 	-14.4491 	0 16.0571 	-14.3742 	0 14.8016 	-14.8609 	0 13.5045 	-15.3553 	0 12.3165 	-15.3947 	0 11.4439 	-14.9725 	0 10.9699 	-14.7451 	0 9.64284 	-15.0811 	0 8.53341 	-15.1927 	0 7.75965 	-14.9716 	0 6.94666 	-14.6549 	0 6.35427 	-14.289 	0 5.14577 	-14.2833 	0 4.40112 	-13.9467 	0 3.63444 	-13.6204 	0 2.84457 	-13.3061 	0 2.15506 	-12.9672 	0 1.24685 	-12.6075 	0 0.486325 	-12.1975 	0 -0.304758 	-11.8016 	0 -1.12678 	-11.4231 	0 -1.94803 	-11.0403 	0 -2.88413 	-10.5434 	0 -3.69744 	-10.0803 	0 -4.54569 	-9.64654 	0 -5.42412 	-9.24687 	0 -6.43499 	-8.78456 	0 -8.02009 	-8.11362 	0 -8.99547 	-7.63565 	0 -9.94627 	-7.23083 	0 -10.7346 	-6.89665 	0 -11.6431 	-6.27996 	0 -13.1548 	-5.35368 	0 -14.0449 	-4.68736 	0 -13.1869 	-4.1872 	0 -12.3711 	-3.7228 	0 -11.8125 	-3.41368 	0 -12.4139 	-3.37364 	0 -13.0478 	-3.35802 	0 -13.8658 	-3.21942 	0 -15.0526 	-2.8232 	0 -17.5456 	-2.22653 	0 -18.2525 	-1.96193 	0 -19.2901 	-1.78342 	0 -20.5845 	-1.6719 	0 -19.9231 	-2.23073 	0 -16.3607 	-3.33743 	0 -24.5331 	-2.44427 	0 -37.1661 	-1.64751 	0 -49.5593 	-1.35764 	0 -35.3203 	-5.25137 	0 1.82344 	-13.0841 	0 1.82344 	-13.0841 	0 1.82344 	-13.0841 	0 1.82344 	-13.0841 	0 1.82344 	-13.0841 	0 1.82344 	-13.0841 	0 4.22123 	-13.1213 	0 6.34875 	-13.1077 	0 8.2108 	-13.0533 	0 9.83715 	-12.9673 	0 14.8269 	-13.1452 	0 23.077 	-10.777 	0 30.0028 	-9.0624 	0 38.0112 	-7.89193 	0 46.6068 	-7.07012 	0 0.354442 	-0.0318283 	0 1.1899 	-0.054426 	0 1.49477 	-0.0620738 	0 1.29603 	-0.0538205 	0 1.09728 	-0.0455672 	0 0 	0 	0
9.8327 	3.19155 	0 9.65791 	6.52608 	0 10.0772 	7.67653 	0 11.8151 	4.68171 	0 12.0603 	4.44193 	0 12.9614 	10.4706 	0 13.4026 	18.8508 	0 15.3395 	15.332 	0 17.3378 	10.1885 	0 17.8506 	12.3651 	0 18.3278 	14.6115 	0 18.906 	13.9623 	0 19.5018 	13.3229 	0 20.2733 	12.5307 	0 21.1479 	11.8376 	0 22.0461 	11.1616 	0 22.9655 	10.5031 	0 23.053 	9.43662 	0 23.1797 	7.33125 	0 24.2074 	6.60925 	0 25.2152 	5.85218 	0 26.0644 	4.99072 	0 26.0958 	3.68468 	0 26.165 	2.50773 	0 26.7751 	0.447562 	0 27.5025 	-1.59264 	0 27.2093 	-3.47664 	0 26.2616 	-4.9609 	0 25.3009 	-6.44036 	0 25.1358 	-6.94897 	0 24.9509 	-7.4289 	0 24.5274 	-7.64217 	0 24.1057 	-7.85255 	0 23.9194 	-7.9446 	0 23.2812 	-9.02528 	0 22.6875 	-10.1811 	0 22.0011 	-11.1999 	0 20.8882 	-11.5735 	0 19.5609 	-12.053 	0 19.2512 	-12.2235 	0 18.9436 	-12.3972 	0 18.6495 	-12.5339 	0 18.4036 	-12.5089 	0 18.2046 	-12.489 	0 17.0458 	-13.0743 	0 15.8794 	-13.7232 	0 14.9485 	-13.8127 	0 14.0952 	-13.5592 	0 13.6997 	-13.4426 	0 13.042 	-13.7119 	0 12.5138 	-13.8034 	0 12.1072 	-13.7283 	0 11.6985 	-13.6569 	0 11.1726 	-13.5707 	0 10.9269 	-13.5504 	0 10.6798 	-13.5318 	0 10.4314 	-13.5148 	0 10.214 	-13.4719 	0 10.0763 	-13.3797 	0 9.59564 	-13.2448 	0 8.92243 	-13.0358 	0 8.23292 	-12.8338 	0 7.68638 	-12.5147 	0 7.27315 	-12.2056 	0 6.88719 	-11.948 	0 6.49512 	-11.6941 	0 6.07594 	-11.3337 	0 5.53778 	-10.8643 	0 5.03266 	-10.4377 	0 4.80853 	-10.0521 	0 4.58657 	-9.66561 	0 4.3693 	-9.27728 	0 4.04427 	-8.85934 	0 3.46381 	-8.37865 	0 3.45796 	-7.96108 	0 3.37881 	-7.47013 	0 3.30718 	-6.97837 	0 3.24447 	-6.4858 	0 3.02612 	-5.88732 	0 3.20527 	-5.64913 	0 3.35806 	-5.4402 	0 3.51751 	-5.23313 	0 3.68372 	-5.02831 	0 3.7575 	-4.94211 	0 3.97742 	-4.58541 	0 4.20813 	-4.23488 	0 4.44914 	-3.89241 	0 4.69961 	-3.55988 	0 5.26588 	-3.37022 	0 6.42487 	-3.09903 	0 7.50348 	-2.85249 	0 8.52567 	-2.61478 	0 10.1512 	-1.8337 	0 15.3147 	0.598943 	0 15.3897 	-0.203488 	0 16.1751 	-0.1106 	0 16.9236 	-0.0495265 	0 17.6494 	-0.00794491 	0 18.8652 	0.790043 	0 18.7337 	-0.275875 	0 19.2623 	-0.193853 	0 19.7673 	-0.135693 	0 20.2561 	-0.093909 	0 21.1648 	0.876599 	0 20.932 	-0.382444 	0 21.3247 	-0.291737 	0 21.6964 	-0.225129 	0 22.053 	-0.175872 	0 22.7653 	0.912495 	0 22.4988 	-0.442782 	0 22.8123 	-0.349419 	0 23.1073 	-0.279246 	0 23.3885 	-0.226256 	0 23.976 	0.917432 	0 23.6958 	-0.456023 	0 23.9542 	-0.367196 	0 24.1968 	-0.299101 	0 24.4274 	-0.246722 	0 24.9363 	0.904643 	0 24.6452 	-0.443398 	0 24.8621 	-0.362345 	0 25.0657 	-0.299099 	0 25.259 	-0.249622 	0 25.7179 	0.88344 	0 25.4162 	-0.41841 	0 25.5993 	-0.346341 	0 25.7713 	-0.289179 	0 25.9344 	-0.243752 	0 26.3594 	0.859494 	0 26.0478 	-0.390712 	0 26.2095 	-0.32513 	0 26.3615 	-0.272347 	0 26.5056 	-0.229794 	0 26.912 	0.843777 	0 26.5833 	-0.351351 	0 26.7331 	-0.287473 	0 26.8736 	-0.235332 	0 27.0065 	-0.192704 	0 27.4126 	0.867047 	0 27.0619 	-0.261193 	0 27.2448 	-0.169664 	0 27.4141 	-0.0938676 	0 27.5724 	-0.0309515 	0 28.0472 	1.09718 	0 27.5874 	-0.00391183 	8.33415e-22 27.8092 	0.120228 	3.56513e-21 28.011 	0.224995 	6.27046e-21 28.1964 	0.313669 	8.95385e-21 28.8699 	1.65936 	2.97709e-20 28.2592 	0.468452 	-4.07746e-20 28.4303 	0.522164 	-3.29398e-20 28.5956 	0.571153 	-2.53054e-20 28.7555 	0.615899 	-1.78509e-20 29.5932 	2.0235 	6.07316e-20 28.8362 	0.6613 	5.63033e-20 28.9286 	0.641688 	5.27994e-20 29.0235 	0.623907 	4.9293e-20 29.1444 	0.652666 	4.52188e-20 30.0276 	2.12747 	2.29254e-20 29.2749 	0.840157 	2.1817e-20 29.1965 	0.646894 	1.26065e-20 29.2314 	0.63943 	2.00619e-21 29.4179 	0.913213 	-6.92353e-21 30.1648 	2.26522 	-9.30369e-21 29.4302 	1.07391 	-6.60064e-21 29.1834 	0.659011 	-4.6811e-21 29.191 	0.673261 	-3.17086e-21 29.4782 	1.2068 	-1.40189e-20 30.1262 	2.47485 	-4.30948e-20 29.4713 	1.43888 	-6.32707e-20 29.1043 	0.834064 	-7.50919e-20 29.1201 	0.898519 	-7.50171e-20 29.5351 	1.7167 	-4.93846e-20 30.0878 	2.89234 	-1.16702e-20 29.6421 	2.14722 	-5.66483e-21 29.2573 	1.43263 	6.1814e-22 29.2771 	1.57295 	7.18893e-21 29.7207 	2.58164 	1.81602e-20 30.0907 	3.56737 	2.88427e-20 30.0007 	3.20105 	1.02305e-19 29.9356 	2.8383 	1.75922e-19 29.9669 	3.01092 	1.70922e-19 30.0333 	3.71446 	8.69009e-20 30.0569 	4.40411 	3.50987e-21 30.357 	4.37231 	-7.07273e-20 30.5959 	4.41478 	-1.21346e-19 30.6592 	4.65192 	-1.09172e-19 30.5524 	4.93453 	-7.77605e-20 30.1354 	5.30332 	-1.06258e-20 30.6369 	5.45382 	-5.43957e-21 30.6249 	5.61677 	-4.39395e-20 30.6035 	5.7783 	-8.26622e-20 30.5725 	5.93838 	-1.21607e-19 30.5407 	6.06284 	-1.52333e-19 30.5383 	6.09623 	-1.63051e-19 30.5355 	6.12957 	-1.73795e-19 30.5325 	6.16287 	-1.84565e-19 30.5295 	6.19502 	-1.94152e-19 30.5433 	6.18873 	-1.61249e-19 30.5912 	6.38272 	-2.05292e-19 30.5573 	6.5256 	-2.1028e-19 30.5173 	6.66765 	-2.15838e-19 30.4309 	6.75221 	-1.73657e-19 30.2111 	6.65707 	2.20744e-20 30.6354 	6.94853 	8.25752e-21 31.0497 	7.23704 	-4.90734e-21 30.959 	7.28356 	1.16117e-20 30.4686 	7.11547 	4.27364e-20 29.9747 	6.94607 	7.41336e-20 30.5525 	7.20255 	5.75132e-20 30.7829 	7.31582 	4.09845e-20 30.724 	7.30967 	2.44793e-20 30.6646 	7.30337 	7.98345e-21 30.2876 	7.18626 	0 30.4455 	7.23582 	0 30.4605 	7.23732 	-5.83906e-21 30.4441 	7.22823 	-1.29642e-20 30.4277 	7.21916 	-2.00883e-20 30.4114 	7.21013 	-2.71848e-20 30.3932 	7.1984 	-3.99969e-20 30.3752 	7.18672 	-5.28154e-20 30.3574 	7.17509 	-6.56404e-20 30.3174 	7.15813 	-7.2023e-20 30.1159 	7.10222 	-3.17637e-20 30.4745 	7.16406 	-6.6832e-20 30.6641 	7.17874 	-8.60387e-20 30.6415 	7.13422 	-8.533e-20 30.2343 	6.99069 	-8.23497e-20 29.8198 	6.84536 	-7.93779e-20 30.2778 	6.89592 	-2.45706e-19 30.7023 	6.9385 	-4.09568e-19 30.654 	6.86824 	-5.38673e-19 30.3703 	6.73835 	-5.94514e-19 29.8559 	6.55025 	-5.77888e-19 30.2971 	6.57662 	-6.69129e-19 30.2736 	6.50246 	-5.65371e-19 30.2294 	6.42384 	-4.52058e-19 30.1876 	6.34574 	-3.38827e-19 30.1437 	6.25926 	-2.12672e-19 30.1412 	6.24709 	-2.05833e-19 30.1388 	6.23493 	-1.98969e-19 30.1365 	6.22278 	-1.9208e-19 30.1342 	6.21065 	-1.85167e-19 30.108 	6.19023 	-1.4211e-19 30.1322 	6.10326 	1.75068e-19 30.1035 	5.99913 	3.8033e-19 30.0777 	5.89549 	5.83703e-19 30.0373 	5.7878 	7.28169e-19 29.7698 	5.62232 	1.28168e-19 30.0334 	5.57585 	1.20659e-19 30.1957 	5.50283 	1.00889e-19 30.1726 	5.38147 	5.85685e-20 29.8594 	5.20158 	1.88565e-19 29.5314 	5.01925 	3.29862e-19 29.8316 	4.95179 	2.02054e-19 30.1362 	4.88502 	7.39807e-20 30.1287 	4.7664 	8.10422e-20 29.7561 	4.57546 	1.65772e-19 29.3898 	4.38621 	2.49228e-19 29.7112 	4.29703 	-5.21174e-19 29.8676 	4.18883 	-8.9754e-19 29.8172 	4.0568 	-7.83458e-19 29.6925 	3.91167 	-5.27048e-19 29.3048 	3.72172 	2.17756e-19 29.6047 	3.60892 	7.05831e-19 29.5451 	3.4682 	6.43765e-19 29.4913 	3.328 	5.83688e-19 29.4434 	3.18833 	5.25613e-19 29.2231 	3.02566 	2.83828e-19 29.3221 	2.90698 	2.34846e-19 29.2678 	2.78105 	1.8639e-19 29.2179 	2.65537 	1.37634e-19 29.1725 	2.52995 	8.8579e-20 29.105 	2.32382 	7.29058e-21 29.1042 	2.32046 	5.73163e-21 29.1035 	2.3171 	4.17287e-21 29.1027 	2.31374 	2.61428e-21 29.1019 	2.31038 	1.05588e-21 29.1002 	2.30703 	1.04939e-21 29.0361 	2.15997 	0 28.9762 	2.01284 	0 28.9219 	1.86586 	0 28.873 	1.71902 	0 28.7924 	1.57563 	3.85461e-20 28.7609 	1.4342 	1.36898e-20 28.6916 	1.28831 	3.34937e-20 28.6277 	1.14245 	5.34246e-20 28.5693 	0.996597 	7.34827e-20 28.461 	0.85904 	1.04652e-19 28.4349 	0.72115 	7.8309e-19 28.3534 	0.578059 	9.79231e-19 28.2774 	0.434821 	1.16871e-18 28.2069 	0.29144 	1.35148e-18 28.0912 	0.157087 	9.79387e-19 28.0475 	0.0215237 	8.61755e-19 27.9544 	-0.117415 	8.2483e-19 27.8669 	-0.256657 	7.90173e-19 27.7848 	-0.396201 	7.57803e-19 27.6802 	-0.52982 	6.95356e-19 27.6021 	-0.659715 	4.20409e-19 27.4994 	-0.791662 	4.76567e-19 27.402 	-0.924073 	5.43021e-19 27.3101 	-1.05695 	6.19865e-19 27.2789 	-1.1051 	6.514e-19 27.2688 	-1.12236 	6.56037e-19 27.2589 	-1.13963 	6.60776e-19 27.2491 	-1.1569 	6.65616e-19 27.2394 	-1.17419 	6.70558e-19 27.2165 	-1.19251 	6.27317e-19 27.1208 	-1.3171 	7.49692e-19 27.0183 	-1.44179 	8.93578e-19 26.9214 	-1.56722 	1.03474e-18 26.8304 	-1.6934 	1.17315e-18 26.6243 	-1.8276 	1.37684e-18 26.6258 	-1.94974 	1.16092e-18 26.5223 	-2.06517 	1.13872e-18 26.4243 	-2.18147 	1.11244e-18 26.3244 	-2.29895 	1.09418e-18 26.0136 	-2.4262 	1.43044e-18 26.052 	-2.54282 	2.67297e-18 26.0065 	-2.65293 	3.24895e-18 25.9106 	-2.75933 	3.40936e-18 25.6848 	-2.86928 	2.53345e-18 25.4024 	-2.98201 	1.18472e-18 25.4114 	-3.08491 	7.21406e-19 25.4241 	-3.18869 	2.56411e-19 25.3043 	-3.28904 	7.96765e-20 25.0501 	-3.3876 	2.18098e-19 24.7997 	-3.48792 	3.55961e-19 24.7855 	-3.57661 	1.47556e-19 24.7335 	-3.66622 	-6.74843e-21 24.5858 	-3.75689 	-2.97547e-20 24.4226 	-3.84733 	-9.53612e-20 24.2054 	-3.93552 	-2.8711e-19 24.1762 	-3.99461 	-1.40151e-18 24.0594 	-4.05532 	-1.05325e-18 23.9449 	-4.1167 	-6.99129e-19 23.8325 	-4.17876 	-3.39069e-19 23.7394 	-4.23186 	-2.92963e-20 23.7125 	-4.25058 	6.74923e-20 23.6858 	-4.26937 	1.64734e-19 23.6594 	-4.28822 	2.6243e-19 23.63 	-4.30675 	3.2426e-19 23.5639 	-4.32081 	-4.79602e-20 23.4756 	-4.39513 	-8.97171e-19 23.3514 	-4.46535 	-1.32339e-18 23.2306 	-4.53674 	-1.75808e-18 23.0577 	-4.60287 	-1.59284e-18 22.7806 	-4.65836 	-2.67336e-19 22.7366 	-4.72301 	-1.62961e-19 22.6947 	-4.78856 	-5.96384e-20 22.5519 	-4.84442 	8.15921e-20 22.3074 	-4.8907 	2.37478e-19 22.0644 	-4.93855 	3.95045e-19 22.0136 	-4.98746 	3.18093e-19 21.8795 	-5.02971 	3.62887e-19 21.7185 	-5.07032 	4.49945e-19 21.5595 	-5.11187 	5.38124e-19 21.4214 	-5.14932 	6.16788e-19 21.4154 	-5.15139 	6.27287e-19 21.4095 	-5.15346 	6.37792e-19 21.4036 	-5.15554 	6.48304e-19 21.3956 	-5.15724 	6.44301e-19 21.384 	-5.15832 	6.15434e-19 21.2447 	-5.19784 	7.29994e-20 21.1 	-5.23753 	-4.0775e-19 20.9573 	-5.27828 	-8.93013e-19 20.7601 	-5.31077 	-7.36579e-19 20.4906 	-5.3327 	2.47961e-19 20.411 	-5.36874 	9.68862e-19 20.3326 	-5.40555 	1.68977e-18 20.1562 	-5.42794 	1.54879e-18 19.9396 	-5.44733 	1.12478e-18 19.7023 	-5.46654 	5.74469e-19 19.6705 	-5.47853 	4.38955e-19 19.6185 	-5.48799 	2.68478e-19 19.5459 	-5.49487 	6.25395e-20 19.4736 	-5.50191 	-1.435e-19 19.4042 	-5.50883 	-3.41803e-19 19.306 	-5.52219 	-5.19586e-19 19.2083 	-5.5359 	-6.9688e-19 19.1111 	-5.54996 	-8.73678e-19 18.977 	-5.55686 	-1.08155e-18 18.8159 	-5.55882 	-1.31264e-18 18.708 	-5.58117 	-2.47227e-18 18.6008 	-5.60425 	-3.63035e-18 18.4241 	-5.61711 	-3.44556e-18 18.1751 	-5.62056 	-1.91788e-18 17.9254 	-5.62513 	-3.76526e-19 17.8798 	-5.63525 	2.19463e-19 17.8205 	-5.64308 	5.62276e-19 17.7325 	-5.64597 	3.72654e-19 17.6447 	-5.64905 	1.82099e-19 17.5608 	-5.65219 	-1.36356e-21 17.4627 	-5.65785 	1.57393e-21 17.3648 	-5.66378 	4.51003e-21 17.2672 	-5.66999 	7.44471e-21 17.1295 	-5.66773 	8.60925e-21 16.9785 	-5.66304 	9.22542e-21 16.8525 	-5.67712 	5.175e-21 16.7267 	-5.69194 	1.11436e-21 16.5299 	-5.69548 	0 16.2824 	-5.69386 	-2.69227e-20 16.0201 	-5.69256 	-6.76291e-20 15.9947 	-5.69737 	-3.133e-20 15.9664 	-5.70169 	0 15.9193 	-5.70272 	0 15.8723 	-5.70379 	0 15.8264 	-5.7049 	0 15.6693 	-5.70947 	0 15.5124 	-5.71464 	0 15.3557 	-5.72044 	0 15.1145 	-5.71658 	-3.60773e-20 14.8646 	-5.71285 	-7.51059e-20 14.7523 	-5.72459 	-6.75111e-20 14.6393 	-5.73682 	-5.98313e-20 14.4284 	-5.7409 	1.12466e-20 14.2166 	-5.74578 	8.23331e-20 14.0244 	-5.75095 	1.46584e-19 13.9519 	-5.75168 	1.20288e-19 13.8792 	-5.75249 	9.37627e-20 13.8052 	-5.75339 	7.01539e-20 13.7055 	-5.75427 	1.09041e-19 13.6048 	-5.75528 	1.4805e-19 13.3672 	-5.77088 	3.17733e-19 13.127 	-5.78786 	4.85215e-19 12.7971 	-5.80379 	5.18792e-19 12.3943 	-5.81943 	4.40786e-19 11.9639 	-5.8379 	3.42684e-19 11.9428 	-5.84114 	3.20891e-19 11.9216 	-5.84439 	2.99095e-19 11.8898 	-5.84742 	3.00201e-19 11.8544 	-5.85039 	3.09293e-19 11.8197 	-5.85332 	3.18219e-19 11.4651 	-5.87545 	5.83915e-19 11.1056 	-5.89971 	8.57046e-19 10.7492 	-5.92626 	1.03561e-18 10.4205 	-5.95526 	8.09931e-19 10.0611 	-5.98905 	5.70828e-19 9.95429 	-6.00344 	5.36986e-19 9.84697 	-6.01807 	5.03478e-19 9.73867 	-6.03025 	4.51553e-19 9.62955 	-6.04084 	3.87167e-19 9.53031 	-6.05063 	3.29114e-19 9.21037 	-6.07193 	1.34616e-19 8.88623 	-6.09497 	-5.7876e-20 8.72098 	-6.13282 	-1.9271e-19 8.79469 	-6.19102 	-2.44016e-19 8.87572 	-6.25509 	-3.00351e-19 8.75951 	-6.26751 	-5.01338e-19 8.64381 	-6.28028 	-7.00935e-19 8.59228 	-6.29346 	-6.69577e-19 8.60948 	-6.3069 	-3.90586e-19 8.62528 	-6.31924 	-1.34275e-19 8.62901 	-6.3413 	4.48581e-19 8.63313 	-6.36353 	1.03253e-18 8.90583 	-6.41445 	1.14977e-18 9.47624 	-6.49612 	7.34002e-19 10.0219 	-6.57273 	3.18659e-19 9.99993 	-6.57079 	6.69516e-20 9.97825 	-6.56891 	-1.84561e-19 10.1222 	-6.57837 	-1.25273e-19 10.3453 	-6.59291 	8.57558e-20 10.5692 	-6.60698 	2.98065e-19 10.9271 	-6.62021 	5.74641e-19 11.2732 	-6.63126 	8.42941e-19 11.6322 	-6.64121 	9.88652e-19 12.1106 	-6.65422 	5.01342e-19 12.5369 	-6.66379 	4.85674e-20 12.8614 	-6.62633 	4.4457e-20 13.1757 	-6.58648 	4.50721e-20 13.68 	-6.55551 	2.58464e-19 14.1626 	-6.52098 	4.69575e-19 14.7645 	-6.47181 	7.4141e-19 14.8289 	-6.46322 	8.42739e-19 14.8929 	-6.45457 	9.43691e-19 14.9565 	-6.44585 	1.04427e-18 14.993 	-6.43266 	9.47084e-19 15.0141 	-6.4171 	7.41038e-19 15.5819 	-6.33045 	5.06283e-19 16.0596 	-6.24773 	1.63233e-19 16.5165 	-6.16258 	-1.81948e-19 16.7268 	-6.05061 	-3.54286e-19 16.8664 	-5.93916 	-4.8312e-19 17.4215 	-5.81831 	-1.63472e-18 17.8991 	-5.69194 	-2.44341e-18 18.1587 	-5.55261 	-2.06749e-18 18.4046 	-5.4124 	-1.68677e-18 18.5221 	-5.29559 	-6.14115e-19 18.7394 	-5.23495 	-7.29929e-19 18.8663 	-5.17315 	-6.98082e-19 18.9681 	-5.11091 	-6.27831e-19 19.0683 	-5.04853 	-5.58624e-19 19.1871 	-4.97308 	-4.76383e-19 19.3024 	-4.88955 	-4.37409e-19 19.4153 	-4.80577 	-3.99047e-19 19.5257 	-4.72177 	-3.6129e-19 19.6283 	-4.63742 	-3.23574e-19 19.508 	-4.5487 	-2.64305e-19 19.9038 	-4.38273 	-2.47923e-19 20.0935 	-4.22655 	-1.71226e-20 20.2761 	-4.06993 	2.15e-19 20.2594 	-3.91679 	6.68503e-19 20.0477 	-3.77061 	1.33036e-18 20.42 	-3.59287 	2.15318e-18 20.788 	-3.41452 	2.97395e-18 20.8763 	-3.25563 	2.97344e-18 20.6591 	-3.1158 	2.08591e-18 20.4438 	-2.97823 	1.21255e-18 20.7678 	-2.79414 	7.55376e-19 21.0883 	-2.60956 	2.95696e-19 21.1034 	-2.45407 	7.33894e-22 20.8755 	-2.32014 	1.7251e-19 20.6483 	-2.18773 	3.44488e-19 20.9076 	-2.00176 	1.30823e-19 21.0506 	-1.83097 	-5.51816e-20 21.0098 	-1.68474 	-1.9846e-19 20.8786 	-1.54804 	-2.566e-19 20.6456 	-1.42342 	-2.17603e-19 20.8404 	-1.24362 	-2.9827e-19 20.8516 	-1.0939 	-1.97397e-19 20.7892 	-0.955968 	-2.31369e-20 20.695 	-0.821845 	1.26892e-19 20.4604 	-0.707278 	1.67082e-19 20.5971 	-0.537738 	1.54347e-18 20.5432 	-0.404791 	1.8167e-18 20.4632 	-0.276371 	1.94287e-18 20.3671 	-0.150086 	1.92837e-18 20.1344 	-0.0467316 	6.88187e-19 20.2214 	0.109576 	5.11537e-19 20.151 	0.232337 	1.8497e-19 20.0576 	0.350706 	-1.63998e-19 19.9369 	0.464207 	-4.7401e-19 19.7085 	0.556923 	-6.34271e-19 19.7549 	0.698463 	-1.80407e-18 19.6993 	0.816835 	-2.21991e-18 19.5961 	0.924633 	-2.28275e-18 19.4384 	1.02088 	-1.77237e-18 19.2156 	1.10349 	-5.80801e-19 19.2283 	1.22944 	-3.98026e-19 19.206 	1.34745 	-2.14542e-19 19.0963 	1.44472 	-3.11282e-20 18.898 	1.52141 	1.1112e-19 18.6834 	1.59519 	2.4711e-19 18.6704 	1.70629 	1.1508e-18 18.6579 	1.81808 	2.05488e-18 18.5446 	1.90577 	2.02781e-18 18.3404 	1.97166 	1.02756e-18 18.1358 	2.0385 	2.24945e-20 18.1045 	2.13625 	-9.263e-19 18.0738 	2.23468 	-1.87442e-18 17.9637 	2.31439 	-1.59077e-18 17.7849 	2.37868 	-7.09197e-19 17.5921 	2.44089 	2.9419e-19 17.5477 	2.52794 	1.22291e-19 17.4541 	2.60318 	2.32575e-19 17.34 	2.67375 	4.6432e-19 17.2264 	2.74489 	6.99494e-19 17.0656 	2.80652 	1.06552e-18 17.0316 	2.84894 	1.02429e-18 16.9675 	2.8837 	8.51767e-19 16.9036 	2.91863 	6.79622e-19 16.8399 	2.95375 	5.07865e-19 16.7854 	2.98406 	3.60727e-19 16.7351 	3.0149 	1.84521e-19 16.685 	3.04589 	8.14899e-21 16.6351 	3.07704 	-1.6839e-19 16.5853 	3.10834 	-3.45096e-19 16.5146 	3.12977 	-3.838e-19 16.4375 	3.19974 	-2.85117e-19 16.3293 	3.2597 	-2.40987e-19 16.222 	3.32037 	-1.95825e-19 16.095 	3.37194 	-1.12923e-19 15.946 	3.41431 	1.05401e-20 15.8764 	3.47933 	1.90866e-20 15.8075 	3.54498 	2.91006e-20 15.7061 	3.59738 	1.13942e-20 15.5661 	3.63587 	5.17964e-20 15.4255 	3.67536 	9.22407e-20 15.3574 	3.73309 	1.64223e-20 15.2632 	3.77925 	-1.00797e-22 15.1621 	3.82258 	-2.29765e-22 15.0616 	3.86641 	-3.59156e-22 14.978 	3.90352 	-4.67799e-22 14.9725 	3.90633 	-4.71206e-22 14.967 	3.90914 	-4.74612e-22 14.9616 	3.91195 	-4.78015e-22 14.9557 	3.91441 	-2.66175e-21 14.9489 	3.91626 	-8.56701e-21 14.8566 	3.9626 	-2.80312e-19 14.7617 	4.00832 	-4.9419e-19 14.6676 	4.05468 	-7.12308e-19 14.564 	4.09446 	-5.73997e-19 14.4482 	4.12707 	-2.51033e-20 14.3766 	4.17617 	-4.56274e-20 14.3058 	4.22583 	-6.69707e-20 14.2172 	4.26377 	-2.66071e-20 14.1219 	4.29959 	1.04013e-20 14.0169 	4.33372 	3.65707e-20 13.9943 	4.35051 	1.29594e-20 13.969 	4.36572 	6.14177e-21 13.9406 	4.37898 	1.97519e-20 13.9122 	4.3923 	3.33768e-20 13.8852 	4.40506 	4.63866e-20 13.8334 	4.43159 	5.52106e-20 13.7818 	4.45835 	6.39451e-20 13.7306 	4.48534 	7.25894e-20 13.675 	4.50769 	1.07525e-19 13.6167 	4.5279 	1.5652e-19 13.5547 	4.57066 	6.36348e-19 13.