# vtk DataFile Version 2.0
track0
ASCII
DATASET POLYDATA
POINTS 10900 double
-0.0205 0.001 1e-05
-0.0202034 0.00100003 1e-05
-0.0199069 0.00100026 1e-05
-0.0196103 0.00100071 1e-05
-0.0193137 0.00100137 1e-05
-0.0190172 0.00100225 1e-05
-0.0187132 0.00100354 1e-05
-0.0184093 0.0010045 1e-05
-0.0181054 0.00100547 1e-05
-0.0178015 0.00100644 1e-05
-0.0174976 0.0010074 1e-05
-0.0172058 0.00100862 1e-05
-0.016914 0.00100939 1e-05
-0.0166222 0.0010101 1e-05
-0.0163305 0.00101075 1e-05
-0.0160387 0.00101135 1e-05
-0.0157586 0.00101219 1e-05
-0.0154784 0.0010126 1e-05
-0.0151983 0.00101296 1e-05
-0.0149182 0.00101328 1e-05
-0.0146381 0.00101355 1e-05
-0.0143692 0.00101411 1e-05
-0.0141002 0.00101425 1e-05
-0.0138313 0.00101435 1e-05
-0.0135624 0.00101442 1e-05
-0.0132934 0.00101446 1e-05
-0.0130353 0.00101481 1e-05
-0.0127771 0.00101475 1e-05
-0.0125189 0.00101466 1e-05
-0.0122607 0.00101455 1e-05
-0.0120025 0.0010144 1e-05
-0.0117547 0.00101461 1e-05
-0.0115068 0.0010144 1e-05
-0.0112589 0.00101417 1e-05
-0.0110111 0.00101392 1e-05
-0.0107632 0.00101364 1e-05
-0.0105252 0.00101376 1e-05
-0.0102873 0.00101343 1e-05
-0.0100493 0.00101309 1e-05
-0.00981133 0.00101272 1e-05
-0.00957337 0.00101234 1e-05
-0.00934491 0.00101241 1e-05
-0.00911645 0.00101199 1e-05
-0.008888 0.00101155 1e-05
-0.00865954 0.00101109 1e-05
-0.00843108 0.00101061 1e-05
-0.00821175 0.00101065 1e-05
-0.00799242 0.00101014 1e-05
-0.00777309 0.00100962 1e-05
-0.00755376 0.00100907 1e-05
-0.00733443 0.00100851 1e-05
-0.00712387 0.00100852 1e-05
-0.0069133 0.00100794 1e-05
-0.00670273 0.00100734 1e-05
-0.00649217 0.00100671 1e-05
-0.0062816 0.00100607 1e-05
-0.00607944 0.00100607 1e-05
-0.00587729 0.00100541 1e-05
-0.00567514 0.00100473 1e-05
-0.00547299 0.00100403 1e-05
-0.00527083 0.0010033 1e-05
-0.00507675 0.0010033 1e-05
-0.00488268 0.00100257 1e-05
-0.0046886 0.00100181 1e-05
-0.00449452 0.00100103 1e-05
-0.00430044 0.00100023 1e-05
-0.00411412 0.00100022 1e-05
-0.0039278 0.000999406 1e-05
-0.00374148 0.000998568 1e-05
-0.00355516 0.000997704 1e-05
-0.00336883 0.000996814 1e-05
-0.00318995 0.000996797 1e-05
-0.00301107 0.000995899 1e-05
-0.0028322 0.000994972 1e-05
-0.00265332 0.000994015 1e-05
-0.00247443 0.000993029 1e-05
-0.0023027 0.000992993 1e-05
-0.00213097 0.000991993 1e-05
-0.00195924 0.00099096 1e-05
-0.00178751 0.000989893 1e-05
-0.00161577 0.00098879 1e-05
-0.0014509 0.000988725 1e-05
-0.00128603 0.000987604 1e-05
-0.00112117 0.000986439 1e-05
-0.000956302 0.000985226 1e-05
-0.000791418 0.000983966 1e-05
-0.000633135 0.000983823 1e-05
-0.000474856 0.00098251 1e-05
-0.000316579 0.000981144 1e-05
-0.000158301 0.000979727 1e-05
0 0.000978255 1e-05
0.000105677 0.000978094 1e-05
0.00021135 0.000977051 1e-05
0.000317022 0.000975975 1e-05
0.000422694 0.000974864 1e-05
0.000528387 0.000973718 1e-05
0.000634886 0.000973555 1e-05
0.000741379 0.000972379 1e-05
0.000847871 0.000971176 1e-05
0.000954364 0.000969948 1e-05
0.00106088 0.000968692 1e-05
0.00116821 0.00096856 1e-05
0.00127553 0.000967306 1e-05
0.00138285 0.000966028 1e-05
0.00149017 0.000964727 1e-05
0.00159752 0.000963475 1e-05
0.00170568 0.000963374 1e-05
0.00181383 0.000962203 1e-05
0.00192199 0.000960891 1e-05
0.00203014 0.000959556 1e-05
0.00213833 0.00095842 1e-05
0.00224733 0.000958349 1e-05
0.00235633 0.000957304 1e-05
0.00246532 0.000955988 1e-05
0.00257431 0.00095465 1e-05
0.00268334 0.000953628 1e-05
0.00279319 0.000953578 1e-05
0.00290303 0.000952642 1e-05
0.00301288 0.000951334 1e-05
0.00312272 0.000950003 1e-05
0.00323259 0.000949076 1e-05
0.00334329 0.000949032 1e-05
0.00345399 0.000948184 1e-05
0.00356469 0.000946888 1e-05
0.00367538 0.000945569 1e-05
0.00378611 0.000944719 1e-05
0.00389767 0.000944668 1e-05
0.00400923 0.000943887 1e-05
0.00412079 0.000942604 1e-05
0.00423235 0.000941296 1e-05
0.00434393 0.000940505 1e-05
0.00445636 0.000940435 1e-05
0.00456879 0.000939702 1e-05
0.00468122 0.000938427 1e-05
0.00479364 0.000937127 1e-05
0.00490609 0.000936375 1e-05
0.0050194 0.000936276 1e-05
0.0051327 0.000935572 1e-05
0.005246 0.000934299 1e-05
0.0053593 0.000933 1e-05
0.00547262 0.000932271 1e-05
0.00558681 0.000932132 1e-05
0.00570099 0.000931442 1e-05
0.00581517 0.000930204 1e-05
0.00592935 0.000928955 1e-05
0.00604356 0.000928235 1e-05
0.00615863 0.000928049 1e-05
0.0062737 0.000927358 1e-05
0.00638877 0.000926168 1e-05
0.00650384 0.000924966 1e-05
0.00661893 0.000924241 1e-05
0.0067349 0.000924 1e-05
0.00685087 0.000923299 1e-05
0.00696683 0.000922141 1e-05
0.0070828 0.000920969 1e-05
0.00719878 0.00092023 1e-05
0.00731565 0.000919928 1e-05
0.00743252 0.000919206 1e-05
0.00754939 0.000918065 1e-05
0.00766625 0.00091691 1e-05
0.00778313 0.000916147 1e-05
0.00790091 0.00091578 1e-05
0.00801869 0.000915028 1e-05
0.00813647 0.000913893 1e-05
0.00825424 0.000912742 1e-05
0.00837203 0.000911947 1e-05
0.00849073 0.000911509 1e-05
0.00860942 0.000910719 1e-05
0.00872811 0.000909579 1e-05
0.0088468 0.000908422 1e-05
0.00896551 0.000907587 1e-05
0.00908513 0.000907075 1e-05
0.00920475 0.00090624 1e-05
0.00932436 0.000905084 1e-05
0.00944397 0.000903911 1e-05
0.0095636 0.000903029 1e-05
0.00968415 0.000902439 1e-05
0.0098047 0.000901552 1e-05
0.00992524 0.000900371 1e-05
0.0100458 0.000899173 1e-05
0.0101663 0.000898238 1e-05
0.0102878 0.000897565 1e-05
0.0104093 0.00089662 1e-05
0.0105308 0.000895426 1e-05
0.0106523 0.000894222 1e-05
0.0107738 0.000893227 1e-05
0.0108962 0.000892468 1e-05
0.0110186 0.000891459 1e-05
0.0111411 0.000890253 1e-05
0.0112635 0.000889035 1e-05
0.0113859 0.000887975 1e-05
0.0115093 0.000887125 1e-05
0.0116327 0.000886048 1e-05
0.0117561 0.000884816 1e-05
0.0118794 0.000883572 1e-05
0.0120028 0.000882441 1e-05
0.0121272 0.000881498 1e-05
0.0122515 0.000880346 1e-05
0.0123759 0.000879078 1e-05
0.0125002 0.000877796 1e-05
0.0126245 0.00087659 1e-05
0.0127498 0.00087555 1e-05
0.0128752 0.000874318 1e-05
0.0130005 0.000873003 1e-05
0.0131258 0.000871675 1e-05
0.0132511 0.000870387 1e-05
0.0133774 0.000869247 1e-05
0.0135036 0.000867931 1e-05
0.0136299 0.000866559 1e-05
0.0137562 0.000865173 1e-05
0.0138825 0.0008638 1e-05
0.0140098 0.000862557 1e-05
0.014137 0.000861151 1e-05
0.0142643 0.000859714 1e-05
0.0143915 0.000858262 1e-05
0.0145188 0.000856798 1e-05
0.0146471 0.000855448 1e-05
0.0147753 0.000853953 1e-05
0.0149036 0.000852442 1e-05
0.0150318 0.000850915 1e-05
0.0151601 0.000849372 1e-05
0.0152893 0.000847911 1e-05
0.0154186 0.000846335 1e-05
0.0155478 0.000844743 1e-05
0.0156771 0.000843134 1e-05
0.0158063 0.000841508 1e-05
0.0159366 0.000839934 1e-05
0.0160668 0.00083827 1e-05
0.0161971 0.000836589 1e-05
0.0163273 0.00083489 1e-05
0.0164576 0.000833174 1e-05
0.0165889 0.000831483 1e-05
0.0167201 0.000829724 1e-05
0.0168514 0.000827947 1e-05
0.0169827 0.000826152 1e-05
0.0171139 0.000824339 1e-05
0.0172462 0.000822529 1e-05
0.0173785 0.000820668 1e-05
0.0175108 0.000818789 1e-05
0.0176431 0.000816892 1e-05
0.0177754 0.000814976 1e-05
0.0179087 0.000813042 1e-05
0.018042 0.000811074 1e-05
0.0181753 0.000809088 1e-05
0.0183087 0.000807082 1e-05
0.018442 0.000805057 1e-05
0.018455 0.000804857 1e-05
0.018468 0.000804657 1e-05
0.018481 0.000804457 1e-05
0.018494 0.000804257 1e-05
0.018507 0.000804058 1e-05
0.0186283 0.000802189 1e-05
0.0187497 0.000800303 1e-05
0.018871 0.000798401 1e-05
0.0189924 0.000796483 1e-05
0.0191137 0.000794548 1e-05
0.0192491 0.000792362 1e-05
0.0193845 0.000790164 1e-05
0.0195199 0.000787945 1e-05
0.0196553 0.000785707 1e-05
0.0197907 0.000783447 1e-05
0.0199272 0.000781132 1e-05
0.0200636 0.000778812 1e-05
0.0202001 0.000776472 1e-05
0.0203365 0.00077411 1e-05
0.020473 0.000771727 1e-05
0.0206105 0.000769282 1e-05
0.020748 0.000766836 1e-05
0.0208855 0.000764369 1e-05
0.021023 0.000761881 1e-05
0.0211606 0.000759371 1e-05
0.0212991 0.000756795 1e-05
0.0214377 0.00075422 1e-05
0.0215763 0.000751624 1e-05
0.0217149 0.000749006 1e-05
0.0218535 0.000746367 1e-05
0.0219931 0.000743658 1e-05
0.0221328 0.000740951 1e-05
0.0222724 0.000738222 1e-05
0.0224121 0.000735472 1e-05
0.0225517 0.000732696 1e-05
0.0226925 0.000729853 1e-05
0.0228332 0.000727007 1e-05
0.022974 0.000724143 1e-05
0.0231147 0.000721256 1e-05
0.0232555 0.00071834 1e-05
0.0233973 0.00071536 1e-05
0.0235391 0.00071237 1e-05
0.023681 0.000709365 1e-05
0.0238228 0.000706336 1e-05
0.0239647 0.000703277 1e-05
0.0241076 0.000700157 1e-05
0.0242505 0.000697026 1e-05
0.0243935 0.000693879 1e-05
0.0245364 0.00069071 1e-05
0.0246794 0.00068751 1e-05
0.0248234 0.000684254 1e-05
0.0249675 0.000680984 1e-05
0.0251115 0.000677699 1e-05
0.0252556 0.000674392 1e-05
0.0253996 0.000671054 1e-05
0.0255448 0.000667661 1e-05
0.02569 0.000664249 1e-05
0.0258351 0.00066082 1e-05
0.0259803 0.000657368 1e-05
0.0261255 0.000653889 1e-05
0.0262718 0.000650356 1e-05
0.0264181 0.000646802 1e-05
0.0265644 0.000643228 1e-05
0.0267107 0.000639633 1e-05
0.026857 0.000636014 1e-05
0.0270044 0.000632345 1e-05
0.0271519 0.000628653 1e-05
0.0272993 0.000624939 1e-05
0.0274467 0.000621205 1e-05
0.0275942 0.000617453 1e-05
0.0277428 0.000613653 1e-05
0.0278914 0.00060983 1e-05
0.0280399 0.000605983 1e-05
0.0281885 0.00060212 1e-05
0.0283371 0.000598241 1e-05
0.0284869 0.000594318 1e-05
0.0286366 0.000590371 1e-05
0.0287863 0.000586403 1e-05
0.0289361 0.00058242 1e-05
0.0290858 0.000578424 1e-05
0.0292367 0.000574387 1e-05
0.0293876 0.000570326 1e-05
0.0295385 0.000566247 1e-05
0.0296894 0.000562155 1e-05
0.0298403 0.000558052 1e-05
0.0299924 0.00055391 1e-05
0.0301445 0.000549745 1e-05
0.0302966 0.000545567 1e-05
0.0304486 0.000541377 1e-05
0.0306007 0.000537178 1e-05
0.030754 0.000532942 1e-05
0.0309072 0.000528685 1e-05
0.0310605 0.000524419 1e-05
0.0312138 0.000520145 1e-05
0.031367 0.000515862 1e-05
0.0315215 0.000511544 1e-05
0.0316759 0.00050721 1e-05
0.0318304 0.00050287 1e-05
0.0319848 0.000498524 1e-05
0.0321393 0.000494173 1e-05
0.0322949 0.000489787 1e-05
0.0324506 0.000485392 1e-05
0.0326062 0.000480994 1e-05
0.0327619 0.000476594 1e-05
0.0329175 0.000472191 1e-05
[...]
POINT_DATA 10900
 FIELD attributes 2
p 1 10900 float
-1.4387 -1.4888 -1.54886 -1.60947 -1.67066 -1.79596 -1.86922 -1.94918 -2.02915 -2.10912 -2.19429 -2.19849 -2.21902 -2.2395 -2.25993 -2.29208 -2.28143 -2.29055 -2.2996 -2.30859 -2.33387 -2.32992 -2.34315 -2.35633 -2.36945 -2.39868 -2.39413 -2.4059 -2.41762 -2.4293 -2.45773 -2.45049 -2.46023 -2.46993 -2.47959 -2.50784 -2.49898 -2.50845 -2.51788 -2.52728 -2.5576 -2.54685 -2.55638 -2.56588 -2.57535 -2.60851 -2.59501 -2.60441 -2.61377 -2.62309 -2.65945 -2.64267 -2.65202 -2.66134 -2.67062 -2.71083 -2.69056 -2.70022 -2.70985 -2.71944 -2.76445 -2.74045 -2.75064 -2.76078 -2.77088 -2.82135 -2.79307 -2.80385 -2.81458 -2.82526 -2.88198 -2.84897 -2.86032 -2.87161 -2.88285 -2.94638 -2.90761 -2.91936 -2.93105 -2.94268 -3.01399 -2.96839 -2.97988 -2.99129 -3.00261 -3.08247 -3.0208 -3.02398 -3.02707 -3.03007 -3.10976 -2.99971 -2.99252 -2.98524 -2.97789 -3.09113 -2.96922 -2.96476 -2.96024 -2.95565 -3.0847 -2.97754 -2.97779 -2.97799 -2.98558 -3.10383 -3.01956 -3.01097 -3.0122 -3.03262 -3.12791 -3.0629 -3.04773 -3.05029 -3.07981 -3.16149 -3.11336 -3.09679 -3.10179 -3.13805 -3.20903 -3.17197 -3.15476 -3.1614 -3.20193 -3.26477 -3.2351 -3.21741 -3.22538 -3.26949 -3.32695 -3.30263 -3.28455 -3.29382 -3.34117 -3.39493 -3.37437 -3.35552 -3.36578 -3.41599 -3.46698 -3.44898 -3.4311 -3.44367 -3.49262 -3.54142 -3.52531 -3.50934 -3.52305 -3.57012 -3.61702 -3.60226 -3.58766 -3.60216 -3.64765 -3.69295 -3.67932 -3.66588 -3.68094 -3.72497 -3.76881 -3.7561 -3.74357 -3.759 -3.80173 -3.84426 -3.83236 -3.82065 -3.8363 -3.87778 -3.91907 -3.908 -3.89713 -3.91286 -3.95301 -3.99299 -3.98277 -3.97274 -3.98843 -4.02721 -4.06581 -4.05644 -4.04921 -4.06522 -4.10016 -4.13738 -4.12889 -4.12547 -4.14099 -4.17185 -4.2077 -4.20009 -4.20021 -4.21526 -4.24226 -4.27672 -4.27 -4.27336 -4.28797 -4.31131 -4.34437 -4.33851 -4.34482 -4.35899 -4.37892 -4.41059 -4.40558 -4.41457 -4.42833 -4.44508 -4.4754 -4.47125 -4.48263 -4.496 -4.50981 -4.53877 -4.53601 -4.54897 -4.56194 -4.57493 -4.60063 -4.60089 -4.61346 -4.62604 -4.63863 -4.6609 -4.66383 -4.676 -4.68819 -4.70039 -4.71948 -4.72476 -4.73653 -4.74831 -4.76011 -4.77629 -4.78358 -4.79493 -4.8063 -4.81768 -4.83122 -4.84018 -4.85111 -4.86205 -4.87301 -4.88416 -4.88502 -4.88604 -4.88705 -4.88806 -4.88907 -4.89867 -4.90829 -4.91792 -4.92757 -4.93683 -4.94719 -4.95737 -4.96757 -4.9778 -4.98696 -4.99728 -5.00701 -5.01676 -5.02653 -5.03436 -5.04483 -5.0541 -5.0634 -5.07271 -5.07901 -5.08978 -5.09859 -5.10743 -5.11629 -5.1209 -5.13204 -5.14043 -5.14877 -5.15639 -5.15985 -5.1708 -5.17937 -5.18714 -5.19301 -5.19552 -5.20605 -5.21481 -5.22187 -5.2257 -5.22719 -5.23724 -5.24624 -5.25238 -5.25359 -5.2536 -5.26252 -5.27138 -5.27639 -5.27517 -5.27397 -5.2819 -5.28983 -5.29315 -5.29053 -5.28793 -5.2948 -5.30168 -5.30321 -5.29931 -5.29542 -5.30124 -5.30708 -5.30705 -5.30222 -5.29739 -5.30239 -5.30741 -5.30598 -5.30058 -5.29507 -5.2994 -5.30228 -5.30014 -5.29527 -5.28921 -5.29295 -5.29365 -5.29102 -5.28679 -5.28027 -5.2835 -5.28213 -5.27908 -5.27554 -5.26866 -5.27145 -5.26811 -5.26471 -5.2613 -5.25473 -5.25565 -5.25197 -5.2483 -5.24462 -5.23892 -5.23811 -5.23437 -5.23063 -5.22689 -5.22221 -5.22019 -5.21679 -5.21338 -5.20997 -5.20657 -5.20638 -5.20619 -5.206 -5.20581 -5.20551 -5.20236 -5.19912 -5.19588 -5.19264 -5.18726 -5.18605 -5.18332 -5.18058 -5.17783 -5.17114 -5.17197 -5.17001 -5.16804 -5.16606 -5.15849 -5.16146 -5.16049 -5.1595 -5.15815 -5.15039 -5.15483 -5.15572 -5.15588 -5.1541 -5.14772 -5.15331 -5.15663 -5.15819 -5.1564 -5.15172 -5.15877 -5.16466 -5.1679 -5.16659 -5.16389 -5.17271 -5.18132 -5.18649 -5.18599 -5.18542 -5.1962 -5.20697 -5.21367 -5.21533 -5.21698 -5.2298 -5.24262 -5.25119 -5.25519 -5.25917 -5.27419 -5.2892 -5.29985 -5.30632 -5.31278 -5.33012 -5.34745 -5.36032 -5.36928 -5.37822 -5.3979 -5.41757 -5.43268 -5.44398 -5.45527 -5.47718 -5.49864 -5.51588 -5.52989 -5.54338 -5.5674 -5.59031 -5.60971 -5.62634 -5.64186 -5.66782 -5.69203 -5.71337 -5.73236 -5.74961 -5.77725 -5.80252 -5.8255 -5.84658 -5.86526 -5.89427 -5.92031 -5.94461 -5.9675 -5.98729 -6.01735 -6.04383 -6.06912 -6.09352 -6.11408 -6.14487 -6.17143 -6.19736 -6.22298 -6.24399 -6.27515 -6.30143 -6.32766 -6.3539 -6.37535 -6.406 -6.4322 -6.45841 -6.48461 -6.50659 -6.53632 -6.56219 -6.58807 -6.61395 -6.63626 -6.66475 -6.69003 -6.71531 -6.7406 -6.76307 -6.78996 -6.8144 -6.83884 -6.86329 -6.88584 -6.91087 -6.93424 -6.95763 -6.98103 -7.00357 -7.02116 -7.03801 -7.05487 -7.07174 -7.08581 -7.09167 -7.09753 -7.10338 -7.10924 -7.11486 -7.13591 -7.15667 -7.17745 -7.19825 -7.21782 -7.23854 -7.25765 -7.27678 -7.29594 -7.31271 -7.33313 -7.35034 -7.36759 -7.38488 -7.39843 -7.4186 -7.43366 -7.44876 -7.46349 -7.47378 -7.49234 -7.5064 -7.51905 -7.52969 -7.5374 -7.55338 -7.56717 -7.57703 -7.58295 -7.5877 -7.6008 -7.61395 -7.62035 -7.62155 -7.6228 -7.63241 -7.64209 -7.64581 -7.64308 -7.6404 -7.64604 -7.65142 -7.65116 -7.64516 -7.63783 -7.63886 -7.63631 -7.63103 -7.62479 -7.61206 -7.60686 -7.59563 -7.5845 -7.57346 -7.55957 -7.55375 -7.54587 -7.53801 -7.53017 -7.5231 -7.51336 -7.50366 -7.49401 -7.4844 -7.47242 -7.45167 -7.42684 -7.40217 -7.37734 -7.34579 -7.32077 -7.29118 -7.25755 -7.218 -7.17683 -7.14181 -7.10699 -7.06378 -7.01131 -6.95894 -6.91222 -6.86166 -6.80585 -6.7498 -6.68442 -6.64238 -6.59406 -6.54588 -6.49783 -6.45709 -6.43523 -6.41341 -6.39164 -6.3699 -6.34457 -6.26942 -6.18905 -6.10914 -6.02608 -5.93615 -5.85207 -5.76845 -5.67473 -5.57178 -5.46872 -5.37049 -5.26671 -5.15948 -5.05279 -4.9432 -4.93033 -4.9167 -4.90277 -4.88884 -4.87528 -4.7722 -4.66973 -4.56788 -4.46409 -4.35355 -4.23264 -4.11258 -3.98308 -3.84398 -3.7042 -3.60665 -3.50169 -3.39008 -3.279 -3.18569 -3.14176 -3.09796 -3.05429 -3.00781 -2.95846 -2.80307 -2.63381 -2.45997 -2.25787 -2.05411 -1.90682 -1.75343 -1.58086 -1.41025 -1.28551 -1.22507 -1.16511 -1.10564 -1.03248 -0.956289 -0.714887 -0.480072 -0.232439 0.0292585 0.30634 0.342978 0.379479 0.411655 0.442531 0.472103 0.706929 0.93687 1.1585 1.36322 1.58315 1.65693 1.73036 1.78757 1.83531 1.8816 2.06876 2.25471 2.4217 2.5508 2.68516 2.76422 2.84362 2.89875 2.94122 2.98743 3.10605 3.22508 3.33468 3.40457 3.47269 3.56691 3.6638 3.71804 3.77201 3.86555 3.87304 3.88053 3.88802 3.8939 3.89803 3.93706 3.97102 4.00441 4.02684 4.03309 4.03029 4.02186 3.99401 3.95841 3.92134 3.8768 3.82069 3.75247 3.68357 3.61127 3.56357 3.50575 3.44775 3.38964 3.34959 3.3138 3.27796 3.24207 3.20444 3.15926 3.05588 2.95898 2.86214 2.75962 2.65559 2.56409 2.47328 2.38931 2.31536 2.24688 2.19113 2.15223 2.11706 2.08375 2.06102 2.06423 2.08 2.09757 2.1169 2.14405 2.19377 2.25522 2.31789 2.38173 2.45712 2.53615 2.62295 2.71734 2.81644 2.91912 3.02122 3.12385 3.22709 3.33348 3.44887 3.49741 3.54509 3.5922 3.63932 3.68071 3.74282 3.80495 3.86708 3.92969 3.99379 4.09647 4.19918 4.3062 4.41324 4.52241 4.59033 4.65775 4.7244 4.79104 4.85152 4.88533 4.91913 4.95292 4.98526 5.01677 5.11143 5.20601 5.29919 5.38603 5.47402 5.53482 5.59393 5.64947 5.705 5.75774 5.78473 5.81172 5.8387 5.86578 5.89299 5.96906 6.04573 6.12336 6.20138 6.27977 6.32683 6.37403 6.42153 6.46903 6.516 6.54061 6.56522 6.58982 6.61217 6.63368 6.70428 6.7746 6.84019 6.89948 6.95885 6.99512 7.03008 7.06143 7.09279 7.12429 7.15079 7.1773 7.20382 7.23173 7.26011 7.31323 7.36639 7.42275 7.48229 7.5415 7.56421 7.58757 7.61259 7.63761 7.66315 7.6932 7.72325 7.7533 7.77938 7.80371 7.85971 7.91572 7.96485 8.00719 8.0494 8.07227 8.09368 8.11217 8.13067 8.14957 8.17472 8.1999 8.22509 8.25377 8.2842 8.3226 8.36103 8.40617 8.45791 8.50903 8.52842 8.55003 8.57484 8.59966 8.62593 8.64721 8.66849 8.68977 8.70748 8.72237 8.77271 8.8223 8.8636 8.89448 8.92524 8.965 8.99907 9.02746 9.05591 9.08615 9.09222 9.09829 9.10436 9.11162 9.12032 9.15036 9.1843 9.21831 9.26297 9.31203 9.33758 9.36415 9.40529 9.44841 9.49603 9.50632 9.52097 9.53807 9.55516 9.57346 9.59606 9.61865 9.64124 9.66011 9.67155 9.71979 9.7641 9.80156 9.82051 9.83943 9.88649 9.9266 9.95393 9.98135 10.001 10.0165 10.0266 10.0355 10.0444 10.0535 10.0713 10.0891 10.107 10.1273 10.16 10.1735 10.1945 10.2207 10.2665 10.3146 10.3268 10.339 10.3719 10.4165 10.4635 10.4744 10.5061 10.539 10.5719 10.6076 10.608 10.6093 10.6105 10.6118 10.6132 10.6446 10.676 10.7074 10.7386 10.7443 10.7921 10.8335 10.8654 10.8716 10.8765 10.9235 10.9705 10.9933 11.0003 11.0043 11.0505 11.0751 11.0952 11.1155 11.1274 11.1445 11.1531 11.1617 11.1702 11.1788 11.1902 11.2017 11.2131 11.2246 11.2484 11.2556 11.2753 11.2951 11.3173 11.3666 11.3637 11.3731 11.3927 11.432 11.4804 11.4768 11.4728 11.4948 11.5427 11.5904 11.5861 11.5815 11.6028 11.65 11.6971 11.6922 11.6942 11.7171 11.7543 11.8008 11.7953 11.8102 11.8329 11.8559 11.9018 11.9013 11.9237 11.9461 11.9685 12.0005 12.0051 12.0191 12.0331 12.0471 12.0645 12.072 12.0795 12.087 12.0945 12.0966 12.1238 12.1458 12.1678 12.19 12.1898 12.233 12.2549 12.2768 12.2914 12.2809 12.3271 12.362 12.3838 12.3809 12.3699 12.4155 12.4613 12.4789 12.468 12.4567 12.5017 12.547 12.5641 12.5527 12.541 12.5855 12.622 12.6352 12.6349 12.6228 12.6668 12.6893 12.7024 12.7146 12.7021 12.7427 12.7558 12.7689 12.7822 12.779 12.8088 12.8218 12.8349 12.8481 12.8534 12.8744 12.8873 12.9003 12.9133 12.9256 12.928 12.9296 12.9312 12.9328 12.9344 12.9456 12.9569 12.9682 12.9796 12.9969 13.0035 13.0162 13.029 13.0418 13.0663 13.0669 13.0796 13.0923 13.105 13.1342 13.1301 13.1427 13.1553 13.168 13.2006 13.1928 13.2055 13.2183 13.2311 13.2669 13.2567 13.2696 13.2825 13.2954 13.333 13.3209 13.3346 13.3483 13.362 13.4024 13.3908 13.4049 13.419 13.4331 13.4728 13.4612 13.4776 13.4941 13.5106 13.5538 13.5486 13.5644 13.5802 13.5961 13.6311 13.6273 13.6432 13.6592 13.6752 13.7056 13.7029 13.7037 13.7043 13.7047 13.7154 13.6615 13.6385 13.6189 13.6094 13.6256 13.5769 13.5439 13.5291 13.5371 13.5598 13.5179 13.4789 13.4642 13.4777 13.4945 13.4472 13.3991 13.3805 13.392 13.4042 13.3521 13.2994 13.2772 13.2861 13.2957 13.2406 13.1848 13.1593 13.1642 13.1698 13.11 13.0494 13.0194 13.0196 13.0206 12.9551 12.8905 12.8555 12.8485 12.8444 12.7726 12.708 12.6672 12.6485 12.6385 12.5599 12.4947 12.4472 12.4153 12.3983 12.3115 12.245 12.1901 12.1441 12.1197 12.0244 11.9558 11.8922 11.8302 11.7961 11.6919 11.6189 11.5459 11.473 11.4238 11.3174 11.2328 11.1483 11.0639 10.9925 10.8824 10.7865 10.6907 10.5951 10.5016 10.4847 10.4695 10.4543 10.4391 10.4226 10.3273 10.2323 10.1375 10.0429 9.93094 9.81911 9.69487 9.57099 9.44748 9.29075 9.19038 9.05015 8.90634 8.73228 8.5266 8.3794 8.23266 8.06909 7.88175 7.69241 7.56265 7.43608 7.22305 6.92326 6.62192 6.37568 6.14038 5.93371 5.73691 5.55106 5.42635 5.14113 4.78362 4.43022 3.89644 3.42277 3.19227 2.96063 2.72804 2.65053 2.50457 1.91301 1.32349 0.735639 0