# vtk DataFile Version 2.0
track0
ASCII
DATASET POLYDATA
POINTS 10900 double
-0.0205 0.001 1e-05
-0.0202034 0.00100003 1e-05
-0.0199069 0.00100026 1e-05
-0.0196103 0.00100071 1e-05
-0.0193137 0.00100137 1e-05
-0.0190172 0.00100225 1e-05
-0.0187132 0.00100354 1e-05
-0.0184093 0.0010045 1e-05
-0.0181054 0.00100547 1e-05
-0.0178015 0.00100644 1e-05
-0.0174976 0.0010074 1e-05
-0.0172058 0.00100862 1e-05
-0.016914 0.00100939 1e-05
-0.0166222 0.0010101 1e-05
-0.0163305 0.00101075 1e-05
-0.0160387 0.00101135 1e-05
-0.0157586 0.00101219 1e-05
-0.0154784 0.0010126 1e-05
-0.0151983 0.00101296 1e-05
-0.0149182 0.00101328 1e-05
-0.0146381 0.00101355 1e-05
-0.0143692 0.00101411 1e-05
-0.0141002 0.00101425 1e-05
-0.0138313 0.00101435 1e-05
-0.0135624 0.00101442 1e-05
-0.0132934 0.00101446 1e-05
-0.0130353 0.00101481 1e-05
-0.0127771 0.00101475 1e-05
-0.0125189 0.00101466 1e-05
-0.0122607 0.00101455 1e-05
-0.0120025 0.0010144 1e-05
-0.0117547 0.00101461 1e-05
-0.0115068 0.0010144 1e-05
-0.0112589 0.00101417 1e-05
-0.0110111 0.00101392 1e-05
-0.0107632 0.00101364 1e-05
-0.0105252 0.00101376 1e-05
-0.0102873 0.00101343 1e-05
-0.0100493 0.00101309 1e-05
-0.00981133 0.00101272 1e-05
-0.00957337 0.00101234 1e-05
-0.00934491 0.00101241 1e-05
-0.00911645 0.00101199 1e-05
-0.008888 0.00101155 1e-05
-0.00865954 0.00101109 1e-05
-0.00843108 0.00101061 1e-05
-0.00821175 0.00101065 1e-05
-0.00799242 0.00101014 1e-05
-0.00777309 0.00100962 1e-05
-0.00755376 0.00100907 1e-05
-0.00733443 0.00100851 1e-05
-0.00712387 0.00100852 1e-05
-0.0069133 0.00100794 1e-05
-0.00670273 0.00100734 1e-05
-0.00649217 0.00100671 1e-05
-0.0062816 0.00100607 1e-05
-0.00607944 0.00100607 1e-05
-0.00587729 0.00100541 1e-05
-0.00567514 0.00100473 1e-05
-0.00547299 0.00100403 1e-05
-0.00527083 0.0010033 1e-05
-0.00507675 0.0010033 1e-05
-0.00488268 0.00100257 1e-05
-0.0046886 0.00100181 1e-05
-0.00449452 0.00100103 1e-05
-0.00430044 0.00100023 1e-05
-0.00411412 0.00100022 1e-05
-0.0039278 0.000999406 1e-05
-0.00374148 0.000998568 1e-05
-0.00355516 0.000997704 1e-05
-0.00336883 0.000996814 1e-05
-0.00318995 0.000996797 1e-05
-0.00301107 0.000995899 1e-05
-0.0028322 0.000994972 1e-05
-0.00265332 0.000994015 1e-05
-0.00247443 0.000993029 1e-05
-0.0023027 0.000992993 1e-05
-0.00213097 0.000991993 1e-05
-0.00195924 0.00099096 1e-05
-0.00178751 0.000989893 1e-05
-0.00161577 0.00098879 1e-05
-0.0014509 0.000988725 1e-05
-0.00128603 0.000987604 1e-05
-0.00112117 0.000986439 1e-05
-0.000956302 0.000985226 1e-05
-0.000791418 0.000983966 1e-05
-0.000633135 0.000983823 1e-05
-0.000474856 0.00098251 1e-05
-0.000316579 0.000981144 1e-05
-0.000158301 0.000979727 1e-05
0 0.000978255 1e-05
0.000105677 0.000978094 1e-05
0.00021135 0.000977051 1e-05
0.000317022 0.000975975 1e-05
0.000422694 0.000974864 1e-05
0.000528387 0.000973718 1e-05
0.000634886 0.000973555 1e-05
0.000741379 0.000972379 1e-05
0.000847871 0.000971176 1e-05
0.000954364 0.000969948 1e-05
0.00106088 0.000968692 1e-05
0.00116821 0.00096856 1e-05
0.00127553 0.000967306 1e-05
0.00138285 0.000966028 1e-05
0.00149017 0.000964727 1e-05
0.00159752 0.000963475 1e-05
0.00170568 0.000963374 1e-05
0.00181383 0.000962203 1e-05
0.00192199 0.000960891 1e-05
0.00203014 0.000959556 1e-05
0.00213833 0.00095842 1e-05
0.00224733 0.000958349 1e-05
0.00235633 0.000957304 1e-05
0.00246532 0.000955988 1e-05
0.00257431 0.00095465 1e-05
0.00268334 0.000953628 1e-05
0.00279319 0.000953578 1e-05
0.00290303 0.000952642 1e-05
0.00301288 0.000951334 1e-05
0.00312272 0.000950003 1e-05
0.00323259 0.000949076 1e-05
0.00334329 0.000949032 1e-05
0.00345399 0.000948184 1e-05
0.00356469 0.000946888 1e-05
0.00367538 0.000945569 1e-05
0.00378611 0.000944719 1e-05
0.00389767 0.000944668 1e-05
0.00400923 0.000943887 1e-05
0.00412079 0.000942604 1e-05
0.00423235 0.000941296 1e-05
0.00434393 0.000940505 1e-05
0.00445636 0.000940435 1e-05
0.00456879 0.000939702 1e-05
0.00468122 0.000938427 1e-05
0.00479364 0.000937127 1e-05
0.00490609 0.000936375 1e-05
0.0050194 0.000936276 1e-05
0.0051327 0.000935572 1e-05
0.005246 0.000934299 1e-05
0.0053593 0.000933 1e-05
0.00547262 0.000932271 1e-05
0.00558681 0.000932132 1e-05
0.00570099 0.000931442 1e-05
0.00581517 0.000930204 1e-05
0.00592935 0.000928955 1e-05
0.00604356 0.000928235 1e-05
0.00615863 0.000928049 1e-05
0.0062737 0.000927358 1e-05
0.00638877 0.000926168 1e-05
0.00650384 0.000924966 1e-05
0.00661893 0.000924241 1e-05
0.0067349 0.000924 1e-05
0.00685087 0.000923299 1e-05
0.00696683 0.000922141 1e-05
0.0070828 0.000920969 1e-05
0.00719878 0.00092023 1e-05
0.00731565 0.000919928 1e-05
0.00743252 0.000919206 1e-05
0.00754939 0.000918065 1e-05
0.00766625 0.00091691 1e-05
0.00778313 0.000916147 1e-05
0.00790091 0.00091578 1e-05
0.00801869 0.000915028 1e-05
0.00813647 0.000913893 1e-05
0.00825424 0.000912742 1e-05
0.00837203 0.000911947 1e-05
0.00849073 0.000911509 1e-05
0.00860942 0.000910719 1e-05
0.00872811 0.000909579 1e-05
0.0088468 0.000908422 1e-05
0.00896551 0.000907587 1e-05
0.00908513 0.000907075 1e-05
0.00920475 0.00090624 1e-05
0.00932436 0.000905084 1e-05
0.00944397 0.000903911 1e-05
0.0095636 0.000903029 1e-05
0.00968415 0.000902439 1e-05
0.0098047 0.000901552 1e-05
0.00992524 0.000900371 1e-05
0.0100458 0.000899173 1e-05
0.0101663 0.000898238 1e-05
0.0102878 0.000897565 1e-05
0.0104093 0.00089662 1e-05
0.0105308 0.000895426 1e-05
0.0106523 0.000894222 1e-05
0.0107738 0.000893227 1e-05
0.0108962 0.000892468 1e-05
0.0110186 0.000891459 1e-05
0.0111411 0.000890253 1e-05
0.0112635 0.000889035 1e-05
0.0113859 0.000887975 1e-05
0.0115093 0.000887125 1e-05
0.0116327 0.000886048 1e-05
0.0117561 0.000884816 1e-05
0.0118794 0.000883572 1e-05
0.0120028 0.000882441 1e-05
0.0121272 0.000881498 1e-05
0.0122515 0.000880346 1e-05
0.0123759 0.000879078 1e-05
0.0125002 0.000877796 1e-05
0.0126245 0.00087659 1e-05
0.0127498 0.00087555 1e-05
0.0128752 0.000874318 1e-05
0.0130005 0.000873003 1e-05
0.0131258 0.000871675 1e-05
0.0132511 0.000870387 1e-05
0.0133774 0.000869247 1e-05
0.0135036 0.000867931 1e-05
0.0136299 0.000866559 1e-05
0.0137562 0.000865173 1e-05
0.0138825 0.0008638 1e-05
0.0140098 0.000862557 1e-05
0.014137 0.000861151 1e-05
0.0142643 0.000859714 1e-05
0.0143915 0.000858262 1e-05
0.0145188 0.000856798 1e-05
0.0146471 0.000855448 1e-05
0.0147753 0.000853953 1e-05
0.0149036 0.000852442 1e-05
0.0150318 0.000850915 1e-05
0.0151601 0.000849372 1e-05
0.0152893 0.000847911 1e-05
0.0154186 0.000846335 1e-05
0.0155478 0.000844743 1e-05
0.0156771 0.000843134 1e-05
0.0158063 0.000841508 1e-05
0.0159366 0.000839934 1e-05
0.0160668 0.00083827 1e-05
0.0161971 0.000836589 1e-05
0.0163273 0.00083489 1e-05
0.0164576 0.000833174 1e-05
0.0165889 0.000831483 1e-05
0.0167201 0.000829724 1e-05
0.0168514 0.000827947 1e-05
0.0169827 0.000826152 1e-05
0.0171139 0.000824339 1e-05
0.0172462 0.000822529 1e-05
0.0173785 0.000820668 1e-05
0.0175108 0.000818789 1e-05
0.0176431 0.000816892 1e-05
0.0177754 0.000814976 1e-05
0.0179087 0.000813042 1e-05
0.018042 0.000811074 1e-05
0.0181753 0.000809088 1e-05
0.0183087 0.000807082 1e-05
0.018442 0.000805057 1e-05
0.018455 0.000804857 1e-05
0.018468 0.000804657 1e-05
0.018481 0.000804457 1e-05
0.018494 0.000804257 1e-05
0.018507 0.000804058 1e-05
0.0186283 0.000802189 1e-05
0.0187497 0.000800303 1e-05
0.018871 0.000798401 1e-05
0.0189924 0.000796483 1e-05
0.0191137 0.000794548 1e-05
0.0192491 0.000792362 1e-05
0.0193845 0.000790164 1e-05
0.0195199 0.000787945 1e-05
0.0196553 0.000785707 1e-05
0.0197907 0.000783447 1e-05
0.0199272 0.000781132 1e-05
0.0200636 0.000778812 1e-05
0.0202001 0.000776472 1e-05
0.0203365 0.00077411 1e-05
0.020473 0.000771727 1e-05
0.0206105 0.000769282 1e-05
0.020748 0.000766836 1e-05
0.0208855 0.000764369 1e-05
0.021023 0.000761881 1e-05
0.0211606 0.000759371 1e-05
0.0212991 0.000756795 1e-05
0.0214377 0.00075422 1e-05
0.0215763 0.000751624 1e-05
0.0217149 0.000749006 1e-05
0.0218535 0.000746367 1e-05
0.0219931 0.000743658 1e-05
0.0221328 0.000740951 1e-05
0.0222724 0.000738222 1e-05
0.0224121 0.000735472 1e-05
0.0225517 0.000732696 1e-05
0.0226925 0.000729853 1e-05
0.0228332 0.000727007 1e-05
0.022974 0.000724143 1e-05
0.0231147 0.000721256 1e-05
0.0232555 0.00071834 1e-05
0.0233973 0.00071536 1e-05
0.0235391 0.00071237 1e-05
0.023681 0.000709365 1e-05
0.0238228 0.000706336 1e-05
0.0239647 0.000703277 1e-05
0.0241076 0.000700157 1e-05
0.0242505 0.000697026 1e-05
0.0243935 0.000693879 1e-05
0.0245364 0.00069071 1e-05
0.0246794 0.00068751 1e-05
0.0248234 0.000684254 1e-05
0.0249675 0.000680984 1e-05
0.0251115 0.000677699 1e-05
0.0252556 0.000674392 1e-05
0.0253996 0.000671054 1e-05
0.0255448 0.000667661 1e-05
0.02569 0.000664249 1e-05
0.0258351 0.00066082 1e-05
0.0259803 0.000657368 1e-05
0.0261255 0.000653889 1e-05
0.0262718 0.000650356 1e-05
0.0264181 0.000646802 1e-05
0.0265644 0.000643228 1e-05
0.0267107 0.000639633 1e-05
0.026857 0.000636014 1e-05
0.0270044 0.000632345 1e-05
0.0271519 0.000628653 1e-05
0.0272993 0.000624939 1e-05
0.0274467 0.000621205 1e-05
0.0275942 0.000617453 1e-05
0.0277428 0.000613653 1e-05
0.0278914 0.00060983 1e-05
0.0280399 0.000605983 1e-05
0.0281885 0.00060212 1e-05
0.0283371 0.000598241 1e-05
0.0284869 0.000594318 1e-05
0.0286366 0.000590371 1e-05
0.0287863 0.000586403 1e-05
0.0289361 0.00058242 1e-05
0.0290858 0.000578424 1e-05
0.0292367 0.000574387 1e-05
0.0293876 0.000570326 1e-05
0.0295385 0.000566247 1e-05
0.0296894 0.000562155 1e-05
0.0298403 0.000558052 1e-05
0.0299924 0.00055391 1e-05
0.0301445 0.000549745 1e-05
0.0302966 0.000545567 1e-05
0.0304486 0.000541377 1e-05
0.0306007 0.000537178 1e-05
0.030754 0.000532942 1e-05
0.0309072 0.000528685 1e-05
0.0310605 0.000524419 1e-05
0.0312138 0.000520145 1e-05
0.031367 0.000515862 1e-05
0.0315215 0.000511544 1e-05
0.0316759 0.00050721 1e-05
0.0318304 0.00050287 1e-05
0.0319848 0.000498524 1e-05
0.0321393 0.000494173 1e-05
0.0322949 0.000489787 1e-05
0.0324506 0.000485392 1e-05
0.0326062 0.000480994 1e-05
0.0327619 0.000476594 1e-05
0.0329175 0.000472191 1e-05
[...]
POINT_DATA 10900
 FIELD attributes 1
U 3 10900 float
10.0021 	0.00097999 	0 10.0076 	0.00792641 	0 10.013 	0.0151143 	0 10.0184 	0.0223155 	0 10.0239 	0.0295299 	0 10.0306 	0.0425788 	0 10.0339 	0.0319102 	0 10.0371 	0.0319279 	0 10.0403 	0.0319458 	0 10.0435 	0.0319636 	0 10.0462 	0.041979 	0 10.0442 	0.0264237 	0 10.0432 	0.024467 	0 10.0422 	0.0224842 	0 10.0412 	0.0204749 	0 10.0402 	0.0301505 	0 10.0367 	0.0146037 	0 10.0344 	0.0130168 	0 10.0322 	0.0114023 	0 10.0299 	0.00975976 	0 10.0279 	0.0206182 	0 10.0246 	0.00521982 	0 10.0223 	0.00394354 	0 10.02 	0.00264104 	0 10.0176 	0.00131176 	0 10.0156 	0.0135211 	0 10.0124 	-0.0022675 	0 10.01 	-0.00334236 	0 10.0076 	-0.00444187 	0 10.0051 	-0.00556661 	0 10.0029 	0.00842919 	0 9.99983 	-0.00843741 	0 9.99733 	-0.00934956 	0 9.99483 	-0.0102841 	0 9.99232 	-0.0112415 	0 9.98984 	0.00510348 	0 9.98703 	-0.0136203 	0 9.98455 	-0.0144568 	0 9.98206 	-0.0153147 	0 9.97957 	-0.0161945 	0 9.97689 	0.00299076 	0 9.9744 	-0.0183089 	0 9.97197 	-0.0191507 	0 9.96953 	-0.0200144 	0 9.96709 	-0.0209006 	0 9.96416 	0.0015959 	0 9.96205 	-0.0229032 	0 9.95966 	-0.0237874 	0 9.95728 	-0.0246948 	0 9.95488 	-0.025626 	0 9.95161 	0.000685505 	0 9.94996 	-0.0275746 	0 9.94765 	-0.0285167 	0 9.94533 	-0.0294833 	0 9.943 	-0.0304751 	0 9.93934 	0.000151018 	0 9.93826 	-0.0324137 	0 9.93604 	-0.0334368 	0 9.93381 	-0.0344863 	0 9.93157 	-0.0355629 	0 9.92743 	-0.000148173 	0 9.92704 	-0.0375554 	0 9.92494 	-0.0387063 	0 9.92282 	-0.0398865 	0 9.9207 	-0.0410965 	0 9.916 	-0.000451352 	0 9.91644 	-0.0432631 	0 9.91444 	-0.0445832 	0 9.91244 	-0.0459361 	0 9.91042 	-0.0473226 	0 9.90501 	-0.000939347 	0 9.90635 	-0.0497474 	0 9.90447 	-0.0513338 	0 9.90257 	-0.0529587 	0 9.90067 	-0.054623 	0 9.89445 	-0.002027 	0 9.8969 	-0.0576225 	0 9.89514 	-0.0595352 	0 9.89335 	-0.061493 	0 9.89156 	-0.0634972 	0 9.88432 	-0.00394857 	0 9.88781 	-0.0671769 	0 9.88578 	-0.0699015 	0 9.88373 	-0.0726883 	0 9.88167 	-0.0755387 	0 9.87259 	-0.00888943 	0 9.87601 	-0.0819713 	5.92617e-22 9.87372 	-0.0851548 	2.00155e-21 9.87141 	-0.0884107 	3.40948e-21 9.86907 	-0.0917405 	4.81637e-21 9.85919 	-0.0150558 	5.68216e-21 9.86339 	-0.0973313 	-6.95076e-21 9.86115 	-0.100467 	-9.12264e-21 9.8589 	-0.10365 	-1.1303e-20 9.85663 	-0.106882 	-1.3492e-20 9.84509 	-0.0149953 	8.65446e-22 9.85302 	-0.108852 	-2.64696e-22 9.85108 	-0.111227 	-1.57619e-21 9.84912 	-0.113638 	-2.88682e-21 9.84715 	-0.116086 	-4.19659e-21 9.83137 	-0.0121062 	-5.10457e-21 9.8452 	-0.115048 	-4.74392e-21 9.84332 	-0.11717 	-3.12914e-21 9.84142 	-0.119324 	-1.51388e-21 9.83826 	-0.114719 	-1.92442e-22 9.81656 	-0.00919772 	-3.24335e-21 9.83525 	-0.106452 	-3.34328e-22 9.83552 	-0.119376 	-4.66542e-21 9.8334 	-0.121353 	-9.93639e-21 9.82613 	-0.10316 	-1.50739e-20 9.799 	-0.00637961 	-1.9716e-20 9.82181 	-0.0941983 	-3.13421e-20 9.82599 	-0.118643 	-3.21237e-20 9.8236 	-0.120588 	-2.90606e-20 9.81086 	-0.091981 	-2.13315e-20 9.77845 	-0.00443306 	-4.61916e-21 9.80531 	-0.0835871 	-4.59382e-21 9.81447 	-0.116853 	-1.75537e-21 9.81178 	-0.118875 	2.98545e-21 9.7923 	-0.0825991 	8.24591e-21 9.7546 	-0.00387743 	1.40808e-20 9.78509 	-0.0750042 	4.30515e-20 9.80006 	-0.114673 	5.80723e-20 9.79694 	-0.116748 	5.64232e-20 9.76963 	-0.0749893 	3.66893e-20 9.72691 	-0.00445558 	5.06893e-21 9.76062 	-0.0683491 	-3.33895e-20 9.78209 	-0.112514 	-6.07464e-20 9.7785 	-0.114623 	-6.45032e-20 9.74257 	-0.0691109 	-4.27855e-20 9.69524 	-0.0060052 	-1.16782e-20 9.73179 	-0.0634757 	-7.3097e-21 9.76034 	-0.110687 	-4.89657e-21 9.75625 	-0.11283 	-1.1086e-20 9.71115 	-0.064903 	-2.2098e-20 9.65972 	-0.00845651 	-3.39764e-20 9.69873 	-0.0602471 	-4.03689e-20 9.7348 	-0.109402 	-4.61909e-20 9.73019 	-0.111568 	-4.28359e-20 9.67555 	-0.062221 	-3.12513e-20 9.62048 	-0.0116915 	-1.95184e-20 9.66153 	-0.058417 	-1.25326e-20 9.70194 	-0.105178 	-5.51282e-21 9.69489 	-0.10601 	-1.79185e-22 9.63603 	-0.0607851 	-1.96193e-21 9.57782 	-0.0155137 	-3.73326e-21 9.62051 	-0.0577068 	-2.03447e-21 9.66257 	-0.0999352 	-3.46914e-22 9.65435 	-0.100906 	-3.94291e-22 9.59291 	-0.060372 	-2.17686e-21 9.53208 	-0.0197945 	-3.94915e-21 9.576 	-0.0579192 	-2.25072e-21 9.61932 	-0.0960779 	-5.62511e-22 9.61 	-0.097147 	-3.80097e-21 9.54649 	-0.0608161 	-9.22686e-21 9.48356 	-0.0244456 	-1.46913e-20 9.52833 	-0.0589131 	-2.90506e-20 9.57252 	-0.0934129 	-4.33732e-20 9.56222 	-0.0945474 	-4.60608e-20 9.49711 	-0.0619853 	-3.73316e-20 9.43257 	-0.0293869 	-2.86162e-20 9.47783 	-0.0605593 	-5.5744e-20 9.52255 	-0.0917618 	-8.28565e-20 9.51138 	-0.0929373 	-7.81661e-20 9.44512 	-0.0637603 	-3.98542e-20 9.37938 	-0.0345504 	-1.5107e-21 9.42479 	-0.0627529 	-1.38118e-21 9.46968 	-0.0909835 	-1.27768e-21 9.45775 	-0.0921857 	1.04162e-21 9.39076 	-0.0660555 	4.75099e-21 9.32425 	-0.0398955 	8.47629e-21 9.3695 	-0.0654216 	4.58428e-21 9.41424 	-0.0909737 	6.76839e-22 9.40168 	-0.0921936 	-1.51964e-21 9.33433 	-0.0688076 	-3.36355e-21 9.26744 	-0.0453947 	-5.2012e-21 9.31224 	-0.0685068 	-3.45125e-21 9.35656 	-0.0916428 	-1.70793e-21 9.34348 	-0.092873 	-7.7207e-23 9.27612 	-0.0719613 	-3.89315e-21 9.20918 	-0.0510253 	-7.72237e-21 9.25328 	-0.0719569 	-3.70955e-21 9.29239 	-0.0913168 	-3.6011e-22 9.27758 	-0.091953 	-4.95587e-21 9.21646 	-0.0754615 	-1.61236e-20 9.14977 	-0.0567606 	-2.81412e-20 9.19296 	-0.0757234 	-7.78351e-20 9.2239 	-0.0909165 	-1.16952e-19 9.20918 	-0.0916119 	-1.15592e-19 9.1556 	-0.0792643 	-7.48576e-20 9.08941 	-0.0625789 	-2.10663e-20 9.13151 	-0.0797632 	-1.29545e-20 9.15429 	-0.0914035 	-6.09851e-21 9.13966 	-0.0921491 	-1.70136e-21 9.09374 	-0.0833297 	0 9.02827 	-0.0684624 	0 9.06913 	-0.0840403 	0 9.08381 	-0.0926603 	0 9.06927 	-0.0934499 	0 9.03105 	-0.0876255 	0 8.96649 	-0.0743999 	0 9.00597 	-0.0885285 	0 9.0127 	-0.0945921 	2.87324e-21 8.99826 	-0.0954205 	7.61037e-21 8.96769 	-0.0921274 	1.35062e-20 8.90419 	-0.0803825 	2.17761e-20 8.94219 	-0.0932025 	7.63874e-20 8.94117 	-0.0971123 	8.92036e-20 8.92681 	-0.0979759 	8.77331e-20 8.9038 	-0.0968115 	7.66899e-20 8.84149 	-0.0864033 	2.20407e-20 8.87793 	-0.0980443 	1.38416e-20 8.86939 	-0.10015 	1.35463e-20 8.85512 	-0.101045 	1.42558e-20 8.83951 	-0.101658 	1.51152e-20 8.7785 	-0.0924526 	2.11481e-20 8.81172 	-0.102714 	5.49413e-20 8.79756 	-0.103636 	5.06127e-20 8.78336 	-0.104557 	4.62776e-20 8.76912 	-0.105477 	4.19362e-20 8.71535 	-0.0985156 	7.29591e-21 8.73996 	-0.106561 	-2.93941e-20 8.72587 	-0.107506 	-3.99101e-20 8.71174 	-0.108451 	-5.04198e-20 8.69757 	-0.109395 	-6.0923e-20 8.65214 	-0.104583 	-4.50212e-20 8.66847 	-0.110741 	-7.59929e-20 8.65444 	-0.111707 	-7.11942e-20 8.64037 	-0.112672 	-6.6386e-20 8.62626 	-0.113637 	-6.15684e-20 8.58894 	-0.110648 	-3.05656e-20 8.59733 	-0.115205 	-2.25222e-20 8.58336 	-0.116188 	-1.63078e-20 8.56934 	-0.117172 	-1.00947e-20 8.55528 	-0.118155 	-3.88296e-21 8.5258 	-0.116705 	0 8.52662 	-0.119907 	1.11159e-21 8.51269 	-0.120905 	2.82145e-21 8.49871 	-0.121903 	4.53166e-21 8.48469 	-0.122901 	6.24223e-21 8.46276 	-0.122742 	7.95441e-21 8.45638 	-0.124801 	7.75289e-21 8.44249 	-0.12581 	7.8687e-21 8.42855 	-0.126818 	7.98523e-21 8.41457 	-0.127827 	8.10251e-21 8.39986 	-0.128742 	8.24927e-21 8.39916 	-0.128925 	8.48059e-21 8.39783 	-0.129024 	8.79194e-21 8.39649 	-0.129122 	9.10331e-21 8.39515 	-0.12922 	9.41469e-21 8.39382 	-0.129317 	9.7237e-21 8.381 	-0.130235 	1.22097e-20 8.36816 	-0.131152 	1.46945e-20 8.35527 	-0.13207 	1.71781e-20 8.34235 	-0.132989 	1.96604e-20 8.32732 	-0.134459 	2.19204e-20 8.31568 	-0.134993 	1.63071e-20 8.30149 	-0.13601 	1.50561e-20 8.28725 	-0.137026 	1.3797e-20 8.27297 	-0.138043 	1.25297e-20 8.25464 	-0.140042 	2.06399e-20 8.24551 	-0.1402 	1.77936e-20 8.23133 	-0.141212 	1.44214e-20 8.21711 	-0.142224 	1.10476e-20 8.20284 	-0.143237 	7.67224e-21 8.18289 	-0.145499 	6.88157e-21 8.17602 	-0.14542 	1.1531e-20 8.16186 	-0.146425 	7.01663e-21 8.14765 	-0.14743 	2.5059e-21 8.13339 	-0.148435 	-2.00116e-21 8.11207 	-0.150816 	-1.732e-20 8.10726 	-0.150623 	-3.10625e-20 8.09312 	-0.151618 	-3.37559e-20 8.07892 	-0.152614 	-3.64527e-20 8.06467 	-0.153611 	-3.9153e-20 8.04216 	-0.155994 	-3.10663e-20 8.03898 	-0.15582 	-6.23679e-20 8.02514 	-0.156779 	-5.98869e-20 8.01096 	-0.157769 	-5.6475e-20 7.99551 	-0.15893 	-4.76953e-20 7.97317 	-0.161053 	-8.6446e-21 7.96943 	-0.161153 	-2.71768e-21 7.95794 	-0.161925 	-2.92571e-21 7.94376 	-0.162928 	-5.23741e-21 7.92683 	-0.164243 	-7.65276e-21 7.90506 	-0.166107 	-1.0251e-20 7.90085 	-0.166516 	-3.09247e-20 7.89154 	-0.167217 	-4.35417e-20 7.8773 	-0.168199 	-4.84078e-20 7.85894 	-0.169505 	-3.73781e-20 7.83754 	-0.171047 	-1.4781e-20 7.83281 	-0.171611 	3.07411e-20 7.8255 	-0.172271 	6.674e-20 7.81115 	-0.173192 	7.6702e-20 7.79143 	-0.174386 	4.87018e-20 7.77031 	-0.175649 	1.12293e-20 7.76501 	-0.176281 	5.72786e-21 7.7595 	-0.17692 	3.29204e-22 7.74491 	-0.177831 	8.48436e-23 7.72419 	-0.178955 	1.68421e-22 7.7034 	-0.18008 	2.51971e-22 7.69768 	-0.180891 	1.60198e-22 7.69193 	-0.181704 	6.84067e-23 7.67798 	-0.182589 	-3.32466e-21 7.65754 	-0.183502 	-7.68443e-21 7.63704 	-0.184416 	-1.20429e-20 7.63102 	-0.185347 	-7.24237e-21 7.62496 	-0.186278 	-2.44074e-21 7.61185 	-0.187082 	0 7.59167 	-0.187756 	0 7.57145 	-0.188431 	0 7.56518 	-0.189423 	0 7.55886 	-0.190416 	0 7.54664 	-0.191107 	-4.78345e-22 7.52674 	-0.191545 	-2.8181e-21 7.50679 	-0.191984 	-5.15735e-21 7.50032 	-0.192996 	-2.35365e-20 7.4938 	-0.194008 	-4.19149e-20 7.48225 	-0.19456 	-4.61169e-20 7.46287 	-0.194789 	-3.55864e-20 7.4432 	-0.195007 	-2.45768e-20 7.43657 	-0.196007 	-7.39212e-20 7.42878 	-0.196879 	-1.12685e-19 7.41715 	-0.197311 	-1.15315e-19 7.40016 	-0.197454 	-8.38608e-20 7.38077 	-0.197468 	-3.7262e-20 7.374 	-0.198434 	-6.31121e-20 7.36494 	-0.19909 	-7.37733e-20 7.35337 	-0.199408 	-6.78382e-20 7.33868 	-0.199522 	-5.07632e-20 7.31955 	-0.199347 	-1.78418e-20 7.31268 	-0.200258 	-1.30544e-20 7.30243 	-0.20065 	-8.45961e-21 7.29094 	-0.200851 	-3.93585e-21 7.27847 	-0.200981 	0 7.25962 	-0.200629 	0 7.25267 	-0.20147 	0 7.24132 	-0.201562 	0 7.22991 	-0.201644 	0 7.21847 	-0.201727 	0 7.20101 	-0.201297 	0 7.19295 	-0.201851 	0 7.18164 	-0.201797 	0 7.17032 	-0.201743 	0 7.15899 	-0.201689 	0 7.14377 	-0.201272 	0 7.13465 	-0.201478 	0 7.12345 	-0.201268 	0 7.11224 	-0.201057 	0 7.10103 	-0.200847 	0 7.08799 	-0.200455 	0 7.0785 	-0.200311 	0 7.06804 	-0.199961 	0 7.05758 	-0.199611 	0 7.04713 	-0.199261 	0 7.03668 	-0.198911 	0 7.03607 	-0.198891 	0 7.03546 	-0.198872 	0 7.03485 	-0.198853 	0 7.03424 	-0.198834 	0 7.03361 	-0.198794 	0 7.02248 	-0.198294 	0 7.01129 	-0.197775 	0 7.00011 	-0.197255 	0 6.98894 	-0.196736 	0 6.97754 	-0.19583 	3.60362e-22 6.9678 	-0.195499 	0 6.95686 	-0.194808 	0 6.94593 	-0.194116 	0 6.93501 	-0.193425 	0 6.92383 	-0.192001 	7.00704e-22 6.91531 	-0.191809 	0 6.90466 	-0.190939 	0 6.89402 	-0.190069 	0 6.88342 	-0.189198 	0 6.87265 	-0.18727 	0 6.86521 	-0.18719 	0 6.85491 	-0.186145 	0 6.84464 	-0.185101 	0 6.83441 	-0.183988 	-1.26757e-22 6.82427 	-0.181645 	-2.55619e-21 6.81731 	-0.18148 	-3.64469e-22 6.80793 	-0.180445 	6.59525e-23 6.7981 	-0.179237 	1.45077e-22 6.7884 	-0.17765 	1.59873e-22 6.77899 	-0.175172 	2.36147e-23 6.77226 	-0.174819 	1.70635e-20 6.76405 	-0.1739 	2.49798e-20 6.75471 	-0.172543 	2.58459e-20 6.74572 	-0.17052 	1.83568e-20 6.73706 	-0.167924 	3.68619e-21 6.73063 	-0.167406 	1.58506e-21 6.72348 	-0.166592 	-1.03853e-21 6.71471 	-0.165104 	-4.85253e-21 6.70657 	-0.16268 	-1.2071e-20 6.6987 	-0.159975 	-2.03151e-20 6.69265 	-0.159314 	-2.87015e-20 6.68649 	-0.1586 	-3.66306e-20 6.67833 	-0.157 	-3.7071e-20 6.67118 	-0.154215 	-2.88225e-20 6.66414 	-0.151417 	-2.04841e-20 6.65855 	-0.150637 	-1.22555e-20 6.65298 	-0.149858 	-4.02675e-21 6.64607 	-0.148106 	0 6.63982 	-0.145262 	0 6.63366 	-0.142417 	0 6.62858 	-0.141568 	0 6.62352 	-0.140718 	0 6.618 	-0.138898 	0 6.61266 	-0.136058 	0 6.60741 	-0.133217 	0 6.6029 	-0.13236 	0 6.59842 	-0.131504 	0 6.59424 	-0.12966 	0 6.58981 	-0.126858 	0 6.58549 	-0.124056 	0 6.58159 	-0.123238 	0 6.57772 	-0.122421 	0 6.57483 	-0.120597 	8.79965e-23 6.57131 	-0.11788 	1.49963e-22 6.56788 	-0.115163 	2.11784e-22 6.56462 	-0.114432 	-1.62614e-20 6.56138 	-0.1137 	-3.27346e-20 6.55974 	-0.111953 	-3.06905e-20 6.55709 	-0.109382 	-1.18966e-20 6.55453 	-0.106812 	6.89518e-21 6.55191 	-0.106226 	4.72709e-21 6.54949 	-0.105542 	2.55064e-21 6.54869 	-0.103932 	2.97018e-22 6.54701 	-0.101672 	3.27767e-21 6.54527 	-0.0993116 	7.06872e-21 6.54331 	-0.0989246 	3.0474e-21 6.54179 	-0.0982998 	-1.09866e-21 6.54167 	-0.0969252 	-5.63841e-21 6.54088 	-0.0950337 	-7.4601e-21 6.53987 	-0.0929362 	-8.19343e-21 6.53854 	-0.0927895 	-7.94379e-21 6.53789 	-0.0922859 	-7.01991e-21 6.53838 	-0.0911954 	-4.98635e-21 6.53837 	-0.0897079 	-3.20399e-21 6.53801 	-0.0879251 	-1.60759e-21 6.53727 	-0.0880546 	-3.54182e-21 6.53742 	-0.0877307 	-4.5649e-21 6.53845 	-0.0869674 	-4.70375e-21 6.53911 	-0.0859158 	-4.08024e-21 6.5393 	-0.0844971 	-2.48559e-21 6.5391 	-0.084932 	-4.40925e-21 6.53997 	-0.0848385 	-5.19048e-21 6.54147 	-0.084437 	-5.30453e-21 6.54271 	-0.0838443 	-6.11029e-21 6.54336 	-0.0828303 	-8.44076e-21 6.54364 	-0.0835911 	-6.23368e-21 6.54513 	-0.0837695 	-4.01896e-21 6.54702 	-0.0837553 	-1.80165e-21 6.54875 	-0.0836355 	0 6.54977 	-0.0830577 	0 6.55045 	-0.0841614 	0 6.55247 	-0.0846449 	-2.07479e-21 6.55468 	-0.0850357 	-4.4593e-21 6.55682 	-0.085394 	-6.84471e-21 6.55813 	-0.0852728 	-9.24026e-21 6.55914 	-0.0867323 	-6.97401e-21 6.5616 	-0.0875452 	-6.93375e-21 6.56405 	-0.0883508 	-6.91762e-21 6.56647 	-0.0891558 	-6.90243e-21 6.56805 	-0.0895303 	-5.23748e-21 6.56947 	-0.0912877 	-2.28932e-20 6.57213 	-0.0925127 	-2.24581e-20 6.57475 	-0.0937367 	-2.20186e-20 6.57733 	-0.0949598 	-2.15748e-20 6.57919 	-0.0958537 	-2.33532e-21 6.58096 	-0.0979173 	-2.09369e-20 6.58375 	-0.0995615 	-2.07213e-20 6.58648 	-0.101204 	-2.04999e-20 6.58916 	-0.102846 	-2.02725e-20 6.59124 	-0.104248 	-7.09647e-21 6.5933 	-0.10663 	-6.69323e-21 6.59616 	-0.108693 	-2.01947e-21 6.59896 	-0.110755 	2.65435e-21 6.60169 	-0.112815 	7.32825e-21 6.60395 	-0.114713 	1.30294e-20 6.60626 	-0.117424 	1.1116e-20 6.60915 	-0.119908 	1.36407e-20 6.61197 	-0.12239 	1.61699e-20 6.6147 	-0.12487 	1.87039e-20 6.61711 	-0.127257 	2.34882e-20 6.61965 	-0.130306 	2.44778e-20 6.62254 	-0.133217 	2.16616e-20 6.62533 	-0.136124 	1.88366e-20 6.62804 	-0.139029 	1.6003e-20 6.63056 	-0.141898 	1.11674e-20 6.63261 	-0.144507 	9.47539e-21 6.63481 	-0.147059 	7.79104e-21 6.63695 	-0.149609 	6.10789e-21 6.63902 	-0.152157 	4.42592e-21 6.64071 	-0.15428 	3.02445e-21 6.64134 	-0.155152 	2.39348e-21 6.64196 	-0.156023 	1.76236e-21 6.64257 	-0.156894 	1.13111e-21 6.64318 	-0.157765 	4.99708e-22 6.64388 	-0.158611 	2.8222e-22 6.6466 	-0.162402 	2.21809e-21 6.64919 	-0.166175 	4.57469e-21 6.65166 	-0.169944 	6.92868e-21 6.65401 	-0.173707 	9.28008e-21 6.65672 	-0.177342 	1.44999e-20 6.65939 	-0.181659 	1.89952e-20 6.66186 	-0.185905 	2.21093e-20 6.6642 	-0.190147 	2.52378e-20 6.66641 	-0.194382 	2.83806e-20 6.66931 	-0.198378 	2.48066e-20 6.67197 	-0.203247 	3.07241e-20 6.67429 	-0.207998 	3.12952e-20 6.67646 	-0.212743 	3.18791e-20 6.67849 	-0.217481 	3.2476e-20 6.68152 	-0.221861 	2.48511e-20 6.6842 	-0.227311 	3.29306e-20 6.68633 	-0.232604 	2.69396e-20 6.68829 	-0.23789 	2.09736e-20 6.69021 	-0.243131 	1.41455e-20 6.69315 	-0.247968 	-2.30886e-21 6.69578 	-0.253995 	-4.73182e-21 6.69781 	-0.259909 	-1.00789e-20 6.69952 	-0.26578 	-1.634e-20 6.70152 	-0.271473 	-2.35251e-20 6.70402 	-0.276915 	-3.2056e-20 6.70652 	-0.28355 	-2.21752e-20 6.70857 	-0.290136 	-1.44764e-20 6.70997 	-0.296645 	-1.06617e-20 6.71192 	-0.302847 	-1.85706e-20 6.71391 	-0.308952 	-3.00564e-20 6.71622 	-0.316256 	1.34423e-21 6.7183 	-0.323546 	3.27469e-20 6.71952 	-0.330701 	3.67946e-20 6.72113 	-0.337538 	9.7814e-21 6.72255 	-0.344366 	-1.72495e-20 6.72457 	-0.352403 	-1.04628e-20 6.72636 	-0.360426 	-3.68299e-21 6.7279 	-0.36823 	0 6.72885 	-0.375859 	0 6.72959 	-0.383477 	0 6.73125 	-0.392321 	0 6.73268 	-0.401132 	0 6.73431 	-0.409667 	0 6.73471 	-0.418163 	0 6.73464 	-0.426643 	0 6.73584 	-0.43637 	0 6.73692 	-0.445948 	6.38545e-24 6.73784 	-0.455409 	1.7668e-23 6.7383 	-0.464849 	-1.96726e-22 6.73727 	-0.474267 	-1.84306e-21 6.73788 	-0.484943 	1.55622e-20 6.73825 	-0.49544 	7.76007e-21 6.73832 	-0.505914 	-1.10826e-22 6.73808 	-0.516364 	-8.05045e-21 6.73694 	-0.526801 	-2.25901e-20 6.73686 	-0.53189 	-2.02763e-20 6.73666 	-0.536939 	-1.8603e-20 6.7364 	-0.541984 	-1.69328e-20 6.73608 	-0.547024 	-1.52657e-20 6.73573 	-0.551577 	-1.37607e-20 6.73549 	-0.558149 	-1.38731e-20 6.73513 	-0.56471 	-1.40193e-20 6.73468 	-0.571262 	-1.41992e-20 6.73412 	-0.577805 	-1.44128e-20 6.73294 	-0.584376 	3.50941e-21 6.73341 	-0.596977 	2.27365e-20 6.73221 	-0.609642 	3.25852e-20 6.73065 	-0.622273 	4.25447e-20 6.72867 	-0.634878 	4.99972e-20 6.72471 	-0.647607 	3.42805e-21 6.72549 	-0.66145 	-9.84352e-21 6.7243 	-0.675325 	-2.24824e-20 6.72131 	-0.689223 	-3.45676e-20 6.71633 	-0.703219 	-4.71454e-20 6.71048 	-0.717245 	-5.99388e-20 6.70993 	-0.732512 	-8.77918e-20 6.70895 	-0.747739 	-1.15715e-19 6.70483 	-0.763092 	-1.11568e-19 6.69718 	-0.778554 	-7.706e-20 6.68906 	-0.794012 	-4.25048e-20 6.68679 	-0.81085 	-2.85476e-20 6.68287 	-0.82781 	-1.6875e-20 6.67685 	-0.844951 	-8.27185e-21 6.67017 	-0.862045 	1.21565e-23 6.65952 	-0.879185 	2.92891e-21 6.6565 	-0.892098 	1.98109e-20 6.65097 	-0.905167 	1.47079e-20 6.64518 	-0.91821 	9.52426e-21 6.63912 	-0.931228 	4.25973e-21 6.63374 	-0.942279 	-2.87342e-22 6.63099 	-0.948415 	-2.8088e-21 6.62817 	-0.954546 	-5.34802e-21 6.6253 	-0.960669 	-7.90503e-21 6.62237 	-0.966785 	-1.04798e-20 6.61876 	-0.973055 	-1.65772e-21 6.61095 	-0.993555 	-2.60521e-21 6.60058 	-1.0137 	-7.6528e-21 6.58964 	-1.03378 	-1.26575e-20 6.57712 	-1.05385 	-2.43295e-20 6.56197 	-1.07405 	-4.90162e-20 6.55211 	-1.09626 	-8.46637e-20 6.54161 	-1.11839 	-1.20345e-19 6.5266 	-1.14019 	-1.18479e-19 6.50752 	-1.16183 	-7.73002e-20 6.48768 	-1.18354 	-3.59017e-20 6.47382 	-1.20745 	-2.17592e-20 6.45685 	-1.23134 	-1.51275e-20 6.43757 	-1.2552 	-1.34554e-20 6.41755 	-1.27897 	-1.18589e-20 6.39528 	-1.30253 	-1.08133e-20 6.39315 	-1.30544 	-8.91405e-21 6.39056 	-1.30829 	-9.5853e-21 6.38777 	-1.31112 	-1.13406e-20 6.38497 	-1.31396 	-1.3099e-20 6.38222 	-1.31671 	-1.48155e-20 6.36295 	-1.33875 	-2.84165e-20 6.34311 	-1.36072 	-4.22056e-20 6.32269 	-1.38264 	-5.61839e-20 6.30069 	-1.40453 	-5.87195e-20 6.27536 	-1.42663 	-3.16679e-20 6.25197 	-1.45404 	-5.43187e-20 6.22773 	-1.48135 	-7.69278e-20 6.19733 	-1.50707 	-7.59186e-20 6.16068 	-1.53114 	-5.09365e-20 6.12278 	-1.55544 	-2.57555e-20 6.09995 	-1.57457 	-4.89828e-21 6.07552 	-1.59479 	-3.06648e-21 6.04958 	-1.61597 	-1.85226e-20 6.02313 	-1.63712 	-3.42009e-20 6.00036 	-1.65494 	-4.76228e-20 5.989 	-1.66362 	-5.77681e-20 5.97754 	-1.67228 	-6.79758e-20 5.96599 	-1.68094 	-7.82461e-20 5.954 	-1.68986 	-7.25317e-20 5.94153 	-1.69909 	-5.18201e-20 5.90687 	-1.73191 	-5.3342e-20 5.86881 	-1.76817 	-5.09986e-20 5.82885 	-1.80622 	-4.65225e-20 5.78861 	-1.86168 	-2.28813e-20 5.7458 	-1.91817 	1.31932e-21 5.71936 	-1.9635 	3.92366e-21 5.68889 	-2.01144 	6.06123e-21 5.64918 	-2.0666 	6.8581e-21 5.60814 	-2.12165 	7.70557e-21 5.57679 	-2.16229 	8.37034e-21 5.56223 	-2.18292 	7.37263e-21 5.5475 	-2.20348 	6.36789e-21 5.53261 	-2.22398 	5.35611e-21 5.51512 	-2.25124 	6.28493e-21 5.4967 	-2.28005 	7.55425e-21 5.44646 	-2.3804 	1.55689e-20 5.39356 	-2.48007 	2.35463e-20 5.31926 	-2.5594 	2.43393e-20 5.21963 	-2.61326 	1.75544e-20 5.11026 	-2.67201 	1.02844e-20 5.09683 	-2.68107 	9.88943e-21 5.08338 	-2.69014 	9.49547e-21 5.06724 	-2.68986 	9.35133e-21 5.0503 	-2.68684 	9.28084e-21 5.03403 	-2.68393 	9.21374e-21 4.95454 	-2.7443 	5.90966e-21 4.87451 	-2.80667 	2.57916e-21 4.78822 	-2.85325 	-6.89782e-22 4.67951 	-2.83315 	-3.64357e-21 4.56108 	-2.81194 	-6.86211e-21 4.52347 	-2.80751 	-1.12976e-20 4.48581 	-2.80316 	-1.57283e-20 4.44672 	-2.78076 