/*--------------------------------*- C++ -*----------------------------------*\
| =========                 |                                                 |
| \\      /  F ield         | OpenFOAM: The Open Source CFD Toolbox           |
|  \\    /   O peration     | Version:  v1906                                 |
|   \\  /    A nd           | Web:      www.OpenFOAM.com                      |
|    \\/     M anipulation  |                                                 |
\*---------------------------------------------------------------------------*/
FoamFile
{
    version     2.0;
    format      ascii;
    class       volScalarField;
    location    "1800";
    object      epsilon;
}
// * * * * * * * * * * * * * * * * * * * * * * * * * * * * * * * * * * * * * //

dimensions      [0 2 -3 0 0 0 0];


internalField   nonuniform List<scalar> 
12225
(
8534.34
8358.78
8007.06
7625.97
7271.3
6953.9
6674.35
6429.11
6212.98
6024.31
5854.7
5710.32
5596.38
5504.98
5423.46
5364.69
5297.18
5271.69
613.288
1491.94
1695.91
1687.55
1643.39
1583.22
1532.33
1488.61
1451
1417.55
1389.45
1363.81
1343.77
1325.89
1310.72
1298.24
1281.33
1271
136.16
458.048
618.084
686.287
715.044
720.48
717.958
711.411
701.574
690.788
680.482
670.045
660.521
651.476
642.987
635.77
627.046
622.279
58.5087
195.962
292.24
349.062
383
401.921
412.207
417.444
418.754
418.105
416.36
413.381
409.926
406.258
402.397
398.877
394.304
392.24
35.9875
104.727
162.905
203.315
231.123
249.913
262.584
271.174
276.7
280.136
282.173
283.114
283.106
282.775
281.981
280.973
279.283
279.016
26.8394
65.6082
102.205
130.481
151.703
167.448
179.117
187.818
194.247
198.97
202.434
204.929
206.613
207.759
208.453
208.816
208.833
209.236
22.3051
46.1193
70.0864
90.0645
106.013
118.575
128.445
136.228
142.359
147.19
151.005
154.014
156.359
158.187
159.599
160.677
161.437
162.397
19.7662
35.2991
51.5659
65.9124
77.9245
87.8099
95.9051
102.541
107.985
112.457
116.14
119.179
121.682
123.746
125.447
126.848
127.986
129.172
18.2254
28.791
40.1603
50.63
59.7399
67.5002
74.0616
79.6019
84.2821
88.2408
91.5966
94.4475
96.8717
98.9363
100.698
102.202
103.494
104.75
17.2358
24.6385
32.7743
40.5283
47.4959
53.6047
58.907
63.4938
67.4592
70.8899
73.8624
76.4428
78.6863
80.64
82.3448
83.8357
85.1524
86.3916
16.5723
21.8696
27.8001
33.6165
38.9898
43.8201
48.1083
51.8952
55.233
58.1746
60.769
63.0602
65.0863
66.8808
68.4733
69.8901
71.1623
72.3437
16.1504
20.1194
24.6322
29.1579
33.4325
37.3533
40.8983
44.0813
46.9306
49.4782
51.7564
53.7949
55.6208
57.2583
58.7291
60.0537
61.2551
62.3664
15.8386
18.8322
22.2881
25.8277
29.2419
32.4345
35.3718
38.0511
40.4843
42.6893
44.6858
46.4937
48.1313
49.6159
50.9635
52.1893
53.3102
54.3472
15.5804
17.7744
20.3511
23.0509
25.7151
28.2594
30.6449
32.8583
34.8997
36.7759
38.4972
40.0747
41.5201
42.8447
44.0594
45.1749
46.2027
47.1559
15.375
16.9413
18.8166
20.8313
22.8697
24.8618
26.7689
28.5714
30.2616
31.8384
33.3047
34.6655
35.9267
37.0949
38.1769
39.1796
40.1104
40.9772
15.2205
16.3213
17.6682
19.1555
20.7021
22.2521
23.7696
25.2327
26.629
27.9519
29.1994
30.3716
31.4704
32.4989
33.4604
34.3591
35.1991
35.9848
15.1157
15.9043
16.8915
18.0128
19.2114
20.4434
21.6768
22.8893
24.0661
25.1976
26.2785
27.3059
28.2788
29.1979
30.0645
30.8803
31.6478
32.3688
15.0632
15.6965
16.5025
17.436
18.4533
19.5174
20.5991
21.6766
22.7343
23.7614
24.7508
25.6984
26.6018
27.4602
28.2739
29.0437
29.7713
30.4587
15.0795
15.76
16.6199
17.608
18.6772
19.7889
20.9135
22.0294
23.1213
24.1789
25.1956
26.1676
27.0929
27.9709
28.802
29.5869
30.3268
31.0227
15.1994
16.2351
17.5046
18.9116
20.3816
21.8623
23.319
24.7301
26.0827
27.3698
28.5883
29.7376
30.819
31.8344
32.7865
33.6777
34.5105
35.2859
15.4079
17.0692
19.0461
21.1587
23.2876
25.362
27.3437
29.2141
30.9664
32.6006
34.1201
35.5307
36.839
38.0516
39.1752
40.2155
41.1769
42.0604
15.7678
18.5276
21.7178
25.0028
28.193
31.1974
33.9811
36.5377
38.8748
41.0066
42.9494
44.72
46.3343
47.8075
49.1531
50.3824
51.5042
52.5179
16.3874
21.0683
26.3241
31.525
36.3796
40.7898
44.7463
48.2755
51.417
54.2126
56.7026
58.9234
60.9074
62.6833
64.2769
65.7091
66.9972
68.1336
17.4993
25.661
34.5356
42.9075
50.369
56.875
62.5017
67.3538
71.5382
75.1527
78.2815
80.9964
83.3578
85.4168
87.2192
88.8009
90.1987
91.3902
19.6479
34.5712
50.1045
63.8446
75.4002
84.9808
92.8952
99.4253
104.824
109.302
113.025
116.129
118.72
120.886
122.708
124.238
125.56
126.615
24.3004
53.8823
82.3908
105.373
123.239
137.069
147.767
156.01
162.387
167.343
171.179
174.146
176.411
178.128
179.443
180.395
181.165
181.611
36.4961
103.238
158.407
197.148
223.881
242.402
255.095
263.535
269.181
272.895
275.12
276.315
276.663
276.51
276.078
275.214
274.381
273.238
81.6392
262.164
371.713
432.682
465.684
483.238
490.756
491.965
490.951
488.39
484.35
479.77
475.006
470.033
465.384
460.491
456.452
451.941
390.391
972.796
1158.18
1204.47
1196.92
1173.36
1136.58
1105.23
1078.05
1054.27
1033.19
1014.33
997.671
982.473
969.386
956.88
946.946
936.261
6457.37
6263.5
6000.47
5747.86
5516.13
5307.84
5121.69
4956.08
4808.46
4676.53
4558.07
4451.32
4354.88
4267.2
4187.75
4114.65
4048.52
3986.46
4.70602
4.38362
6.97112
8.62173
9.89885
10.7867
11.4923
12.0225
12.4532
12.7994
13.0885
13.3277
13.5252
13.6839
13.8031
13.8859
13.9341
13.9579
13.952
13.8213
13.48
12.8959
12.1367
11.2506
10.2996
9.36178
8.51833
7.8412
7.41004
7.18463
7.20671
7.35012
7.5805
7.7814
7.88029
7.83208
7.55354
6.90647
6.16127
5.66215
5.69213
6.22808
7.09495
8.35712
10.1702
12.8177
15.8102
18.9207
22.1473
25.475
28.887
32.3712
35.9387
39.6077
43.4066
47.2699
51.1824
55.1561
59.1989
63.319
67.5264
71.8304
76.2409
80.7671
85.4185
90.204
95.1323
100.212
105.451
110.856
116.436
122.198
128.147
134.292
140.637
147.189
153.953
160.934
168.135
175.562
183.215
191.096
199.206
207.543
216.102
224.878
233.858
243.03
252.374
261.865
271.474
281.162
290.885
300.586
310.237
319.891
329.556
339.198
348.797
358.358
368.024
377.749
387.507
397.243
406.894
416.377
425.587
434.375
442.526
449.7
454.436
456.936
455.782
453.864
453.952
454.965
459.744
463.38
469.74
479.141
483.1
480.096
468.78
448.623
422.017
389.968
355.495
318.712
273.746
225.117
169.953
114.903
67.4222
41.5567
42.6609
46.7179
31.7217
24.1637
87.4995
216.551
324.102
422.556
505.814
574.508
628.701
668.493
697.695
714.084
721.148
720.955
709.966
679.975
656.778
630.74
606.697
583.766
562.808
543.931
527.259
513.017
501.551
492.898
487.692
486.058
486.563
491.348
501.424
516.39
523.653
531.436
538.737
545.065
550.393
554.122
556.57
556.786
555.066
548.494
542.61
503.079
13.1221
8.29822
7.18316
6.89617
6.81782
6.8489
6.9058
6.97675
7.03484
7.08122
7.11096
7.12697
7.13039
7.12746
7.12351
7.12535
7.14107
7.1862
7.29191
7.4818
7.80633
8.24923
8.78877
9.39159
10.0099
10.5824
11.1551
11.8092
12.5816
13.4973
14.5703
15.791
17.1204
18.4825
19.7709
20.8707
21.692
22.2165
22.5265
22.7369
22.9152
23.0881
23.2928
23.5835
23.9984
24.5537
25.219
25.9781
26.8297
27.7709
28.7968
29.8944
31.064
32.3033
33.6067
34.9673
36.3821
37.8503
39.3713
40.9446
42.5702
44.2483
45.9791
47.7633
49.6013
51.4939
53.4418
55.4458
57.5066
59.625
61.8016
64.0372
66.3321
68.6869
71.1019
73.5773
76.1131
78.7089
81.3644
84.0787
86.8506
89.6785
92.5605
95.494
98.4762
101.504
104.574
107.683
110.831
114.018
117.248
120.534
123.899
127.387
131.058
134.948
138.958
143.187
147.784
152.999
158.656
164.488
170.482
176.618
182.873
189.215
195.6
201.963
208.216
214.233
219.837
225.005
229.793
234.435
239.011
243.532
248.021
251.153
252.067
250.785
247.613
242.018
233.523
221.959
208.034
192.306
175.499
158.957
147.151
131.641
117.712
111.975
104.388
99.0029
110.324
154.259
191.335
180.664
191.515
217.948
234.583
246.46
255.108
262.916
270.191
278.879
289.127
294.739
296.606
296.487
293.434
287.739
282.274
275.916
269.627
263.45
257.679
252.471
248.017
244.486
241.787
239.987
239.071
238.775
239.186
240.654
242.894
244.431
243.984
243.669
243.293
242.556
241.298
239.466
237.065
234.087
230.31
225.691
220.379
211.912
24.2181
12.8924
10.1683
8.93002
8.29522
7.97352
7.76986
7.66446
7.59052
7.54705
7.51828
7.50777
7.5154
7.5503
7.62663
7.76458
7.98128
8.27895
8.66704
9.16047
9.7783
10.5374
11.4513
12.5303
13.7813
15.2105
16.7681
18.3864
20.015
21.5842
22.9935
24.1324
24.9305
25.3467
25.4535
25.31
24.9757
24.5494
24.1178
23.7464
23.4952
23.3945
23.4231
23.5983
23.9272
24.3969
25.0002
25.7284
26.567
27.5016
28.5181
29.6082
30.7589
31.9587
33.1991
34.474
35.7799
37.1146
38.477
39.8669
41.2849
42.7315
44.2079
45.7152
47.2544
48.8267
50.4334
52.0755
53.754
55.47
57.2244
59.0181
60.8519
62.7266
64.6431
66.6021
68.6044
70.651
72.7426
74.8803
77.0653
79.299
81.5829
83.9192
86.3103
88.7597
91.2713
93.8507
96.505
99.2433
102.077
105.021
108.092
111.312
114.706
118.301
122.127
126.211
130.579
135.244
140.177
145.335
150.705
156.284
162.062
168.025
174.145
180.369
186.633
192.866
198.993
204.976
210.805
216.398
221.619
226.308
230.089
232.222
232.624
231.54
228.365
222.315
213.296
201.522
187.637
172.418
156.907
142.506
130.102
119.704
116.817
121.365
137.473
177.732
267.97
329.551
275.77
226.639
212.937
213.38
215.046
215.766
216.497
218.987
223.903
231.661
238.38
241.91
243.145
242.989
241.354
238.48
234.938
230.703
226.198
221.621
217.194
213.115
209.633
207.03
204.859
203.131
201.797
200.775
200.08
199.613
199.055
198.051
196.67
195.272
193.632
191.662
189.325
186.596
183.514
180.051
176.315
172.221
168.236
164.442
34.1116
17.001
12.9968
11.1881
10.2189
9.6373
9.27866
9.06667
8.93823
8.88531
8.87948
8.92582
9.0221
9.18155
9.41841
9.74358
10.1535
10.6394
11.1942
11.8193
12.5291
13.343
14.2766
15.3327
16.4964
17.7305
18.9846
20.1941
21.2888
22.2056
22.9032
23.3503
23.5289
23.482
23.2241
22.8563
22.4641
22.1166
21.8814
21.7909
21.8414
22.0445
22.4014
22.9077
23.5461
24.3044
25.1614
26.1082
27.1355
28.2313
29.3838
30.5792
31.8077
33.0624
34.3395
35.6369
36.9545
38.293
39.654
41.0395
42.4514
43.8922
45.3641
46.8681
48.4057
49.9784
51.5877
53.2351
54.922
56.6496
58.4191
60.2318
62.0887
63.991
65.9399
67.9364
69.9817
72.0771
74.2239
76.4236
78.6777
80.9882
83.3573
85.7877
88.2825
90.8456
93.482
96.1976
98.9996
101.897
104.901
108.024
111.281
114.689
118.267
122.036
126.021
130.257
134.789
139.682
145.04
150.716
156.683
162.935
169.469
176.28
183.355
190.609
197.95
205.3
212.588
219.742
226.672
233.241
239.26
244.48
248.523
250.904
251.369
249.825
245.673
238.447
228.247
215.312
200.124
183.421
166.069
149.241
136.494
131.511
134.389
150.483
195.546
289.093
369.438
337.611
265.237
225.25
211.842
207.702
206.089
205.667
207.564
212.153
218.705
226.114
231.998
236.01
238.249
239.09
238.779
237.187
234.542
231.059
227.057
222.783
218.477
214.345
210.535
207.096
203.973
201.162
198.634
196.342
194.239
192.231
190.164
187.947
185.603
183.059
180.265
177.228
173.942
170.408
166.675
162.737
158.723
154.594
150.821
147.517
47.9169
21.966
16.1507
13.534
12.322
11.5623
11.1294
10.8463
10.686
10.6063
10.5982
10.6507
10.7638
10.9349
11.1661
11.458
11.8107
12.2212
12.6858
13.2022
13.772
14.3971
15.0787
15.8126
16.5858
17.3784
18.1357
18.7945
19.312
19.6665
19.8473
19.8978
19.8735
19.811
19.7737
19.7782
19.845
20.0009
20.2641
20.6444
21.1424
21.7494
22.4551
23.2535
24.1506
25.1389
26.2058
27.3328
28.5049
29.7117
30.9455
32.2044
33.4869
34.7925
36.1213
37.4743
38.853
40.2593
41.6951
43.1624
44.6632
46.1995
47.7727
49.3857
51.0405
52.739
54.4831
56.2743
58.1143
60.0045
61.9465
63.9416
65.9913
68.0971
70.2602
72.4822
74.7646
77.1088
79.5166
81.9898
84.5305
87.1409
89.8237
92.5819
95.4192
98.34
101.349
104.453
107.658
110.972
114.407
117.974
121.685
125.557
129.608
133.857
138.327
143.048
148.054
153.374
159.035
165.049
171.457
178.273
185.507
193.197
201.438
210.061
218.895
227.846
236.831
245.748
254.471
262.836
270.617
277.51
283.106
286.874
288.26
286.761
281.767
272.665
259.594
242.911
223.337
202.267
181.855
165.172
158.826
161.686
175.339
211.378
285.123
365.363
368.472
307.472
248.895
221.177
210.246
206.521
205.759
207.62
212.529
219.788
228.205
236.576
243.864
249.734
253.837
255.86
256.336
255.193
252.64
248.965
244.511
239.586
234.461
229.351
224.395
219.665
215.193
210.994
207.049
203.318
199.742
196.247
192.771
189.292
185.795
182.222
178.493
174.557
170.469
166.254
161.955
157.59
153.278
149.009
145.158
141.765
57.7705
26.1764
18.9715
15.7502
14.251
13.3115
12.7635
12.4045
12.1916
12.0698
12.0238
12.0313
12.0886
12.1874
12.3241
12.4954
12.7007
12.9389
13.2091
13.5105
13.8441
14.2112
14.6013
15.0019
15.3975
15.768
16.1092
16.4232
16.7075
16.9607
17.1901
17.4104
17.6392
17.8949
18.1948
18.5526
18.9804
19.4829
20.062
20.7163
21.4489
22.269
23.1763
24.1615
25.2079
26.3063
27.4518
28.6388
29.8628
31.1204
32.4094
33.7291
35.0794
36.4609
37.8745
39.3217
40.8043
42.324
43.883
45.4832
47.1269
48.8161
50.5529
52.3396
54.1781
56.0704
58.0185
60.0243
62.0894
64.2158
66.405
68.6589
70.9791
73.3673
75.825
78.3541
80.9562
83.6332
86.3868
89.2192
92.1325
95.1294
98.2125
101.385
104.651
108.014
111.48
115.055
118.744
122.558
126.505
130.597
134.847
139.271
143.888
148.72
153.791
159.129
164.766
170.742
177.111
183.954
191.41
199.496
208.146
217.382
227.2
237.464
248.052
258.863
269.792
280.715
291.478
301.882
311.667
320.471
327.798
333.016
335.442
334.238
328.596
317.605
301.263
280.059
255.261
229.375
206.614
192.371
192.129
204.274
233.894
285.929
347.163
365.251
329.515
271.934
234.031
215.92
208.969
207.325
209.084
214.367
222.276
231.878
242.284
252.584
261.94
269.693
275.323
278.336
279.279
278.224
275.353
271.034
265.67
259.629
253.228
246.719
240.276
234.016
228.007
222.28
216.832
211.636
206.655
201.84
197.152
192.557
188.011
183.445
178.813
174.124
169.407
164.657
159.893
155.141
150.531
146.041
141.968
138.15
67.2852
29.666
21.171
17.4189
15.6264
14.4964
13.8097
13.3478
13.0528
12.8603
12.7482
12.6951
12.6874
12.7154
12.7728
12.8542
12.957
13.0794
13.2214
13.3832
13.5616
13.7541
13.9632
14.1883
14.4276
14.6802
14.9467
15.2285
15.5279
15.8485
16.1954
16.5748
16.9924
17.453
17.9608
18.5192
19.1295
19.8032
20.5485
21.3677
22.2566
23.2062
24.2114
25.2702
26.3792
27.5355
28.7365
29.9801
31.2647
32.5895
33.9539
35.3583
36.8032
38.2897
39.819
41.3928
43.0129
44.6812
46.3998
48.171
49.9969
51.8801
53.8227
55.8273
57.8961
60.0314
62.2356
64.511
66.8599
69.2844
71.7868
74.3691
77.0335
79.7821
82.6169
85.54
88.5534
91.6591
94.8595
98.1568
101.553
105.052
108.656
112.368
116.193
120.135
124.198
128.389
132.716
137.185
141.808
146.594
151.559
156.716
162.084
167.68
173.531
179.665
186.118
192.929
200.15
207.836
216.044
224.823
234.249
244.456
255.604
267.363
279.574
292.109
304.829
317.577
330.163
342.359
353.87
364.299
373.098
379.542
382.8
381.886
375.731
363.29
344.371
319.654
291.137
262.499
239.383
229.604
235.399
256.703
292.382
331.273
347.62
330.665
285.627
246.455
223.22
212.742
209.751
211.184
216.631
225.036
235.654
247.751
260.517
273.04
284.42
293.857
300.747
304.525
305.74
304.517
301.071
295.847
289.317
281.917
274.02
265.926
257.855
249.962
242.342
235.044
228.083
221.444
215.102
209.023
203.168
197.492
191.944
186.463
181.025
175.633
170.301
165.034
159.852
154.779
149.892
145.174
140.834
136.639
70.6533
31.4623
22.29
18.2572
16.3075
15.0665
14.2951
13.764
13.4102
13.1655
13.0047
12.9017
12.8465
12.8281
12.8394
12.8753
12.9332
13.0102
13.1051
13.2172
13.3489
13.5017
13.6781
13.8799
14.1089
14.3673
14.6568
14.9795
15.3371
15.7312
16.1631
16.6337
17.148
17.7112
18.328
19.0029
19.7384
20.5306
21.3764
22.2762
23.2302
24.2376
25.2976
26.4091
27.5713
28.7832
30.0441
31.3537
32.7116
34.1181
35.5736
37.079
38.6353
40.244
41.9066
43.6251
45.4016
47.2382
49.1375
51.102
53.1342
55.2369
57.4129
59.665
61.9958
64.4084
66.9053
69.4894
72.1633
74.9296
77.791
80.7499
83.8086
86.9696
90.2351
93.6072
97.0883
100.68
104.386
108.207
112.147
116.208
120.393
124.707
129.152
133.734
138.457
143.328
148.355
153.544
158.907
164.455
170.2
176.16
182.355
188.807
195.541
202.585
209.971
217.734
225.92
234.578
243.767
253.565
264.089
275.518
287.848
300.857
314.462
328.503
342.797
357.142
371.306
385.018
397.959
409.703
419.648
427.001
430.801
430.025
423.426
410
389.454
362.632
332.002
301.88
278.302
268.442
275.465
294.777
316.728
327.605
318.242
286.305
253.175
229.126
216.469
212.154
212.761
217.876
226.229
237.068
249.836
263.972
278.779
293.346
306.607
317.583
325.573
329.974
331.337
329.788
325.625
319.373
311.577
302.744
293.31
283.624
273.952
264.481
255.337
246.586
238.252
230.333
222.8
215.613
208.726
202.093
195.662
189.386
183.247
177.245
171.392
165.697
160.178
154.818
149.701
144.773
140.154
135.572
74.4649
32.3244
22.6685
18.4437
16.3985
15.0994
14.2898
13.7323
13.3603
13.1031
12.934
12.8256
12.767
12.7461
12.756
12.7924
12.853
12.9366
13.0426
13.171
13.3223
13.4978
13.6993
13.9297
14.1914
14.487
14.8188
15.1893
15.6008
16.0562
16.5575
17.1073
17.7059
18.3531
19.0491
19.794
20.5897
21.4371
22.3369
23.2898
24.2963
25.3568
26.4718
27.6413
28.8658
30.1456
31.481
32.8727
34.3215
35.8282
37.3942
39.0209
40.7099
42.4632
44.283
46.1715
48.1314
50.1652
52.276
54.4665
56.7401
59.0997
61.5486
64.09
66.7272
69.4635
72.302
75.246
78.2984
81.4623
84.7405
88.1359
91.6511
95.2887
99.0511
102.941
106.96
111.112
115.398
119.821
124.384
129.091
133.944
138.947
144.106
149.425
154.91
160.566
166.402
172.427
178.649
185.081
191.737
198.632
205.783
213.211
220.939
228.997
237.418
246.239
255.501
265.252
275.544
286.438
297.999
310.276
323.291
337.096
351.867
367.272
383.083
399.055
414.902
430.323
444.983
458.431
469.945
478.604
483.263
482.783
475.82
461.415
439.349
410.648
377.966
345.631
319.401
306.065
304.08
307.529
309.144
299.714
277.373
252.105
231.379
218.759
213.748
213.754
218.325
226.334
236.989
249.82
264.48
280.548
297.327
313.773
328.682
340.95
349.792
354.617
355.951
353.91
348.904
341.535
332.423
322.142
311.186
299.96
288.768
277.825
267.275
257.201
247.634
238.567
229.965
221.78
213.967
206.48
199.276
192.314
185.576
179.061
172.782
166.743
160.951
155.378
150.055
144.92
140.026
135.153
74.4955
32.1086
22.4321
18.196
16.1471
14.8472
14.0405
13.4882
13.1255
12.8811
12.7288
12.6417
12.6075
12.6114
12.6489
12.7151
12.8081
12.9261
13.0684
13.2357
13.4297
13.6521
13.9048
14.1892
14.5071
14.8605
15.2511
15.6807
16.1507
16.6624
17.2175
17.8177
18.4643
19.1586
19.9016
20.6947
21.5393
22.4364
23.3876
24.394
25.4569
26.5775
27.7569
28.9963
30.2969
31.6599
33.0868
34.5788
36.1377
37.7652
39.4633
41.234
43.0799
45.0032
47.007
49.0939
51.2672
53.53
55.8857
58.3378
60.8899
63.5455
66.3084
69.1821
72.1704
75.2768
78.5049
81.8582
85.3399
88.9533
92.7013
96.587
100.613
104.782
109.096
113.558
118.17
122.934
127.854
132.931
138.169
143.571
149.14
154.882
160.8
166.9
173.187
179.67
186.354
193.249
200.365
207.714
215.311
223.171
231.317
239.773
248.564
257.717
267.265
277.244
287.695
298.661
310.19
322.332
335.138
348.656
362.932
378.011
393.908
410.578
428.025
445.946
463.993
481.876
499.309
515.91
530.641
542.306
549.44
550.545
544.039
528.848
504.831
473.255
437.096
400.693
368.49
343.049
323.197
305.998
287.99
267.552
247.083
230.141
219.147
214.411
214.267
218.128
225.605
235.756
248.091
262.368
278.432
295.997
314.392
332.447
348.76
362.074
371.524
376.588
377.706
375.049
369.122
360.608
350.208
338.563
326.217
313.612
301.084
288.87
277.127
265.938
255.336
245.307
235.807
226.782
218.19
209.994
202.153
194.631
187.413
180.497
173.894
167.6
161.605
155.861
150.372
145.062
139.962
134.876
74.3032
31.5336
21.8929
17.7029
15.6901
14.4237
13.6496
13.1298
12.8013
12.5928
12.4807
12.4364
12.4449
12.4947
12.5798
12.6946
12.8364
13.0041
13.1988
13.4206
13.6704
13.9489
14.2571
14.5964
14.9685
15.3747
15.8169
16.2968
16.816
17.3764
17.9798
18.6279
19.3227
20.0658
20.8591
21.7045
22.6037
23.5587
24.5713
25.6434
26.7769
27.9739
29.2363
30.5661
31.9653
33.4361
34.9808
36.6016
38.301
40.0816
41.9462
43.8977
45.9392
48.0738
50.3051
52.6365
55.0717
57.6144
60.2686
63.038
65.9267
68.9386
72.0778
75.348
78.7533
82.2972
85.9835
89.8156
93.7968
97.9302
102.219
106.665
111.272
116.041
120.976
126.078
131.349
136.792
142.41
148.205
154.18
160.34
166.687
173.227
179.965
186.907
194.059
201.427
209.02
216.846
224.916
233.242
241.839
250.723
259.913
269.433
279.31
289.576
300.267
311.425
323.093
335.32
348.155
361.655
375.877
390.885
406.742
423.51
441.233
459.932
479.572
500.028
521.112
542.542
563.867
584.38
603.079
618.69
629.662
634.213
630.499
617.055
593.199
559.558
518.337
472.924
426.924
383.355
343.747
308.506
277.512
252.04
233.373
221.674
216.223
215.184
218.064
224.79
234.213
245.777
259.236
274.562
291.773
310.667
330.475
349.853
367.229
381.236
390.955
395.999
396.656
393.272
386.357
376.706
365.089
352.196
338.614
324.813
311.145
297.856
285.106
272.979
261.507
250.673
240.42
230.691
221.452
212.679
204.33
196.37
188.784
181.572
174.746
168.283
162.157
156.299
150.697
145.271
140.045
134.818
72.7918
30.5735
21.1544
17.1167
15.1556
13.9403
13.2147
12.7414
12.4596
12.2996
12.2377
12.2421
12.3032
12.4079
12.5502
12.7233
12.9254
13.1544
13.4095
13.6909
13.999
14.3346
14.6991
15.0939
15.5208
15.9813
16.4772
17.0104
17.5828
18.1968
18.8544
19.5579
20.3097
21.1121
21.9675
22.8785
23.8476
24.8773
25.9702
27.1292
28.3568
29.6559
31.0295
32.4803
34.0115
35.626
37.3271
39.118
41.0021
42.9828
45.0638
47.2488
49.5416
51.9461
54.4663
57.1063
59.8703
62.7624
65.7867
68.9474
72.2487
75.6947
79.2893
83.0363
86.9394
91.0022
95.228
99.6199
104.181
108.913
113.82
118.903
124.164
129.605
135.229
141.036
147.029
153.209
159.578
166.14
172.897
179.853
187.012
194.378
201.956
209.752
217.773
226.024
234.513
243.249
252.242
261.505
271.054
280.908
291.09
301.63
312.556
323.904
335.713
348.029
360.901
374.385
388.54
403.434
419.138
435.735
453.313
471.963
491.767
512.779
535.002
558.36
582.669
607.593
632.597
656.91
679.498
699.044
713.94
722.283
721.983
711.194
688.345
652.999
606.179
550.415
489.601
428.635
371.886
322.083
283.161
254.461
235.178
224.215
219.881
220.508
225.557
233.627
243.988
256.24
270.286
286.238
304.232
324.106
344.983
365.314
383.358
397.664
407.321
412.038
412.051
407.891
399.955
389.233
376.532
362.572
347.961
333.184
318.597
304.452
290.903
278.032
265.875
254.408
243.555
233.264
223.502
214.296
205.573
197.299
189.47
182.086
175.138
168.591
162.402
156.49
150.836
145.361
140.069
134.739
70.1518
29.2517
20.2743
16.4817
14.595
13.4473
12.7826
12.3652
12.1383
12.0328
12.0227
12.0816
12.1995
12.363
12.5663
12.8027
13.0706
13.3666
13.6897
14.0388
14.4141
14.816
15.2461
15.7056
16.1963
16.7204
17.2802
17.8777
18.5156
19.1967
19.9237
20.6997
21.5273
22.4098
23.3502
24.3519
25.4183
26.5529
27.7593
29.0411
30.402
31.846
33.3769
34.9987
36.7155
38.5314
40.4506
42.4774
44.6162
46.8713
49.2472
51.7484
54.3793
57.1446
60.0485
63.0957
66.2903
69.6368
73.1392
76.8016
80.6278
84.6217
88.7866
93.1258
97.6423
102.339
107.218
112.282
117.533
122.972
128.6
134.42
140.431
146.635
153.033
159.625
166.413
173.397
180.579
187.961
195.546
203.337
211.339
219.554
227.99
236.65
245.54
254.666
264.036
273.657
283.54
293.697
304.145
314.904
325.998
337.454
349.308
361.598
374.373
387.685
401.594
416.165
431.47
447.587
464.608
482.635
501.783
522.174
543.922
567.111
591.766
617.818
645.065
673.133
701.438
729.156
755.2
778.205
796.51
808.146
810.821
802.532
780.877
744.444
693.21
628.972
556.098
481.325
411.436
351.211
303.804
269.87
247.902
235.765
231.136
231.996
236.91
244.845
255.089
267.286
281.419
297.67
316.219
336.824
358.409
379.232
397.456
411.605
420.805
424.849
424.11
419.072
410.14
398.444
384.809
369.963
354.523
338.977
323.68
308.872
294.698
281.244
268.56
256.612
245.294
234.579
224.464
215.013
206.073
197.621
189.664
182.195
175.195
168.62
162.417
156.5
150.842
145.36
140.029
134.632
66.946
27.7818
19.3308
15.8191
14.0363
12.9743
12.3812
12.0279
11.8621
11.8126
11.8599
11.977
12.1554
12.3806
12.6481
12.9532
13.2932
13.6644
14.0654
14.4947
14.9519
15.437
15.9511
16.4952
17.0715
17.6818
18.3284
19.0147
19.7445
20.5212
21.3483
22.2293
23.1681
24.1687
25.2353
26.3723
27.5844
28.8762
30.2524
31.718
33.278
34.9374
36.7015
38.5754
40.5645
42.674
44.9094
47.2759
49.7788
52.4234
55.2148
58.1581
61.2582
64.5199
67.9475
71.5456
75.3181
79.2689
83.4015
87.7192
92.2248
96.921
101.81
106.894
112.174
117.652
123.328
129.203
135.277
141.551
148.023
154.693
161.561
168.626
175.887
183.343
190.995
198.842
206.885
215.125
223.563
232.203
241.047
250.099
259.362
268.841
278.541
288.465
298.619
309.011
319.65
330.551
341.731
353.214
365.028
377.205
389.781
402.799
416.31
430.372
445.052
460.424
476.57
493.584
511.573
530.664
551.002
572.742
596.029
620.97
647.604
675.863
705.531
736.205
767.259
797.813
826.719
852.553
873.604
887.865
892.959
886.806
866.614
830.084
776.541
707.174
626.538
542.425
463.17
394.95
340.983
301.474
274.866
258.894
251.086
249.424
252.375
258.77
267.844
279.25
292.972
309.159
327.918
348.848
370.649
391.418
409.284
422.803
431.173
434.287
432.715
426.668
416.73
404.166
389.765
374.239
358.191
342.103
326.32
311.076
296.506
282.69
269.678
257.477
245.893
234.937
224.62
214.983
205.837
197.235
189.186
181.677
174.68
168.132
161.976
156.124
150.523
145.068
139.744
134.353
63.4976
26.2464
18.3745
15.1608
13.5148
12.5631
12.0406
11.7549
11.6547
11.6681
11.7809
11.964
12.2085
12.5037
12.8478
13.234
13.6602
14.1226
14.6203
15.1513
15.7155
16.3124
16.943
17.608
18.3089
19.0479
19.8279
20.6526
21.5266
22.454
23.4396
24.4884
25.605
26.795
28.0642
29.4187
30.8645
32.4078
34.0548
35.8121
37.6863
39.6839
41.8116
44.0761
46.484
49.0418
51.7558
54.6323
57.6773
60.8966
64.2955
67.8793
71.6527
75.6198
79.7845
84.1503
88.72
93.4961
98.4804
103.674
109.079
114.695
120.522
126.56
132.808
139.264
145.927
152.795
159.865
167.134
174.599
182.258
190.107
198.143
206.364
214.765
223.347
232.106
241.043
250.157
259.449
268.92
278.573
288.41
298.434
308.647
319.051
329.65
340.447
351.448
362.664
374.109
385.802
397.766
410.029
422.621
435.581
448.957
462.804
477.186
492.177
507.858
524.32
541.671
560.039
579.582
600.482
622.93
647.105
673.136
701.073
730.844
762.221
794.776
827.854
860.538
891.628
919.647
942.837
959.187
966.35
962.216
944.139
909.001
855.711
784.833
700.695
611.319
525.662
450.646
389.936
344.084
311.671
290.439
278.045
272.48
272.162
275.8
282.764
292.677
305.481
321.211
339.794
360.566
382.004
402.118
419.067
431.482
438.635
440.433
437.814
430.601
419.83
406.676
391.816
375.903
359.529
343.162
327.145
311.691
296.928
282.929
269.729
257.29
245.448
234.259
223.728
213.842
204.566
195.908
187.859
180.395
173.472
167.03
161.002
155.283
149.801
144.444
139.192
133.875
59.4079
24.6018
17.3838
14.4959
13.0155
12.1958
11.7605
11.5591
11.5401
11.635
11.8287
12.0945
12.431
12.825
13.2747
13.773
14.3196
14.9111
15.5475
16.2273
16.9511
17.7187
18.5313
19.3897
20.2958
21.252
22.262
23.3298
24.4593
25.6547
26.9229
28.2704
29.704
31.2313
32.8605
34.5999
36.4574
38.4407
40.558
42.8178
45.2288
47.7992
50.5375
53.4515
56.5488
59.8367
63.3222
67.0118
70.9113
75.0261
79.3607
83.9192
88.7046
93.7193
98.965
104.442
110.152
116.093
122.263
128.663
135.288
142.135
149.202
156.483
163.974
171.67
179.565
187.653
195.927
204.381
213.009
221.804
230.759
239.868
249.126
258.529
268.07
277.749
287.562
297.509
307.588
317.801
328.147
338.628
349.243
359.993
370.878
381.899
393.059
404.362
415.82
427.448
439.264
451.295
463.568
476.115
488.976
502.199
515.841
529.969
544.657
559.989
576.063
593.003
610.967
630.152
650.786
673.106
697.327
723.604
752.001
782.445
814.691
848.289
882.563
916.585
949.14
978.721
1003.54
1021.59
1030.62
1028.48
1013.14
980.804
930.201
861.234
777.497
686.505
597.132
516.712
449.564
396.914
357.83
330.338
312.252
301.622
296.893
296.924
300.796
308.46
319.706
334.409
352.242
372.224
392.606
411.382
426.788
437.457
442.79
443.153
439.654
431.565
420.26
406.698
391.461
375.275
358.721
342.238
326.13
310.588
295.727
281.603
268.22
255.538
243.537
232.218
221.578
211.613
202.318
193.694
185.724
178.376
171.601
165.327
159.477
153.94
148.631
143.428
138.307
133.122
55.5433
22.9895
16.4402
13.8746
12.5845
11.9181
11.6038
11.5175
11.5995
11.7987
12.1103
12.5062
12.9841
13.5301
14.1444
14.8205
15.5594
16.3588
17.2218
18.148
19.1404
20.1997
21.3291
22.5305
23.8075
25.1637
26.6041
28.1329
29.7539
31.4726
33.2941
35.2229
37.2683
39.4446
41.7627
44.2311
46.8577
49.653
52.6276
55.7926
59.1588
62.736
66.5326
70.556
74.8136
79.3117
84.0562
89.0518
94.3023
99.8103
105.577
111.603
117.887
124.427
131.22
138.262
145.548
153.072
160.829
168.81
177.008
185.416
194.024
202.822
211.802
220.953
230.263
239.724
249.324
259.051
268.897
278.85
288.901
299.04
309.261
319.555
329.918
340.345
350.832
361.379
371.984
382.648
393.37
404.15
414.987
425.88
436.826
447.824
458.874
469.984
481.165
492.432
503.801
515.294
526.936
538.758
550.802
563.118
575.766
588.812
602.326
616.394
631.124
646.661
663.2
680.988
700.307
721.439
744.644
770.112
797.932
828.043
860.177
893.872
928.444
962.967
996.247
1026.8
1052.83
1072.35
1083.19
1083.04
1070.71
1042.04
995.548
930.806
850.559
761.314
671.26
587.729
515.572
456.774
411.086
377.019
352.686
336.298
326.402
321.977
322.369
326.952
336.008
349.033
365.375
383.732
402.222
418.879
431.994
440.229
443.836
443.126
438.462
429.447
417.523
403.476
388.002
371.747
355.227
338.83
322.822
307.369
292.568
278.463
265.06
252.351
240.33
229
218.366
208.436
199.214
190.698
182.871
175.695
169.115
163.053
157.421
152.103
147.004
142.001
137.065
132.065
51.4067
21.5898
15.6227
13.3665
12.2814
11.7933
11.6271
11.6815
11.9099
12.2735
12.7667
13.3598
14.054
14.8354
15.7078
16.6655
17.7151
18.8574
20.0992
21.443
22.8957
24.461
26.1457
27.9548
29.8956
31.9748
34.2001
36.5766
39.1089
41.8011
44.6566
47.6764
50.8648
54.2357
57.7966
61.5569
65.5277
69.7204
74.1477
78.8228
83.7603
88.9648
94.44
100.19
106.218
112.529
119.122
125.999
133.158
140.594
148.304
156.28
164.515
173
181.725
190.679
199.851
209.228
218.799
228.55
238.469
248.541
258.753
269.09
279.54
290.086
300.714
311.411
322.162
332.954
343.774
354.608
365.446
376.277
387.092
397.884
408.647
419.376
430.069
440.725
451.343
461.924
472.469
482.977
493.446
503.875
514.26
524.599
534.893
545.147
555.369
565.573
575.776
585.998
596.263
606.603