/*--------------------------------*- C++ -*----------------------------------*\
| =========                 |                                                 |
| \\      /  F ield         | OpenFOAM: The Open Source CFD Toolbox           |
|  \\    /   O peration     | Version:  v1906                                 |
|   \\  /    A nd           | Web:      www.OpenFOAM.com                      |
|    \\/     M anipulation  |                                                 |
\*---------------------------------------------------------------------------*/
FoamFile
{
    version     2.0;
    format      ascii;
    class       volScalarField;
    location    "1800";
    object      k;
}
// * * * * * * * * * * * * * * * * * * * * * * * * * * * * * * * * * * * * * //

dimensions      [0 2 -2 0 0 0 0];


internalField   nonuniform List<scalar> 
12225
(
2.2588
2.22771
2.16477
2.09553
2.03004
1.97053
1.91736
1.8701
1.82795
1.79075
1.75698
1.72797
1.70491
1.68629
1.6696
1.65752
1.64358
1.63831
2.25089
2.14399
1.999
1.88919
1.80208
1.73415
1.67963
1.63403
1.59652
1.56408
1.53795
1.51362
1.49593
1.47709
1.466
1.45043
1.44366
1.4286
2.25785
2.21948
2.14545
2.07334
2.00639
1.94665
1.89405
1.84727
1.80622
1.76956
1.73757
1.70836
1.68336
1.65979
1.64039
1.62091
1.60632
1.59031
2.2584
2.23556
2.18865
2.13682
2.08598
2.03837
1.9948
1.95496
1.91888
1.88602
1.85638
1.82921
1.80485
1.7823
1.76222
1.74327
1.72698
1.71008
2.25893
2.24471
2.21551
2.18075
2.1448
2.10948
2.07575
2.0439
2.01412
1.98634
1.96062
1.93667
1.91457
1.89399
1.87505
1.85734
1.84143
1.82569
2.25905
2.24845
2.22782
2.20229
2.17486
2.1471
2.11991
2.09371
2.06874
2.04509
2.02282
2.00186
1.98221
1.96377
1.94653
1.93036
1.91533
1.90066
2.25919
2.25084
2.2358
2.21686
2.19601
2.17444
2.15285
2.13166
2.11112
2.09137
2.0725
2.05452
2.03745
2.02128
2.00599
1.99156
1.97802
1.96492
2.25923
2.25214
2.24043
2.22562
2.20904
2.1916
2.17388
2.15624
2.13893
2.12211
2.10586
2.09024
2.07528
2.06098
2.04737
2.03441
2.02209
2.01022
2.25928
2.25314
2.24374
2.23193
2.21861
2.20444
2.18987
2.17522
2.16069
2.14642
2.13252
2.11904
2.10603
2.09352
2.08151
2.07002
2.05904
2.04846
2.25929
2.25379
2.24591
2.23616
2.22512
2.21328
2.20101
2.18856
2.17611
2.16379
2.1517
2.13989
2.12843
2.11733
2.10663
2.09632
2.0864
2.07684
2.25933
2.25433
2.24758
2.23938
2.2301
2.22012
2.20971
2.19907
2.18837
2.17771
2.16719
2.15685
2.14676
2.13694
2.12742
2.11821
2.10932
2.10071
2.25934
2.25468
2.24867
2.24149
2.23341
2.22469
2.21557
2.20621
2.19674
2.18727
2.17786
2.16859
2.1595
2.15062
2.14197
2.13357
2.12543
2.11754
2.25937
2.255
2.24958
2.24321
2.2361
2.22842
2.22037
2.21208
2.20366
2.1952
2.18678
2.17844
2.17022
2.16217
2.1543
2.14664
2.13919
2.13194
2.25939
2.25526
2.25034
2.24468
2.23839
2.23163
2.22452
2.21718
2.2097
2.20215
2.1946
2.1871
2.17969
2.1724
2.16525
2.15827
2.15146
2.14483
2.25943
2.25554
2.25105
2.24598
2.24042
2.23445
2.22818
2.22168
2.21505
2.20833
2.20159
2.19487
2.1882
2.18162
2.17514
2.16879
2.16258
2.15651
2.25946
2.25574
2.25159
2.24699
2.24199
2.23666
2.23105
2.22524
2.21929
2.21325
2.20717
2.20109
2.19504
2.18905
2.18314
2.17734
2.17165
2.16609
2.25949
2.25593
2.25202
2.24777
2.24318
2.23831
2.2332
2.2279
2.22246
2.21693
2.21134
2.20575
2.20016
2.19462
2.18915
2.18375
2.17845
2.17326
2.25951
2.25604
2.25227
2.2482
2.24385
2.23923
2.23439
2.22938
2.22424
2.219
2.21371
2.20839
2.20309
2.19782
2.1926
2.18745
2.18238
2.1774
2.2595
2.25599
2.25218
2.24806
2.24365
2.23896
2.23405
2.22896
2.22373
2.21841
2.21304
2.20764
2.20226
2.19691
2.19161
2.1864
2.18127
2.17626
2.2595
2.25587
2.25183
2.24737
2.24254
2.23738
2.23197
2.22636
2.22061
2.21478
2.2089
2.203
2.19714
2.19132
2.18557
2.17991
2.17435
2.16887
2.25943
2.25552
2.25102
2.24593
2.24033
2.23432
2.22799
2.22145
2.21476
2.20798
2.20118
2.1944
2.18767
2.18103
2.17449
2.16808
2.16182
2.15575
2.25942
2.25522
2.25006
2.24406
2.23736
2.23015
2.22257
2.21476
2.20681
2.19881
2.19082
2.1829
2.17507
2.16738
2.15985
2.15249
2.14532
2.13829
2.25935
2.25456
2.24827
2.24068
2.23212
2.22289
2.21323
2.20333
2.19333
2.18335
2.17345
2.1637
2.15414
2.14481
2.13572
2.1269
2.11835
2.11016
2.25936
2.25388
2.24593
2.23608
2.22494
2.21302
2.20067
2.18814
2.17561
2.16321
2.15103
2.13913
2.12757
2.11637
2.10555
2.09513
2.08514
2.07545
2.25926
2.25242
2.24128
2.22724
2.21148
2.19485
2.17788
2.16094
2.14426
2.128
2.11225
2.09708
2.0825
2.06852
2.05514
2.04234
2.03005
2.01847
2.25926
2.25048
2.2342
2.21399
2.19193
2.1692
2.1465
2.12426
2.10273
2.08206
2.06232
2.04353
2.02569
2.00879
1.99281
1.97771
1.96357
1.9503
2.25889
2.24476
2.21641
2.18263
2.14755
2.11294
2.07974
2.0484
2.01905
1.99167
1.96617
1.94246
1.9204
1.8999
1.88077
1.86299
1.84606
1.83041
2.2587
2.2346
2.18652
2.13451
2.08371
2.03554
1.99101
1.95037
1.91333
1.87957
1.84878
1.82073
1.79503
1.77159
1.75001
1.73032
1.71214
1.6965
2.25373
2.17683
2.06325
1.96597
1.88599
1.81866
1.76352
1.71729
1.67771
1.64351
1.61359
1.58755
1.56438
1.54421
1.5259
1.51005
1.49526
1.48153
2.25477
2.20941
2.14712
2.08642
2.02996
1.97853
1.932
1.89013
1.85241
1.81837
1.78753
1.75951
1.734
1.71065
1.68935
1.66963
1.6517
1.63477
0.0212654
0.0336463
0.0458313
0.0528059
0.0578893
0.0612871
0.0639144
0.0658471
0.0673915
0.0686149
0.069624
0.0704496
0.0711245
0.07166
0.0720571
0.072326
0.0724719
0.0725346
0.0724934
0.0720279
0.0708347
0.0687726
0.0660472
0.062793
0.0592028
0.0555458
0.0521437
0.0493164
0.0474701
0.0464342
0.046493
0.0470695
0.0480371
0.0488809
0.0493104
0.0491275
0.0480388
0.0453444
0.0419983
0.0395595
0.0394498
0.0417634
0.0454609
0.0506168
0.0575998
0.0670801
0.077285
0.0871937
0.0969052
0.106427
0.115761
0.124907
0.133925
0.142881
0.151854
0.160716
0.169431
0.178048
0.186593
0.195093
0.203574
0.212058
0.220568
0.229122
0.237739
0.246432
0.255216
0.264103
0.273104
0.282227
0.291481
0.300873
0.31041
0.320095
0.329934
0.33993
0.350085
0.360401
0.37088
0.381519
0.392318
0.403274
0.414381
0.425633
0.437019
0.448528
0.460142
0.47184
0.483598
0.495382
0.507158
0.51888
0.530495
0.541944
0.553199
0.564309
0.575305
0.586149
0.596824
0.607334
0.617829
0.628283
0.638667
0.648923
0.658988
0.668782
0.678202
0.687109
0.695296
0.702432
0.707039
0.709232
0.70805
0.705417
0.704932
0.7051
0.709039
0.712955
0.718074
0.727295
0.731862
0.729171
0.718515
0.698283
0.67095
0.636939
0.598864
0.557691
0.505444
0.445066
0.372472
0.289072
0.205689
0.142847
0.141023
0.152744
0.124205
0.0918732
0.197021
0.400246
0.532521
0.641466
0.726831
0.793517
0.844175
0.880517
0.906605
0.920799
0.926525
0.926483
0.916796
0.890802
0.869583
0.845671
0.823234
0.801476
0.781277
0.762781
0.746187
0.731699
0.71974
0.710437
0.704227
0.701484
0.701082
0.704298
0.712373
0.726381
0.732018
0.738315
0.744162
0.749086
0.753083
0.755602
0.757022
0.756371
0.754007
0.747254
0.741069
0.703875
0.0421463
0.0693465
0.094543
0.107532
0.117506
0.124537
0.130143
0.134511
0.138183
0.141281
0.143996
0.146373
0.148462
0.150258
0.151763
0.152984
0.153999
0.154962
0.156195
0.158119
0.161083
0.16539
0.171237
0.178628
0.187323
0.196867
0.206769
0.216721
0.226642
0.236577
0.246651
0.256923
0.267233
0.277154
0.286061
0.293288
0.298334
0.301116
0.302297
0.302761
0.303079
0.303535
0.304321
0.305689
0.307788
0.310575
0.314289
0.319254
0.325544
0.333079
0.341712
0.351277
0.361612
0.372576
0.384044
0.395914
0.40811
0.420583
0.433293
0.446217
0.459339
0.472651
0.486151
0.49984
0.513724
0.527808
0.5421
0.556606
0.571333
0.586288
0.601477
0.616903
0.632571
0.648484
0.664643
0.68105
0.697702
0.714599
0.731737
0.749111
0.766712
0.784531
0.802555
0.820766
0.839144
0.857661
0.876284
0.894969
0.913668
0.932321
0.950859
0.969199
0.987252
1.00491
1.02204
1.03863
1.05484
1.07081
1.08664
1.10241
1.11823
1.13423
1.15044
1.16686
1.18347
1.2002
1.21697
1.23365
1.25006
1.2659
1.28082
1.29445
1.30608
1.31593
1.32338
1.32705
1.32776
1.32574
1.32608
1.32576
1.31534
1.28924
1.24799
1.19417
1.13131
1.06316
0.994325
0.922563
0.842795
0.764645
0.698547
0.667917
0.67775
0.717702
0.803449
0.927195
0.943766
0.888379
0.945842
1.05049
1.17381
1.29409
1.40134
1.49155
1.56426
1.61945
1.66092
1.69334
1.71305
1.72082
1.72205
1.71589
1.7043
1.6876
1.66779
1.64601
1.62346
1.60096
1.57908
1.55823
1.53904
1.52174
1.5063
1.49252
1.47982
1.46801
1.4574
1.45107
1.44771
1.44266
1.43485
1.42481
1.41303
1.39936
1.38421
1.36641
1.34741
1.32495
1.30403
1.25937
0.0634069
0.102815
0.135045
0.151399
0.164444
0.173552
0.181255
0.187522
0.193183
0.198302
0.203179
0.207875
0.21253
0.217202
0.221975
0.226926
0.232185
0.237932
0.244385
0.251753
0.260183
0.269735
0.280406
0.292146
0.304873
0.318477
0.332797
0.347562
0.362389
0.376741
0.389905
0.40109
0.409647
0.415218
0.417834
0.418209
0.416821
0.414361
0.411657
0.409523
0.408608
0.409064
0.411233
0.415299
0.421324
0.429265
0.439017
0.450426
0.463286
0.477358
0.4924
0.50818
0.5245
0.541192
0.558123
0.575199
0.592356
0.609558
0.626788
0.644041
0.661326
0.678654
0.696042
0.713508
0.731069
0.748742
0.766542
0.78448
0.802568
0.820813
0.839221
0.857796
0.87654
0.895453
0.914533
0.933778
0.953181
0.972738
0.992441
1.01228
1.03225
1.05233
1.07252
1.0928
1.11316
1.13358
1.15405
1.17454
1.19506
1.21557
1.23608
1.25656
1.27702
1.29746
1.31795
1.33854
1.35929
1.38021
1.40129
1.42256
1.44402
1.4657
1.48764
1.50982
1.53223
1.55481
1.57749
1.60016
1.62264
1.64464
1.66576
1.68559
1.70377
1.71979
1.73284
1.74216
1.74714
1.74617
1.73858
1.72257
1.69445
1.65154
1.59357
1.52275
1.44375
1.36213
1.28408
1.21434
1.1491
1.08802
1.0594
1.08472
1.17412
1.33699
1.56632
1.68013
1.55845
1.46691
1.49636
1.60897
1.72842
1.82797
1.90727
1.97385
2.03332
2.08755
2.1358
2.17516
2.20107
2.21303
2.2159
2.20962
2.19535
2.17459
2.14948
2.12172
2.09285
2.06407
2.0363
2.01017
1.9861
1.96435
1.94487
1.92735
1.91155
1.89705
1.88333
1.87006
1.85634
1.84111
1.82414
1.80557
1.78548
1.76368
1.74025
1.71462
1.68763
1.65836
1.62901
1.58674
0.079657
0.134404
0.172749
0.192592
0.208834
0.220916
0.231362
0.24001
0.247835
0.254913
0.261719
0.268339
0.275009
0.281802
0.288845
0.296177
0.303824
0.311711
0.319766
0.328013
0.33664
0.345896
0.355997
0.367043
0.378977
0.391558
0.404363
0.416825
0.428305
0.438206
0.446089
0.451765
0.455335
0.457139
0.457808
0.457975
0.45823
0.459167
0.461273
0.464916
0.47033
0.477622
0.486819
0.497873
0.510664
0.525016
0.540715
0.557531
0.575232
0.593601
0.612444
0.631598
0.650935
0.670362
0.689816
0.709267
0.728702
0.748128
0.767559
0.787019
0.806531
0.826123
0.845817
0.865638
0.885605
0.905735
0.926043
0.946539
0.967234
0.988132
1.00924
1.03055
1.05208
1.07381
1.09574
1.11786
1.14018
1.16267
1.18532
1.20813
1.23109
1.25417
1.27736
1.30065
1.32403
1.34748
1.37098
1.39454
1.41814
1.44179
1.46549
1.48925
1.5131
1.53706
1.56115
1.58539
1.60979
1.63438
1.65915
1.68411
1.70924
1.73456
1.76004
1.78568
1.81142
1.83721
1.86293
1.88848
1.91369
1.93823
1.96169
1.98353
2.00318
2.01989
2.03279
2.04071
2.04353
2.03925
2.0259
2.0012
1.96297
1.9096
1.84114
1.76036
1.67325
1.58726
1.51068
1.45219
1.41598
1.40226
1.41948
1.49068
1.64971
1.89779
2.08512
2.02412
1.88308
1.8382
1.89317
1.9925
2.08938
2.17364
2.24985
2.32288
2.39361
2.45964
2.51698
2.56207
2.59115
2.60402
2.60601
2.5963
2.57654
2.54893
2.51583
2.47937
2.44135
2.40325
2.36621
2.331
2.29802
2.26748
2.23935
2.21339
2.18933
2.16679
2.14528
2.12422
2.10284
2.08043
2.05678
2.03194
2.00593
1.97857
1.94991
1.91958
1.88821
1.85529
1.822
1.78078
0.0999263
0.167128
0.211151
0.234016
0.252552
0.266937
0.279558
0.29039
0.300145
0.30892
0.317086
0.324768
0.332162
0.339359
0.34647
0.353562
0.360687
0.367847
0.375037
0.382282
0.389665
0.397301
0.405275
0.413598
0.422177
0.430821
0.439269
0.447237
0.454489
0.460889
0.466436
0.471267
0.47563
0.479854
0.484301
0.489331
0.495269
0.502383
0.510878
0.520882
0.532446
0.545549
0.560112
0.576004
0.593067
0.611129
0.630011
0.649542
0.669565
0.689945
0.710573
0.73137
0.75228
0.773271
0.794328
0.815451
0.836652
0.857946
0.879356
0.900904
0.922613
0.944505
0.966602
0.98892
1.01148
1.03429
1.05736
1.0807
1.10432
1.12823
1.15242
1.17688
1.20163
1.22666
1.25195
1.2775
1.30331
1.32935
1.35562
1.3821
1.40878
1.43565
1.46269
1.48988
1.51722
1.54469
1.57229
1.6
1.62783
1.65578
1.68386
1.71209
1.74047
1.76905
1.79784
1.82687
1.85614
1.88569
1.91553
1.94566
1.97607
2.00673
2.03758
2.06859
2.09972
2.13088
2.16195
2.19277
2.2231
2.25255
2.2806
2.30661
2.32976
2.34907
2.36341
2.37129
2.37227
2.36386
2.3444
2.31204
2.26498
2.20222
2.1244
2.03531
1.94286
1.85707
1.78784
1.74595
1.73705
1.7546
1.80659
1.92144
2.11884
2.31192
2.32963
2.20428
2.12852
2.13368
2.20146
2.29063
2.38076
2.468
2.55391
2.63898
2.72117
2.79653
2.86063
2.91017
2.94152
2.95492
2.95521
2.94144
2.91581
2.88094
2.83953
2.794
2.74646
2.69859
2.65169
2.60661
2.56389
2.52378
2.48628
2.4512
2.41823
2.38697
2.35701
2.32789
2.29907
2.26997
2.24036
2.21015
2.17929
2.1476
2.11504
2.08138
2.04704
2.01163
1.97577
1.93477
0.11323
0.190981
0.241411
0.267321
0.288026
0.304177
0.318355
0.33062
0.341682
0.351612
0.360698
0.36902
0.376729
0.383891
0.390603
0.396937
0.402976
0.408792
0.414455
0.420033
0.425608
0.431256
0.437034
0.442966
0.449043
0.455229
0.461483
0.467782
0.47413
0.480574
0.487195
0.494113
0.501471
0.509427
0.518141
0.527761
0.538411
0.550184
0.563134
0.577272
0.592571
0.608971
0.626389
0.644725
0.663865
0.683689
0.704084
0.724947
0.746193
0.767751
0.789569
0.81161
0.833852
0.856284
0.878905
0.901722
0.924746
0.947995
0.971484
0.995233
1.01926
1.04358
1.06822
1.09318
1.11849
1.14415
1.17016
1.19655
1.22331
1.25044
1.27795
1.30582
1.33407
1.36268
1.39165
1.42096
1.45061
1.48058
1.51086
1.54143
1.57228
1.60339
1.63476
1.66636
1.69818
1.73022
1.76246
1.79489
1.82753
1.86036
1.89341
1.92668
1.96019
1.99397
2.02806
2.06248
2.09728
2.13246
2.16805
2.20406
2.2405
2.27735
2.31459
2.35218
2.39007
2.42814
2.46627
2.50429
2.54189
2.57865
2.61395
2.64698
2.67674
2.70199
2.72126
2.73256
2.7349
2.72568
2.70262
2.66379
2.60781
2.53441
2.44542
2.34626
2.24735
2.1619
2.09989
2.06702
2.06789
2.10346
2.18435
2.31633
2.45789
2.50141
2.42429
2.34526
2.32684
2.36729
2.44378
2.5347
2.62937
2.72498
2.8212
2.91673
3.00853
3.0923
3.1633
3.21766
3.2514
3.26533
3.26327
3.24483
3.21266
3.1698
3.11931
3.06394
3.00606
2.9476
2.89001
2.8343
2.78113
2.73081
2.68344
2.63889
2.59695
2.55728
2.51949
2.48312
2.44767
2.41266
2.37784
2.34307
2.30822
2.2731
2.23763
2.20155
2.16512
2.12784
2.09006
2.04751
0.125353
0.2097
0.264541
0.292335
0.314174
0.331136
0.345906
0.358675
0.370158
0.380448
0.389816
0.398345
0.406171
0.413358
0.41999
0.42613
0.431861
0.437261
0.442417
0.447419
0.452363
0.457341
0.462442
0.467749
0.473333
0.47926
0.48559
0.492383
0.499697
0.50759
0.516123
0.525357
0.535353
0.546168
0.557852
0.570447
0.583979
0.59846
0.613891
0.630255
0.647521
0.66564
0.684552
0.704188
0.724479
0.745356
0.766756
0.788624
0.810913
0.833587
0.856617
0.879986
0.903683
0.927704
0.952052
0.976734
1.00176
1.02714
1.0529
1.07904
1.10558
1.13255
1.15994
1.18778
1.21608
1.24485
1.2741
1.30383
1.33404
1.36475
1.39595
1.42764
1.45982
1.49247
1.5256
1.55919
1.59323
1.6277
1.66259
1.6979
1.73359
1.76965
1.80607
1.84284
1.87993
1.91734
1.95506
1.99308
2.03139
2.07001
2.10894
2.14818
2.18777
2.22772
2.26807
2.30882
2.35003
2.39174
2.43399
2.47685
2.52034
2.5645
2.60936
2.65489
2.70102
2.74766
2.79467
2.84186
2.88891
2.93536
2.98053
3.02351
3.0631
3.09775
3.12562
3.14426
3.15156
3.14495
3.1214
3.07852
3.01483
2.93054
2.82855
2.71589
2.60477
2.51044
2.44449
2.40997
2.40859
2.44229
2.50928
2.58091
2.60434
2.55677
2.49442
2.4726
2.50019
2.56602
2.65434
2.7533
2.85681
2.96275
3.06985
3.17591
3.27725
3.36893
3.44592
3.5041
3.53918
3.5527
3.54723
3.52319
3.48367
3.43209
3.37187
3.30607
3.23736
3.16786
3.09922
3.03259
2.96875
2.90812
2.85088
2.79698
2.74627
2.69847
2.65321
2.61007
2.5686
2.52838
2.48912
2.45062
2.4127
2.3751
2.33766
2.30003
2.26229
2.22379
2.18446
2.1405
0.129518
0.218426
0.276919
0.306442
0.329403
0.347119
0.362445
0.375631
0.387457
0.398039
0.407669
0.416432
0.424483
0.431904
0.438796
0.445232
0.451294
0.457063
0.462632
0.468094
0.47355
0.479104
0.484861
0.49092
0.497374
0.504307
0.511793
0.519896
0.52867
0.538159
0.548398
0.559415
0.571231
0.583863
0.597324
0.611621
0.626759
0.642735
0.659538
0.67715
0.695544
0.71469
0.73455
0.755088
0.776265
0.798041
0.820382
0.843257
0.866639
0.890507
0.914846
0.939647
0.964905
0.990619
1.01679
1.04344
1.07056
1.09818
1.1263
1.15494
1.18411
1.21384
1.24413
1.27499
1.30645
1.3385
1.37117
1.40445
1.43835
1.47287
1.50801
1.54377
1.58015
1.61713
1.65471
1.69287
1.73161
1.77089
1.81072
1.85107
1.89192
1.93325
1.97506
2.01731
2.06
2.10311
2.14663
2.19056
2.23489
2.27962
2.32476
2.37032
2.41632
2.4628
2.5098
2.55737
2.60557
2.65445
2.70405
2.75446
2.80573
2.85793
2.91109
2.96526
3.02043
3.07657
3.13359
3.19125
3.24922
3.30702
3.36398
3.41908
3.471
3.51795
3.55766
3.58745
3.60393
3.60433
3.58479
3.54215
3.47435
3.38145
3.26681
3.13829
3.00877
2.89359
2.80422
2.74442
2.7131
2.70472
2.70249
2.68188
2.63326
2.58572
2.57007
2.5967
2.65881
2.7454
2.84661
2.95526
3.06759
3.18183
3.29667
3.40998
3.51819
3.61618
3.69817
3.75925
3.79482
3.80699
3.79718
3.76676
3.71927
3.65852
3.58827
3.51191
3.43235
3.35196
3.27253
3.19539
3.12144
3.0512
2.9849
2.92258
2.86407
2.80912
2.75735
2.70838
2.66182
2.6173
2.57452
2.53321
2.49312
2.45394
2.41538
2.37698
2.33858
2.29934
2.25891
2.21365
0.134153
0.224898
0.283631
0.313399
0.33666
0.354659
0.370288
0.383797
0.395988
0.406982
0.417079
0.426364
0.434993
0.44305
0.450645
0.457864
0.464797
0.471523
0.47813
0.484705
0.491342
0.498133
0.505174
0.512556
0.520362
0.528665
0.537531
0.547013
0.557156
0.567995
0.579557
0.591866
0.604937
0.618782
0.633407
0.648816
0.665009
0.681984
0.699733
0.718247
0.737513
0.757514
0.778231
0.799644
0.821731
0.844473
0.867851
0.891847
0.916448
0.941645
0.96743
0.993801
1.02076
1.04831
1.07645
1.10521
1.13458
1.16458
1.19523
1.22654
1.25853
1.29121
1.32459
1.35869
1.39353
1.4291
1.46542
1.5025
1.54034
1.57894
1.6183
1.65841
1.69928
1.74088
1.78322
1.82626
1.87001
1.91444
1.95953
2.00527
2.05164
2.09861
2.14617
2.1943
2.24299
2.29222
2.34198
2.39228
2.44309
2.49442
2.54628
2.59868
2.65164
2.70519
2.75936
2.8142
2.86976
2.92612
2.98337
3.04161
3.10091
3.16138
3.22311
3.28617
3.35061
3.41647
3.48366
3.55203
3.62126
3.69091
3.76025
3.82828
3.89357
3.95417
4.00757
4.05071
4.0798
4.09105
4.08028
4.04332
3.97723
3.88123
3.75798
3.61469
3.46333
3.31806
3.18916
3.07862
2.98252
2.89368
2.80541
2.72254
2.66415
2.64378
2.66865
2.73001
2.81649
2.91913
3.03091
3.14735
3.26612
3.38625
3.5069
3.62618
3.74021
3.84308
3.92832
3.9905
4.02503
4.03428
4.01883
3.98106
3.92491
3.85456
3.77411
3.68722
3.59705
3.50617
3.41654
3.32959
3.2463
3.16729
3.09284
3.02298
2.95755
2.89628
2.83884
2.78492
2.73419
2.68631
2.64096
2.59781
2.55652
2.5167
2.47792
2.43955
2.4012
2.36182
2.32083
2.27499
0.134202
0.225825
0.284291
0.31426
0.337858
0.35621
0.372253
0.386217
0.398937
0.410523
0.421292
0.431325
0.44078
0.449731
0.458286
0.466527
0.47455
0.482437
0.490274
0.498139
0.506117
0.514288
0.522728
0.531507
0.540692
0.550343
0.560516
0.571255
0.582602
0.59459
0.607249
0.620602
0.634671
0.649471
0.665013
0.681309
0.698363
0.71618
0.734762
0.754108
0.774215
0.795077
0.816689
0.839041
0.862127
0.885937
0.910464
0.935704
0.961651
0.988306
1.01567
1.04374
1.07253
1.10204
1.13229
1.16329
1.19504
1.22757
1.26089
1.29502
1.32997
1.36575
1.40238
1.43987
1.47824
1.51749
1.55763
1.59867
1.64061
1.68345
1.72718
1.77179
1.81729
1.86366
1.91088
1.95893
2.00781
2.05748
2.10793
2.15914
2.21108
2.26374
2.3171
2.37114
2.42585
2.48122
2.53722
2.59386
2.65112
2.70901
2.76753
2.82669
2.88652
2.94705
3.00833
3.07045
3.13346
3.19744
3.26248
3.3287
3.39619
3.46507
3.53547
3.60748
3.6812
3.75669
3.83394
3.91288
3.9933
4.07477
4.1566
4.23775
4.31675
4.3916
4.45965
4.51763
4.56161
4.58699
4.58912
4.56301
4.50467
4.41203
4.28619
4.13221
3.95914
3.77777
3.59667
3.41995
3.24738
3.08013
2.92779
2.81255
2.7568
2.75774
2.8045
2.8834
2.98278
3.09406
3.21149
3.3317
3.45321
3.57567
3.6988
3.82107
3.93844
4.04422
4.13093
4.19241
4.2245
4.22918
4.20692
4.16099
4.09571
4.01563
3.92515
3.82822
3.72818
3.62774
3.52897
3.43338
3.34199
3.25545
3.17405
3.09781
3.02656
2.96003
2.89797
2.84013
2.78624
2.73601
2.68909
2.64509
2.60357
2.56403
2.52586
2.48825
2.45057
2.41161
2.37067
2.32478
0.133975
0.224706
0.282145
0.311989
0.335718
0.354327
0.370745
0.385168
0.398453
0.410705
0.422255
0.433161
0.443575
0.453553
0.463199
0.472577
0.481776
0.490868
0.49994
0.509067
0.518325
0.527781
0.5375
0.547543
0.557964
0.568814
0.58014
0.591987
0.604393
0.617395
0.631024
0.64531
0.660279
0.675953
0.692353
0.709495
0.727394
0.74606
0.765504
0.785735
0.806757
0.828576
0.851196
0.874618
0.898846
0.92388
0.949725
0.976383
1.00386
1.03216
1.06129
1.09126
1.12208
1.15376
1.18632
1.21976
1.25412
1.28939
1.32559
1.36275
1.40087
1.43997
1.48007
1.52116
1.56327
1.6064
1.65055
1.69573
1.74194
1.78917
1.83741
1.88666
1.93691
1.98813
2.04032
2.09345
2.1475
2.20245
2.25828
2.31497
2.3725
2.43084
2.48999
2.54992
2.61063
2.67209
2.73429
2.79724
2.86091
2.9253
2.99042
3.05628
3.1229
3.19031
3.25856
3.3277
3.39782
3.46903
3.54143
3.61517
3.69038
3.7672
3.84579
3.92629
4.00881
4.09348
4.18036
4.26944
4.36059
4.45346
4.54741
4.64142
4.73397
4.82299
4.90577
4.9789
5.03827
5.07911
5.09621
5.08409
5.03772
4.95338
4.82983
4.66911
4.47663
4.25984
4.02662
3.78603
3.54828
3.32661
3.13918
3.00768
2.94723
2.94371
2.98828
3.0663
3.16509
3.27553
3.39172
3.5104
3.63049
3.75215
3.87553
3.9991
4.118
4.22445
4.31016
4.36854
4.39633
4.39438
4.3641
4.30924
4.23454
4.14485
4.04481
3.93856
3.82959
3.7207
3.61398
3.51095
3.41263
3.31966
3.23236
3.15076
3.07467
3.00385
2.93812
2.87731
2.82123
2.76963
2.72212
2.67822
2.6374
2.59902
2.56228
2.52616
2.48983
2.45193
2.41167
2.36647
0.132153
0.220986
0.277293
0.307122
0.331101
0.350073
0.36696
0.381922
0.395829
0.40876
0.421058
0.432789
0.444128
0.455118
0.46584
0.476343
0.486702
0.496979
0.507247
0.51757
0.528016
0.538641
0.549505
0.560665
0.572176
0.584088
0.596447
0.609293
0.622667
0.63661
0.651158
0.666343
0.682198
0.698749
0.716026
0.734051
0.752847
0.772434
0.79283
0.814052
0.836115
0.859033
0.882818
0.907483
0.933039
0.959496
0.986865
1.01516
1.04439
1.07456
1.10569
1.1378
1.17089
1.20499
1.2401
1.27624
1.31342
1.35167
1.39099
1.4314
1.47292
1.51554
1.55929
1.60416
1.65017
1.69732
1.74561
1.79504
1.84559
1.89728
1.95007
2.00396
2.05894
2.11498
2.17207
2.23018
2.28929
2.34937
2.41041
2.47237
2.53525
2.59901
2.66365
2.72913
2.79546
2.86261
2.93058
2.99934
3.06889
3.13921
3.21031
3.28221
3.35491
3.42848
3.50296
3.57846
3.65505
3.73285
3.812
3.89265
3.97496
4.05911
4.14529
4.23367
4.32444
4.41776
4.51377
4.61254
4.71402
4.81791
4.92364
5.03015
5.1359
5.23868
5.33562
5.42315
5.49701
5.5523
5.58365
5.58525
5.55168
5.47733
5.35864
5.19433
4.98619
4.73922
4.46286
4.17306
3.89011
3.63568
3.42921
3.2845
3.20788
3.18848
3.2161
3.27889
3.36499
3.46508
3.57267
3.68422
3.7986
3.91604
4.03675
4.15893
4.27677
4.38128
4.46334
4.51637
4.53753
4.52751
4.48843
4.42424
4.34024
4.24148
4.13273
4.01826
3.90162
3.78564
3.67233
3.56317
3.45916
3.36091
3.26867
3.18268
3.10269
3.02846
2.95995
2.8971
2.83978
2.78777
2.74067
2.69792
2.6588
2.6224
2.58779
2.55382
2.51944
2.48319
2.44424
2.40032
0.128933
0.215832
0.270973
0.300837
0.325059
0.344376
0.361699
0.377164
0.391656
0.405241
0.418278
0.430805
0.442986
0.454865
0.466558
0.478093
0.489531
0.500917
0.512311
0.52376
0.535319
0.54704
0.558981
0.571194
0.583728
0.596638
0.609972
0.623773
0.638088
0.652961
0.668435
0.684547
0.701334
0.71883
0.737067
0.756079
0.775896
0.796546
0.818055
0.84045
0.863753
0.887988
0.913175
0.939335
0.966486
0.994647
1.02383
1.05407
1.08536
1.11773
1.1512
1.18578
1.22148
1.25832
1.29632
1.33548
1.37583
1.41737
1.46012
1.50407
1.54925
1.59566
1.6433
1.69217
1.74228
1.79362
1.84618
1.89995
1.95494
2.01111
2.06846
2.12697
2.18661
2.24737
2.30922
2.37213
2.43608
2.50104
2.56699
2.6339
2.70176
2.77054
2.84023
2.91081
2.98226
3.05457
3.12772
3.2017
3.27648
3.35206
3.42843
3.5056
3.5836
3.66248
3.74229
3.82312
3.90508
3.98831
4.07298
4.15928
4.24743
4.33765
4.43016
4.52521
4.62303
4.72387
4.82795
4.93542
5.0463
5.16036
5.27701
5.39516
5.51315
5.6286
5.73843
5.83885
5.9254
5.99305
6.0363
6.0492
6.02618
5.9606
5.84703
5.68195
5.4645
5.19801
4.89354
4.57245
4.26155
3.98598
3.76447
3.60577
3.51003
3.46968
3.47417
3.51415
3.57951
3.66155
3.75397
3.8532
3.95802
4.06847
4.18437
4.30298
4.41707
4.51657
4.59205
4.63711
4.64926
4.63026
4.58154
4.5081
4.41528
4.30827
4.19185
4.07025
3.94712
3.82538
3.70677
3.59271
3.4842
3.38183
3.28592
3.19678
3.11422
3.03774
2.96747
2.90342
2.84555
2.79366
2.74736
2.70607
2.6691
2.63552
2.60392
2.57276
2.5409
2.50689
2.46986
2.42785
0.124968
0.209767
0.263713
0.29362
0.318073
0.337726
0.355466
0.371402
0.386432
0.4006
0.414279
0.427501
0.440447
0.453145
0.465686
0.478115
0.490518
0.502912
0.515346
0.527855
0.540486
0.553281
0.566291
0.57956
0.593142
0.607083
0.621426
0.636228
0.651548
0.667436
0.683935
0.70109
0.718944
0.737536
0.75691
0.777105
0.79816
0.820112
0.842996
0.866845
0.891692
0.917565
0.944495
0.972508
1.00163
1.03188
1.06329
1.09587
1.12965
1.16465
1.20087
1.23834
1.27708
1.31709
1.35838
1.40097
1.44486
1.49005
1.53656
1.58438
1.63352
1.68397
1.73573
1.78879
1.84315
1.89879
1.95569
2.01385
2.07325
2.13386
2.19566
2.25864
2.32275
2.38798
2.4543
2.52167
2.59008
2.65948
2.72987
2.8012
2.87347
2.94664
3.0207
3.09563
3.17141
3.24802
3.32543
3.40363
3.48258
3.56228
3.64272
3.7239
3.80588
3.8887
3.97245
4.05723
4.14318
4.23043
4.31919
4.40968
4.50215
4.59689
4.69419
4.79434
4.89767
5.00451
5.1152
5.22998
5.34896
5.47192
5.59823
5.72672
5.85558
5.98223
6.10337
6.21493
6.31222
6.39003
6.44274
6.46441
6.44946
6.39132
6.28304
6.12022
5.90062
5.62659
5.31
4.97441
4.64907
4.35991
4.12437
3.94944
3.83343
3.76959
3.7489
3.76259
3.80234
3.86097
3.9332
4.01599
4.10809
4.20896
4.31753
4.42974
4.53694
4.62824
4.69423
4.729
4.73072
4.70191
4.64302
4.56045
4.45948
4.34529
4.2226
4.09563
3.96793
3.84255
3.72057
3.60341
3.49208
3.38712
3.28887
3.19749
3.11271
3.03436
2.96274
2.89797
2.84006
2.78884
2.74396
2.70478
2.67037
2.63958
2.61102
2.58327
2.55463
2.52336
2.48877
2.44917
0.12063
0.203197
0.255913
0.285798
0.31043
0.330388
0.348515
0.364881
0.380405
0.395107
0.409375
0.423227
0.436857
0.450286
0.463629
0.476909
0.49019
0.503516
0.516936
0.530475
0.544176
0.558072
0.572207
0.586619
0.601352
0.61645
0.631965
0.647953
0.664478
0.681596
0.699359
0.717818
0.73702
0.757014
0.777854
0.799587
0.822262
0.845923
0.870613
0.896371
0.923238
0.951249
0.980439
1.01084
1.04248
1.07539
1.10959
1.1451
1.18195
1.22015
1.25971
1.30065
1.34297
1.38669
1.4318
1.47831
1.52622
1.57552
1.6262
1.67826
1.7317
1.78649
1.84262
1.90007
1.95883
2.01888
2.08019
2.14273
2.20649
2.27143
2.33752
2.40473
2.47303
2.54238
2.61276
2.68413
2.75646
2.82972
2.90389
2.97894
3.05485
3.13159
3.20914
3.28749
3.3666
3.44646
3.52702
3.60826
3.69015
3.77267
3.85581
3.93959
4.02406
4.10927
4.1953
4.28226
4.37031
4.45961
4.55042
4.64299
4.73764
4.8347
4.93454
5.03755
5.14418
5.25489
5.37015
5.49034
5.6156
5.74573
5.88003
6.01721
6.15524
6.29136
6.42204
6.54296
6.64921
6.73539
6.79577
6.82454
6.81618
6.76528
6.66376
6.50736
6.29305
6.02233
5.70681
5.36978
5.03996
4.7427
4.49482
4.30303
4.16591
4.07733
4.02947
4.01467
4.0259
4.05788
4.10676
4.17034
4.24736
4.33651
4.43545
4.53843
4.63557
4.71561
4.7694
4.79141
4.78164
4.74143
4.67312
4.58336
4.47655
4.3575
4.23081
4.10054
3.97008
3.84216
3.71768
3.59826
3.48481
3.37785
3.27762
3.18425
3.09772
3.01822
2.94597
2.88114
2.82381
2.77387
2.73096
2.69438
2.6631
2.63578
2.61088
2.58649
2.56112
2.53319
2.50164
2.46491
0.115381
0.195618
0.247216
0.277067
0.301855
0.322107
0.340621
0.357422
0.373452
0.388703
0.403583
0.418089
0.43243
0.446621
0.460787
0.474947
0.489184
0.503515
0.517993
0.532658
0.547556
0.562719
0.578187
0.593992
0.610176
0.626781
0.643863
0.661482
0.679687
0.698525
0.71807
0.738384
0.759516
0.781527
0.804478
0.828434
0.853447
0.879564
0.906833
0.9353
0.965008
0.995997
1.02831
1.06197
1.09701
1.13347
1.17135
1.21069
1.25149
1.29376
1.33751
1.38275
1.42947
1.47766
1.52732
1.57844
1.631
1.68498
1.74037
1.79715
1.85529
1.91477
1.97555
2.03762
2.10094
2.16547
2.23119
2.29806
2.36604
2.43509
2.50517
2.57625
2.64829
2.72125
2.79509
2.86979
2.9453
3.02161
3.09868
3.17648
3.25501
3.33422
3.4141
3.49461
3.57573
3.65741
3.73961
3.8223
3.90545
3.98902
4.07303
4.15748
4.24244
4.32796
4.41414
4.50111
4.58902
4.67809
4.76858
4.86081
4.95513
5.05196
5.15174
5.255
5.36234
5.47442
5.59189
5.71526
5.84476
5.98015
6.12064
6.26477
6.41032
6.55427
6.69284
6.82155
6.93532
7.02861
7.09563
7.1307
7.12832
7.08501
6.99196
6.84568
6.64306
6.38471
6.0807
5.75225
5.42585
5.12545
4.86753
4.65938
4.50064
4.38638
4.30999
4.26507
4.24636
4.2499
4.27305
4.3151
4.37467
4.44966
4.53626
4.62696
4.71073
4.77588
4.81401
4.82194
4.80221
4.75238
4.67684
4.58095
4.46898
4.34591
4.2162
4.08369
3.95144
3.82175
3.69611
3.57574
3.46139
3.35351
3.25235
3.15809
3.07092
2.9911
2.91892
2.85465
2.79844
2.75023
2.70967
2.676
2.64812
2.62451
2.60343
2.58291
2.56127
2.53666
2.50839
2.47505
0.110312
0.187996
0.238283
0.267975
0.292847
0.313358
0.332257
0.349522
0.366106
0.381966
0.397532
0.412785
0.427957
0.443045
0.458188
0.473398
0.488762
0.504283
0.520054
0.536113
0.552526
0.569332
0.586574
0.604284
0.622507
0.641288
0.660683
0.680742
0.701507
0.723033
0.745375
0.768565
0.79267
0.817786
0.843996
0.871352
0.89989
0.929664
0.960724
0.993119
1.02689
1.06208
1.09873
1.13686
1.17649
1.21764
1.26034
1.30458
1.35036
1.39769
1.44655
1.49693
1.54882
1.60219
1.65702
1.71328
1.77094
1.82997
1.89034
1.95201
2.01494
2.07909
2.14443
2.21091
2.2785
2.34714
2.4168
2.48743
2.55898
2.6314
2.70466
2.77871
2.85351
2.92901
3.00519
3.082
3.15941
3.23741
3.31595
3.39502
3.4746
3.55465
3.63515
3.71607
3.79737
3.879
3.96091
4.04305
4.12537
4.20787
4.29054
4.3734
4.4565
4.5399
4.62367
4.70796
4.79295
4.87889
4.9661
5.05492
5.14579
5.23919
5.33568
5.43598
5.54091
5.65135
5.76817
5.89206
6.02326
6.16153
6.30601
6.4551
6.60634
6.75645
6.90136
7.0364
7.1565
7.25607
7.32933
7.3707
7.37444
7.33915
7.25586
7.12163
6.93392
6.69293
6.40707
6.09453
5.7785