/*--------------------------------*- C++ -*----------------------------------*\
| =========                 |                                                 |
| \\      /  F ield         | OpenFOAM: The Open Source CFD Toolbox           |
|  \\    /   O peration     | Version:  v1906                                 |
|   \\  /    A nd           | Web:      www.OpenFOAM.com                      |
|    \\/     M anipulation  |                                                 |
\*---------------------------------------------------------------------------*/
FoamFile
{
    version     2.0;
    format      ascii;
    class       volScalarField;
    location    "1800";
    object      nut;
}
// * * * * * * * * * * * * * * * * * * * * * * * * * * * * * * * * * * * * * //

dimensions      [0 2 -1 0 0 0 0];


internalField   nonuniform List<scalar> 
12225
(
5.38055e-05
5.3434e-05
5.26738e-05
5.18245e-05
5.10083e-05
5.0255e-05
4.95723e-05
4.89576e-05
4.84027e-05
4.79077e-05
4.74537e-05
4.70604e-05
4.67452e-05
4.64893e-05
4.62586e-05
4.60909e-05
4.58966e-05
4.58229e-05
0.00074351
0.000277291
0.000212062
0.000190344
0.00017785
0.000170953
0.000165698
0.00016143
0.000158097
0.000155318
0.000153208
0.00015119
0.000149879
0.000148098
0.000147571
0.000145842
0.000146389
0.000144517
0.00336964
0.000967905
0.000670242
0.00056374
0.000506688
0.000473366
0.000449706
0.000431699
0.000418516
0.000407972
0.00039931
0.00039201
0.000386108
0.000380584
0.000376647
0.000371928
0.000370343
0.00036578
0.00784555
0.00229533
0.00147522
0.00117727
0.0010225
0.000930398
0.000868812
0.000823986
0.000791369
0.000765685
0.000744921
0.000728485
0.00071519
0.000703722
0.000694558
0.000685699
0.000680747
0.000671
0.0127613
0.00433019
0.00271179
0.00210516
0.00179131
0.00160252
0.00147681
0.00138649
0.00131948
0.0012676
0.00122607
0.00119231
0.00116529
0.00114171
0.00112215
0.00110499
0.00109271
0.00107515
0.0171128
0.00693505
0.00437048
0.00334536
0.00280614
0.00247781
0.00225809
0.00210057
0.00198289
0.00189182
0.00181918
0.00175998
0.00171153
0.00167057
0.00163591
0.00160603
0.00158099
0.00155388
0.0205942
0.0098866
0.00641908
0.00491095
0.00409405
0.00358874
0.00324752
0.00300202
0.00281762
0.00267439
0.00255999
0.00246662
0.00238944
0.00232446
0.0022692
0.00222165
0.00218123
0.00213971
0.0232402
0.0129322
0.00876081
0.0067636
0.00563607
0.00492291
0.00443477
0.00408076
0.00381307
0.00360405
0.00343652
0.00329939
0.00318542
0.0030893
0.00300727
0.00293656
0.0028753
0.00281555
0.0252061
0.0158695
0.0112821
0.00885515
0.00741548
0.00647937
0.00582757
0.00534965
0.00498531
0.00469898
0.00446838
0.0042789
0.00412075
0.00398694
0.00387241
0.0037734
0.00368687
0.00360529
0.0266537
0.0185547
0.0138515
0.0111042
0.00938192
0.00822456
0.00740149
0.00678932
0.00631773
0.00594412
0.00564132
0.00539126
0.00518158
0.00500347
0.00485045
0.00471768
0.00460087
0.00449342
0.0277216
0.020914
0.0163541
0.0134259
0.0114799
0.0101233
0.00913465
0.00838677
0.00780342
0.00733686
0.00695589
0.00663939
0.00637264
0.00614504
0.00594877
0.00577782
0.005627
0.00549001
0.0284461
0.0227403
0.0184753
0.0155081
0.0134279
0.0119249
0.0108021
0.00993758
0.0092543
0.00870225
0.00824784
0.00786788
0.00754591
0.00726993
0.00703097
0.00682209
0.00663733
0.00647077
0.0290069
0.0243015
0.0204348
0.0175347
0.0153893
0.0137794
0.012544
0.0115738
0.0107956
0.0101595
0.00963123
0.00918624
0.0088069
0.00848009
0.00819589
0.00794655
0.00772555
0.00752688
0.0294882
0.0257538
0.0223951
0.0196727
0.0175359
0.0158608
0.0145331
0.0134648
0.0125917
0.0118679
0.0112597
0.0107426
0.0102985
0.00991344
0.0095768
0.00928016
0.00901653
0.00877995
0.0298832
0.0270269
0.0242366
0.0217942
0.0197534
0.0180739
0.0166922
0.0155481
0.0145921
0.0137854
0.0130981
0.0125072
0.011995
0.0115474
0.0111537
0.0108049
0.0104938
0.0102142
0.0301871
0.0280587
0.0258242
0.023722
0.0218523
0.0202335
0.0188469
0.0176617
0.0166462
0.0157721
0.0150155
0.0143565
0.0137792
0.0132704
0.0128196
0.012418
0.0120584
0.0117348
0.0303974
0.0287991
0.0270221
0.0252444
0.0235729
0.0220561
0.0207062
0.0195164
0.0184716
0.0175543
0.0167477
0.0160361
0.015406
0.0148461
0.0143463
0.0138984
0.0134956
0.0131322
0.0305039
0.0291832
0.0276652
0.0260895
0.0245558
0.0231216
0.0218129
0.0206357
0.019585
0.0186503
0.0178194
0.01708
0.0164208
0.0158315
0.0153029
0.0148274
0.0143982
0.014009
0.0304706
0.0290643
0.0274676
0.0258315
0.0242571
0.0227989
0.0214784
0.0202976
0.0192485
0.0183186
0.0174943
0.0167624
0.016111
0.0155296
0.0150089
0.0145412
0.01412
0.0137399
0.0302301
0.0282109
0.0260712
0.024036
0.0222066
0.0206076
0.0192269
0.0180389
0.0170152
0.0161299
0.0153605
0.0146881
0.0140974
0.0135755
0.0131123
0.0126992
0.0123296
0.011998
0.0298191
0.026824
0.0239439
0.0214559
0.0193973
0.0177153
0.0163385
0.0152027
0.0142562
0.0134589
0.0127804
0.0121975
0.0116923
0.011251
0.0108629
0.0105196
0.0102147
0.00994408
0.0291384
0.0247058
0.0209805
0.0181268
0.0159799
0.014348
0.0130833
0.0120825
0.0112747
0.0106112
0.0100577
0.00958974
0.00918938
0.00884335
0.00854159
0.00827648
0.00804233
0.00783552
0.0280347
0.0217139
0.0172817
0.0143334
0.0123259
0.0109025
0.00985231
0.00905054
0.00842064
0.00791383
0.00749787
0.0071507
0.0068568
0.00660493
0.00638671
0.00619598
0.0060281
0.00588184
0.0262538
0.0178169
0.0131452
0.0104878
0.00884539
0.00774983
0.00697366
0.0063978
0.00595479
0.00560396
0.00531956
0.00508455
0.00488725
0.00471934
0.00457469
0.00444885
0.00433821
0.00424199
0.0233808
0.0132077
0.00902313
0.00699279
0.00583762
0.00510187
0.00459533
0.00422697
0.00394763
0.0037287
0.0035527
0.00340823
0.00328766
0.00318557
0.0030978
0.00302164
0.00295396
0.00289601
0.0189042
0.00845952
0.00545266
0.00418663
0.0035087
0.00308961
0.00280627
0.00260318
0.00245052
0.00233143
0.00223616
0.00215821
0.00209346
0.00203882
0.0019918
0.00195139
0.00191541
0.00188496
0.012583
0.00439279
0.00279105
0.00217476
0.00185401
0.00165759
0.00152602
0.00143296
0.00136298
0.00130822
0.00126463
0.00122897
0.00119971
0.00117488
0.00115314
0.001135
0.00111785
0.00110356
0.00562422
0.00171424
0.00115755
0.000947697
0.000839123
0.000771684
0.000726981
0.000695893
0.000671094
0.000651021
0.00063512
0.000621869
0.000610504
0.000600956
0.000592262
0.00058516
0.000577999
0.000573151
0.00117097
0.000438399
0.000330804
0.000288802
0.000267458
0.000253697
0.000246266
0.000240148
0.000234984
0.000230587
0.000226802
0.000223624
0.000220769
0.000218442
0.000216172
0.000214471
0.000212497
0.000210993
7.08584e-05
7.01421e-05
6.91462e-05
6.81619e-05
6.72333e-05
6.63762e-05
6.5591e-05
6.48763e-05
6.42257e-05
6.36329e-05
6.3091e-05
6.25946e-05
6.21392e-05
6.17194e-05
6.1334e-05
6.09751e-05
6.06467e-05
6.03352e-05
8.64843e-06
2.32426e-05
2.71184e-05
2.9108e-05
3.04687e-05
3.13395e-05
3.19915e-05
3.24581e-05
3.28224e-05
3.31046e-05
3.33327e-05
3.35155e-05
3.36618e-05
3.37744e-05
3.38546e-05
3.39044e-05
3.39237e-05
3.39244e-05
3.39003e-05
3.37827e-05
3.34999e-05
3.30081e-05
3.23483e-05
3.15421e-05
3.06271e-05
2.96611e-05
2.87271e-05
2.79153e-05
2.73692e-05
2.70093e-05
2.69948e-05
2.71286e-05
2.73967e-05
2.76352e-05
2.777e-05
2.77341e-05
2.74964e-05
2.67938e-05
2.57653e-05
2.48749e-05
2.46069e-05
2.52046e-05
2.62162e-05
2.75916e-05
2.936e-05
3.15951e-05
3.40012e-05
3.61638e-05
3.81606e-05
4.00156e-05
4.17509e-05
4.33767e-05
4.49164e-05
4.63887e-05
4.78123e-05
4.91788e-05
5.04787e-05
5.17279e-05
5.29323e-05
5.40993e-05
5.52347e-05
5.63435e-05
5.74301e-05
5.84983e-05
5.95512e-05
6.05915e-05
6.16214e-05
6.26429e-05
6.36575e-05
6.46666e-05
6.56713e-05
6.66726e-05
6.7671e-05
6.86674e-05
6.9662e-05
7.06553e-05
7.16475e-05
7.26387e-05
7.3629e-05
7.46183e-05
7.56065e-05
7.65932e-05
7.75781e-05
7.85605e-05
7.95397e-05
8.05147e-05
8.14841e-05
8.24465e-05
8.34e-05
8.43424e-05
8.52711e-05
8.61827e-05
8.70732e-05
8.79394e-05
8.87793e-05
8.9593e-05
9.03878e-05
9.11605e-05
9.19099e-05
9.26364e-05
9.33476e-05
9.40482e-05
9.47354e-05
9.54054e-05
9.60542e-05
9.66773e-05
9.72687e-05
9.78203e-05
9.83203e-05
9.8748e-05
9.90048e-05
9.90749e-05
9.8995e-05
9.86755e-05
9.85206e-05
9.83481e-05
9.84162e-05
9.87255e-05
9.87922e-05
9.93575e-05
9.97846e-05
9.96719e-05
9.91164e-05
9.7819e-05
9.60048e-05
9.36288e-05
9.07956e-05
8.78278e-05
8.39927e-05
7.91923e-05
7.34687e-05
6.54522e-05
5.64758e-05
4.4192e-05
4.19559e-05
4.49456e-05
4.37686e-05
3.14382e-05
3.99265e-05
6.65788e-05
7.8747e-05
8.76406e-05
9.39979e-05
9.86414e-05
0.000102015
0.000104381
0.000106026
0.000106862
0.000107135
0.000107154
0.000106549
0.00010503
0.000103621
0.000102046
0.000100535
9.90341e-05
9.76095e-05
9.62718e-05
9.50415e-05
9.39239e-05
9.29563e-05
9.21588e-05
9.15212e-05
9.11149e-05
9.09163e-05
9.08586e-05
9.10861e-05
9.19587e-05
9.20963e-05
9.23154e-05
9.25124e-05
9.26528e-05
9.27375e-05
9.27307e-05
9.26701e-05
9.24749e-05
9.21824e-05
9.16236e-05
9.10901e-05
8.86334e-05
1.21831e-05
5.21562e-05
0.000111992
0.000150906
0.000182271
0.000203808
0.000220734
0.000233401
0.000244284
0.000253687
0.00026243
0.000270558
0.000278201
0.00028509
0.000290991
0.000295615
0.000298891
0.000300743
0.000301116
0.000300751
0.000299155
0.000298432
0.000300267
0.000305776
0.000315497
0.000329613
0.000344936
0.000357952
0.000367439
0.000373199
0.000375788
0.000376219
0.000375412
0.000374045
0.000372505
0.000370931
0.000369275
0.000367311
0.000365103
0.000362836
0.00036077
0.000359148
0.000357837
0.000356611
0.000355274
0.000353556
0.00035251
0.000353109
0.000355506
0.00035954
0.000364938
0.000371494
0.000378854
0.000386746
0.000394983
0.000403442
0.000412012
0.000420606
0.000429168
0.000437662
0.000446071
0.000454389
0.00046262
0.000470773
0.000478861
0.0004869
0.000494903
0.000502886
0.000510862
0.000518844
0.000526842
0.000534865
0.000542922
0.00055102
0.000559163
0.000567357
0.000575604
0.000583907
0.000592268
0.000600687
0.000609164
0.000617695
0.000626277
0.0006349
0.000643553
0.000652216
0.000660858
0.000669437
0.000677887
0.000686121
0.000694015
0.00070139
0.000707996
0.000713469
0.000717325
0.000719444
0.00072066
0.000720715
0.000719098
0.000714884
0.000709331
0.0007039
0.000698708
0.000693823
0.000689294
0.000685159
0.000681448
0.000678197
0.000675444
0.000673221
0.000671615
0.000670231
0.000668105
0.000664795
0.000659467
0.000650825
0.000639727
0.000629827
0.000627868
0.000630772
0.000628845
0.000618109
0.000600256
0.000578237
0.000553696
0.000528987
0.000507019
0.000481898
0.000434435
0.000399733
0.00037309
0.000358565
0.000396032
0.000468256
0.000526611
0.000501572
0.000418964
0.000393159
0.000420414
0.000455692
0.000528616
0.00061154
0.000692797
0.000761555
0.00081506
0.000846378
0.000858724
0.000875572
0.000890435
0.000898893
0.000909547
0.000920919
0.000926114
0.000928974
0.000928451
0.000925569
0.000920549
0.000913672
0.000904833
0.000893825
0.000881676
0.000868432
0.000854154
0.000839644
0.000823991
0.000805949
0.000787012
0.000775288
0.00077312
0.000768728
0.0007616
0.000753255
0.000744714
0.00073597
0.00072741
0.000717839
0.000709458
0.000700042
0.000694456
0.000673586
1.49409e-05
7.37943e-05
0.000161419
0.000231012
0.000293395
0.00033998
0.000380547
0.000412919
0.000442498
0.000468943
0.000494176
0.000518007
0.000540917
0.000562349
0.000581459
0.000596887
0.000607907
0.000615421
0.000620186
0.000622694
0.000623069
0.000621421
0.000617963
0.000613032
0.000607002
0.000600145
0.000594449
0.000591302
0.000590521
0.000591825
0.000595053
0.000599965
0.000605802
0.000612173
0.000617311
0.000621925
0.000626072
0.000629447
0.000632378
0.000635625
0.000639556
0.00064374
0.000649793
0.000657786
0.000667703
0.000679767
0.000693845
0.000709702
0.000727108
0.000745717
0.000765167
0.000784993
0.000804939
0.000824814
0.000844456
0.000863747
0.000882611
0.000901008
0.000918931
0.000936391
0.000953417
0.000970043
0.000986309
0.00100226
0.00101793
0.00103335
0.00104857
0.00106359
0.00107844
0.00109313
0.00110768
0.00112208
0.00113635
0.00115047
0.00116445
0.00117826
0.0011919
0.00120536
0.00121861
0.00123162
0.00124438
0.00125684
0.00126898
0.00128075
0.0012921
0.00130296
0.00131327
0.00132295
0.0013319
0.00134
0.00134712
0.00135312
0.00135783
0.0013611
0.00136286
0.00136306
0.00136161
0.00135841
0.0013534
0.00134669
0.00133879
0.00133035
0.00132163
0.00131274
0.0013038
0.00129486
0.00128607
0.00127764
0.00126969
0.0012622
0.00125495
0.00124751
0.00123932
0.00123009
0.00121941
0.00120703
0.001194
0.00118172
0.00116943
0.00115338
0.00113154
0.00110421
0.00107153
0.00103556
0.00099979
0.000968498
0.000945764
0.000931302
0.00091342
0.000890044
0.000864682
0.00087253
0.000902511
0.000905176
0.00082398
0.000770908
0.000792647
0.000854506
0.000946376
0.0010919
0.00125028
0.00139379
0.00151221
0.00160122
0.00166185
0.00169303
0.00172224
0.00176023
0.00179327
0.00181398
0.00183099
0.00184259
0.00184628
0.00184479
0.00183831
0.00182813
0.00181497
0.00179919
0.00178019
0.0017566
0.00173297
0.00170964
0.00168697
0.00166514
0.00164365
0.00162259
0.0016037
0.00158918
0.00157694
0.0015623
0.00154662
0.00153085
0.00151546
0.00150031
0.00148523
0.00146955
0.00145382
0.0014372
0.00141962
0.00137797
1.67412e-05
9.56296e-05
0.00020665
0.000298377
0.000384097
0.000455763
0.000519209
0.000571813
0.000618465
0.000658195
0.000694263
0.000726044
0.000754446
0.00077842
0.000797251
0.000810265
0.000818225
0.000821925
0.000822077
0.000819282
0.000814057
0.000807011
0.000798936
0.000790786
0.000783572
0.00077824
0.000775148
0.000774326
0.000775528
0.000778281
0.000781966
0.000786639
0.000793057
0.000800947
0.000812212
0.000825883
0.000841243
0.000857958
0.000875153
0.000892724
0.000911522
0.000931344
0.000952145
0.000973865
0.000996769
0.00102071
0.00104579
0.00107153
0.00109747
0.00112332
0.00114886
0.00117408
0.00119891
0.00122328
0.00124714
0.00127046
0.00129323
0.00131545
0.00133715
0.00135835
0.00137909
0.00139941
0.00141933
0.00143892
0.00145823
0.00147728
0.00149609
0.00151468
0.00153306
0.00155123
0.00156919
0.00158693
0.00160445
0.00162172
0.00163873
0.00165545
0.00167187
0.00168793
0.00170362
0.00171888
0.00173368
0.00174796
0.00176168
0.00177476
0.00178716
0.00179879
0.00180958
0.00181945
0.0018283
0.00183605
0.00184259
0.00184782
0.00185164
0.00185396
0.00185467
0.00185364
0.00185071
0.00184564
0.00183805
0.00182744
0.00181286
0.00179664
0.00177938
0.0017613
0.00174258
0.00172328
0.0017035
0.00168393
0.00166506
0.00164689
0.00162915
0.00161142
0.00159325
0.00157433
0.00155438
0.00153308
0.00151229
0.00149168
0.00146949
0.00144273
0.0014116
0.00137638
0.00133664
0.00129532
0.00125911
0.0012362
0.0012368
0.00127174
0.00132203
0.00134568
0.00134938
0.001329
0.00125259
0.00112124
0.00105916
0.0010922
0.00120322
0.00135008
0.00152268
0.00172028
0.00190643
0.00206753
0.0021948
0.00228902
0.00235772
0.002408
0.00245764
0.00250319
0.00253627
0.00255253
0.00255975
0.00255776
0.0025474
0.00253067
0.00250884
0.00248337
0.00245525
0.00242508
0.00239345
0.00236132
0.00233012
0.0023003
0.00227213
0.00224567
0.00222089
0.00219814
0.00217812
0.00216076
0.00214421
0.00212793
0.00211205
0.00209669
0.00208195
0.00206756
0.00205305
0.00203783
0.00202164
0.00200388
0.00198096
0.00193474
1.87549e-05
0.000114443
0.000248448
0.000364172
0.000465868
0.000554644
0.000631994
0.000699722
0.000758736
0.000809784
0.00085382
0.000891277
0.00092252
0.000947861
0.000967548
0.000981897
0.000991352
0.000996468
0.000997873
0.000996235
0.000992265
0.000986752
0.000980347
0.000973639
0.000967152
0.000961225
0.000957566
0.000957828
0.000962634
0.000972091
0.000986568
0.00100455
0.00102449
0.00104606
0.00106754
0.00108959
0.00111243
0.0011357
0.00115918
0.00118282
0.00120681
0.00123158
0.00125741
0.00128412
0.00131076
0.00133709
0.00136314
0.00138922
0.00141549
0.00144193
0.00146846
0.00149486
0.00152099
0.00154675
0.0015721
0.001597
0.00162146
0.0016455
0.00166912
0.00169236
0.00171526
0.00173786
0.00176018
0.00178223
0.00180402
0.00182555
0.00184683
0.00186786
0.00188866
0.00190921
0.0019295
0.00194951
0.00196924
0.00198866
0.00200774
0.00202645
0.00204475
0.00206261
0.00207998
0.00209683
0.00211309
0.00212872
0.00214366
0.00215785
0.00217122
0.00218372
0.00219527
0.00220579
0.00221523
0.00222349
0.0022305
0.00223619
0.00224048
0.00224327
0.00224446
0.00224397
0.00224161
0.00223719
0.00223049
0.00222139
0.00220982
0.00219587
0.0021793
0.00216025
0.00213897
0.00211523
0.00208829
0.00206007
0.002032
0.00200423
0.00197653
0.0019485
0.00191966
0.00188951
0.00185765
0.00182361
0.00178905
0.00175305
0.00171602
0.00167769
0.00163863
0.00160078
0.00156466
0.00153481
0.00152112
0.00153452
0.00158189
0.001661
0.0017098
0.00171366
0.00167527
0.00157194
0.00141712
0.00131663
0.0013256
0.00142223
0.00163826
0.00185252
0.00207462
0.0022866
0.00247923
0.00264036
0.00276206
0.00285176
0.00292029
0.00297517
0.00302008
0.00305212
0.00306784
0.00307137
0.00306627
0.00305137
0.00302872
0.00300035
0.0029678
0.00293247
0.00289545
0.0028577
0.00282017
0.00278378
0.00274925
0.00271692
0.00268702
0.00265965
0.00263492
0.00261297
0.00259371
0.00257654
0.00256043
0.00254497
0.00253078
0.00251855
0.00250743
0.00249676
0.00248591
0.00247408
0.00246046
0.00244415
0.00242034
0.00237647
1.99738e-05
0.000125404
0.000276474
0.000408341
0.000523915
0.000625556
0.000714655
0.000793088
0.000861839
0.000921872
0.000973841
0.00101866
0.00105663
0.0010883
0.00111419
0.00113484
0.00115073
0.00116239
0.00117037
0.00117527
0.0011776
0.00117783
0.00117729
0.00117716
0.0011786
0.00118284
0.00118982
0.00119915
0.00121095
0.00122552
0.00124271
0.00126208
0.00128308
0.0013052
0.00132798
0.00135118
0.00137456
0.00139831
0.00142263
0.00144775
0.00147339
0.00149877
0.00152366
0.00154834
0.0015735
0.00159919
0.00162525
0.00165158
0.00167808
0.00170466
0.00173122
0.00175765
0.00178389
0.00180988
0.00183561
0.00186104
0.00188618
0.00191103
0.00193561
0.00195993
0.00198401
0.00200787
0.00203151
0.00205494
0.00207818
0.00210122
0.00212407
0.00214673
0.00216918
0.00219142
0.00221343
0.00223519
0.00225669
0.00227788
0.00229874
0.00231924
0.00233934
0.00235899
0.00237816
0.00239679
0.00241484
0.00243225
0.00244897
0.00246493
0.00248009
0.00249438
0.00250773
0.00252009
0.00253138
0.00254153
0.00255049
0.00255816
0.00256447
0.00256933
0.00257264
0.00257427
0.00257408
0.0025719
0.00256752
0.00256065
0.00255086
0.00253742
0.00251898
0.00249604
0.00246999
0.002441
0.00240944
0.00237691
0.00234431
0.00231184
0.00227933
0.00224636
0.00221233
0.00217657
0.00213842
0.00209697
0.00205361
0.00200784
0.00195972
0.00191068
0.00186265
0.00182016
0.0017865
0.00176907
0.00178073
0.00183386
0.00192077
0.00199891
0.0020031
0.0019494
0.00183598
0.00168883
0.00156615
0.00154177
0.00160523
0.00182037
0.0020821
0.0023359
0.00257209
0.00278897
0.00297595
0.00311753
0.00322267
0.00330198
0.00336222
0.00340721
0.00343812
0.00345506
0.00345573
0.00344768
0.00343172
0.00340591
0.00337352
0.00333644
0.00329623
0.00325424
0.00321163
0.0031694
0.00312846
0.00308951
0.00305306
0.00301944
0.00298884
0.00296139
0.00293714
0.00291603
0.00289779
0.0028819
0.00286791
0.00285581
0.00284584
0.00283762
0.00283052
0.00282423
0.00281833
0.00281173
0.00280272
0.00279027
0.0027693
0.00273113
2.10182e-05
0.000133408
0.0002975
0.000441555
0.000568491
0.00068076
0.000779783
0.000867428
0.000944746
0.00101294
0.00107278
0.00112493
0.00117028
0.00120939
0.0012429
0.0012714
0.00129547
0.00131563
0.00133238
0.00134621
0.00135801
0.00136864
0.00137839
0.00138783
0.0013976
0.00140816
0.00141983
0.00143282
0.00144724
0.00146312
0.00148033
0.00149866
0.00151799
0.00153825
0.00155939
0.00158143
0.00160448
0.00162771
0.00165061
0.00167308
0.00169547
0.00171838
0.00174195
0.00176608
0.00179074
0.00181583
0.00184129
0.00186702
0.00189294
0.00191896
0.00194503
0.00197107
0.00199705
0.00202293
0.00204868
0.00207429
0.00209977
0.0021251
0.0021503
0.00217536
0.0022003
0.00222512
0.00224982
0.00227442
0.0022989
0.00232327
0.00234751
0.00237164
0.00239562
0.00241944
0.00244309
0.00246655
0.00248978
0.00251276
0.00253545
0.00255783
0.00257984
0.00260145
0.00262261
0.00264328
0.00266341
0.00268295
0.00270183
0.00272002
0.00273745
0.00275406
0.00276979
0.00278459
0.00279839
0.00281112
0.00282273
0.00283314
0.00284227
0.00285004
0.00285637
0.00286115
0.00286426
0.00286553
0.0028648
0.00286182
0.0028563
0.00284792
0.00283641
0.0028216
0.00280299
0.00277951
0.00275002
0.00271861
0.00268667
0.00265473
0.00262285
0.0025907
0.00255761
0.00252264
0.00248469
0.00244243
0.00239591
0.00234536
0.0022907
0.00223353
0.00217717
0.00212757
0.00209095
0.00207677
0.00209742
0.0021608
0.00224659
0.0022766
0.00221802
0.00209125
0.00193817
0.00180968
0.00175603
0.00177925
0.00196057
0.00223261
0.00252031
0.00278554
0.0030231
0.00323065
0.00339066
0.00351059
0.00359918
0.00366408
0.00371043
0.0037411
0.00375745
0.00376063
0.0037484
0.00373023
0.00370399
0.00366863
0.00362783
0.00358338
0.00353679
0.00348937
0.00344224
0.00339636
0.00335251
0.00331129
0.00327312
0.00323831
0.00320706
0.00317949
0.00315561
0.00313532
0.0031184
0.00310454
0.00309359
0.00308555
0.00308032
0.00307744
0.00307632
0.00307632
0.0030767
0.00307609
0.00307299
0.00306579
0.00304945
0.00301786
2.13682e-05
0.000136477
0.000309626
0.000462919
0.000598837
0.000719759
0.000827063
0.000922618
0.00100752
0.00108307
0.00115016
0.00120972
0.00126234
0.00130874
0.00134966
0.00138566
0.00141728
0.00144514
0.00146986
0.001492
0.00151192
0.00153008
0.00154686
0.00156271
0.00157803
0.00159316
0.00160839
0.00162397
0.00164009
0.00165692
0.00167459
0.00169326
0.00171259
0.00173228
0.00175205
0.00177169
0.00179115
0.00181094
0.00183142
0.00185256
0.0018743
0.00189665
0.00191958
0.00194305
0.001967
0.00199138
0.00201611
0.00204115
0.00206641
0.00209186
0.00211744
0.00214311
0.00216884
0.0021946
0.00222037
0.00224615
0.00227193
0.0022977
0.00232346
0.00234921
0.00237495
0.00240068
0.00242639
0.0024521
0.00247779
0.00250345
0.00252908
0.00255467
0.0025802
0.00260565
0.002631
0.00265624
0.00268132
0.00270623
0.00273093
0.00275538
0.00277955
0.00280339
0.00282686
0.00284991
0.0028725
0.00289457
0.00291608
0.00293696
0.00295716
0.00297664
0.00299532
0.00301315
0.00303007
0.00304602
0.00306094
0.00307475
0.0030874
0.0030988
0.00310887
0.00311754
0.0031247
0.00313027
0.00313411
0.00313609
0.00313603
0.0031337
0.00312882
0.0031209
0.00310908
0.00309192
0.00307017
0.00304651
0.00302156
0.00299625
0.00297106
0.00294592
0.00292026
0.00289295
0.00286243
0.00282712
0.00278555
0.00273818
0.00268468
0.00262593
0.00256575
0.00250995
0.00246623
0.00244434
0.00245403
0.00249622
0.00254303
0.00252518
0.00240497
0.00223355
0.00207531
0.00197593
0.00196097
0.00210172
0.00234808
0.00264858
0.00293916
0.00319743
0.00342772
0.00360765
0.0037436
0.00384349
0.00391507
0.00396451
0.00399595
0.00401203
0.00401453
0.00400487
0.00398086
0.00395299
0.00391648
0.00387208
0.00382331
0.00377186
0.00371917
0.00366651
0.00361492
0.0035653
0.00351833
0.00347453
0.0034343
0.00339793
0.00336561
0.00333748
0.00331357
0.00329388
0.0032783
0.00326671
0.00325908
0.00325537
0.00325534
0.00325845
0.00326391
0.00327081
0.003278
0.00328453
0.00328793
0.00328671
0.00327667
0.00325306
2.17516e-05
0.000140826
0.000319394
0.000479281
0.000622046
0.000749732
0.000863567
0.000965387
0.00105631
0.00113768
0.00121045
0.00127563
0.00133389
0.00138602
0.00143284
0.0014749
0.00151273
0.00154678
0.0015775
0.00160538
0.00163091
0.00165451
0.00167659
0.0016974
0.00171723
0.00173631
0.00175484
0.00177297
0.00179081
0.00180838
0.00182575
0.00184292
0.00186014
0.00187762
0.00189554
0.00191405
0.00193307
0.00195265
0.00197281
0.00199354
0.00201485
0.00203671
0.0020591
0.00208198
0.00210532
0.00212907
0.0021532
0.00217765
0.00220238
0.00222737
0.00225256
0.00227795
0.0023035
0.0023292
0.00235502
0.00238097
0.00240704
0.00243321
0.00245949
0.00248587
0.00251235
0.00253893
0.0025656
0.00259237
0.00261921
0.00264613
0.00267312
0.00270016
0.00272724
0.00275434
0.00278143
0.00280851
0.00283553
0.00286246
0.00288929
0.00291597
0.00294245
0.00296871
0.00299469
0.00302035
0.00304564
0.00307051
0.0030949
0.00311876
0.00314205
0.00316469
0.00318664
0.00320783
0.00322821
0.00324771
0.00326628
0.00328386
0.00330038
0.0033158
0.00333003
0.00334304
0.00335475
0.0033651
0.003374
0.00338137
0.00338711
0.00339109
0.00339314
0.00339305
0.0033906
0.0033857
0.00337848
0.00336854
0.00335416
0.00333827
0.00332188
0.00330535
0.00328845
0.00327008
0.00324835
0.00322129
0.00318767
0.00314728
0.00310054
0.00304767
0.002992
0.00293826
0.00289296
0.00286362
0.00285613
0.00286681
0.00286589
0.00278703
0.00263282
0.00245051
0.00229125
0.0022258
0.00230301
0.00249523
0.00277014
0.00306624
0.00334008
0.00358786
0.00378692
0.00393898
0.00405117
0.00413099
0.00418501
0.00421827
0.00423447
0.00423628
0.00422553
0.00420347
0.00416841
0.00413061
0.00408369
0.00403039
0.00397369
0.00391524
0.00385639
0.00379834
0.0037421
0.00368846
0.00363804
0.00359131
0.00354865
0.00351032
0.00347654
0.00344749
0.00342331
0.00340408
0.00338984
0.00338057
0.00337632
0.00337709
0.00338254
0.00339199
0.00340441
0.00341867
0.0034334
0.00344724
0.00345818
0.00346424
0.00346195
0.00344648
2.17587e-05
0.000142944
0.000324265
0.000488478
0.000636232
0.000769149
0.000888251
0.000995296
0.00109128
0.00117751
0.00125494
0.00132448
0.00138694
0.00144339
0.00149438
0.00154055
0.00158242
0.00162052
0.00165538
0.00168731
0.00171664
0.00174364
0.0017686
0.00179185
0.00181368
0.00183433
0.00185403
0.001873
0.00189145
0.00190959
0.00192756
0.00194544
0.00196339
0.00198152
0.00199993
0.00201869
0.00203786
0.00205747
0.00207754
0.0020981
0.00211914
0.00214066
0.00216264
0.00218508
0.00220794
0.0022312
0.00225483
0.00227881
0.00230312
0.00232773
0.00235262
0.00237778
0.00240318
0.00242882
0.00245469
0.00248078
0.00250709
0.00253361
0.00256034
0.00258729
0.00261443
0.00264179
0.00266934
0.0026971
0.00272505
0.00275318
0.00278149
0.00280996
0.00283858
0.00286734
0.00289621
0.00292517
0.00295419
0.00298325
0.00301231
0.00304134
0.00307029
0.00309913
0.00312781
0.00315629
0.0031845
0.00321241
0.00323995
0.00326707
0.00329372
0.00331983
0.00334536
0.00337023
0.0033944
0.00341779
0.00344036
0.00346204
0.00348277
0.0035025
0.00352117
0.00353871
0.0035551
0.00357029
0.00358424
0.0035969
0.00360822
0.00361817
0.00362668
0.00363369
0.00363914
0.00364297
0.00364508
0.00364528
0.00364344
0.0036396
0.00363286
0.00362436
0.00361448
0.00360207
0.00358489
0.00356032
0.00352921
0.00349184
0.0034497
0.00340371
0.00335689
0.00331275
0.00327521
0.00324722
0.00322751
0.00320555
0.00315949
0.0030685
0.00293658
0.00279038
0.00267883
0.00266093
0.00276829
0.0029741
0.00323013
0.00348983
0.00373706
0.00394992
0.00411441
0.00423753
0.0043259
0.00438577
0.00442227
0.0044394
0.00444038
0.00442782
0.00440363
0.0043689
0.00432322
0.00427453
0.00421714
0.00415478
0.00409007
0.00402453
0.0039594
0.0038958
0.00383468
0.00377678
0.00372264
0.00367267
0.00362724
0.00358661
0.00355105
0.00352079
0.00349609
0.00347717
0.00346414
0.00345709
0.0034562
0.00346151
0.00347261
0.00348863
0.0035083
0.00353033
0.0035531
0.00357513
0.00359427
0.00360831
0.00361387
0.00360638
2.17411e-05
0.000144111
0.000327254
0.000494853
0.000646497
0.000783386
0.000906299
0.00101692
0.00111621
0.00120554
0.00128575
0.00135784
0.00142294
0.00148175
0.00153498
0.00158332
0.00162738
0.0016676
0.00170429
0.00173788
0.00176874
0.00179726
0.00182377
0.00184855
0.00187188
0.00189398
0.00191508
0.00193537
0.00195505
0.00197428
0.00199319
0.00201194
0.00203063
0.00204937
0.00206825
0.00208734
0.0021067
0.00212637
0.0021464
0.0021668
0.00218759
0.00220879
0.00223038
0.00225237
0.00227475
0.00229751
0.00232064
0.00234414
0.00236798
0.00239215
0.00241666
0.00244149
0.00246664
0.00249209
0.00251786
0.00254394
0.00257034
0.00259704
0.00262405
0.00265139
0.00267904
0.00270701
0.00273529
0.0027639
0.00279282
0.00282205
0.00285159
0.00288141
0.00291152
0.0029419
0.00297252
0.00300337
0.00303442
0.00306564
0.00309699
0.00312845
0.00315996
0.00319149
0.00322299
0.0032544
0.00328568
0.00331677
0.00334762
0.00337816
0.00340834
0.00343809
0.00346736
0.00349609
0.00352421
0.00355166
0.00357838
0.00360431
0.00362938
0.00365355
0.00367676
0.00369897
0.00372013
0.00374021
0.00375917
0.00377699
0.00379364
0.00380909
0.00382333
0.0038363
0.00384794
0.00385815
0.00386679
0.00387366
0.00387851
0.003881
0.00388076
0.00387748
0.00387046
0.00385871
0.00384132
0.00381781
0.00378818
0.00375271
0.00371218
0.00366803
0.00362265
0.00357867
0.0035392
0.00350644
0.00347962
0.00345333
0.003418
0.00336519
0.00329639
0.00322836
0.0031959
0.00323025
0.00334982
0.00351818
0.00371693
0.00393245
0.00413458
0.00429564
0.0044205
0.00451247
0.0045759
0.0046149
0.00463296
0.00463311
0.00461824
0.0045909
0.00455293
0.00450527
0.00444934
0.00438879
0.00432133
0.00424963
0.00417702
0.00410448
0.00403312
0.00396399
0.00389799
0.00383582
0.00377791
0.00372464
0.00367633
0.00363329
0.00359581
0.00356422
0.00353892
0.00352022
0.00350835
0.0035034
0.0035058
0.00351568
0.00353258
0.00355538
0.0035825
0.00361262
0.00364385
0.00367459
0.00370235
0.00372461
0.00373775
0.00373849
2.1593e-05
0.000143757
0.000327129
0.000495958
0.000651012
0.000791205
0.000917109
0.00103033
0.00113176
0.00122261
0.00130384
0.00137702
0.00144292
0.00150242
0.00155621
0.00160502
0.0016494
0.00168985
0.0017269
0.00176096
0.00179242
0.00182161
0.00184882
0.00187434
0.00189841
0.00192127
0.00194313
0.00196418
0.00198457
0.00200445
0.00202396
0.00204322
0.00206233
0.00208139
0.00210048
0.00211966
0.002139
0.00215855
0.00217835
0.00219842
0.0022188
0.0022395
0.00226053
0.00228191
0.00230365
0.00232574
0.0023482
0.00237101
0.00239419
0.00241774
0.00244165
0.00246595
0.00249062
0.00251567
0.00254112
0.00256697
0.00259323
0.0026199
0.00264701
0.00267454
0.00270252
0.00273094
0.00275982
0.00278915
0.00281894
0.00284918
0.00287987
0.00291101
0.00294257
0.00297455
0.00300694
0.00303969
0.0030728
0.00310623
0.00313994
0.00317389
0.00320805
0.00324237
0.0032768
0.00331128
0.00334576
0.00338019
0.00341449
0.00344863
0.00348252
0.0035161
0.00354933
0.00358211
0.0036144
0.00364613
0.00367722
0.00370761
0.00373722
0.00376601
0.0037939
0.00382085
0.00384681
0.00387175
0.00389565
0.00391848
0.00394021
0.00396083
0.0039803
0.00399857
0.00401555
0.00403111
0.00404505
0.0040571
0.00406692
0.00407409
0.00407811
0.00407841