/*--------------------------------*- C++ -*----------------------------------*\
| =========                 |                                                 |
| \\      /  F ield         | OpenFOAM: The Open Source CFD Toolbox           |
|  \\    /   O peration     | Version:  v1906                                 |
|   \\  /    A nd           | Web:      www.OpenFOAM.com                      |
|    \\/     M anipulation  |                                                 |
\*---------------------------------------------------------------------------*/
FoamFile
{
    version     2.0;
    format      ascii;
    class       volScalarField;
    location    "1800";
    object      p;
}
// * * * * * * * * * * * * * * * * * * * * * * * * * * * * * * * * * * * * * //

dimensions      [0 2 -2 0 0 0 0];


internalField   nonuniform List<scalar> 
12225
(
-3.52747
-4.79128
-4.79655
-4.83411
-4.99076
-5.12315
-5.22677
-5.32441
-5.41758
-5.50493
-5.58732
-5.66849
-5.75193
-5.84051
-5.9346
-6.0411
-6.16972
-6.34014
-5.46226
-5.9717
-6.07685
-6.06838
-6.12762
-6.17859
-6.2204
-6.26954
-6.32398
-6.37983
-6.43697
-6.49643
-6.56132
-6.63182
-6.70991
-6.79827
-6.8976
-7.04291
-4.6532
-5.49846
-5.59102
-5.57587
-5.62891
-5.6811
-5.72637
-5.77623
-5.82891
-5.882
-5.93596
-5.9916
-6.05153
-6.1155
-6.18616
-6.26116
-6.34288
-6.41013
-5.51313
-5.96951
-6.15908
-6.24776
-6.34981
-6.42576
-6.48195
-6.53501
-6.58774
-6.63977
-6.69228
-6.74665
-6.80459
-6.86679
-6.93365
-7.00582
-7.08094
-7.17061
-5.14425
-5.63925
-5.82556
-5.88977
-5.95945
-6.01331
-6.05732
-6.10218
-6.1479
-6.19373
-6.24018
-6.2881
-6.3383
-6.39169
-6.44636
-6.50418
-6.54969
-6.58711
-5.67728
-5.97769
-6.16383
-6.27799
-6.39302
-6.48548
-6.56072
-6.62871
-6.69219
-6.7525
-6.81116
-6.86967
-6.929
-6.99007
-7.05176
-7.11544
-7.17688
-7.24599
-5.47776
-5.74009
-5.92589
-6.0252
-6.11392
-6.18133
-6.23643
-6.28745
-6.33619
-6.38336
-6.42973
-6.4761
-6.5226
-6.56976
-6.61505
-6.65918
-6.68884
-6.70644
-5.83516
-6.02398
-6.1861
-6.30004
-6.41303
-6.50832
-6.59112
-6.66656
-6.73653
-6.80244
-6.86555
-6.92698
-6.98727
-7.04696
-7.10522
-7.16249
-7.21832
-7.27571
-5.72166
-5.84975
-6.00412
-6.106
-6.19997
-6.27513
-6.3391
-6.39673
-6.45006
-6.50033
-6.54835
-6.59477
-6.63949
-6.68265
-6.722
-6.75762
-6.78026
-6.79293
-5.97039
-6.08858
-6.22164
-6.32467
-6.42954
-6.52162
-6.60532
-6.68264
-6.75476
-6.82271
-6.88731
-6.94924
-7.00881
-7.0662
-7.12124
-7.17363
-7.22539
-7.27415
-5.90453
-5.96414
-6.08126
-6.17146
-6.26088
-6.33709
-6.40506
-6.46668
-6.52339
-6.57623
-6.62581
-6.67259
-6.71639
-6.75722
-6.79351
-6.82534
-6.84723
-6.863
-6.06674
-6.14135
-6.2474
-6.33604
-6.42931
-6.51409
-6.59355
-6.66786
-6.73765
-6.80347
-6.86575
-6.92483
-6.98083
-7.03373
-7.08363
-7.12981
-7.17476
-7.21395
-6.03179
-6.06232
-6.15056
-6.22742
-6.3085
-6.38186
-6.44993
-6.51281
-6.57114
-6.6255
-6.67622
-6.72354
-6.76737
-6.80764
-6.84365
-6.8754
-6.90125
-6.92307
-6.16719
-6.21875
-6.30186
-6.37754
-6.45954
-6.53761
-6.61279
-6.68433
-6.75215
-6.81632
-6.87692
-6.93401
-6.98764
-7.03765
-7.08415
-7.12636
-7.16517
-7.19715
-6.14158
-6.15733
-6.21882
-6.28105
-6.35028
-6.41764
-6.48264
-6.54438
-6.60258
-6.65725
-6.70845
-6.75621
-6.80061
-6.84158
-6.87947
-6.91405
-6.94705
-6.97718
-6.24819
-6.27989
-6.3398
-6.40028
-6.46707
-6.53381
-6.59937
-6.66267
-6.72298
-6.77993
-6.83326
-6.88279
-6.92827
-6.96963
-7.00615
-7.03813
-7.06325
-7.08413
-6.2487
-6.2662
-6.31386
-6.36827
-6.43045
-6.49521
-6.56037
-6.62452
-6.68678
-6.74666
-6.80396
-6.85851
-6.91058
-6.95988
-7.00769
-7.05248
-7.09879
-7.13942
-6.25167
-6.26345
-6.30007
-6.34229
-6.38951
-6.4381
-6.48579
-6.53138
-6.5739
-6.61283
-6.64772
-6.67851
-6.70465
-6.72677
-6.74342
-6.75729
-6.76319
-6.77134
-6.35377
-6.38836
-6.45032
-6.51854
-6.59504
-6.67594
-6.75858
-6.84161
-6.92395
-7.00486
-7.084
-7.1609
-7.23565
-7.30738
-7.37697
-7.44176
-7.5055
-7.5594
-6.09481
-6.08983
-6.11596
-6.14771
-6.18184
-6.215
-6.24507
-6.27139
-6.29358
-6.31161
-6.32544
-6.3354
-6.34143
-6.34455
-6.3441
-6.34343
-6.33891
-6.3417
-6.25063
-6.30926
-6.39307
-6.47578
-6.56464
-6.65445
-6.74277
-6.82888
-6.91223
-6.99262
-7.07026
-7.1453
-7.2184
-7.28942
-7.35985
-7.42736
-7.49665
-7.55624
-5.92323
-5.92773
-5.98378
-6.03218
-6.07721
-6.11551
-6.14663
-6.17196
-6.19232
-6.2083
-6.22019
-6.22824
-6.23212
-6.23214
-6.22667
-6.21791
-6.1998
-6.1853
-6.10182
-6.19752
-6.31677
-6.4211
-6.52782
-6.62962
-6.72389
-6.81158
-6.89328
-6.96962
-7.04149
-7.10981
-7.17587
-7.24058
-7.30671
-7.37411
-7.45116
-7.52767
-5.67586
-5.74366
-5.85741
-5.92579
-5.97984
-6.02067
-6.05053
-6.07436
-6.09434
-6.11117
-6.12518
-6.13655
-6.14484
-6.1497
-6.14871
-6.14145
-6.11738
-6.08352
-5.9155
-6.08022
-6.2474
-6.37272
-6.49375
-6.6009
-6.69095
-6.76935
-6.83928
-6.90224
-6.95979
-7.01328
-7.064
-7.11299
-7.16308
-7.21607
-7.28476
-7.36893
-5.30714
-5.56748
-5.7347
-5.79358
-5.83754
-5.87151
-5.89541
-5.91683
-5.93796
-5.95796
-5.97653
-5.99373
-6.00928
-6.02294
-6.03308
-6.03841
-6.02653
-5.99172
-5.71313
-6.00476
-6.22255
-6.34611
-6.45986
-6.54914
-6.61192
-6.66302
-6.70853
-6.74949
-6.78716
-6.82262
-6.85649
-6.88905
-6.92156
-6.95513
-7.00137
-7.07123
-4.73831
-5.40029
-5.5245
-5.50873
-5.53479
-5.57064
-5.59831
-5.62692
-5.65774
-5.68781
-5.7164
-5.74379
-5.76986
-5.79449
-5.81722
-5.8379
-5.84847
-5.83726
-5.61261
-5.98986
-6.17028
-6.17788
-6.21923
-6.25412
-6.27618
-6.3014
-6.33139
-6.36242
-6.39342
-6.42438
-6.45496
-6.48482
-6.51383
-6.54235
-6.57587
-6.62666
-3.55861
-4.73853
-4.76348
-4.76706
-4.89
-5.00576
-5.09282
-5.17109
-5.24498
-5.31233
-5.37354
-5.42989
-5.482
-5.53007
-5.57426
-5.61428
-5.64873
-5.67568
-6.47583
-6.49667
-6.51592
-6.54211
-6.57164
-6.60301
-6.63448
-6.66653
-6.69837
-6.72973
-6.76002
-6.78891
-6.81595
-6.84074
-6.86284
-6.88172
-6.89691
-6.90773
-6.9139
-6.91607
-6.91449
-6.90944
-6.90175
-6.89266
-6.8834
-6.87508
-6.86856
-6.86449
-6.8631
-6.86433
-6.86781
-6.87269
-6.87803
-6.88297
-6.88687
-6.88936
-6.88981
-6.88786
-6.88451
-6.88215
-6.88332
-6.88874
-6.89815
-6.91191
-6.93118
-6.95587
-6.98438
-7.01573
-7.04971
-7.0859
-7.12387
-7.16311
-7.20322
-7.24388
-7.28459
-7.32481
-7.3642
-7.40261
-7.43993
-7.4761
-7.51109
-7.54489
-7.57749
-7.60889
-7.63909
-7.6681
-7.69588
-7.72243
-7.74771
-7.77168
-7.79426
-7.8154
-7.83499
-7.85295
-7.86913
-7.88342
-7.89564
-7.90562
-7.91314
-7.91799
-7.91988
-7.91855
-7.91364
-7.90479
-7.89156
-7.8735
-7.85002
-7.82054
-7.78435
-7.74066
-7.68858
-7.62726
-7.55608
-7.47411
-7.37866
-7.2666
-7.1366
-6.98827
-6.82028
-6.63107
-6.41892
-6.18199
-5.91854
-5.62706
-5.30633
-4.95578
-4.57543
-4.16582
-3.72836
-3.267
-2.78753
-2.29252
-1.78711
-1.28734
-0.807305
-0.358275
0.0336833
0.344907
0.583848
0.750572
0.817791
0.77497
0.632524
0.415423
0.156685
-0.106433
-0.330338
-0.445698
-0.421753
-0.291297
-0.0772522
0.176404
0.392514
0.495959
0.516069
0.548096
0.654496
0.657653
0.286712
-0.483296
-1.36816
-2.17996
-2.80015
-3.17369
-3.2867
-3.14476
-2.77427
-2.22648
-1.55601
-0.802273
0.0173421
0.880798
1.76081
2.64285
3.51876
4.38229
5.23089
6.06324
6.87906
7.67819
8.46062
9.22582
9.97175
10.696
11.3962
12.0663
12.6992
13.3033
13.8783
14.41
14.893
15.3243
15.7041
16.0322
16.3138
16.5497
16.7571
16.9298
17.1432
17.3627
-6.51964
-6.56979
-6.59176
-6.62997
-6.65946
-6.69179
-6.72084
-6.75169
-6.78076
-6.80973
-6.83714
-6.86342
-6.88786
-6.91045
-6.93077
-6.94876
-6.96417
-6.97769
-6.98764
-6.9907
-6.98622
-6.97522
-6.9599
-6.94287
-6.92649
-6.91239
-6.90145
-6.89397
-6.89
-6.88917
-6.8911
-6.89529
-6.90069
-6.90635
-6.91159
-6.91597
-6.91907
-6.9199
-6.91826
-6.91729
-6.92104
-6.93004
-6.944
-6.96328
-6.98819
-7.01826
-7.05258
-7.09044
-7.13122
-7.17421
-7.21879
-7.26432
-7.31028
-7.35626
-7.4018
-7.44658
-7.49039
-7.53316
-7.57482
-7.61538
-7.65483
-7.69321
-7.73054
-7.76684
-7.80212
-7.8364
-7.86967
-7.90192
-7.93311
-7.9632
-7.99215
-8.01987
-8.04629
-8.0713
-8.09479
-8.11663
-8.13667
-8.15473
-8.17062
-8.18413
-8.195
-8.20296
-8.20767
-8.20879
-8.2059
-8.19853
-8.1861
-8.16801
-8.1435
-8.11171
-8.07167
-8.02222
-7.96171
-7.88825
-7.80193
-7.7036
-7.59239
-7.46587
-7.32162
-7.1576
-6.97194
-6.76285
-6.52855
-6.26744
-5.9782
-5.65998
-5.3125
-4.93603
-4.53151
-4.10151
-3.64943
-3.17836
-2.69783
-2.21962
-1.75173
-1.30838
-0.910323
-0.575952
-0.338963
-0.209936
-0.169241
-0.214675
-0.333198
-0.502788
-0.696625
-0.884289
-1.0375
-1.14065
-1.14257
-0.97221
-0.613997
-0.164256
0.20196
0.37672
0.424853
0.446963
0.501838
0.412579
-0.169793
-1.12742
-2.12997
-2.99242
-3.61867
-3.97113
-4.04623
-3.8814
-3.52992
-3.01741
-2.37241
-1.63127
-0.818523
0.0401526
0.918449
1.80404
2.68541
3.55589
4.41164
5.25085
6.07305
6.87802
7.66557
8.43521
9.18534
9.91529
10.6224
11.3022
11.9491
12.5499
13.1053
13.6205
14.0906
14.5134
14.8894
15.2182
15.5055
15.7505
15.9722
16.1596
16.3817
16.5642
-6.52281
-6.59513
-6.60573
-6.64836
-6.6637
-6.69824
-6.71962
-6.74917
-6.77374
-6.80136
-6.82607
-6.85092
-6.87342
-6.89444
-6.91281
-6.92882
-6.94213
-6.95331
-6.96213
-6.96754
-6.96832
-6.96432
-6.95635
-6.94582
-6.93431
-6.92321
-6.91356
-6.90597
-6.90068
-6.89794
-6.89801
-6.90082
-6.90571
-6.91177
-6.91828
-6.92478
-6.93099
-6.93689
-6.94289
-6.95011
-6.95959
-6.97195
-6.98794
-7.00795
-7.03194
-7.0596
-7.0904
-7.1237
-7.15893
-7.19552
-7.23303
-7.27104
-7.30925
-7.34741
-7.38532
-7.42279
-7.4597
-7.49598
-7.53155
-7.56639
-7.60046
-7.63376
-7.66625
-7.69792
-7.72875
-7.75871
-7.78777
-7.81589
-7.84303
-7.86913
-7.89412
-7.91794
-7.9405
-7.96169
-7.9814
-7.99952
-8.01589
-8.03035
-8.04272
-8.0528
-8.06034
-8.06509
-8.06675
-8.06499
-8.05942
-8.04962
-8.03511
-8.01534
-7.98971
-7.95751
-7.918
-7.87047
-7.81391
-7.7468
-7.66778
-7.57542
-7.46832
-7.34476
-7.20353
-7.04303
-6.86148
-6.65708
-6.42811
-6.173
-5.89049
-5.57979
-5.2407
-4.87365
-4.47993
-4.06246
-3.62567
-3.17327
-2.71187
-2.25526
-1.81384
-1.39929
-1.03522
-0.737495
-0.509261
-0.360443
-0.29742
-0.320599
-0.418213
-0.567458
-0.740047
-0.909196
-1.0412
-1.09405
-1.06471
-0.953283
-0.695502
-0.297417
0.0546426
0.256693
0.31286
0.276887
0.201512
-0.0644003
-0.645815
-1.42614
-2.22526
-2.93173
-3.47426
-3.80583
-3.90206
-3.76732
-3.42865
-2.92016
-2.27876
-1.53717
-0.72787
0.124188
0.997399
1.87725
2.75294
3.61757
4.46728
5.30009
6.11528
6.91263
7.69206
8.45303
9.19389
9.91289
10.6077
11.2725
11.9062
12.5032
13.0627
13.5843
14.0629
14.4953
14.8813
15.2198
15.5162
15.7697
15.9994
16.1888
16.4083
16.5578
-6.5105
-6.60486
-6.61841
-6.67225
-6.6853
-6.72471
-6.74501
-6.77975
-6.80411
-6.83422
-6.85881
-6.8854
-6.9084
-6.93115
-6.95091
-6.96907
-6.98464
-6.99925
-7.01131
-7.01886
-7.02034
-7.01597
-7.00692
-6.99493
-6.98177
-6.96894
-6.9576
-6.94856
-6.94228
-6.93889
-6.93826
-6.94005
-6.94387
-6.94929
-6.95598
-6.96367
-6.97222
-6.9816
-6.99217
-7.00472
-7.01996
-7.03809
-7.05927
-7.08356
-7.11089
-7.14102
-7.17362
-7.20834
-7.24482
-7.28274
-7.32176
-7.36159
-7.40197
-7.44265
-7.48343
-7.52411
-7.56456
-7.60467
-7.64435
-7.68354
-7.72219
-7.76028
-7.79777
-7.83464
-7.87085
-7.90639
-7.94122
-7.97529
-8.00857
-8.04099
-8.07249
-8.10298
-8.1324
-8.16062
-8.18753
-8.21301
-8.2369
-8.25904
-8.27923
-8.29726
-8.31289
-8.32584
-8.33581
-8.34244
-8.34534
-8.34406
-8.33806
-8.32676
-8.30948
-8.28546
-8.25384
-8.2137
-8.16402
-8.10376
-8.03206
-7.94814
-7.85013
-7.73657
-7.60557
-7.45525
-7.28374
-7.08917
-6.86975
-6.62383
-6.35003
-6.04741
-5.71563
-5.35504
-4.96686
-4.55359
-4.11919
-3.66851
-3.20877
-2.75066
-2.30503
-1.88496
-1.50964
-1.19741
-0.960575
-0.807176
-0.741277
-0.761
-0.852224
-0.990428
-1.1479
-1.30085
-1.42507
-1.49489
-1.47931
-1.35177
-1.07315
-0.665695
-0.280994
-0.0482673
0.00218676
-0.0664144
-0.284707
-0.698299
-1.33427
-2.12894
-2.95225
-3.68035
-4.22389
-4.53229
-4.58978
-4.41519
-4.042
-3.50637
-2.84332
-2.08212
-1.25428
-0.387872
0.497522
1.38766
2.27215
3.1444
4.00077
4.83955
5.66022
6.46276
7.24712
8.01285
8.75865
9.48282
10.1826
10.8532
11.4913
12.093
12.6555
13.1779
13.6561
14.0878
14.4732
14.8116
15.1089
15.3624
15.5921
15.7769
15.9846
16.0963
-6.4615
-6.58199
-6.59849
-6.65791
-6.66948
-6.70818
-6.7263
-6.75748
-6.78026
-6.80852
-6.83217
-6.85696
-6.87915
-6.90079
-6.92001
-6.93749
-6.95266
-6.96599
-6.97733
-6.98611
-6.99161
-6.99361
-6.99232
-6.98848
-6.98299
-6.97687
-6.97099
-6.96609
-6.96274
-6.96135
-6.96221
-6.96539
-6.97074
-6.978
-6.98691
-6.9972
-7.00872
-7.02139
-7.03525
-7.05057
-7.06759
-7.08647
-7.1074
-7.13044
-7.1556
-7.18279
-7.21183
-7.24252
-7.27462
-7.30786
-7.34202
-7.37686
-7.41218
-7.44781
-7.48359
-7.51938
-7.55507
-7.59057
-7.62579
-7.66068
-7.69516
-7.72921
-7.76276
-7.79577
-7.8282
-7.86001
-7.89114
-7.92155
-7.95118
-7.97997
-8.00785
-8.03473
-8.06054
-8.08519
-8.10855
-8.13052
-8.15096
-8.16972
-8.18663
-8.2015
-8.21413
-8.22426
-8.23164
-8.23595
-8.23684
-8.23393
-8.22678
-8.21486
-8.19762
-8.17439
-8.14445
-8.10696
-8.0609
-8.00512
-7.93852
-7.85998
-7.7682
-7.66145
-7.53799
-7.39601
-7.23361
-7.04887
-6.83995
-6.60519
-6.34313
-6.05284
-5.73393
-5.38677
-5.01262
-4.61396
-4.19455
-3.75935
-3.31554
-2.8727
-2.44143
-2.03473
-1.67003
-1.36195
-1.11964
-0.95474
-0.875487
-0.881538
-0.95907
-1.08196
-1.21999
-1.35111
-1.44737
-1.47597
-1.46503
-1.4114
-1.24414
-0.94856
-0.627801
-0.431264
-0.404254
-0.54597
-0.857282
-1.32923
-1.95635
-2.67611
-3.38992
-4.00492
-4.45211
-4.68841
-4.69632
-4.48695
-4.08793
-3.52839
-2.84504
-2.06841
-1.22931
-0.355958
0.533508
1.42484
2.30845
3.1783
4.03118
4.8658
5.68183
6.47944
7.25879
8.01955
8.76044
9.47938
10.174
10.8407
11.4777
12.0804
12.6465
13.1735
13.6572
14.0948
14.4863
14.8304
15.1333
15.3912
15.6244
15.8089
16.0105
16.1094
-6.4127
-6.55688
-6.57923
-6.64788
-6.66041
-6.70252
-6.7206
-6.75288
-6.77487
-6.80302
-6.82666
-6.85247
-6.87547
-6.89839
-6.91926
-6.93882
-6.95592
-6.97091
-6.98318
-6.99258
-6.99881
-7.00206
-7.00268
-7.00134
-6.99878
-6.99578
-6.99307
-6.99129
-6.99092
-6.9923
-6.99562
-7.00093
-7.00817
-7.01721
-7.0279
-7.04011
-7.05374
-7.06877
-7.08524
-7.10327
-7.12298
-7.14449
-7.16788
-7.1932
-7.22042
-7.24948
-7.28026
-7.31259
-7.34632
-7.38126
-7.41721
-7.454
-7.49145
-7.52941
-7.56773
-7.60628
-7.64495
-7.68363
-7.72226
-7.76076
-7.79906
-7.83711
-7.87487
-7.91228
-7.94931
-7.98589
-8.02198
-8.05753
-8.09247
-8.12674
-8.16026
-8.19295
-8.22473
-8.25547
-8.28508
-8.31342
-8.34035
-8.3657
-8.38929
-8.41092
-8.43036
-8.44735
-8.46161
-8.4728
-8.48058
-8.48451
-8.48414
-8.47894
-8.4683
-8.45158
-8.42802
-8.39679
-8.35696
-8.30747
-8.24715
-8.17444
-8.08791
-7.98613
-7.86747
-7.73013
-7.5722
-7.39175
-7.18686
-6.95579
-6.69706
-6.40959
-6.09296
-5.74751
-5.37454
-4.97651
-4.55726
-4.12188
-3.67722
-3.23223
-2.79727
-2.38439
-2.00889
-1.68755
-1.43238
-1.25448
-1.16243
-1.15659
-1.2233
-1.33521
-1.45957
-1.57668
-1.68084
-1.7347
-1.70472
-1.61951
-1.4729
-1.23571
-0.984541
-0.840067
-0.873163
-1.10408
-1.50702
-2.0535
-2.72703
-3.46661
-4.18325
-4.78669
-5.20762
-5.40419
-5.36204
-5.09537
-4.6383
-4.02743
-3.30051
-2.48822
-1.6207
-0.725639
0.18074
1.08495
1.97857
2.8564
3.71595
4.55653
5.37822
6.1815
6.9667
7.73333
8.48014
9.2054
9.90663
10.5798
11.2222
11.8294
12.3988
12.9275
13.4118
13.8495
14.2407
14.584
14.8856
15.1406
15.3693
15.5446
15.7317
15.8051
-6.3666
-6.52435
-6.55143
-6.62456
-6.63725
-6.67998
-6.69709
-6.72801
-6.74806
-6.77405
-6.79509
-6.81813
-6.83867
-6.85948
-6.87841
-6.89665
-6.91337
-6.92891
-6.94275
-6.95492
-6.96517
-6.97356
-6.9802
-6.98542
-6.98963
-6.99332
-6.99697
-7.00104
-7.0059
-7.01184
-7.01906
-7.02766
-7.03766
-7.04906
-7.06179
-7.0758
-7.09106
-7.10754
-7.12529
-7.14434
-7.16477
-7.18662
-7.20993
-7.23471
-7.26094
-7.28857
-7.31752
-7.34769
-7.37895
-7.41118
-7.44424
-7.47802
-7.51237
-7.54719
-7.58237
-7.61781
-7.65343
-7.68913
-7.72485
-7.76052
-7.79607
-7.83144
-7.86658
-7.90144
-7.93594
-7.97005
-8.00369
-8.03682
-8.06936
-8.10124
-8.1324
-8.16275
-8.1922
-8.22067
-8.24805
-8.27423
-8.29907
-8.32245
-8.34419
-8.36414
-8.38209
-8.39781
-8.41107
-8.42157
-8.42899
-8.43299
-8.43314
-8.42898
-8.41998
-8.40554
-8.38497
-8.35751
-8.32226
-8.27823
-8.22444
-8.15996
-8.08313
-7.9922
-7.88529
-7.76048
-7.61575
-7.44907
-7.25844
-7.04197
-6.79804
-6.52546
-6.22368
-5.89289
-5.53429
-5.15025
-4.74444
-4.32196
-3.88943
-3.45509
-3.02878
-2.6211
-2.24512
-1.91549
-1.64512
-1.44602
-1.32845
-1.2956
-1.33665
-1.42521
-1.52747
-1.61632
-1.67936
-1.72016
-1.73166
-1.71102
-1.62169
-1.45241
-1.28064
-1.21992
-1.34767
-1.67366
-2.15911
-2.76416
-3.45463
-4.16636
-4.82168
-5.34553
-5.68119
-5.79485
-5.67763
-5.35354
-4.84748
-4.19454
-3.4323
-2.59239
-1.70424
-0.794741
0.121021
1.03054
1.92642
2.80435
3.66258
4.50112
5.32046
6.12131
6.904
7.66842
8.41388
9.1385
9.83971
10.5141
11.1589
11.7696
12.3434
12.8764
13.3656
13.808
14.204
14.5519
14.8577
15.116
15.3469
15.5222
15.7046
15.774
-6.34599
-6.50977
-6.53975
-6.61728
-6.62973
-6.6748
-6.69143
-6.72338
-6.7428
-6.76899
-6.78962
-6.81289
-6.83322
-6.85398
-6.87288
-6.89128
-6.90797
-6.92352
-6.9376
-6.95043
-6.96179
-6.97191
-6.98088
-6.989
-6.99655
-7.00387
-7.01125
-7.019
-7.02737
-7.03655
-7.0467
-7.05791
-7.07026
-7.08378
-7.09849
-7.1144
-7.13153
-7.14989
-7.16952
-7.19043
-7.21267
-7.23627
-7.26125
-7.28761
-7.31533
-7.34438
-7.37469
-7.40619
-7.4388
-7.47242
-7.50694
-7.54228
-7.57831
-7.61496
-7.65212
-7.6897
-7.72762
-7.7658
-7.80418
-7.84267
-7.88123
-7.91978
-7.95827
-7.99665
-8.03485
-8.07281
-8.11049
-8.1478
-8.18468
-8.22107
-8.25687
-8.29202
-8.3264
-8.35993
-8.39249
-8.42396
-8.4542
-8.48306
-8.51037
-8.53595
-8.55957
-8.58102
-8.60002
-8.61629
-8.62949
-8.63926
-8.6452
-8.64683
-8.64362
-8.63499
-8.62025
-8.59861
-8.56916
-8.53087
-8.48246
-8.4223
-8.34915
-8.26164
-8.15814
-8.03683
-7.89576
-7.73288
-7.54615
-7.33363
-7.09361
-6.82478
-6.52644
-6.19872
-5.84276
-5.46094
-5.05693
-4.63576
-4.20388
-3.76898
-3.34034
-2.92742
-2.54118
-2.19504
-1.90122
-1.67229
-1.51984
-1.44997
-1.4579
-1.52325
-1.6156
-1.70646
-1.77423
-1.80068
-1.78902
-1.75112
-1.66867
-1.55048
-1.47498
-1.53872
-1.79649
-2.2387
-2.82373
-3.51029
-4.25413
-4.99045
-5.64556
-6.14839
-6.44458
-6.50251
-6.31729
-5.91577
-5.33614
-4.61941
-3.8041
-2.92254
-2.00282
-1.06963
-0.136616
0.785385
1.69037
2.57525
3.43907
4.28246
5.10625
5.91147
6.69913
7.46891
8.2196
8.94966
9.65636
10.3361
10.9856
11.6006
12.1776
12.7129
13.2036
13.6468
14.043
14.3902
14.6944
14.9494
15.1749
15.3415
15.5112
15.5648
-6.33355
-6.50307
-6.52946
-6.60893
-6.61937
-6.66524
-6.68014
-6.71189
-6.72958
-6.75493
-6.77385
-6.79606
-6.81514
-6.83534
-6.85366
-6.87198
-6.88911
-6.90586
-6.92144
-6.93626
-6.9502
-6.96336
-6.97576
-6.9876
-6.99901
-7.01022
-7.02141
-7.03278
-7.0445
-7.05674
-7.06963
-7.08328
-7.09779
-7.1132
-7.12958
-7.14695
-7.16535
-7.18479
-7.20531
-7.22693
-7.24966
-7.27353
-7.29855
-7.3247
-7.35198
-7.38036
-7.40979
-7.44023
-7.47162
-7.50389
-7.53697
-7.57078
-7.60526
-7.64032
-7.67589
-7.7119
-7.74829
-7.78498
-7.8219
-7.859
-7.89621
-7.93347
-7.97072
-8.00789
-8.04492
-8.08176
-8.11832
-8.15455
-8.19038
-8.22573
-8.26053
-8.29469
-8.32813
-8.36075
-8.39247
-8.42316
-8.45271
-8.48099
-8.50785
-8.53313
-8.55665
-8.57821
-8.59758
-8.6145
-8.62867
-8.63979
-8.64747
-8.6513
-8.65082
-8.64547
-8.63466
-8.61767
-8.59371
-8.56182
-8.52107
-8.4705
-8.40846
-8.33313
-8.24261
-8.13488
-8.00781
-7.85925
-7.68697
-7.48889
-7.2631
-7.00807
-6.72287
-6.40739
-6.06259
-5.69068
-5.29522
-4.88113
-4.4547
-4.02317
-3.59496
-3.17879
-2.78309
-2.41895
-2.09678
-1.82823
-1.62569
-1.49807
-1.44751
-1.46235
-1.5168
-1.57758
-1.62752
-1.6528
-1.64766
-1.61079
-1.55081
-1.51524
-1.574
-1.79446
-2.20174
-2.77031
-3.45982
-4.22346
-5.0084
-5.74841
-6.37371
-6.82061
-7.04231
-7.01485
-6.74674
-6.27401
-5.63024
-4.85868
-3.99861
-3.08287
-2.13867
-1.18813
-0.243899
0.684795
1.59321
2.47924
3.34282
4.1856
5.00907
5.81419
6.60179
7.372
8.12383
8.8556
9.56464
10.2474
10.9005
11.5194
12.1005
12.6398
13.1344
13.5813
13.9809
14.3313
14.6383
14.8952
15.1215
15.2878
15.4538
15.5064
-6.34297
-6.51357
-6.53601
-6.617
-6.62562
-6.67312
-6.68691
-6.71973
-6.73667
-6.76257
-6.78086
-6.80313
-6.82163
-6.84174
-6.85973
-6.8781
-6.89504
-6.91174
-6.92758
-6.94313
-6.95781
-6.97197
-6.98566
-6.99905
-7.01222
-7.02537
-7.03861
-7.05209
-7.06591
-7.0802
-7.09506
-7.11059
-7.12685
-7.14393
-7.16188
-7.18075
-7.20057
-7.22139
-7.24324
-7.26613
-7.2901
-7.31517
-7.34134
-7.36862
-7.39699
-7.42645
-7.45697
-7.4885
-7.52102
-7.55447
-7.58879
-7.62393
-7.65982
-7.6964
-7.73361
-7.77139
-7.80966
-7.84837
-7.88744
-7.92684
-7.96647
-8.0063
-8.04626
-8.08627
-8.12629
-8.16624
-8.20607
-8.24569
-8.28504
-8.32404
-8.36261
-8.40068
-8.43814
-8.4749
-8.51087
-8.54592
-8.57992
-8.61275
-8.64425
-8.67424
-8.70254
-8.72893
-8.75317
-8.77501
-8.79416
-8.81028
-8.82303
-8.83199
-8.8367
-8.83664
-8.83119
-8.81962
-8.80108
-8.77461
-8.73893
-8.6925
-8.63415
-8.56246
-8.47576
-8.37216
-8.24959
-8.10586
-7.9387
-7.74589
-7.52535
-7.27534
-6.99468
-6.68301
-6.34102
-5.97073
-5.57555
-5.16022
-4.73085
-4.2944
-3.85848
-3.43105
-3.01928
-2.63135
-2.27535
-1.96023
-1.69706
-1.49573
-1.36342
-1.2986
-1.28614
-1.29971
-1.31532
-1.30721
-1.29093
-1.27835
-1.29293
-1.38539
-1.61029
-2.00309
-2.56623
-3.27165
-4.07786
-4.93464
-5.7843
-6.55936
-7.19034
-7.61516
-7.78875
-7.68989
-7.33701
-6.77461
-6.05003
-5.21051
-4.29625
-3.33949
-2.36587
-1.39409
-0.435614
0.50247
1.41723
2.30803
3.17555
4.02157
4.848
5.65639
6.44772
7.22198
7.97809
8.71438
9.428
10.1153
10.7725
11.3952
11.9794
12.5212
13.0175
13.4654
13.8655
14.2154
14.5208
14.7749
14.9963
15.1558
15.3119
15.3551
-6.36042
-6.52705
-6.54446
-6.62449
-6.63036
-6.67799
-6.68972
-6.72268
-6.73801
-6.7638
-6.78099
-6.80328
-6.82119
-6.84135
-6.85913
-6.87782
-6.89509
-6.91261
-6.92915
-6.94576
-6.96186
-6.97762
-6.99288
-7.0081
-7.0232
-7.03833
-7.05353
-7.06896
-7.08465
-7.10073
-7.11725
-7.13433
-7.15201
-7.17038
-7.18949
-7.2094
-7.23014
-7.25175
-7.27428
-7.29773
-7.32215
-7.34755
-7.37393
-7.40132
-7.4297
-7.45906
-7.48939
-7.52067
-7.55287
-7.58594
-7.61986
-7.65457
-7.69003
-7.72619
-7.76298
-7.80037
-7.83829
-7.87668
-7.91548
-7.95464
-7.99409
-8.03377
-8.07361
-8.11355
-8.15353
-8.19347
-8.2333
-8.27296
-8.31236
-8.35145
-8.39012
-8.42832
-8.46594
-8.50291
-8.53913
-8.5745
-8.6089
-8.64223
-8.67434
-8.70508
-8.7343
-8.7618
-8.78737
-8.81077
-8.83176
-8.85004
-8.86528
-8.87711
-8.88513
-8.88884
-8.8877
-8.88105
-8.86814
-8.84803
-8.81981
-8.78258
-8.73462
-8.67416
-8.59926
-8.50784
-8.39768
-8.26644
-8.11171
-7.93105
-7.72215
-7.48297
-7.21198
-6.90846
-6.57278
-6.20665
-5.81325
-5.39711
-4.96424
-4.52147
-4.07598
-3.63483
-3.20434
-2.7907
-2.39906
-2.03549
-1.7081
-1.42371
-1.19
-1.01232
-0.88611
-0.804363
-0.764757
-0.744733
-0.761596
-0.830631
-0.97196
-1.22353
-1.62366
-2.18544
-2.90086
-3.7416
-4.66275
-5.6093
-6.51799
-7.3179
-7.93871
-8.32127
-8.42477
-8.2368
-7.79834
-7.15281
-6.35493
-5.45453
-4.49346
-3.50308
-2.50695
-1.51992
-0.551848
0.39189
1.30944
2.20117
3.06882
3.91496
4.74179
5.55097
6.34356
7.11967
7.87815
8.61717
9.33387
10.0246
10.6854
11.3117
11.8995
12.4445
12.9437
13.3941
13.7962
14.1479
14.4548
14.7097
14.9306
15.0896
15.2424
15.2858
-6.38778
-6.54711
-6.56052
-6.6395
-6.64361
-6.6918
-6.70218
-6.73589
-6.75028
-6.77663
-6.793
-6.81541
-6.83266
-6.85302
-6.87057
-6.88945
-6.90668
-6.92445
-6.9412
-6.95816
-6.97444
-6.99092
-7.00719
-7.02337
-7.03936
-7.05557
-7.07195
-7.0886
-7.10552
-7.12284
-7.14058
-7.15885
-7.17769
-7.19717
-7.21735
-7.23829
-7.26003
-7.28262
-7.3061
-7.33049
-7.35584
-7.38215
-7.40946
-7.43776
-7.46708
-7.4974
-7.52872
-7.56103
-7.5943
-7.62851
-7.66362
-7.6996
-7.7364
-7.77399
-7.81231
-7.85131
-7.89095
-7.93115
-7.97188
-8.01305
-8.05463
-8.09653
-8.13871
-8.18109
-8.2236
-8.26617
-8.30874
-8.35124
-8.39359
-8.43571
-8.47752
-8.51896
-8.55992
-8.60032
-8.64007
-8.67907
-8.71719
-8.75432
-8.79031
-8.82502
-8.85825
-8.88982
-8.91951
-8.94708
-8.97227
-8.99478
-9.0143
-9.03049
-9.04293
-9.05117
-9.05466
-9.05273
-9.04462
-9.02942
-9.00579
-8.97241
-8.92807
-8.87128
-8.80026
-8.71302
-8.60735
-8.48085
-8.33102
-8.15528
-7.95109
-7.71608
-7.44835
-7.14678
-6.81137
-6.44352
-6.04619
-5.62378
-5.18205
-4.72764
-4.26747
-3.80822
-3.35537
-2.914
-2.48731
-2.07843
-1.69318
-1.33461
-1.00828
-0.723681
-0.484384
-0.299819
-0.185187
-0.144529
-0.200336
-0.367
-0.651121
-1.06771
-1.63746
-2.35956
-3.2196
-4.19031
-5.22467
-6.2642
-7.24123
-8.08095
-8.71013
-9.06925
-9.11612
-8.84438
-8.30847
-7.5686
-6.69017
-5.72669
-4.7188
-3.69477
-2.67528
-1.67301
-0.695692
0.253569
1.17451
2.06854
2.93795
3.78573
4.61446
5.426
6.22139
7.00064
7.76256
8.50504
9.22533
9.91953
10.5836
11.213
11.8036
12.3509
12.852
13.304
13.7071
14.0585
14.3638
14.6162
14.8331
14.9872
15.1326
15.1707
-6.41851
-6.56758
-6.57732
-6.65362
-6.65567
-6.7033
-6.71181
-6.74549
-6.75839
-6.78488
-6.80031
-6.82305
-6.83974
-6.86023
-6.87754
-6.8969
-6.91436
-6.93275
-6.95003
-6.96775
-6.98482
-7.0021
-7.01901
-7.03625
-7.05356
-7.07094
-7.08833
-7.10611
-7.12406
-7.14239
-7.1611
-7.18032
-7.20005
-7.22038
-7.24136
-7.26304
-7.28547
-7.3087
-7.33277
-7.35772
-7.38358
-7.41037
-7.43812
-7.46685
-7.49656
-7.52727
-7.55896
-7.59162
-7.62526
-7.65983
-7.69533
-7.73171
-7.76894
-7.80698
-7.84578
-7.8853
-7.92549
-7.96629
-8.00764
-8.04948
-8.09176
-8.13439
-8.17732
-8.22048
-8.26379
-8.30719
-8.3506
-8.39394
-8.43715
-8.48014
-8.52285
-8.56518
-8.60707
-8.64842
-8.68915
-8.72917
-8.76838
-8.80665
-8.84388
-8.87992
-8.9146
-8.94777
-8.9792
-9.0087
-9.03601
-9.06086
-9.08298
-9.10202
-9.11762
-9.12935
-9.13669
-9.13901
-9.13557
-9.1254
-9.10788
-9.08175
-9.0454
-8.99706
-8.93474
-8.85628
-8.75933
-8.64141
-8.49986
-8.33193
-8.13482
-7.90587
-7.64277
-7.34401
-7.00918
-6.63935
-6.23729
-5.80737
-5.35517
-4.88722
-4.41033
-3.93102
-3.45436
-2.98459
-2.52402
-2.07334
-1.63767
-1.21727
-0.813654
-0.436722
-0.0965264
0.175092
0.347663
0.396561
0.301059
0.0467429
-0.365871
-0.932899
-1.65746
-2.52958
-3.52671
-4.61923
-5.75904
-6.88435
-7.92268
-8.79293
-9.4169
-9.7354
-9.70682
-9.3458
-8.71815
-7.89494
-6.94571
-5.92796
-4.88141
-3.83131
-2.79449
-1.78194
-0.799163
0.152483
1.07405
1.96792
2.83711
3.6849
4.51406
5.32654
6.12345
6.90486
7.66945
8.41432
9.13692
9.83387
10.5008
11.1331
11.7262
12.276
12.7792
13.2328
13.6378
13.9912
14.2979
14.5505
14.7662
14.9195
15.062
15.1008
-6.45031
-6.58825
-6.59536
-6.66881
-6.66968
-6.71689
-6.7242
-6.75817
-6.77006
-6.79696
-6.81162
-6.83469
-6.851
-6.87199
-6.88908
-6.90866
-6.92617
-6.94506
-6.96266
-6.98092
-6.99847
-7.01641
-7.03399
-7.05182
-7.06953
-7.08768
-7.10611
-7.12472
-7.14341
-7.16259
-7.18207
-7.20206
-7.22259
-7.2437
-7.26545
-7.2879
-7.31111
-7.33513
-7.36
-7.38578
-7.41248
-7.44016
-7.46882
-7.49851
-7.52923
-7.56098
-7.59378
-7.62762
-7.66248
-7.69835
-7.73521
-7.77302
-7.81175
-7.85137
-7.89182
-7.93307
-7.97505
-8.01772
-8.06101
-8.10486
-8.14921
-8.19398
-8.23912
-8.28455
-8.33019
-8.37598
-8.42184
-8.4677
-8.51348
-8.5591
-8.60449
-8.64958
-8.69427
-8.7385
-8.78216
-8.82517
-8.86742
-8.90879
-8.94917
-8.9884
-9.02631
-9.06272
-9.09741
-9.13016
-9.16072
-9.18882
-9.21419
-9.2365
-9.2554
-9.2705
-9.28126
-9.28707
-9.28724
-9.28071
-9.26618
-9.24259
-9.20857
-9.16248
-9.10244
-9.02631
-8.93175
-8.81622
-8.67697
-8.5111
-8.3156
-8.08749
-7.82409
-7.52342
-7.18465
-6.80852
-6.39751
-5.95587
-5.48932
-5.00459
-4.50866
-4.00806
-3.50792
-3.01195
-2.52204
-2.03733
-1.56244
-1.09741
-0.643057
-0.208135
0.196177
0.526689
0.743948
0.801177
0.676477
0.35639
-0.154995
-0.844179
-1.69848
-2.69978
-3.81928
-5.02157
-6.25674
-7.45982
-8.55375
-9.45201
-10.0742
-10.3609
-10.2668
-9.82278
-9.10431
-8.20054
-7.18556
-6.11892
-5.03802
-3.96471
-2.9133
-1.89276
-0.906304
0.0467161
0.968691
1.86294
2.73251
3.58053
4.41047
5.22461
6.02382
6.80794
7.5755
8.32379
9.04974
9.74994
10.4198
11.0546
11.65
12.2014
12.7056
13.1594
13.5634
13.9159
14.2215
14.4734
14.6866
14.8367
14.9737
15.0099
-6.47983
-6.60614
-6.61084
-6.6807
-6.68035
-6.72656
-6.73253
-6.76641
-6.77716
-6.8043
-6.81818
-6.84161
-6.85746
-6.87883
-6.89592
-6.91616
-6.93389
-6.95339
-6.97147
-6.99055
-7.00882
-7.02763
-7.04602
-7.06477
-7.08342
-7.10232
-7.12147
-7.14106
-7.16062
-7.18043
-7.20066
-7.22148
-7.24277
-7.26462
-7.28712
-7.31028
-7.33421
-7.35894
-7.38456
-7.41107
-7.43855
-7.46701
-7.49651
-7.52704
-7.55865
-7.59133
-7.62509
-7.65992
-7.69583
-7.73278
-7.77075
-7.80972
-7.84965
-7.8905
-7.93222
-7.97476
-8.01806
-8.06207
-8.10672
-8.15195
-8.19769
-8.24387
-8.2904
-8.33723
-8.38427
-8.43144
-8.47867
-8.52588
-8.573
-8.61994
-8.66664
-8.713
-8.75896
-8.80444
-8.84935
-8.8936
-8.9371
-8.97973
-9.0214
-9.06194
-9.10123
-9.13907
-9.17529
-9.20967
-9.24197
-9.27194
-9.29932
-9.3238
-9.34505
-9.36266
-9.3761
-9.38473
-9.38778
-9.38466
-9.37426
-9.35524
-9.32601
-9.28476
-9.22941
-9.15765
-9.06701
-8.95482
-8.81824
-8.65424
-8.4596
-8.23104
-7.96552
-7.6607
-7.31548
-6.93039
-6.50786
-6.05224
-5.56945
-5.06653
-4.5508
-4.02907
-3.50676
-2.98748
-2.47286
-1.9616
-1.45751
-0.961245
-0.472836
-0.00258065
0.431827
0.783794
1.01483
1.06842
0.9181
0.549108
-0.0339323
-0.814365
-1.77069
-2.877
-4.09977
-5.39751
-6.71588
-7.9849
-9.12203
-10.0359
-10.6451
-10.8904
-10.7281
-10.2063
-9.40696
-8.43253
-7.36229
-6.25651
-5.14964
-4.05922
-2.9992
-1.97611
-0.989723
-0.0377557
0.882924
1.77601
2.64498
3.4932
4.324
5.13951
5.94041
6.72637
7.49588
8.24677
8.97561
9.6784
10.3506
10.9877
11.585
12.1382
12.6439
13.0991
13.5033
13.8551
14.1593
14.4103
14.6226
14.7729
14.9078
14.945
-6.50767
-6.6218
-6.62534
-6.69137
-6.69066
-6.73589
-6.74121
-6.77517
-6.78527
-6.81285
-6.82628
-6.85024
-6.86588
-6.88781
-6.90492
-6.92573
-6.94371
-6.96383
-6.9824
-7.00222
-7.02114
-7.04079
-7.05999
-7.07965
-7.09917
-7.11903
-7.13897
-7.15911
-7.1796
-7.20066
-7.22181
-7.24332
-7.26556
-7.28826
-7.31159
-7.33567
-7.36055
-7.3863
-7.41298
-7.44063
-7.4693
-7.49903
-7.52984
-7.56178
-7.59485
-7.62907
-7.66445
-7.70096
-7.73861
-7.77738
-7.81722
-7.85812
-7.90003
-7.9429
-7.98669
-8.03133
-8.07677
-8.12295
-8.1698
-8.21725
-8.26523
-8.31365
-8.36245
-8.41154
-8.46085
-8.5103
-8.5598
-8.60928
-8.65867
-8.70788
-8.75684
-8.80548
-8.85371