/*--------------------------------*- C++ -*----------------------------------*\
| =========                 |                                                 |
| \\      /  F ield         | OpenFOAM: The Open Source CFD Toolbox           |
|  \\    /   O peration     | Version:  v1906                                 |
|   \\  /    A nd           | Web:      www.OpenFOAM.com                      |
|    \\/     M anipulation  |                                                 |
\*---------------------------------------------------------------------------*/
FoamFile
{
    version     2.0;
    format      ascii;
    class       surfaceScalarField;
    location    "1800";
    object      phi;
}
// * * * * * * * * * * * * * * * * * * * * * * * * * * * * * * * * * * * * * //

dimensions      [0 3 -1 0 0 0 0];
oriented        oriented;


internalField   nonuniform List<scalar> 
24170
(
3.08264e-06
1.05764e-07
2.99011e-06
9.25363e-08
2.92433e-06
6.57736e-08
2.86868e-06
5.56528e-08
2.82052e-06
4.81587e-08
2.77834e-06
4.21853e-08
2.74076e-06
3.75774e-08
2.707e-06
3.37635e-08
2.67662e-06
3.03789e-08
2.64928e-06
2.73388e-08
2.62458e-06
2.47021e-08
2.60213e-06
2.24463e-08
2.58181e-06
2.03181e-08
2.56368e-06
1.81296e-08
2.54812e-06
1.55648e-08
2.53563e-06
1.24907e-08
2.52737e-06
8.26063e-09
-3.92857e-09
2.5313e-06
3.44175e-06
8.12674e-08
3.44163e-06
9.26565e-08
3.42979e-06
7.76125e-08
3.41579e-06
6.96481e-08
3.40092e-06
6.30271e-08
3.38625e-06
5.68596e-08
3.37209e-06
5.17332e-08
3.35852e-06
4.73392e-08
3.34552e-06
4.33739e-08
3.33312e-06
3.97388e-08
3.32136e-06
3.64668e-08
3.31029e-06
3.35163e-08
3.29986e-06
3.0745e-08
3.29008e-06
2.79075e-08
3.28083e-06
2.48216e-08
3.27218e-06
2.11372e-08
3.26477e-06
1.5672e-08
5.52346e-09
3.25532e-06
3.67699e-06
6.67952e-08
3.67935e-06
9.02955e-08
3.67352e-06
8.34426e-08
3.66577e-06
7.73959e-08
3.65797e-06
7.08308e-08
3.65061e-06
6.42156e-08
3.64375e-06
5.85984e-08
3.63731e-06
5.37807e-08
3.63124e-06
4.94387e-08
3.62552e-06
4.54638e-08
3.62015e-06
4.18386e-08
3.61516e-06
3.85025e-08
3.61059e-06
3.53138e-08
3.60645e-06
3.20472e-08
3.60274e-06
2.85369e-08
3.59957e-06
2.4303e-08
3.59572e-06
1.95244e-08
1.17711e-08
3.58947e-06
3.93503e-06
5.71521e-08
3.94208e-06
8.3242e-08
3.94425e-06
8.12812e-08
3.94428e-06
7.73625e-08
3.94292e-06
7.21908e-08
3.94068e-06
6.64515e-08
3.93803e-06
6.12572e-08
3.93521e-06
5.65949e-08
3.93237e-06
5.22756e-08
3.92959e-06
4.8247e-08
3.92693e-06
4.44951e-08
3.92447e-06
4.09641e-08
3.92226e-06
3.75231e-08
3.92034e-06
3.39749e-08
3.91872e-06
3.01506e-08
3.91739e-06
2.56348e-08
3.9167e-06
2.02185e-08
1.19525e-08
3.91652e-06
4.2187e-06
4.55792e-08
4.22809e-06
7.3854e-08
4.2319e-06
7.74653e-08
4.23321e-06
7.60585e-08
4.23333e-06
7.2071e-08
4.23284e-06
6.69408e-08
4.2321e-06
6.19966e-08
4.23127e-06
5.74264e-08
4.2304e-06
5.31409e-08
4.22954e-06
4.9112e-08
4.22871e-06
4.53181e-08
4.22798e-06
4.16951e-08
4.22738e-06
3.81313e-08
4.22691e-06
3.44433e-08
4.2265e-06
3.05566e-08
4.22608e-06
2.60568e-08
4.22474e-06
2.15617e-08
1.582e-08
4.22087e-06
4.51693e-06
3.774e-08
4.52528e-06
6.54957e-08
4.53111e-06
7.1641e-08
4.53543e-06
7.17387e-08
4.53861e-06
6.88943e-08
4.54085e-06
6.46951e-08
4.54247e-06
6.03788e-08
4.54369e-06
5.62065e-08
4.54465e-06
5.21794e-08
4.54545e-06
4.83106e-08
4.54618e-06
4.45939e-08
4.54689e-06
4.09799e-08
4.54764e-06
3.73789e-08
4.54844e-06
3.36459e-08
4.54931e-06
2.96893e-08
4.55012e-06
2.5242e-08
4.55138e-06
2.03004e-08
1.43471e-08
4.55286e-06
4.84014e-06
3.03181e-08
4.84857e-06
5.70712e-08
4.85448e-06
6.5726e-08
4.85858e-06
6.76404e-08
4.86149e-06
6.59835e-08
4.86362e-06
6.25677e-08
4.86531e-06
5.86911e-08
4.86675e-06
5.47579e-08
4.86806e-06
5.08764e-08
4.86927e-06
4.70986e-08
4.87043e-06
4.34324e-08
4.87157e-06
3.98369e-08
4.8727e-06
3.62492e-08
4.8738e-06
3.25497e-08
4.87476e-06
2.87339e-08
4.87539e-06
2.46034e-08
4.87506e-06
2.06385e-08
1.62676e-08
4.87314e-06
5.18539e-06
2.45105e-08
5.19284e-06
4.96229e-08
5.19927e-06
5.92971e-08
5.20478e-06
6.21224e-08
5.20948e-06
6.1284e-08
5.21345e-06
5.86055e-08
5.21685e-06
5.52847e-08
5.21986e-06
5.17525e-08
5.22257e-06
4.81661e-08
5.22506e-06
4.46023e-08
5.22741e-06
4.10839e-08
5.22966e-06
3.75874e-08
5.23184e-06
3.4068e-08
5.23395e-06
3.04443e-08
5.236e-06
2.66806e-08
5.23793e-06
2.26741e-08
5.24014e-06
1.84263e-08
1.4041e-08
5.24237e-06
5.55572e-06
2.01252e-08
5.56239e-06
4.29568e-08
5.56856e-06
5.31242e-08
5.57374e-06
5.69431e-08
5.57801e-06
5.70199e-08
5.58154e-06
5.5071e-08
5.58458e-06
5.2244e-08
5.5873e-06
4.90356e-08
5.58979e-06
4.56743e-08
5.59212e-06
4.22737e-08
5.59432e-06
3.88805e-08
5.59642e-06
3.54897e-08
5.5984e-06
3.20872e-08
5.60023e-06
2.86172e-08
5.60179e-06
2.51205e-08
5.60294e-06
2.15253e-08
5.60321e-06
1.81529e-08
1.46506e-08
5.6026e-06
5.95404e-06
1.586e-08
5.96042e-06
3.65815e-08
5.96674e-06
4.68051e-08
5.97265e-06
5.10273e-08
5.97805e-06
5.16196e-08
5.98292e-06
5.02078e-08
5.98732e-06
4.78345e-08
5.99137e-06
4.49921e-08
5.99512e-06
4.19273e-08
5.99862e-06
3.87665e-08
6.00194e-06
3.55675e-08
6.00508e-06
3.23411e-08
6.00809e-06
2.90828e-08
6.01094e-06
2.57656e-08
6.01367e-06
2.23921e-08
6.01624e-06
1.89503e-08
6.01894e-06
1.54616e-08
1.22133e-08
6.02137e-06
6.37929e-06
1.33849e-08
6.38438e-06
3.14863e-08
6.39013e-06
4.10549e-08
6.39563e-06
4.55347e-08
6.40059e-06
4.66517e-08
6.40501e-06
4.57894e-08
6.40898e-06
4.38671e-08
6.41259e-06
4.13763e-08
6.41593e-06
3.85901e-08
6.41904e-06
3.56573e-08
6.42195e-06
3.26568e-08
6.42467e-06
2.9618e-08
6.42719e-06
2.65632e-08
6.42948e-06
2.34825e-08
6.43144e-06
2.04332e-08
6.43299e-06
1.73924e-08
6.43389e-06
1.45672e-08
1.18068e-08
6.4343e-06
5.74348e-06
1.07432e-08
5.74803e-06
2.69366e-08
5.75304e-06
3.60418e-08
5.75804e-06
4.05344e-08
5.76283e-06
4.18598e-08
5.76732e-06
4.13017e-08
5.77151e-06
3.96774e-08
5.77543e-06
3.74585e-08
5.7791e-06
3.4915e-08
5.78256e-06
3.21986e-08
5.78582e-06
2.93929e-08
5.7889e-06
2.65376e-08
5.79181e-06
2.36573e-08
5.79453e-06
2.0761e-08
5.79709e-06
1.78731e-08
5.79946e-06
1.50212e-08
5.8018e-06
1.2226e-08
9.75674e-09
5.80385e-06
6.9996e-06
9.29423e-09
7.00352e-06
2.30239e-08
7.00857e-06
3.09868e-08
7.01387e-06
3.52371e-08
7.019e-06
3.67289e-08
7.02381e-06
3.64967e-08
7.02827e-06
3.5214e-08
7.03242e-06
3.33118e-08
7.03628e-06
3.10531e-08
7.03988e-06
2.85947e-08
7.04324e-06
2.60312e-08
7.04637e-06
2.34138e-08
7.04924e-06
2.07814e-08
7.05185e-06
1.81533e-08
7.05416e-06
1.55686e-08
7.05614e-06
1.30407e-08
7.05774e-06
1.06225e-08
8.17669e-09
7.05932e-06
8.53357e-06
6.57501e-09
8.53871e-06
1.78792e-08
8.54481e-06
2.48891e-08
8.55126e-06
2.8782e-08
8.55773e-06
3.0265e-08
8.56401e-06
3.02124e-08
8.57004e-06
2.91898e-08
8.57577e-06
2.75789e-08
8.5812e-06
2.56195e-08
8.58634e-06
2.3459e-08
8.59118e-06
2.11886e-08
8.59573e-06
1.88634e-08
8.59999e-06
1.65235e-08
8.60394e-06
1.41983e-08
8.60759e-06
1.19228e-08
8.61089e-06
9.73778e-09
8.61384e-06
7.6791e-09
5.96657e-09
8.61605e-06
1.04003e-05
5.49224e-09
1.04042e-05
1.39674e-08
1.04099e-05
1.92204e-08
1.04164e-05
2.22627e-08
1.04232e-05
2.35111e-08
1.04298e-05
2.35475e-08
1.04362e-05
2.27723e-08
1.04423e-05
2.14766e-08
1.04481e-05
1.9857e-08
1.04535e-05
1.80424e-08
1.04586e-05
1.61169e-08
1.04633e-05
1.41359e-08
1.04677e-05
1.21346e-08
1.04718e-05
1.01426e-08
1.04755e-05
8.16888e-09
1.0479e-05
6.24005e-09
1.04824e-05
4.33669e-09
2.42743e-09
1.04859e-05
1.26792e-05
3.03317e-09
1.26846e-05
8.63586e-09
1.26915e-05
1.23458e-08
1.26992e-05
1.45447e-08
1.27072e-05
1.54544e-08
1.27153e-05
1.54669e-08
1.27232e-05
1.48667e-08
1.27308e-05
1.38673e-08
1.27381e-05
1.26187e-08
1.27449e-05
1.12223e-08
1.27513e-05
9.74809e-09
1.27571e-05
8.24356e-09
1.27625e-05
6.75133e-09
1.27674e-05
5.30054e-09
1.27716e-05
3.92983e-09
1.27752e-05
2.65919e-09
1.2778e-05
1.5186e-09
5.91052e-10
1.27798e-05
1.54548e-05
1.39684e-09
1.54597e-05
3.78775e-09
1.54668e-05
5.22584e-09
1.54754e-05
5.95913e-09
1.54847e-05
6.08315e-09
1.54944e-05
5.77537e-09
1.55041e-05
5.16259e-09
1.55137e-05
4.34258e-09
1.55229e-05
3.38695e-09
1.55318e-05
2.34752e-09
1.55403e-05
1.25795e-09
1.55484e-05
1.46967e-10
1.55561e-05
-9.73657e-10
1.55635e-05
-2.0787e-09
1.55706e-05
-3.1799e-09
1.55775e-05
-4.23476e-09
1.55843e-05
-5.28287e-09
-6.22124e-09
1.55911e-05
1.88389e-05
1.49669e-10
1.88433e-05
-5.82396e-10
1.88498e-05
-1.34047e-09
1.88577e-05
-1.94313e-09
1.88663e-05
-2.44446e-09
1.88749e-05
-2.8825e-09
1.88834e-05
-3.28804e-09
1.88914e-05
-3.67663e-09
1.88988e-05
-4.05339e-09
1.89056e-05
-4.41901e-09
1.89116e-05
-4.76951e-09
1.89169e-05
-5.10135e-09
1.89213e-05
-5.41088e-09
1.89249e-05
-5.6999e-09
1.89277e-05
-5.96469e-09
1.89297e-05
-6.20477e-09
1.89308e-05
-6.45583e-09
-6.69694e-09
1.89313e-05
2.29683e-05
-4.78845e-09
2.29787e-05
-1.0978e-08
2.29924e-05
-1.51e-08
2.30084e-05
-1.79457e-08
2.30258e-05
-1.9845e-08
2.3044e-05
-2.10457e-08
2.30625e-05
-2.17594e-08
2.30809e-05
-2.21421e-08
2.30992e-05
-2.23023e-08
2.31171e-05
-2.23113e-08
2.31345e-05
-2.22131e-08
2.31514e-05
-2.2028e-08
2.31678e-05
-2.17624e-08
2.31835e-05
-2.14058e-08
2.31985e-05
-2.09452e-08
2.32126e-05
-2.03508e-08
2.32258e-05
-1.96234e-08
-1.84322e-08
2.32375e-05
1.681e-05
-4.09382e-09
1.6812e-05
-1.29324e-08
1.6816e-05
-1.91025e-08
1.6821e-05
-2.29705e-08
1.68263e-05
-2.51099e-08
1.68313e-05
-2.60903e-08
1.68359e-05
-2.63399e-08
1.68399e-05
-2.61396e-08
1.68432e-05
-2.56663e-08
1.6846e-05
-2.50305e-08
1.6848e-05
-2.42971e-08
1.68495e-05
-2.3509e-08
1.68505e-05
-2.26883e-08
1.68509e-05
-2.18655e-08
1.6851e-05
-2.10499e-08
1.6851e-05
-2.02994e-08
1.6851e-05
-1.9611e-08
-1.94096e-08
1.68519e-05
1.46398e-05
-9.36578e-09
1.46492e-05
-2.22931e-08
1.46603e-05
-3.0229e-08
1.46724e-05
-3.5013e-08
1.46848e-05
-3.75456e-08
1.46972e-05
-3.8531e-08
1.47095e-05
-3.85503e-08
1.47213e-05
-3.79939e-08
1.47328e-05
-3.71096e-08
1.47438e-05
-3.60554e-08
1.47544e-05
-3.49318e-08
1.47647e-05
-3.37964e-08
1.47747e-05
-3.26882e-08
1.47845e-05
-3.16143e-08
1.4794e-05
-3.05929e-08
1.48033e-05
-2.95701e-08
1.48122e-05
-2.8574e-08
-2.70089e-08
1.48198e-05
1.27405e-05
-9.7413e-09
1.27443e-05
-2.61175e-08
1.27497e-05
-3.55847e-08
1.27552e-05
-4.04805e-08
1.27601e-05
-4.24675e-08
1.27643e-05
-4.27118e-08
1.27677e-05
-4.20145e-08
1.27706e-05
-4.0827e-08
1.27728e-05
-3.93869e-08
1.27746e-05
-3.78278e-08
1.27759e-05
-3.62215e-08
1.27767e-05
-3.46055e-08
1.2777e-05
-3.29849e-08
1.27768e-05
-3.13687e-08
1.27759e-05
-2.97229e-08
1.27744e-05
-2.80906e-08
1.27722e-05
-2.6394e-08
-2.53438e-08
1.27706e-05
1.10974e-05
-1.62411e-08
1.11078e-05
-3.65138e-08
1.1119e-05
-4.67226e-08
1.11301e-05
-5.16112e-08
1.11408e-05
-5.32085e-08
1.11509e-05
-5.27876e-08
1.11602e-05
-5.13473e-08
1.11689e-05
-4.94473e-08
1.11768e-05
-4.73626e-08
1.11843e-05
-4.52466e-08
1.11912e-05
-4.31885e-08
1.11979e-05
-4.12349e-08
1.12043e-05
-3.94231e-08
1.12107e-05
-3.77729e-08
1.12173e-05
-3.63484e-08
1.12244e-05
-3.51384e-08
1.12323e-05
-3.43085e-08
-3.30432e-08
1.124e-05
9.65931e-06
-2.03316e-08
9.6669e-06
-4.41044e-08
9.67392e-06
-5.37464e-08
9.6794e-06
-5.70921e-08
9.68345e-06
-5.72591e-08
9.68639e-06
-5.57287e-08
9.68858e-06
-5.35376e-08
9.69028e-06
-5.11481e-08
9.69163e-06
-4.87128e-08
9.6927e-06
-4.63114e-08
9.6935e-06
-4.39886e-08
9.69403e-06
-4.17617e-08
9.69422e-06
-3.96164e-08
9.69398e-06
-3.75373e-08
9.69306e-06
-3.54255e-08
9.69116e-06
-3.3242e-08
9.68748e-06
-3.06209e-08
-2.82519e-08
9.68269e-06
8.41372e-06
-2.87005e-08
8.42533e-06
-5.57148e-08
8.43599e-06
-6.44001e-08
8.44546e-06
-6.65668e-08
8.45366e-06
-6.5455e-08
8.4605e-06
-6.25691e-08
8.46617e-06
-5.92141e-08
8.47094e-06
-5.59108e-08
8.47499e-06
-5.27627e-08
8.47848e-06
-4.98082e-08
8.48156e-06
-4.70665e-08
8.48433e-06
-4.45327e-08
8.48692e-06
-4.22051e-08
8.48947e-06
-4.00826e-08
8.49228e-06
-3.82423e-08
8.49577e-06
-3.67292e-08
8.50117e-06
-3.60211e-08
-3.55806e-08
8.5085e-06
7.32837e-06
-3.97888e-08
7.33974e-06
-6.70789e-08
7.34585e-06
-7.05155e-08
7.34871e-06
-6.94253e-08
7.34986e-06
-6.66073e-08
7.35009e-06
-6.27941e-08
7.34988e-06
-5.90105e-08
7.3495e-06
-5.55223e-08
7.349e-06
-5.22621e-08
7.3484e-06
-4.92091e-08
7.3477e-06
-4.63698e-08
7.3469e-06
-4.37351e-08
7.34598e-06
-4.12807e-08
7.34489e-06
-3.89948e-08
7.34343e-06
-3.67805e-08
7.34129e-06
-3.45882e-08
7.33699e-06
-3.17181e-08
-2.81763e-08
7.32958e-06
6.38075e-06
-5.04714e-08
6.39206e-06
-7.83919e-08
6.39905e-06
-7.75082e-08
6.40341e-06
-7.37846e-08
6.40559e-06
-6.87817e-08
6.40605e-06
-6.3256e-08
6.40544e-06
-5.83954e-08
6.40419e-06
-5.42753e-08
6.40257e-06
-5.06472e-08
6.40075e-06
-4.73834e-08
6.39881e-06
-4.4429e-08
6.39681e-06
-4.17388e-08
6.39481e-06
-3.92798e-08
6.39284e-06
-3.70243e-08
6.39108e-06
-3.50161e-08
6.38973e-06
-3.32466e-08
6.39043e-06
-3.24152e-08
-3.25938e-08
6.39485e-06
5.5641e-06
-6.91078e-08
5.57022e-06
-8.45068e-08
5.56584e-06
-7.31285e-08
5.55842e-06
-6.63694e-08
5.55065e-06
-6.10081e-08
5.54322e-06
-5.58233e-08
5.53628e-06
-5.14606e-08
5.52978e-06
-4.77784e-08
5.52364e-06
-4.45004e-08
5.51778e-06
-4.15243e-08
5.51217e-06
-3.88163e-08
5.50677e-06
-3.63432e-08
5.50156e-06
-3.40727e-08
5.49654e-06
-3.20002e-08
5.4916e-06
-3.00758e-08
5.48669e-06
-2.83385e-08
5.48035e-06
-2.60739e-08
-2.25905e-08
5.47035e-06
4.85182e-06
-9.33169e-08
4.85532e-06
-8.80097e-08
4.84524e-06
-6.30504e-08
4.83343e-06
-5.4561e-08
4.82068e-06
-4.82497e-08
4.80819e-06
-4.33414e-08
4.79638e-06
-3.96496e-08
4.78526e-06
-3.6656e-08
4.77475e-06
-3.39872e-08
4.76476e-06
-3.15347e-08
4.75522e-06
-2.92803e-08
4.74609e-06
-2.721e-08
4.73733e-06
-2.53144e-08
4.72892e-06
-2.35894e-08
4.72091e-06
-2.20694e-08
4.71335e-06
-2.07784e-08
4.70772e-06
-2.04445e-08
-2.11644e-08
4.7063e-06
4.10936e-06
4.02135e-06
3.9583e-06
3.90374e-06
3.85549e-06
3.81215e-06
3.7725e-06
3.73584e-06
3.70185e-06
3.67032e-06
3.64104e-06
3.61383e-06
3.58852e-06
3.56493e-06
3.54286e-06
3.52208e-06
3.50163e-06
3.48047e-06
7.3467e-08
-7.34613e-08
1.57976e-07
-8.45089e-08
2.45617e-07
-8.76353e-08
3.19315e-07
-7.36996e-08
3.85716e-07
-6.63961e-08
4.43998e-07
-5.8282e-08
4.97119e-07
-5.31153e-08
5.4504e-07
-4.7921e-08
5.88661e-07
-4.36147e-08
6.27858e-07
-3.91957e-08
6.62851e-07
-3.4987e-08
6.93549e-07
-3.06964e-08
7.19971e-07
-2.64154e-08
7.41965e-07
-2.19943e-08
7.5937e-07
-1.7397e-08
7.71743e-07
-1.23749e-08
7.78506e-07
-6.75574e-09
7.78392e-07
1.13356e-10
7.69943e-07
8.45582e-09
7.52438e-07
1.75075e-08
7.26005e-07
2.64388e-08
6.91554e-07
3.44589e-08
6.50622e-07
4.09369e-08
6.05154e-07
4.54796e-08
5.57192e-07
4.79676e-08
5.08707e-07
4.84995e-08
4.6141e-07
4.73041e-08
4.16804e-07
4.46197e-08
3.76411e-07
4.04034e-08
3.41562e-07
3.4859e-08
3.12703e-07
2.88722e-08
2.89027e-07
2.368e-08
2.6858e-07
2.04567e-08
2.48808e-07
1.97757e-08
2.27061e-07
2.17478e-08
2.00805e-07
2.62746e-08
1.67399e-07
3.33996e-08
1.24498e-07
4.29435e-08
7.11651e-08
5.33194e-08
9.20124e-09
6.20192e-08
-5.91763e-08
6.83611e-08
-1.33116e-07
7.39796e-08
-2.12162e-07
7.90316e-08
-2.95035e-07
8.28941e-08
-3.80439e-07
8.53926e-08
-4.67331e-07
8.69018e-08
-5.551e-07
8.77609e-08
-6.4298e-07
8.78844e-08
-7.30156e-07
8.71703e-08
-8.15843e-07
8.56886e-08
-8.99417e-07
8.35709e-08
-9.80404e-07
8.09866e-08
-1.05851e-06
7.81062e-08
-1.13362e-06
7.51032e-08
-1.20576e-06
7.21472e-08
-1.27511e-06
6.93481e-08
-1.34185e-06
6.6743e-08
-1.4062e-06
6.4348e-08
-1.46837e-06
6.21731e-08
-1.52859e-06
6.02139e-08
-1.58704e-06
5.8461e-08
-1.64394e-06
5.68969e-08
-1.69944e-06
5.55033e-08
-1.75369e-06
5.42581e-08
-1.80683e-06
5.31415e-08
-1.85896e-06
5.21319e-08
-1.91017e-06
5.12111e-08
-1.96052e-06
5.036e-08
-2.01008e-06
4.95632e-08
-2.05888e-06
4.88045e-08
-2.10695e-06
4.80707e-08
-2.15429e-06
4.7348e-08
-2.20091e-06
4.66251e-08
-2.2468e-06
4.58894e-08
-2.29193e-06
4.51307e-08
-2.33626e-06
4.4337e-08
-2.37975e-06
4.34983e-08
-2.42235e-06
4.26016e-08
-2.46398e-06
4.16361e-08
-2.50456e-06
4.05858e-08
-2.54399e-06
3.94379e-08
-2.58216e-06
3.8173e-08
-2.61892e-06
3.67745e-08
-2.65413e-06
3.52163e-08
-2.6876e-06
3.34766e-08
-2.71912e-06
3.15223e-08
-2.74843e-06
2.93257e-08
-2.77526e-06
2.68468e-08
-2.79928e-06
2.40475e-08
-2.82013e-06
2.08855e-08
-2.83741e-06
1.73137e-08
-2.85067e-06
1.32926e-08
-2.85943e-06
8.79017e-09
-2.8633e-06
3.90379e-09
-2.86226e-06
-1.01503e-09
-2.85652e-06
-5.7025e-09
-2.84603e-06
-1.04594e-08
-2.83047e-06
-1.55374e-08
-2.80925e-06
-2.11856e-08
-2.78169e-06
-2.75367e-08
-2.74697e-06
-3.46924e-08
-2.70421e-06
-4.27269e-08
-2.65248e-06
-5.17006e-08
-2.59078e-06
-6.16703e-08
-2.51807e-06
-7.26795e-08
-2.43325e-06
-8.47734e-08
-2.33519e-06
-9.79913e-08
-2.22278e-06
-1.12344e-07
-2.09489e-06
-1.2781e-07
-1.95037e-06
-1.44444e-07
-1.78798e-06
-1.62318e-07
-1.60717e-06
-1.80753e-07
-1.40752e-06
-1.99604e-07
-1.18747e-06
-2.20013e-07
-9.46573e-07
-2.4089e-07
-6.86152e-07
-2.60427e-07
-4.07154e-07
-2.79036e-07
-1.14261e-07
-2.92946e-07
1.98426e-07
-3.12777e-07
5.36404e-07
-3.3806e-07
8.79928e-07
-3.43589e-07
1.21223e-06
-3.32337e-07
1.52089e-06
-3.08675e-07
1.79627e-06
-2.75388e-07
2.03053e-06
-2.34258e-07
2.21497e-06
-1.84426e-07
2.33833e-06
-1.23333e-07
2.37081e-06
-3.2432e-08
2.27855e-06
9.23115e-08
2.0482e-06
2.30427e-07
1.70597e-06
3.42277e-07
1.33152e-06
3.74472e-07
9.99091e-07
3.32118e-07
7.35219e-07
2.63352e-07
5.80845e-07
1.53748e-07
4.89753e-07
9.08394e-08
2.12904e-07
2.76821e-07
-3.69365e-07
5.82163e-07
-1.07415e-06
7.04535e-07
-1.7141e-06
6.3975e-07
-2.22963e-06
5.15381e-07
-2.6105e-06
3.80793e-07
-2.86792e-06
2.57384e-07
-3.01892e-06
1.50958e-07
-3.0817e-06
6.27579e-08
-3.07728e-06
-4.47978e-09
-3.02799e-06
-4.93499e-08
-2.94953e-06
-7.85546e-08
-2.84927e-06
-1.00356e-07
-2.73317e-06
-1.16206e-07
-2.60536e-06
-1.27885e-07
-2.46999e-06
-1.35435e-07
-2.32968e-06
-1.40352e-07
-2.18606e-06
-1.43655e-07
-2.0403e-06
-1.45772e-07
-1.89277e-06
-1.47531e-07
-1.7435e-06
-1.49247e-07
-1.59217e-06
-1.5131e-07
-1.43819e-06
-1.53948e-07
-1.28086e-06
-1.57287e-07
-1.11949e-06
-1.61335e-07
-9.53413e-07
-1.66032e-07
-7.82042e-07
-1.7132e-07
-6.0476e-07
-1.77223e-07
-4.21812e-07
-1.82894e-07
-2.33377e-07
-1.88381e-07
-4.01594e-08
-1.93175e-07
1.62268e-07
-2.02357e-07
3.7454e-07
-2.1221e-07
5.89939e-07
-2.15324e-07
8.04526e-07
-2.14536e-07
1.01643e-06
-2.11849e-07
1.22445e-06
-2.07976e-07
1.42683e-06
-2.0233e-07
1.6224e-06
-1.95536e-07
1.80748e-06
-1.85042e-07
1.9797e-06
-1.722e-07
2.13097e-06
-1.5127e-07
2.24254e-06
-1.1159e-07
-3.35295e-08
2.27608e-06
8.00711e-08
-1.53529e-07
1.28483e-07
-1.32919e-07
1.69904e-07
-1.29054e-07
2.02953e-07
-1.06749e-07
2.39606e-07
-1.03047e-07
2.7492e-07
-9.35955e-08
3.11913e-07
-9.01052e-08
3.47176e-07
-8.31838e-08
3.80899e-07
-7.73349e-08
4.11508e-07
-6.98033e-08
4.39166e-07
-6.26424e-08
4.63397e-07
-5.49262e-08
4.84375e-07
-4.73902e-08
5.02008e-07
-3.96264e-08
5.16503e-07
-3.18889e-08
5.28132e-07
-2.40033e-08
5.37525e-07
-1.61463e-08
5.44858e-07
-7.21966e-09
5.48196e-07
5.12e-09
5.44286e-07
2.14189e-08
5.31196e-07
3.95311e-08
5.08752e-07
5.69055e-08
4.78017e-07
7.16757e-08
4.40727e-07
8.27728e-08
3.98927e-07
8.9772e-08
3.54631e-07
9.27996e-08
3.09499e-07
9.24403e-08
2.64521e-07
8.96015e-08
2.19725e-07
8.52034e-08
1.74228e-07
8.03593e-08
1.26443e-07
7.66609e-08
7.43216e-08
7.58042e-08
1.59366e-08
7.88444e-08
-5.01433e-08
8.58573e-08
-1.24571e-07
9.6177e-08
-2.07087e-07
1.08793e-07
-2.96358e-07
1.22673e-07
-3.90055e-07
1.36646e-07
-4.8622e-07
1.49487e-07
-5.84298e-07
1.60102e-07
-6.83951e-07
1.68016e-07
-7.83302e-07
1.73334e-07
-8.80394e-07
1.76124e-07
-9.73937e-07
1.7644e-07
-1.06305e-06
1.74508e-07
-1.14691e-06
1.70758e-07
-1.22474e-06
1.65589e-07
-1.29615e-06
1.59302e-07
-1.36118e-06
1.52202e-07
-1.42011e-06
1.44618e-07
-1.47339e-06
1.36847e-07
-1.52155e-06
1.29146e-07
-1.56517e-06
1.21723e-07
-1.6048e-06
1.14739e-07
-1.64096e-06
1.08307e-07
-1.67408e-06
1.02471e-07
-1.70456e-06
9.72238e-08
-1.73275e-06
9.25351e-08
-1.75894e-06
8.83609e-08
-1.78337e-06
8.46497e-08
-1.80626e-06
8.13483e-08
-1.82776e-06
7.84034e-08
-1.84802e-06
7.57654e-08
-1.86715e-06
7.33878e-08
-1.88524e-06
7.12302e-08
-1.90236e-06
6.92558e-08
-1.91858e-06
6.74336e-08
-1.93395e-06
6.5736e-08
-1.94853e-06
6.414e-08
-1.96235e-06
6.26253e-08
-1.97545e-06
6.11747e-08
-1.98787e-06
5.97731e-08
-1.99965e-06
5.84076e-08
-2.01083e-06
5.70666e-08
-2.02143e-06
5.57401e-08
-2.03151e-06
5.44185e-08
-2.0411e-06
5.30935e-08
-2.05025e-06
5.1756e-08
-2.05901e-06
5.03978e-08
-2.06743e-06
4.90085e-08
-2.07557e-06
4.75789e-08
-2.08349e-06
4.60959e-08
-2.09125e-06
4.45469e-08
-2.09894e-06
4.29138e-08
-2.10664e-06
4.1179e-08
-2.11443e-06
3.93167e-08
-2.1224e-06
3.7301e-08
-2.13064e-06
3.50934e-08
-2.13922e-06
3.2653e-08
-2.14823e-06
2.99191e-08
-2.15772e-06
2.68187e-08
-2.16766e-06
2.32633e-08
-2.17803e-06
1.91743e-08
-2.18856e-06
1.44521e-08
-2.19838e-06
8.82928e-09
-2.20614e-06
2.07583e-09
-2.21054e-06
-6.04402e-09
-2.2104e-06
-1.56589e-08
-2.20484e-06
-2.67298e-08
-2.19303e-06
-3.93277e-08
-2.17418e-06
-5.35373e-08
-2.14743e-06
-6.94548e-08
-2.11194e-06
-8.71778e-08
-2.0668e-06
-1.06795e-07
-2.01109e-06
-1.28369e-07
-1.94388e-06
-1.51954e-07
-1.86424e-06
-1.77589e-07
-1.77125e-06
-2.05294e-07
-1.66399e-06
-2.35021e-07
-1.54161e-06
-2.66779e-07
-1.40322e-06
-3.00648e-07
-1.24778e-06
-3.36159e-07
-1.07406e-06
-3.73283e-07
-8.80447e-07
-4.13606e-07
-6.65734e-07
-4.5558e-07
-4.282e-07
-4.97954e-07
-1.6451e-07
-5.42726e-07
1.29335e-07
-5.86822e-07
4.38431e-07
-6.21919e-07
7.41732e-07
-6.41405e-07
1.03616e-06
-6.38048e-07
1.31456e-06
-6.1075e-07
1.5672e-06
-5.61306e-07
1.78554e-06
-4.93718e-07
1.96341e-06
-4.12114e-07
2.09483e-06
-3.15843e-07
2.1792e-06
-2.07659e-07
2.24408e-06
-9.72522e-08
2.29762e-06
3.88393e-08
2.27319e-06
2.54928e-07
2.10803e-06
5.07532e-07
1.79946e-06
6.83055e-07
1.41211e-06
7.19383e-07
1.08397e-06
5.91287e-07
7.89661e-07
4.47841e-07
2.46768e-07
6.3365e-07
-5.45343e-07
1.06891e-06
-1.26542e-06
1.30216e-06
-1.76823e-06
1.20721e-06
-2.08169e-06
9.53093e-07
-2.2611e-06
6.94703e-07
-2.36217e-06
4.81809e-07
-2.42325e-06
3.18431e-07
-2.46481e-06
1.9248e-07
-2.49432e-06
9.22237e-08
-2.50686e-06
7.98836e-09
-2.49164e-06
-6.46423e-08
-2.44531e-06
-1.24981e-07
-2.3739e-06
-1.71853e-07
-2.28407e-06
-2.06119e-07
-2.18103e-06
-2.30997e-07
-2.06784e-06
-2.48689e-07
-1.94774e-06
-2.6049e-07
-1.82332e-06
-2.68111e-07
-1.69596e-06
-2.73152e-07
-1.5665e-06
-2.76997e-07
-1.43513e-06
-2.80616e-07
-1.30161e-06
-2.84815e-07
-1.16542e-06
-2.90125e-07
-1.02582e-06
-2.96876e-07
-8.81969e-07
-3.05168e-07
-7.32954e-07
-3.15028e-07
-5.77872e-07
-3.26379e-07
-4.16231e-07
-3.38841e-07
-2.4675e-07
-3.52353e-07
-6.75449e-08
-3.67569e-07
1.23602e-07
-3.84305e-07
3.2358e-07
-4.02314e-07
5.26882e-07
-4.15486e-07
7.315e-07
-4.19913e-07
9.36488e-07
-4.19495e-07
1.14046e-06
-4.15788e-07
1.34188e-06
-4.09372e-07
1.53896e-06
-3.99384e-07
1.72978e-06
-3.86326e-07
1.91157e-06
-3.66805e-07
2.08129e-06
-3.41901e-07
2.23389e-06
-3.03859e-07
2.36748e-06
-2.45189e-07
-1.43514e-07
2.4775e-06
3.17204e-08
-1.85246e-07
3.8948e-08
-1.40146e-07
5.26012e-08
-1.42705e-07
6.88932e-08
-1.2304e-07
8.88552e-08
-1.23007e-07
1.12312e-07
-1.17052e-07
1.38107e-07
-1.15899e-07
1.64076e-07
-1.09153e-07
1.8897e-07
-1.02227e-07
2.11153e-07
-9.19863e-08
2.30432e-07
-8.192e-08
2.46117e-07
-7.06109e-08
2.57869e-07
-5.91411e-08
2.65078e-07
-4.68351e-08
2.67517e-07
-3.43257e-08
2.65201e-07
-2.16883e-08
2.58605e-07
-9.54838e-09
2.4805e-07
3.33449e-09
2.33548e-07
1.96227e-08
2.14794e-07
4.01742e-08
1.91697e-07
6.26278e-08
1.64553e-07
8.40513e-08
1.33909e-07
1.02321e-07
1.00275e-07
1.16409e-07
6.38829e-08
1.26166e-07
2.45237e-08
1.32161e-07
-1.84908e-08
1.35457e-07
-6.62812e-08
1.37394e-07
-1.20427e-07
1.39352e-07
-1.82621e-07
1.42555e-07
-2.53785e-07
1.47826e-07
-3.33446e-07
1.55467e-07
-4.199e-07
1.65301e-07
-5.10816e-07
1.76774e-07
-6.0376e-07
1.89122e-07
-6.96469e-07
2.01505e-07
-7.86882e-07
2.13088e-07
-8.73283e-07
2.23049e-07
-9.54407e-07
2.30611e-07
-1.0295e-06
2.35203e-07
-1.09819e-06
2.36703e-07
-1.16019e-06
2.35341e-07
-1.21544e-06
2.31376e-07
-1.26416e-06
2.25159e-07
-1.30681e-06
2.17162e-07
-1.34396e-06
2.07907e-07
-1.37626e-06
1.97887e-07
-1.40448e-06
1.87523e-07
-1.42945e-06
1.77176e-07
-1.45197e-06
1.67138e-07
-1.47275e-06
1.57624e-07
-1.49238e-06
1.48782e-07
-1.51136e-06
1.40697e-07
-1.53003e-06
1.33411e-07
-1.54864e-06
1.2692e-07
-1.56735e-06
1.21186e-07
-1.58628e-06
1.1615e-07
-1.60549e-06
1.11741e-07
-1.62501e-06
1.07888e-07
-1.64488e-06
1.04521e-07
-1.66511e-06
1.01573e-07
-1.68568e-06
9.89836e-08
-1.70662e-06
9.66994e-08
-1.7279e-06
9.46717e-08
-1.74953e-06
9.28584e-08
-1.77149e-06
9.1222e-08
-1.79379e-06
8.97303e-08
-1.81641e-06
8.83546e-08
-1.83933e-06
8.70698e-08
-1.86256e-06
8.58531e-08
-1.88607e-06
8.46842e-08
-1.90984e-06
8.35443e-08
-1.93384e-06
8.24157e-08
-1.95806e-06
8.12818e-08
-1.98244e-06
8.01264e-08
-2.00695e-06
7.89331e-08
-2.03154e-06
7.76858e-08
-2.05615e-06
7.63672e-08
-2.08071e-06
7.49594e-08
-2.10514e-06
7.34423e-08
-2.12936e-06
7.17949e-08
-2.15325e-06
6.99922e-08
-2.17671e-06
6.80072e-08
-2.19959e-06
6.58069e-08
-2.22177e-06
6.33557e-08
-2.24306e-06
6.0609e-08
-2.26327e-06
5.75172e-08
-2.28219e-06
5.40198e-08
-2.29957e-06
5.0045e-08
-2.31514e-06
4.55064e-08
-2.3286e-06
4.02936e-08
-2.3396e-06
3.42695e-08
-2.34769e-06
2.72798e-08
-2.35234e-06
1.91172e-08
-2.35301e-06
9.51047e-09
-2.34924e-06
-1.68509e-09
-2.34088e-06
-1.43978e-08
-2.32765e-06
-2.88784e-08
-2.30904e-06
-4.53325e-08
-2.28441e-06
-6.39495e-08
-2.25303e-06
-8.49135e-08
-2.21408e-06
-1.08398e-07
-2.16669e-06
-1.34559e-07
-2.10994e-06
-1.63533e-07
-2.04287e-06
-1.95432e-07
-1.96447e-06
-2.30336e-07
-1.87373e-06
-2.68295e-07
-1.76968e-06
-3.09318e-07
-1.65129e-06
-3.53373e-07
-1.51757e-06
-4.00466e-07
-1.3676e-06
-4.50579e-07
-1.20022e-06
-5.03503e-07
-1.01412e-06
-5.59345e-07
-8.09222e-07
-6.18484e-07
-5.85022e-07
-6.79752e-07
-3.40972e-07
-7.41993e-07
-7.95187e-08
-8.04178e-07
1.95855e-07
-8.62214e-07
4.81984e-07
-9.08072e-07
7.72364e-07
-9.31807e-07
1.05846e-06
-9.2415e-07
1.32913e-06
-8.81415e-07
1.57251e-06
-8.04666e-07
1.77993e-06
-7.01112e-07
1.94627e-06
-5.78429e-07
2.06337e-06
-4.3291e-07
2.12018e-06
-2.64422e-07
2.1233e-06
-1.00315e-07
2.09651e-06
6.57027e-08
2.03087e-06
3.20628e-07
1.86315e-06
6.75337e-07
1.56999e-06
9.7625e-07
1.24398e-06
1.04537e-06
8.88748e-07
9.46376e-07
2.8205e-07
1.05439e-06
-5.4936e-07
1.46497e-06
-1.25341e-06
1.77292e-06
-1.69617e-06
1.74484e-06
-1.97789e-06
1.48881e-06
-2.2063e-06
1.18137e-06
-2.41607e-06
9.04371e-07
-2.6029e-06
6.68561e-07
-2.75034e-06
4.65817e-07
-2.84707e-06
2.89173e-07
-2.8902e-06
1.35324e-07
-2.8848e-06
2.54785e-09
-2.84109e-06
-1.08389e-07
-2.76839e-06
-1.97718e-07
-2.67351e-06
-2.66781e-07
-2.56206e-06
-3.17608e-07
-2.43874e-06
-3.54352e-07
-2.30673e-06
-3.80722e-07
-2.16883e-06
-3.98408e-07
-2.027e-06
-4.09949e-07
-1.88234e-06
-4.17814e-07
-1.73539e-06
-4.23944e-07
-1.58616e-06
-4.29842e-07
-1.43431e-06
-4.36655e-07
-1.27928e-06
-4.45148e-07
-1.12035e-06
-4.55801e-07
-9.56693e-07
-4.68811e-07
-7.87546e-07
-4.84163e-07
-6.12269e-07
-5.01643e-07
-4.30414e-07
-5.20683e-07
-2.41744e-07
-5.4101e-07
-4.67437e-08
-5.6256e-07
1.53237e-07
-5.8428e-07
3.55611e-07
-6.04683e-07
5.59591e-07
-6.19461e-07
7.6572e-07
-6.26037e-07
9.72918e-07
-6.26692e-07
1.17935e-06
-6.2222e-07
1.38298e-06
-6.13001e-07
1.58173e-06
-5.98126e-07
1.77313e-06
-5.77724e-07
1.95517e-06
-5.48849e-07
2.12471e-06
-5.11437e-07
2.27932e-06
-4.58488e-07
2.4173e-06
-3.83181e-07
-2.67076e-07
2.54086e-06
-4.81122e-09
-1.80431e-07
-1.32204e-08
-1.31735e-07
-1.94899e-08
-1.36434e-07
-2.15115e-08
-1.21018e-07
-2.61202e-08
-1.18397e-07
-2.89283e-08
-1.14243e-07
-3.17096e-08
-1.13116e-07
-3.19216e-08
-1.0894e-07
-3.14871e-08
-1.0266e-07
-3.03892e-08
-9.30841e-08
-3.02065e-08
-8.21017e-08
-3.1374e-08
-6.94433e-08
-3.48918e-08
-5.56222e-08
-4.14128e-08
-4.03138e-08
-5.19559e-08
-2.37815e-08
-6.72705e-08
-6.37352e-09
-8.81426e-08
1.13244e-08
-1.14184e-07
2.93759e-08
-1.43076e-07
4.85149e-08
-1.71944e-07
6.90431e-08
-1.99449e-07
9.01324e-08
-2.25893e-07
1.10497e-07
-2.52602e-07
1.29031e-07
-2.81347e-07
1.45155e-07
-3.14038e-07
1.58858e-07
-3.52451e-07
1.70576e-07
-3.97962e-07
1.8097e-07
-4.51268e-07
1.90701e-07
-5.12173e-07
2.00258e-07
-5.79489e-07
2.09873e-07
-6.51224e-07
2.19562e-07
-7.24947e-07
2.29191e-07
-7.98172e-07
2.38527e-07
-8.68637e-07
2.4724e-07
-9.34467e-07
2.54953e-07
-9.94236e-07
2.61276e-07
-1.04698e-06
2.65833e-07
-1.09224e-06
2.68312e-07
-1.13012e-06
2.68492e-07
-1.16122e-06
2.66302e-07
-1.1864e-06
2.61891e-07
-1.20662e-06
2.55555e-07
-1.22288e-06
2.47636e-07
-1.23626e-06
2.38545e-07
-1.2478e-06
2.28706e-07
-1.25841e-06
2.1852e-07
-1.26886e-06
2.08328e-07
-1.27973e-06
1.98397e-07
-1.29148e-06
1.88924e-07
-1.30438e-06
1.80041e-07
-1.31858e-06
1.71824e-07
-1.33411e-06
1.64311e-07
-1.35092e-06
1.57508e-07
-1.36891e-06
1.51398e-07
-1.38793e-06
1.4595e-07
-1.40787e-06
1.41117e-07
-1.42856e-06
1.36847e-07
-1.44991e-06
1.33084e-07
-1.47179e-06
1.29771e-07
-1.49412e-06
1.26853e-07
-1.51682e-06
1.24279e-07
-1.53984e-06
1.22e-07
-1.56311e-06
1.19972e-07
-1.58659e-06
1.18154e-07
-1.61024e-06
1.1651e-07
-1.63403e-06
1.15007e-07
-1.65791e-06
1.13614e-07
-1.68186e-06
1.12304e-07
-1.70584e-06
1.11053e-07
-1.72982e-06
1.09837e-07
-1.75377e-06
1.08636e-07
-1.77766e-06
1.0743e-07
-1.80144e-06
1.06199e-07
-1.82508e-06
1.04925e-07
-1.84854e-06
1.03589e-07
-1.87178e-06
1.02173e-07
-1.89475e-06
1.00658e-07
-1.9174e-06
9.9022e-08
-1.93969e-06
9.72433e-08
-1.96154e-06
9.52971e-08
-1.9829e-06
9.31557e-08
-2.00369e-06
9.07872e-08
-2.02383e-06
8.81549e-08
-2.04324e-06
8.52164e-08
-2.0618e-06
8.19222e-08
-2.07941e-06
7.82142e-08
-2.09591e-06
7.40248e-08
-2.11116e-06
6.9273e-08
-2.12497e-06
6.38652e-08
-2.13714e-06
5.76869e-08
-2.14744e-06
5.06071e-08
-2.15563e-06
4.24714e-08
-2.16146e-06
3.31103e-08
-2.16464e-06
2.23102e-08
-2.16492e-06
9.79833e-09
-2.16194e-06
-4.65845e-09
-2.15508e-06
-2.12581e-08
-2.14376e-06
-4.01868e-08
-2.12741e-06
-6.16832e-08
-2.10537e-06
-8.59854e-08
-2.07695e-06
-1.13331e-07
-2.0414e-06
-1.43948e-07
-1.9979e-06
-1.78049e-07
-1.94561e-06
-2.15817e-07
-1.88363e-06
-2.57406e-07
-1.81102e-06
-3.02924e-07
-1.72686e-06
-3.52435e-07
-1.6302e-06
-4.05952e-07
-1.5201e-06
-4.6344e-07
-1.39571e-06
-5.24829e-07
-1.25625e-06
-5.9e-07
-1.10092e-06
-6.58798e-07
-9.29012e-07
-7.31221e-07