/*--------------------------------*- C++ -*----------------------------------*\
| =========                 |                                                 |
| \\      /  F ield         | OpenFOAM: The Open Source CFD Toolbox           |
|  \\    /   O peration     | Version:  v1906                                 |
|   \\  /    A nd           | Web:      www.OpenFOAM.com                      |
|    \\/     M anipulation  |                                                 |
\*---------------------------------------------------------------------------*/
FoamFile
{
    version     2.0;
    format      ascii;
    class       volSymmTensorField;
    location    "1800";
    object      R;
}
// * * * * * * * * * * * * * * * * * * * * * * * * * * * * * * * * * * * * * //

dimensions      [0 2 -2 0 0 0 0];


internalField   nonuniform List<symmTensor> 
12225
(
(1.62959 -0.334084 0 1.36039 0 1.52762)
(1.99802 -0.59825 0 0.914523 0 1.54288)
(2.15299 -0.586755 0 0.685969 0 1.49059)
(2.16727 -0.548825 0 0.594981 0 1.42881)
(2.13578 -0.521693 0 0.550042 0 1.37426)
(2.09118 -0.502125 0 0.522039 0 1.32783)
(2.04501 -0.486833 0 0.50157 0 1.28813)
(2.00124 -0.474156 0 0.485238 0 1.25372)
(1.96072 -0.463256 0 0.471589 0 1.22358)
(1.92437 -0.453809 0 0.459992 0 1.19714)
(1.89062 -0.445321 0 0.449832 0 1.1735)
(1.86199 -0.438366 0 0.44107 0 1.15289)
(1.8394 -0.433118 0 0.434039 0 1.13638)
(1.82167 -0.428812 0 0.428245 0 1.12267)
(1.80534 -0.424983 0 0.423191 0 1.11068)
(1.79387 -0.422463 0 0.419587 0 1.10158)
(1.78047 -0.418837 0 0.415092 0 1.09161)
(1.77532 -0.419347 0 0.414061 0 1.08723)
(1.52344 -0.0379089 0 1.46191 0 1.51644)
(1.578 -0.141079 0 1.197 0 1.51298)
(1.59296 -0.192964 0 0.94373 0 1.4613)
(1.5811 -0.213903 0 0.791886 0 1.4054)
(1.55691 -0.224317 0 0.694808 0 1.35245)
(1.53232 -0.231695 0 0.628784 0 1.3072)
(1.5096 -0.237825 0 0.580936 0 1.26873)
(1.48868 -0.24303 0 0.544329 0 1.23506)
(1.47082 -0.247745 0 0.515681 0 1.20653)
(1.45478 -0.251699 0 0.492377 0 1.181)
(1.44218 -0.255709 0 0.47359 0 1.16013)
(1.43005 -0.258653 0 0.457246 0 1.13994)
(1.42201 -0.262554 0 0.444635 0 1.12521)
(1.41347 -0.264539 0 0.432158 0 1.10855)
(1.40859 -0.268589 0 0.424372 0 1.09903)
(1.40302 -0.269285 0 0.413405 0 1.08443)
(1.39895 -0.273077 0 0.409574 0 1.07879)
(1.39361 -0.272029 0 0.399129 0 1.06446)
(1.51181 -0.00787942 0 1.49346 0 1.51042)
(1.53548 -0.0360113 0 1.38414 0 1.51933)
(1.54925 -0.0630934 0 1.23408 0 1.50757)
(1.54703 -0.0823703 0 1.11544 0 1.48421)
(1.53462 -0.0967878 0 1.02228 0 1.45588)
(1.51847 -0.10885 0 0.947729 0 1.42711)
(1.50129 -0.11941 0 0.88712 0 1.3997)
(1.48391 -0.128717 0 0.83686 0 1.37376)
(1.4676 -0.137167 0 0.794718 0 1.35013)
(1.45224 -0.144728 0 0.758741 0 1.32815)
(1.43852 -0.151852 0 0.72797 0 1.30865)
(1.42572 -0.158084 0 0.700877 0 1.29012)
(1.41447 -0.164258 0 0.677846 0 1.2744)
(1.4046 -0.169326 0 0.65637 0 1.25861)
(1.39456 -0.174707 0 0.639728 0 1.2465)
(1.38947 -0.178683 0 0.620145 0 1.2322)
(1.37486 -0.182953 0 0.613005 0 1.22477)
(1.38868 -0.185518 0 0.582887 0 1.20905)
(1.5116 -0.00601722 0 1.49404 0 1.51117)
(1.52773 -0.0162264 0 1.42123 0 1.52216)
(1.54105 -0.0301835 0 1.31215 0 1.52409)
(1.54452 -0.0430641 0 1.2129 0 1.51623)
(1.54022 -0.0537553 0 1.1293 0 1.50244)
(1.53178 -0.0630763 0 1.05905 0 1.48592)
(1.52123 -0.0714851 0 0.999863 0 1.46851)
(1.5095 -0.0790958 0 0.949515 0 1.4509)
(1.49759 -0.0861235 0 0.906306 0 1.43386)
(1.48579 -0.0925605 0 0.868824 0 1.41743)
(1.47452 -0.0986072 0 0.836174 0 1.40208)
(1.46374 -0.104107 0 0.807314 0 1.38737)
(1.45363 -0.109365 0 0.782083 0 1.374)
(1.44438 -0.113983 0 0.759186 0 1.36103)
(1.43514 -0.118468 0 0.739633 0 1.34967)
(1.42812 -0.122136 0 0.720314 0 1.3381)
(1.41846 -0.12556 0 0.706484 0 1.32902)
(1.41515 -0.128231 0 0.686697 0 1.31831)
(1.50982 -0.00439046 0 1.49831 0 1.50971)
(1.52114 -0.00869131 0 1.44936 0 1.51893)
(1.53285 -0.0152592 0 1.3732 0 1.52497)
(1.53872 -0.0226118 0 1.29839 0 1.52439)
(1.53908 -0.0295235 0 1.23163 0 1.51889)
(1.53583 -0.0360938 0 1.17272 0 1.5104)
(1.53031 -0.0424121 0 1.12096 0 1.50024)
(1.52328 -0.0483978 0 1.07538 0 1.48914)
(1.51547 -0.0540786 0 1.03507 0 1.4777)
(1.50725 -0.0594202 0 0.99924 0 1.4662)
(1.49896 -0.0644825 0 0.967308 0 1.45498)
(1.49073 -0.0691977 0 0.938629 0 1.44398)
(1.48269 -0.0736572 0 0.912921 0 1.43353)
(1.47501 -0.077696 0 0.889569 0 1.42339)
(1.46747 -0.0814409 0 0.868669 0 1.41397)
(1.46078 -0.0846899 0 0.849121 0 1.40477)
(1.4539 -0.0874562 0 0.832245 0 1.39671)
(1.44895 -0.0899747 0 0.813949 0 1.38849)
(1.50979 -0.00406372 0 1.49851 0 1.5098)
(1.5187 -0.00573847 0 1.46039 0 1.5178)
(1.52876 -0.00860015 0 1.40197 0 1.5249)
(1.53535 -0.0125887 0 1.3415 0 1.52773)
(1.53805 -0.0167822 0 1.28492 0 1.52675)
(1.53783 -0.0210425 0 1.23332 0 1.52306)
(1.53549 -0.0253361 0 1.1868 0 1.51754)
(1.5316 -0.0295524 0 1.14502 0 1.51079)
(1.52671 -0.0336553 0 1.10745 0 1.50332)
(1.52116 -0.0376038 0 1.0736 0 1.49542)
(1.51525 -0.0413955 0 1.04303 0 1.48738)
(1.50913 -0.0449836 0 1.01531 0 1.47928)
(1.50294 -0.0483755 0 0.990158 0 1.47132)
(1.49684 -0.051489 0 0.967199 0 1.4635)
(1.4908 -0.0543271 0 0.946273 0 1.45599)
(1.48513 -0.056828 0 0.92688 0 1.44871)
(1.4795 -0.0589546 0 0.909247 0 1.44191)
(1.47458 -0.0609607 0 0.891545 0 1.4352)
(1.50943 -0.00328418 0 1.49943 0 1.50951)
(1.51646 -0.00421817 0 1.46903 0 1.51618)
(1.52477 -0.00519495 0 1.42389 0 1.52292)
(1.53108 -0.00697882 0 1.37563 0 1.52701)
(1.53472 -0.0091717 0 1.32901 0 1.5283)
(1.53609 -0.0116653 0 1.28542 0 1.52737)
(1.53566 -0.0143909 0 1.24527 0 1.52477)
(1.53385 -0.0172238 0 1.20851 0 1.52096)
(1.53103 -0.0200869 0 1.17491 0 1.5163)
(1.52749 -0.0229214 0 1.14416 0 1.51108)
(1.52346 -0.0256911 0 1.11603 0 1.50551)
(1.5191 -0.0283486 0 1.09023 0 1.49972)
(1.51454 -0.0308661 0 1.06652 0 1.49385)
(1.5099 -0.0331923 0 1.04468 0 1.48798)
(1.50526 -0.0352968 0 1.02451 0 1.48222)
(1.50077 -0.0371662 0 1.00575 0 1.47659)
(1.49649 -0.0387585 0 0.988288 0 1.47126)
(1.49239 -0.0403268 0 0.971422 0 1.46604)
(1.50952 -0.00295292 0 1.4993 0 1.50963)
(1.51545 -0.00352253 0 1.47335 0 1.51549)
(1.52237 -0.00355752 0 1.43687 0 1.52162)
(1.52816 -0.00410863 0 1.39695 0 1.52613)
(1.53213 -0.00508175 0 1.35732 0 1.52864)
(1.53438 -0.00641178 0 1.31943 0 1.52939)
(1.53516 -0.00802655 0 1.2839 0 1.5287)
(1.53473 -0.00981526 0 1.25087 0 1.52689)
(1.53336 -0.0116982 0 1.22028 0 1.52423)
(1.53128 -0.0136161 0 1.19199 0 1.52094)
(1.52866 -0.0155234 0 1.16583 0 1.51722)
(1.52566 -0.0173749 0 1.14163 0 1.51319)
(1.52238 -0.0191333 0 1.11921 0 1.50896)
(1.51895 -0.0207608 0 1.09839 0 1.50463)
(1.51543 -0.022228 0 1.07901 0 1.50029)
(1.51194 -0.023534 0 1.06089 0 1.496)
(1.50846 -0.0246979 0 1.04392 0 1.49181)
(1.50489 -0.0258429 0 1.02786 0 1.4877)
(1.50946 -0.00237632 0 1.49951 0 1.50959)
(1.51446 -0.00295204 0 1.47713 0 1.51469)
(1.5202 -0.00259298 0 1.44719 0 1.52009)
(1.52531 -0.00239787 0 1.41405 0 1.5245)
(1.52918 -0.00251673 0 1.38054 0 1.5275)
(1.53177 -0.00297507 0 1.34797 0 1.52914)
(1.53318 -0.00373318 0 1.31698 0 1.52959)
(1.53359 -0.00470516 0 1.28779 0 1.52906)
(1.53317 -0.00581673 0 1.26045 0 1.52775)
(1.5321 -0.00700804 0 1.2349 0 1.52584)
(1.53051 -0.00822917 0 1.21105 0 1.52348)
(1.52854 -0.00943521 0 1.18878 0 1.52077)
(1.52627 -0.0105873 0 1.16797 0 1.51783)
(1.52381 -0.0116551 0 1.1485 0 1.51472)
(1.52124 -0.0126152 0 1.13023 0 1.51155)
(1.51862 -0.0134744 0 1.11306 0 1.50836)
(1.51597 -0.0142404 0 1.0969 0 1.50522)
(1.51302 -0.0150495 0 1.0818 0 1.50209)
(1.50951 -0.00206682 0 1.49943 0 1.50965)
(1.51394 -0.00264849 0 1.47935 0 1.51428)
(1.51879 -0.00212743 0 1.45397 0 1.51907)
(1.52327 -0.00154964 0 1.4258 0 1.52324)
(1.52691 -0.00118166 0 1.39691 0 1.52641)
(1.5296 -0.00110255 0 1.36842 0 1.52855)
(1.53137 -0.00129743 0 1.34093 0 1.52972)
(1.53231 -0.0017036 0 1.31474 0 1.53006)
(1.53255 -0.0022589 0 1.28995 0 1.52972)
(1.5322 -0.00290972 0 1.26656 0 1.52881)
(1.53138 -0.0036096 0 1.24455 0 1.52746)
(1.53018 -0.00431821 0 1.22384 0 1.52577)
(1.5287 -0.0050013 0 1.20436 0 1.52381)
(1.527 -0.00563523 0 1.186 0 1.52167)
(1.52515 -0.00620628 0 1.1687 0 1.5194)
(1.52319 -0.00672584 0 1.15237 0 1.51708)
(1.52106 -0.00723006 0 1.13702 0 1.51472)
(1.51858 -0.00775957 0 1.12273 0 1.51237)
(1.50947 -0.0016257 0 1.49957 0 1.50962)
(1.5134 -0.00223302 0 1.48143 0 1.51382)
(1.51752 -0.00171249 0 1.4596 0 1.51805)
(1.5214 -0.000952428 0 1.43548 0 1.52187)
(1.5247 -0.000275866 0 1.41051 0 1.52499)
(1.52731 0.000188243 0 1.38561 0 1.52732)
(1.5292 0.000421055 0 1.36133 0 1.52888)
(1.53043 0.000457736 0 1.33796 0 1.52976)
(1.53106 0.000344873 0 1.31563 0 1.53004)
(1.5312 0.00012791 0 1.2944 0 1.52983)
(1.53091 -0.000151706 0 1.27426 0 1.52921)
(1.53028 -0.000458157 0 1.25517 0 1.52825)
(1.52939 -0.000761878 0 1.23709 0 1.52705)
(1.52828 -0.00104375 0 1.21995 0 1.52565)
(1.52701 -0.00129389 0 1.20372 0 1.52411)
(1.52559 -0.00152307 0 1.18834 0 1.52249)
(1.52397 -0.00174711 0 1.17386 0 1.52081)
(1.52192 -0.00205217 0 1.16042 0 1.51907)
(1.50944 -0.00138826 0 1.49965 0 1.50959)
(1.51307 -0.00199343 0 1.48275 0 1.51354)
(1.51669 -0.00151411 0 1.46327 0 1.51738)
(1.52012 -0.000708626 0 1.44195 0 1.52091)
(1.52312 9.47709e-05 0 1.41979 0 1.5239)
(1.52559 0.000747341 0 1.39751 0 1.52628)
(1.5275 0.00121159 0 1.37559 0 1.52805)
(1.52886 0.00150403 0 1.35431 0 1.52924)
(1.52973 0.00165853 0 1.33382 0 1.52992)
(1.53017 0.00171198 0 1.31419 0 1.53016)
(1.53024 0.00169931 0 1.29545 0 1.53003)
(1.53001 0.00165052 0 1.27758 0 1.5296)
(1.52951 0.00158959 0 1.26057 0 1.52892)
(1.52882 0.00153061 0 1.24438 0 1.52804)
(1.52794 0.00147865 0 1.22898 0 1.52702)
(1.52688 0.00142267 0 1.21437 0 1.52589)
(1.52558 0.00133791 0 1.2006 0 1.52468)
(1.52388 0.00121059 0 1.18781 0 1.5234)
(1.50938 -0.00110077 0 1.49984 0 1.50953)
(1.51273 -0.00166247 0 1.48404 0 1.51323)
(1.51593 -0.00124468 0 1.4665 0 1.51672)
(1.51895 -0.000449463 0 1.44752 0 1.51995)
(1.52165 0.000415725 0 1.42776 0 1.52278)
(1.52395 0.00119241 0 1.40778 0 1.52513)
(1.5258 0.00182682 0 1.38797 0 1.52698)
(1.52721 0.00231792 0 1.36859 0 1.52836)
(1.52822 0.00268669 0 1.3498 0 1.5293)
(1.52886 0.00296101 0 1.33168 0 1.52987)
(1.52918 0.00316904 0 1.31427 0 1.5301)
(1.52923 0.00333545 0 1.29759 0 1.53005)
(1.52905 0.00347945 0 1.28162 0 1.52978)
(1.52866 0.00361285 0 1.26636 0 1.52931)
(1.5281 0.00373939 0 1.2518 0 1.5287)
(1.52735 0.00385434 0 1.23795 0 1.52798)
(1.52634 0.00394766 0 1.22488 0 1.52715)
(1.52492 0.00397128 0 1.21272 0 1.52623)
(1.50929 -0.00090202 0 1.50005 0 1.50945)
(1.51241 -0.0014149 0 1.48518 0 1.51294)
(1.51526 -0.00106764 0 1.46928 0 1.51615)
(1.51792 -0.000331345 0 1.45234 0 1.5191)
(1.52032 0.000522275 0 1.43474 0 1.52173)
(1.52241 0.00133954 0 1.41685 0 1.524)
(1.52417 0.00205862 0 1.39899 0 1.52588)
(1.52559 0.00266597 0 1.38139 0 1.52738)
(1.52668 0.00317146 0 1.36419 0 1.52853)
(1.52747 0.00359387 0 1.34749 0 1.52934)
(1.52799 0.00395379 0 1.33134 0 1.52988)
(1.52827 0.00426934 0 1.31577 0 1.53016)
(1.52835 0.00455429 0 1.30081 0 1.53023)
(1.52823 0.00481565 0 1.28644 0 1.53013)
(1.52794 0.00505425 0 1.27269 0 1.52987)
(1.52745 0.00526421 0 1.25959 0 1.5295)
(1.52671 0.00543278 0 1.24718 0 1.52902)
(1.52562 0.00558935 0 1.23558 0 1.52846)
(1.50918 -0.000596107 0 1.50035 0 1.50934)
(1.51205 -0.000953326 0 1.48643 0 1.5126)
(1.51457 -0.000646778 0 1.47201 0 1.51552)
(1.51689 1.5778e-05 0 1.45689 0 1.51819)
(1.519 0.000825136 0 1.44123 0 1.52062)
(1.52087 0.00164795 0 1.42527 0 1.52276)
(1.5225 0.00242065 0 1.40925 0 1.52461)
(1.52387 0.00312002 0 1.39334 0 1.52616)
(1.52499 0.0037451 0 1.37769 0 1.52742)
(1.52586 0.00430527 0 1.36238 0 1.52841)
(1.52652 0.00481327 0 1.34749 0 1.52917)
(1.52698 0.00528146 0 1.33305 0 1.5297)
(1.52725 0.00571933 0 1.3191 0 1.53005)
(1.52735 0.00613306 0 1.30565 0 1.53023)
(1.52728 0.00652398 0 1.29273 0 1.53027)
(1.52701 0.00688902 0 1.28039 0 1.53019)
(1.5265 0.00722089 0 1.26867 0 1.52999)
(1.52566 0.00746763 0 1.25768 0 1.52969)
(1.50903 -0.000436411 0 1.50069 0 1.5092)
(1.51168 -0.0006876 0 1.48755 0 1.51226)
(1.51397 -0.00043956 0 1.47425 0 1.51496)
(1.51602 0.000104492 0 1.46055 0 1.51741)
(1.51788 0.000791924 0 1.44646 0 1.51965)
(1.51956 0.00151763 0 1.43209 0 1.52166)
(1.52105 0.00222544 0 1.4176 0 1.52345)
(1.52235 0.00288994 0 1.40314 0 1.525)
(1.52345 0.00350413 0 1.38881 0 1.52632)
(1.52437 0.00407026 0 1.37471 0 1.52742)
(1.52511 0.00459421 0 1.3609 0 1.52832)
(1.52568 0.00508209 0 1.34745 0 1.52904)
(1.5261 0.00553866 0 1.33438 0 1.52959)
(1.52636 0.00596635 0 1.32174 0 1.52999)
(1.52647 0.00636601 0 1.30955 0 1.53026)
(1.52641 0.00673936 0 1.29785 0 1.53042)
(1.52615 0.00708786 0 1.28669 0 1.53047)
(1.52563 0.0074584 0 1.27613 0 1.53042)
(1.50889 -0.000102902 0 1.50103 0 1.50906)
(1.51135 -6.31139e-05 0 1.48859 0 1.51192)
(1.51343 0.000251588 0 1.47618 0 1.51443)
(1.51527 0.000755928 0 1.46356 0 1.51671)
(1.51694 0.00137079 0 1.45064 0 1.51879)
(1.51845 0.00203419 0 1.43748 0 1.52068)
(1.51982 0.00270878 0 1.42418 0 1.52239)
(1.52104 0.00337444 0 1.41084 0 1.52391)
(1.52211 0.00402223 0 1.39755 0 1.52525)
(1.52303 0.00464958 0 1.38442 0 1.5264)
(1.52381 0.00525667 0 1.37149 0 1.52738)
(1.52444 0.00584447 0 1.35885 0 1.5282)
(1.52493 0.00641314 0 1.34652 0 1.52887)
(1.52529 0.00696177 0 1.33456 0 1.5294)
(1.52549 0.00748707 0 1.32299 0 1.5298)
(1.52554 0.00798189 0 1.31187 0 1.53009)
(1.52541 0.00843635 0 1.30122 0 1.53027)
(1.52508 0.0088048 0 1.29109 0 1.53035)
(1.50878 -1.87818e-05 0 1.50131 0 1.50894)
(1.5111 0.000148443 0 1.4893 0 1.51167)
(1.51309 0.000432711 0 1.47736 0 1.51409)
(1.51484 0.000794921 0 1.46529 0 1.51627)
(1.51642 0.00120808 0 1.453 0 1.51827)
(1.51786 0.00165133 0 1.44049 0 1.5201)
(1.51918 0.00211075 0 1.42785 0 1.52177)
(1.52036 0.00257722 0 1.41514 0 1.52326)
(1.52142 0.00304499 0 1.40246 0 1.5246)
(1.52235 0.00351047 0 1.38987 0 1.52578)
(1.52315 0.00397126 0 1.37746 0 1.5268)
(1.52384 0.00442583 0 1.36528 0 1.52767)
(1.5244 0.00487315 0 1.35337 0 1.52841)
(1.52485 0.00531327 0 1.34177 0 1.52901)
(1.52517 0.00574717 0 1.33052 0 1.52951)
(1.52536 0.00618083 0 1.31964 0 1.52989)
(1.52541 0.00662054 0 1.30918 0 1.53017)
(1.52529 0.00710609 0 1.29917 0 1.53034)
(1.50878 0.000472084 0 1.50126 0 1.50896)
(1.51112 0.00115819 0 1.48915 0 1.5117)
(1.51313 0.00168469 0 1.47709 0 1.51414)
(1.51491 0.00213269 0 1.46488 0 1.51634)
(1.51651 0.00255903 0 1.45243 0 1.51835)
(1.51797 0.0029984 0 1.43976 0 1.52019)
(1.51929 0.00346879 0 1.42696 0 1.52185)
(1.52047 0.00397634 0 1.41411 0 1.52334)
(1.52152 0.00451985 0 1.4013 0 1.52466)
(1.52242 0.0050939 0 1.3886 0 1.52581)
(1.5232 0.00569082 0 1.37609 0 1.52679)
(1.52384 0.00630175 0 1.36382 0 1.52762)
(1.52436 0.00691713 0 1.35184 0 1.52831)
(1.52477 0.00752683 0 1.34018 0 1.52887)
(1.52506 0.00811996 0 1.32885 0 1.52931)
(1.52525 0.00868338 0 1.31789 0 1.52965)
(1.52534 0.00920259 0 1.3073 0 1.52989)
(1.52536 0.0096453 0 1.2971 0 1.53006)
(1.50906 0.00052031 0 1.50074 0 1.50919)
(1.51178 0.00122345 0 1.48771 0 1.51225)
(1.51411 0.00159698 0 1.4746 0 1.51495)
(1.51621 0.00178368 0 1.46114 0 1.5174)
(1.51812 0.00189582 0 1.44733 0 1.51962)
(1.51986 0.00200969 0 1.43327 0 1.52163)
(1.52142 0.00216714 0 1.4191 0 1.52342)
(1.52279 0.00238505 0 1.40495 0 1.52499)
(1.52398 0.00266522 0 1.39091 0 1.52633)
(1.52499 0.00300098 0 1.37709 0 1.52747)
(1.52583 0.00338152 0 1.36356 0 1.5284)
(1.52651 0.00379443 0 1.35035 0 1.52915)
(1.52703 0.00422767 0 1.33752 0 1.52972)
(1.5274 0.00467044 0 1.3251 0 1.53014)
(1.52763 0.0051158 0 1.31311 0 1.53041)
(1.52772 0.00556175 0 1.30156 0 1.53055)
(1.52766 0.00601635 0 1.29047 0 1.53056)
(1.52744 0.0065159 0 1.27986 0 1.53044)
(1.50921 0.000962989 0 1.50028 0 1.50936)
(1.51226 0.00200119 0 1.48606 0 1.51272)
(1.51499 0.0024286 0 1.47128 0 1.51576)
(1.51751 0.00257585 0 1.45581 0 1.51854)
(1.5198 0.00264328 0 1.43982 0 1.52103)
(1.52184 0.00274404 0 1.42355 0 1.52324)
(1.52362 0.00293009 0 1.40724 0 1.52513)
(1.52513 0.00321534 0 1.39106 0 1.52671)
(1.52638 0.00359466 0 1.37514 0 1.52799)
(1.52737 0.00405499 0 1.3596 0 1.529)
(1.52813 0.0045811 0 1.3445 0 1.52975)
(1.52867 0.00515869 0 1.32987 0 1.53026)
(1.52901 0.00577587 0 1.31576 0 1.53057)
(1.52918 0.00642423 0 1.30218 0 1.5307)
(1.5292 0.00709786 0 1.28912 0 1.53066)
(1.52909 0.00779345 0 1.27658 0 1.53049)
(1.52887 0.0085034 0 1.26455 0 1.53022)
(1.52863 0.00919604 0 1.25299 0 1.52988)
(1.50944 0.00113312 0 1.49986 0 1.50954)
(1.51289 0.00221996 0 1.48431 0 1.51324)
(1.51614 0.00253648 0 1.4673 0 1.51668)
(1.51922 0.00255451 0 1.44904 0 1.51985)
(1.522 0.00252037 0 1.43008 0 1.52264)
(1.52441 0.00256379 0 1.4109 0 1.52499)
(1.52641 0.00273973 0 1.39185 0 1.52689)
(1.52802 0.00305608 0 1.37316 0 1.52834)
(1.52925 0.00349918 0 1.35499 0 1.52939)
(1.53013 0.00404779 0 1.33741 0 1.53008)
(1.53071 0.00467891 0 1.32048 0 1.53046)
(1.53103 0.00537031 0 1.3042 0 1.53056)
(1.53112 0.0061014 0 1.2886 0 1.53042)
(1.53102 0.00685253 0 1.27365 0 1.53009)
(1.53074 0.00760582 0 1.25936 0 1.52959)
(1.53032 0.00834371 0 1.24571 0 1.52895)
(1.52976 0.009058 0 1.23269 0 1.52818)
(1.52899 0.00977616 0 1.22033 0 1.52726)
(1.50957 0.00177759 0 1.49945 0 1.50967)
(1.5136 0.00309104 0 1.48165 0 1.51388)
(1.51771 0.00344022 0 1.46085 0 1.51799)
(1.52159 0.00359621 0 1.43806 0 1.52171)
(1.52497 0.00382147 0 1.41446 0 1.52481)
(1.52775 0.00420933 0 1.3908 0 1.52722)
(1.52991 0.00477915 0 1.36759 0 1.52896)
(1.53146 0.00550797 0 1.34512 0 1.53007)
(1.53249 0.0063615 0 1.32354 0 1.53064)
(1.53304 0.00730787 0 1.30291 0 1.53074)
(1.53319 0.00831999 0 1.28326 0 1.53045)
(1.533 0.00937578 0 1.26458 0 1.52982)
(1.53252 0.0104586 0 1.24685 0 1.52892)
(1.53179 0.0115579 0 1.23004 0 1.52779)
(1.53085 0.0126699 0 1.21412 0 1.52648)
(1.52974 0.0138017 0 1.19904 0 1.52501)
(1.5285 0.0149647 0 1.18476 0 1.52343)
(1.52729 0.0161533 0 1.17119 0 1.52184)
(1.50959 0.00203157 0 1.49947 0 1.50966)
(1.51426 0.00343413 0 1.47918 0 1.51433)
(1.51943 0.00396845 0 1.45327 0 1.51916)
(1.52424 0.00447827 0 1.42461 0 1.52331)
(1.52815 0.00514699 0 1.39535 0 1.52638)
(1.53105 0.00602859 0 1.36662 0 1.52838)
(1.53299 0.00713056 0 1.33896 0 1.52939)
(1.53409 0.0084133 0 1.31262 0 1.52957)
(1.53447 0.00982661 0 1.28768 0 1.52906)
(1.53427 0.0113286 0 1.26414 0 1.52801)
(1.53359 0.0128864 0 1.24194 0 1.52652)
(1.53254 0.014474 0 1.22103 0 1.52469)
(1.5312 0.0160718 0 1.20133 0 1.52261)
(1.52964 0.017663 0 1.18276 0 1.52033)
(1.52793 0.0192308 0 1.16525 0 1.51792)
(1.52612 0.0207473 0 1.14871 0 1.51543)
(1.52428 0.0221749 0 1.13308 0 1.51291)
(1.52224 0.0234807 0 1.11838 0 1.51029)
(1.50979 0.00302853 0 1.4989 0 1.50984)
(1.51584 0.00469287 0 1.47338 0 1.51562)
(1.52282 0.00599342 0 1.43819 0 1.52155)
(1.52882 0.00772615 0 1.39965 0 1.526)
(1.53315 0.00973011 0 1.36119 0 1.52862)
(1.53585 0.011893 0 1.32425 0 1.52959)
(1.53715 0.0141788 0 1.28943 0 1.52918)
(1.53727 0.0165334 0 1.25691 0 1.52769)
(1.53647 0.0189056 0 1.22668 0 1.52537)
(1.53494 0.021264 0 1.19862 0 1.52243)
(1.53288 0.0235893 0 1.17259 0 1.51905)
(1.5304 0.0258665 0 1.14842 0 1.51534)
(1.52763 0.0280851 0 1.12595 0 1.51141)
(1.52464 0.0302361 0 1.10506 0 1.50734)
(1.52149 0.0323129 0 1.08561 0 1.50319)
(1.5182 0.0343221 0 1.06749 0 1.49898)
(1.51474 0.0362854 0 1.05064 0 1.49472)
(1.51139 0.0382851 0 1.03496 0 1.49058)
(1.50952 0.00321531 0 1.49949 0 1.5095)
(1.51714 0.00616933 0 1.4676 0 1.51621)
(1.52632 0.00961918 0 1.41934 0 1.52274)
(1.53312 0.0135555 0 1.36868 0 1.52618)
(1.5369 0.0175492 0 1.32037 0 1.52659)
(1.53818 0.021501 0 1.27555 0 1.52467)
(1.53753 0.0254451 0 1.23439 0 1.52108)
(1.53546 0.0293444 0 1.19674 0 1.51632)
(1.53236 0.0331402 0 1.16233 0 1.51077)
(1.52855 0.0368032 0 1.13086 0 1.50472)
(1.52426 0.0403254 0 1.10202 0 1.49837)
(1.51966 0.0437045 0 1.07552 0 1.49188)
(1.5149 0.0469434 0 1.05113 0 1.48535)
(1.51008 0.0500487 0 1.02863 0 1.47888)
(1.50528 0.0530289 0 1.00783 0 1.47251)
(1.50057 0.05589 0 0.988538 0 1.46631)
(1.49619 0.0586179 0 0.97057 0 1.46038)
(1.49197 0.0610418 0 0.953906 0 1.45472)
(1.51082 0.00499192 0 1.49634 0 1.51063)
(1.52254 0.0112783 0 1.44727 0 1.51971)
(1.5351 0.020305 0 1.37183 0 1.52588)
(1.54212 0.029239 0 1.29726 0 1.52589)
(1.54389 0.0370628 0 1.22998 0 1.52123)
(1.54185 0.0438431 0 1.17049 0 1.51353)
(1.53734 0.0499594 0 1.11814 0 1.50401)
(1.53125 0.0555825 0 1.07205 0 1.4935)
(1.52421 0.0607602 0 1.03134 0 1.48254)
(1.51664 0.0655502 0 0.995212 0 1.47149)
(1.50883 0.0700118 0 0.96296 0 1.46055)
(1.50102 0.0741838 0 0.934025 0 1.44988)
(1.49331 0.0780916 0 0.907945 0 1.43955)
(1.48582 0.0817616 0 0.884339 0 1.42965)
(1.47854 0.0851986 0 0.862876 0 1.42012)
(1.47159 0.088423 0 0.843315 0 1.41108)
(1.46452 0.0913915 0 0.825381 0 1.40222)
(1.45768 0.0942151 0 0.809249 0 1.39388)
(1.51 0.00556415 0 1.4981 0 1.5093)
(1.52771 0.0254622 0 1.42337 0 1.51813)
(1.5439 0.0465948 0 1.31194 0 1.51719)
(1.54827 0.0624166 0 1.21463 0 1.50612)
(1.54441 0.0746636 0 1.13328 0 1.48973)
(1.53545 0.0845592 0 1.06489 0 1.47074)
(1.5242 0.0931857 0 1.00672 0 1.4511)
(1.512 0.100862 0 0.95695 0 1.43179)
(1.49948 0.107701 0 0.914001 0 1.41318)
(1.48709 0.11385 0 0.876575 0 1.39548)
(1.4751 0.119436 0 0.8437 0 1.37877)
(1.46371 0.12456 0 0.814608 0 1.36313)
(1.45293 0.129263 0 0.788689 0 1.34845)
(1.44288 0.133628 0 0.765484 0 1.33482)
(1.43347 0.137685 0 0.744532 0 1.32203)
(1.42475 0.141467 0 0.725682 0 1.31021)
(1.41686 0.145137 0 0.70834 0 1.29909)
(1.41036 0.148335 0 0.693176 0 1.28947)
(1.51865 0.0283656 0 1.47424 0 1.51456)
(1.56412 0.112024 0 1.27057 0 1.51897)
(1.58668 0.162395 0 1.05051 0 1.48932)
(1.5815 0.184508 0 0.902869 0 1.44758)
(1.56504 0.196171 0 0.801468 0 1.40547)
(1.54329 0.203393 0 0.728635 0 1.3654)
(1.5226 0.209506 0 0.674123 0 1.33031)
(1.50321 0.214848 0 0.631939 0 1.29943)
(1.48528 0.21964 0 0.598154 0 1.27199)
(1.46905 0.223999 0 0.570397 0 1.24758)
(1.45431 0.227937 0 0.547203 0 1.22566)
(1.44135 0.231568 0 0.527555 0 1.2062)
(1.42958 0.234868 0 0.510661 0 1.18851)
(1.4195 0.237935 0 0.496051 0 1.17287)
(1.41016 0.240754 0 0.48324 0 1.1584)
(1.4024 0.243351 0 0.47197 0 1.14573)
(1.39486 0.24581 0 0.461996 0 1.13368)
(1.38757 0.247817 0 0.452852 0 1.12264)
(1.59295 0.292544 0 1.39559 0 1.521)
(1.91798 0.579351 0 0.967324 0 1.53352)
(2.07148 0.586085 0 0.732462 0 1.49029)
(2.10686 0.553471 0 0.628567 0 1.43742)
(2.09684 0.526187 0 0.574433 0 1.38865)
(2.06969 0.506092 0 0.54131 0 1.34607)
(2.03642 0.490682 0 0.5183 0 1.30928)
(2.00224 0.478281 0 0.500711 0 1.2773)
(1.9692 0.467853 0 0.486423 0 1.24918)
(1.93811 0.458821 0 0.474376 0 1.22425)
(1.90916 0.45084 0 0.46397 0 1.20192)
(1.88235 0.443702 0 0.45484 0 1.18183)
(1.85763 0.437267 0 0.446736 0 1.16364)
(1.83473 0.431425 0 0.439481 0 1.14709)
(1.81374 0.426089 0 0.432936 0 1.13203)
(1.79409 0.421226 0 0.427024 0 1.11816)
(1.77626 0.416675 0 0.421583 0 1.10555)
(1.75912 0.412478 0 0.416731 0 1.0937)
(0.00528363 0.00211691 0 0.0209402 0 0.016307)
(0.01243 -0.000497822 0 0.0262941 0 0.0285685)
(0.0207082 -0.00226081 0 0.0321381 0 0.0388162)
(0.0272645 -0.00487607 0 0.0339709 0 0.0443764)
(0.033283 -0.00641615 0 0.0340833 0 0.0484124)
(0.0383418 -0.00752344 0 0.0331901 0 0.0510423)
(0.0427397 -0.00832442 0 0.0321624 0 0.0529268)
(0.0464964 -0.00901745 0 0.0309972 0 0.0542006)
(0.0498364 -0.00962476 0 0.0298344 0 0.0551122)
(0.0528358 -0.0101774 0 0.028653 0 0.0557411)
(0.0555807 -0.0106674 0 0.0274918 0 0.0561755)
(0.0580987 -0.0110974 0 0.0263532 0 0.0564473)
(0.0604104 -0.011467 0 0.0252546 0 0.0565841)
(0.0625272 -0.0117832 0 0.0241994 0 0.0565934)
(0.0644303 -0.0120584 0 0.0231995 0 0.0564843)
(0.0661939 -0.0123 0 0.02223 0 0.056228)
(0.067597 -0.0125425 0 0.0214007 0 0.0559459)
(0.0696364 -0.0128547 0 0.0202381 0 0.0551948)
(0.0707483 -0.0130544 0 0.0195582 0 0.0546803)
(0.0712719 -0.0129441 0 0.0188384 0 0.0539456)
(0.0711377 -0.0124772 0 0.0178724 0 0.0526592)
(0.0700686 -0.0116716 0 0.016724 0 0.0507526)
(0.0681399 -0.0106652 0 0.0155312 0 0.0484233)
(0.0654894 -0.0095347 0 0.0143259 0 0.0457708)
(0.0623299 -0.00834652 0 0.0131403 0 0.0429354)
(0.0589727 -0.00715239 0 0.0120104 0 0.0401086)
(0.0557878 -0.00599545 0 0.0109846 0 0.0375151)
(0.0531445 -0.00490143 0 0.0101108 0 0.0353776)
(0.0514935 -0.00390335 0 0.00946405 0 0.0339826)
(0.0504979 -0.00270233 0 0.00906048 0 0.03331)
(0.0505617 -0.00200983 0 0.00898625 0 0.0334379)
(0.0511293 -0.00141781 0 0.00905278 0 0.0339569)
(0.0520576 -0.00088816 0 0.00923865 0 0.034778)
(0.0528752 -0.000525336 0 0.00941605 0 0.0354705)
(0.0533253 -0.00021229 0 0.00948994 0 0.0358055)
(0.0531657 -5.25518e-06 0 0.00942549 0 0.0356638)
(0.051952 0.000209737 0 0.00922329 0 0.0349022)
(0.0487583 0.000494991 0 0.00882883 0 0.0331017)
(0.044673 0.000826529 0 0.00838532 0 0.0309382)
(0.0414297 0.00106366 0 0.00819092 0 0.0294983)
(0.0408543 0.00146347 0 0.00840221 0 0.0296431)
(0.0431905 0.00238607 0 0.00898647 0 0.0313498)
(0.0469436 0.00352872 0 0.00997945 0 0.0339988)
(0.0521569 0.00480716 0 0.0113914 0 0.0376854)
(0.0592838 0.00619735 0 0.013217 0 0.0426988)
(0.0691639 0.00771354 0 0.0154372 0 0.0495591)
(0.0798548 0.00930609 0 0.0177442 0 0.0569709)
(0.0901803 0.0109329 0 0.0200305 0 0.0641766)
(0.100255 0.0125718 0 0.0223056 0 0.0712501)
(0.110093 0.0141988 0 0.0245681 0 0.0781929)
(0.119708 0.0157989 0 0.0268126 0 0.0850015)
(0.129114 0.0173618 0 0.0290325 0 0.0916673)
(0.138389 0.0188983 0 0.0312352 0 0.0982258)
(0.147624 0.020438 0 0.0334256 0 0.104712)
(0.156933 0.0220485 0 0.0356065 0 0.111169)
(0.166142 0.0236784 0 0.037761 0 0.117529)
(0.175185 0.0252724 0 0.0398925 0 0.123785)
(0.184122 0.0268461 0 0.0420081 0 0.129967)
(0.192975 0.0284017 0 0.0441137 0 0.136097)
(0.201775 0.0299444 0 0.0462151 0 0.142196)
(0.210547 0.031479 0 0.0483185 0 0.148282)
(0.219314 0.0330096 0 0.0504291 0 0.154373)
(0.228098 0.0345403 0 0.0525526 0 0.160486)
(0.236917 0.0360746 0 0.0546938 0 0.166635)
(0.245787 0.0376155 0 0.0568573 0 0.172833)
(0.254724 0.0391659 0 0.0590476 0 0.179093)
(0.263739 0.0407279 0 0.0612686 0 0.185425)
(0.272844 0.0423038 0 0.0635242 0 0.191839)
(0.282047 0.043895 0 0.065818 0 0.198343)
(0.291356 0.0455031 0 0.0681533 0 0.204945)
(0.300777 0.0471293 0 0.0705336 0 0.211652)
(0.310314 0.0487745 0 0.072962 0 0.218471)
(0.31997 0.0504394 0 0.0754417 0 0.225407)
(0.329749 0.0521245 0 0.0779759 0 0.232465)
(0.33965 0.0538303 0 0.080568 0 0.23965)
(0.349673 0.0555568 0 0.0832212 0 0.246966)
(0.359815 0.0573043 0 0.0859392 0 0.254416)
(0.370074 0.0590724 0 0.0887257 0 0.262003)
(0.380444 0.060861 0 0.0915848 0 0.269731)
(0.390917 0.0626694 0 0.094521 0 0.277601)
(0.401484 0.0644972 0 0.0975392 0 0.285613)
(0.412132 0.0663434 0 0.100645 0 0.29377)
(0.422848 0.0682068 0 0.103845 0 0.302069)
(0.433611 0.070086 0 0.107145 0 0.31051)
(0.444398 0.0719791 0 0.110553 0 0.319086)
(0.455183 0.0738833 0 0.11408 0 0.327793)
(0.465929 0.0757952 0 0.117733 0 0.336622)
(0.476597 0.0777105 0 0.121525 0 0.345559)
(0.487138 0.0796235 0 0.125468 0 0.354589)
(0.497497 0.0815266 0 0.129577 0 0.36369)
(0.507612 0.0834081 0 0.133868 0 0.372837)
(0.51741 0.0852539 0 0.138354 0 0.381997)
(0.526812 0.0870536 0 0.143052 0 0.391128)
(0.535724 0.088806 0 0.147982 0 0.400182)
(0.544081 0.0905117 0 0.153185 0 0.409131)
(0.551899 0.0921815 0 0.158718 0 0.418001)
(0.559176 0.0938313 0 0.164626 0 0.426808)
(0.565853 0.0954704 0 0.170926 0 0.43552)
(0.57188 0.0970939 0 0.177652 0 0.444117)
(0.577223 0.0987096 0 0.184845 0 0.4526)
(0.581974 0.100289 0 0.192602 0 0.461083)
(0.586053 0.101779 0 0.200976 0 0.469538)
(0.589375 0.10315 0 0.210026 0 0.477933)
(0.591823 0.104355 0 0.219809 0 0.486214)
(0.593267 0.105336 0 0.230389 0 0.494319)
(0.593551 0.106022 0 0.241838 0 0.502174)
(0.592474 0.106327 0 0.254247 0 0.509684)
(0.589748 0.106124 0 0.267745 0 0.516726)
(0.584917 0.105199 0 0.282557 0 0.523119)
(0.577096 0.103165 0 0.299217 0 0.52855)
(0.567125 0.0995773 0 0.315233 0 0.531719)
(0.557104 0.0948242 0 0.328225 0 0.533134)
(0.532651 0.0814119 0 0.350012 0 0.533436)
(0.513885 0.063722 0 0.365215 0 0.531735)
(0.500926 0.047505 0 0.378066 0 0.530872)
(0.483828 0.021849 0 0.396165 0 0.530207)
(0.476082 -0.00501601 0 0.411123 0 0.530873)
(0.475844 -0.0386661 0 0.418096 0 0.531971)
(0.489766 -0.0684849 0 0.40882 0 0.537561)
(0.503461 -0.0903697 0 0.407323 0 0.543807)
(0.516095 -0.110266 0 0.402291 0 0.545337)
(0.523155 -0.123074 0 0.392625 0 0.542561)
(0.528774 -0.133432 0 0.373724 0 0.534533)
(0.530672 -0.139253 0 0.345879 0 0.520015)
(0.527982 -0.140258 0 0.313407 0 0.500512)
(0.520406 -0.136904 0 0.277522 0 0.475951)
(0.509035 -0.13025 0 0.240754 0 0.447939)
(0.493062 -0.120447 0 0.205339 0 0.416981)
(0.463327 -0.106395 0 0.170323 0 0.377239)
(0.421988 -0.0893281 0 0.136776 0 0.331367)
(0.363604 -0.069349 0 0.104855 0 0.276485)
(0.287814 -0.0488911 0 0.0763093 0 0.214021)
(0.206057 -0.0321731 0 0.0525997 0 0.152721)
(0.146369 -0.0179943 0 0.0340345 0 0.105291)
(0.148717 -0.0122183 0 0.0306731 0 0.102656)
(0.166411 -0.0108568 0 0.0301895 0 0.108887)
(0.135054 -0.00704857 0 0.0247572 0 0.0885986)
(0.0841034 0.00527506 0 0.026895 0 0.072748)
(0.187582 0.022603 0 0.0569612 0 0.149498)
(0.405117 0.0509475 0 0.100369 0 0.295005)
(0.541083 0.0765352 0 0.13276 0 0.391199)
(0.649586 0.0970549 0 0.162566 0 0.47078)
(0.731001 0.112314 0 0.189566 0 0.533094)
(0.791032 0.122919 0 0.214554 0 0.581448)
(0.832923 0.129565 0 0.237727 0 0.617701)
(0.859036 0.132832 0 0.258904 0 0.643095)
(0.874175 0.133172 0 0.278363 0 0.660672)
(0.879739 0.130576 0 0.292154 0 0.669705)
(0.87919 0.127699 0 0.300642 0 0.673217)
(0.868938 0.123984 0 0.310713 0 0.673315)
(0.85135 0.117417 0 0.315373 0 0.666867)
(0.815356 0.100514 0 0.314849 0 0.651398)
(0.786939 0.0857957 0 0.313605 0 0.638623)
(0.756536 0.0709957 0 0.310716 0 0.62409)
(0.728615 0.0571412 0 0.307485 0 0.610368)
(0.70187 0.0436876 0 0.30409 0 0.596991)
(0.677066 0.0306241 0 0.300985 0 0.584504)
(0.65418 0.0177381 0 0.298395 0 0.572987)
(0.633367 0.00490178 0 0.296462 0 0.562545)
(0.614795 -0.00803279 0 0.295301 0 0.553303)
(0.598884 -0.0213151 0 0.29508 0 0.545515)
(0.585839 -0.0351149 0 0.295804 0 0.539231)