/*--------------------------------*- C++ -*----------------------------------*\
| =========                 |                                                 |
| \\      /  F ield         | OpenFOAM: The Open Source CFD Toolbox           |
|  \\    /   O peration     | Version:  v1906                                 |
|   \\  /    A nd           | Web:      www.OpenFOAM.com                      |
|    \\/     M anipulation  |                                                 |
\*---------------------------------------------------------------------------*/
FoamFile
{
    version     2.0;
    format      ascii;
    class       volVectorField;
    location    "1800";
    object      U;
}
// * * * * * * * * * * * * * * * * * * * * * * * * * * * * * * * * * * * * * //

dimensions      [0 1 -1 0 0 0 0];


internalField   nonuniform List<vector> 
12225
(
(9.79813 -0.0863249 0)
(9.5135 -0.30748 0)
(9.2723 -0.419757 0)
(9.07731 -0.461223 0)
(8.9173 -0.474608 0)
(8.77775 -0.477999 0)
(8.65304 -0.477477 0)
(8.5413 -0.475167 0)
(8.44095 -0.471898 0)
(8.35059 -0.468014 0)
(8.26936 -0.463623 0)
(8.1955 -0.458672 0)
(8.12841 -0.45355 0)
(8.06786 -0.448531 0)
(8.01473 -0.443906 0)
(7.97015 -0.440896 0)
(7.93646 -0.435277 0)
(7.91997 -0.455198 0)
(10.05 0.146796 0)
(10.0863 0.250762 0)
(10.0598 0.305935 0)
(10.017 0.343304 0)
(9.97421 0.365718 0)
(9.93109 0.378627 0)
(9.88862 0.386384 0)
(9.84791 0.390969 0)
(9.80909 0.393286 0)
(9.77189 0.394003 0)
(9.7365 0.393612 0)
(9.70303 0.39243 0)
(9.67162 0.390494 0)
(9.64201 0.387938 0)
(9.61437 0.38427 0)
(9.58778 0.380459 0)
(9.56441 0.371637 0)
(9.54075 0.36524 0)
(10.0185 0.00426118 0)
(10.0533 -0.0206722 0)
(10.0427 -0.0638477 0)
(10.0195 -0.10196 0)
(9.99799 -0.133073 0)
(9.97752 -0.157318 0)
(9.95802 -0.17552 0)
(9.93985 -0.189374 0)
(9.92281 -0.200225 0)
(9.90674 -0.208925 0)
(9.89153 -0.215929 0)
(9.87742 -0.221651 0)
(9.86425 -0.226411 0)
(9.85249 -0.230828 0)
(9.84155 -0.235036 0)
(9.83224 -0.240443 0)
(9.82385 -0.246172 0)
(9.80919 -0.26157 0)
(10.0096 0.0630262 0)
(10.0374 0.10458 0)
(10.0478 0.125929 0)
(10.0489 0.147282 0)
(10.0471 0.16597 0)
(10.0424 0.181054 0)
(10.0358 0.193244 0)
(10.0287 0.202988 0)
(10.0215 0.210698 0)
(10.0143 0.216808 0)
(10.0073 0.22167 0)
(10.0007 0.225519 0)
(9.99473 0.228418 0)
(9.98947 0.230357 0)
(9.9849 0.231219 0)
(9.98119 0.230727 0)
(9.97828 0.22839 0)
(9.97739 0.223312 0)
(10.0105 0.0166145 0)
(10.0426 0.0212131 0)
(10.057 0.0117457 0)
(10.0612 -0.00152445 0)
(10.0626 -0.0167783 0)
(10.062 -0.0321399 0)
(10.0603 -0.0460525 0)
(10.0584 -0.0582734 0)
(10.0564 -0.0690467 0)
(10.0543 -0.0785963 0)
(10.0523 -0.0871208 0)
(10.0504 -0.0948395 0)
(10.0488 -0.102011 0)
(10.0475 -0.108979 0)
(10.0466 -0.116014 0)
(10.0454 -0.123854 0)
(10.0448 -0.132091 0)
(10.0377 -0.144127 0)
(10.0059 0.0365457 0)
(10.0279 0.0671505 0)
(10.0436 0.0811737 0)
(10.0541 0.0920301 0)
(10.0624 0.101484 0)
(10.0684 0.109891 0)
(10.0725 0.117621 0)
(10.0755 0.124568 0)
(10.0779 0.130651 0)
(10.0798 0.135922 0)
(10.0815 0.140454 0)
(10.083 0.14429 0)
(10.0846 0.147413 0)
(10.0863 0.149722 0)
(10.0882 0.151146 0)
(10.0901 0.1514 0)
(10.0919 0.150493 0)
(10.0957 0.148709 0)
(10.005 0.0137816 0)
(10.025 0.0241693 0)
(10.0402 0.0247753 0)
(10.0499 0.0211542 0)
(10.057 0.0146897 0)
(10.062 0.00664163 0)
(10.0658 -0.00177456 0)
(10.069 -0.0100518 0)
(10.0718 -0.0180214 0)
(10.0744 -0.0256211 0)
(10.0768 -0.0328612 0)
(10.0792 -0.0398224 0)
(10.0816 -0.046633 0)
(10.0838 -0.0534996 0)
(10.0861 -0.0605355 0)
(10.0877 -0.0681619 0)
(10.0889 -0.0759202 0)
(10.0858 -0.0858227 0)
(10.0034 0.0223612 0)
(10.0185 0.0470986 0)
(10.0323 0.0600974 0)
(10.0436 0.0685272 0)
(10.0535 0.0747356 0)
(10.0618 0.079837 0)
(10.0688 0.0844916 0)
(10.075 0.0888047 0)
(10.0804 0.092749 0)
(10.0854 0.09631 0)
(10.0901 0.0994739 0)
(10.0945 0.102207 0)
(10.0988 0.104461 0)
(10.1029 0.106141 0)
(10.1069 0.107203 0)
(10.1109 0.107538 0)
(10.1144 0.107153 0)
(10.1195 0.107057 0)
(10.002 0.0100949 0)
(10.0135 0.0207612 0)
(10.0259 0.0246233 0)
(10.036 0.0247258 0)
(10.0445 0.0221956 0)
(10.0514 0.0179754 0)
(10.0573 0.0128917 0)
(10.0624 0.00736789 0)
(10.0671 0.00163098 0)
(10.0714 -0.00419222 0)
(10.0755 -0.0100489 0)
(10.0793 -0.0159515 0)
(10.083 -0.0219429 0)
(10.0865 -0.0281263 0)
(10.0896 -0.0345244 0)
(10.092 -0.0413412 0)
(10.0938 -0.0482375 0)
(10.0928 -0.0566189 0)
(10.0019 0.0139581 0)
(10.0121 0.0334944 0)
(10.0233 0.0453891 0)
(10.0335 0.0531008 0)
(10.0431 0.0583567 0)
(10.0517 0.0622783 0)
(10.0595 0.0655612 0)
(10.0666 0.0684709 0)
(10.0731 0.0711022 0)
(10.0792 0.0734853 0)
(10.0849 0.0756179 0)
(10.0903 0.0774711 0)
(10.0955 0.0790139 0)
(10.1004 0.0801923 0)
(10.1051 0.0810075 0)
(10.1096 0.0814684 0)
(10.1137 0.0815941 0)
(10.1187 0.0825284 0)
(10.0006 0.0070714 0)
(10.0071 0.0162122 0)
(10.0164 0.0206591 0)
(10.0252 0.0220899 0)
(10.0336 0.0212721 0)
(10.0409 0.0189208 0)
(10.0474 0.0156068 0)
(10.0533 0.0116621 0)
(10.0588 0.00729394 0)
(10.0638 0.00262779 0)
(10.0685 -0.00226838 0)
(10.0729 -0.00737504 0)
(10.0771 -0.0126918 0)
(10.0809 -0.0182554 0)
(10.0843 -0.0240569 0)
(10.087 -0.0302006 0)
(10.0892 -0.036437 0)
(10.0897 -0.043827 0)
(10.001 0.00884046 0)
(10.008 0.023257 0)
(10.0168 0.0329792 0)
(10.0255 0.039584 0)
(10.0342 0.0440141 0)
(10.0423 0.0471184 0)
(10.0498 0.0494564 0)
(10.0569 0.0513277 0)
(10.0635 0.05289 0)
(10.0697 0.0542201 0)
(10.0755 0.0553519 0)
(10.0811 0.0562876 0)
(10.0863 0.0570314 0)
(10.0912 0.0575674 0)
(10.0958 0.0579412 0)
(10.1001 0.0581939 0)
(10.104 0.0583813 0)
(10.1084 0.0595305 0)
(10.0001 0.00513202 0)
(10.004 0.0124546 0)
(10.0111 0.0164314 0)
(10.0186 0.0181386 0)
(10.0262 0.0179909 0)
(10.0333 0.0165406 0)
(10.0399 0.0141724 0)
(10.046 0.0111482 0)
(10.0518 0.00763978 0)
(10.0571 0.00375686 0)
(10.0621 -0.000434084 0)
(10.0667 -0.00489918 0)
(10.071 -0.00962251 0)
(10.0749 -0.0146005 0)
(10.0785 -0.0198367 0)
(10.0815 -0.0253598 0)
(10.0841 -0.0310814 0)
(10.0861 -0.0378952 0)
(10.0006 0.00592861 0)
(10.0056 0.0169824 0)
(10.0126 0.0253381 0)
(10.02 0.0316497 0)
(10.0277 0.036296 0)
(10.0352 0.039853 0)
(10.0424 0.04271 0)
(10.0493 0.0451279 0)
(10.0559 0.0472655 0)
(10.0621 0.049214 0)
(10.0679 0.0510268 0)
(10.0734 0.052729 0)
(10.0786 0.0543496 0)
(10.0834 0.0559022 0)
(10.0879 0.0574477 0)
(10.092 0.0590574 0)
(10.0956 0.0606996 0)
(10.0989 0.0633954 0)
(9.99991 0.00279425 0)
(10.0022 0.00676152 0)
(10.0072 0.00858713 0)
(10.0132 0.00887217 0)
(10.0197 0.00779242 0)
(10.0262 0.00568509 0)
(10.0325 0.0027754 0)
(10.0386 -0.000762769 0)
(10.0443 -0.00480647 0)
(10.0496 -0.00927019 0)
(10.0547 -0.0140976 0)
(10.0594 -0.0192488 0)
(10.0638 -0.0247054 0)
(10.0679 -0.0304427 0)
(10.0716 -0.0364684 0)
(10.0751 -0.0427831 0)
(10.0783 -0.0492532 0)
(10.0816 -0.0566852 0)
(10.0003 0.00363526 0)
(10.0035 0.011057 0)
(10.0086 0.0174857 0)
(10.0144 0.0230333 0)
(10.0207 0.0277488 0)
(10.0272 0.0318763 0)
(10.0335 0.0356085 0)
(10.0396 0.0390994 0)
(10.0455 0.0424585 0)
(10.0511 0.045757 0)
(10.0563 0.0490437 0)
(10.0611 0.0523472 0)
(10.0656 0.0556958 0)
(10.0696 0.0591031 0)
(10.0732 0.0625953 0)
(10.0763 0.0662163 0)
(10.0789 0.0697937 0)
(10.0807 0.0742308 0)
(10.0001 0.000174524 0)
(10.0021 -0.00029235 0)
(10.0062 -0.00189295 0)
(10.0113 -0.00436456 0)
(10.0172 -0.00764948 0)
(10.0235 -0.0116133 0)
(10.0298 -0.0161607 0)
(10.036 -0.021214 0)
(10.0421 -0.0267122 0)
(10.048 -0.0326052 0)
(10.0536 -0.0388541 0)
(10.059 -0.0454219 0)
(10.0641 -0.0522737 0)
(10.069 -0.059363 0)
(10.0736 -0.0666522 0)
(10.0782 -0.0741065 0)
(10.0825 -0.0815001 0)
(10.0871 -0.089509 0)
(9.99998 0.00193451 0)
(10.0014 0.00616128 0)
(10.0045 0.0106121 0)
(10.0084 0.0152339 0)
(10.0128 0.0199843 0)
(10.0174 0.0248793 0)
(10.022 0.0299311 0)
(10.0264 0.0351524 0)
(10.0305 0.0405506 0)
(10.0343 0.0461254 0)
(10.0377 0.0518694 0)
(10.0407 0.0577719 0)
(10.0433 0.0638056 0)
(10.0454 0.0699463 0)
(10.0472 0.0761352 0)
(10.0484 0.0823831 0)
(10.0494 0.0883993 0)
(10.0495 0.0949267 0)
(10.0004 -0.0031831 0)
(10.0038 -0.00994102 0)
(10.0093 -0.0168363 0)
(10.0159 -0.0238042 0)
(10.0232 -0.0308888 0)
(10.031 -0.0381448 0)
(10.039 -0.0456231 0)
(10.0471 -0.0533555 0)
(10.0551 -0.0613526 0)
(10.063 -0.0696083 0)
(10.0707 -0.0781027 0)
(10.0782 -0.0868064 0)
(10.0855 -0.0956809 0)
(10.0925 -0.104681 0)
(10.0991 -0.113747 0)
(10.1056 -0.122834 0)
(10.1114 -0.131766 0)
(10.1171 -0.140835 0)
(9.9996 -0.00142178 0)
(9.99969 -0.0029121 0)
(10.0017 -0.00284381 0)
(10.0045 -0.00157647 0)
(10.0077 0.000721111 0)
(10.0108 0.00386974 0)
(10.0137 0.00769914 0)
(10.0162 0.0120673 0)
(10.0184 0.0168586 0)
(10.0202 0.0219816 0)
(10.0217 0.0273699 0)
(10.0227 0.0329777 0)
(10.0235 0.0387836 0)
(10.0238 0.0447746 0)
(10.024 0.050969 0)
(10.0239 0.0573712 0)
(10.024 0.063955 0)
(10.0238 0.0710462 0)
(10.0008 -0.00559001 0)
(10.0062 -0.0165632 0)
(10.0136 -0.0258641 0)
(10.0215 -0.0338388 0)
(10.03 -0.0408614 0)
(10.0385 -0.0472932 0)
(10.047 -0.0534138 0)
(10.0552 -0.0593887 0)
(10.0632 -0.0653026 0)
(10.0709 -0.0711943 0)
(10.0782 -0.0770784 0)
(10.0854 -0.0829616 0)
(10.0923 -0.0888569 0)
(10.0991 -0.0947856 0)
(10.1056 -0.100804 0)
(10.1122 -0.106976 0)
(10.1182 -0.113386 0)
(10.1246 -0.120402 0)
(9.99962 -0.00390349 0)
(10.0011 -0.0091791 0)
(10.0053 -0.0114557 0)
(10.0097 -0.0115165 0)
(10.0138 -0.00975187 0)
(10.0174 -0.00657258 0)
(10.0204 -0.00240286 0)
(10.0229 0.00241945 0)
(10.0249 0.00764221 0)
(10.0264 0.0130787 0)
(10.0276 0.0185972 0)
(10.0285 0.0241142 0)
(10.0289 0.0295892 0)
(10.0289 0.0350195 0)
(10.0286 0.0404641 0)
(10.0275 0.0460232 0)
(10.0264 0.0518782 0)
(10.0239 0.0585565 0)
(10.0015 -0.0108266 0)
(10.01 -0.0288053 0)
(10.0202 -0.0416164 0)
(10.0302 -0.051485 0)
(10.0402 -0.0597001 0)
(10.0496 -0.0670128 0)
(10.0584 -0.073879 0)
(10.0665 -0.0804773 0)
(10.0739 -0.0868412 0)
(10.0809 -0.092963 0)
(10.0873 -0.0988249 0)
(10.0934 -0.104412 0)
(10.0993 -0.109719 0)
(10.1051 -0.114759 0)
(10.1108 -0.119591 0)
(10.1171 -0.124332 0)
(10.1234 -0.129231 0)
(10.1315 -0.134943 0)
(10.0008 -0.00658394 0)
(10.0076 -0.0140969 0)
(10.0161 -0.0159653 0)
(10.0226 -0.0141739 0)
(10.0274 -0.00965383 0)
(10.031 -0.00326779 0)
(10.0336 0.00407017 0)
(10.0355 0.0117417 0)
(10.0371 0.0193862 0)
(10.0383 0.0267789 0)
(10.0393 0.0337849 0)
(10.04 0.0403332 0)
(10.0404 0.0463877 0)
(10.0404 0.0519371 0)
(10.0399 0.0570064 0)
(10.0384 0.0616776 0)
(10.0362 0.0662207 0)
(10.0305 0.0714383 0)
(10.0028 -0.0223638 0)
(10.0166 -0.0495624 0)
(10.0305 -0.0656389 0)
(10.0423 -0.0781541 0)
(10.0529 -0.0893161 0)
(10.0619 -0.0996236 0)
(10.0692 -0.109332 0)
(10.0754 -0.118419 0)
(10.0806 -0.126776 0)
(10.085 -0.134367 0)
(10.0889 -0.141208 0)
(10.0924 -0.147332 0)
(10.0955 -0.152765 0)
(10.0985 -0.157532 0)
(10.1016 -0.161636 0)
(10.1054 -0.165107 0)
(10.1097 -0.168071 0)
(10.1186 -0.171201 0)
(10.005 -0.00896767 0)
(10.0242 -0.0145028 0)
(10.0367 -0.00931172 0)
(10.0418 0.0010276 0)
(10.0441 0.0142979 0)
(10.0449 0.0286542 0)
(10.0448 0.0424705 0)
(10.0443 0.0550681 0)
(10.0437 0.0663207 0)
(10.043 0.0762597 0)
(10.0421 0.0849717 0)
(10.0411 0.0925659 0)
(10.0399 0.0991402 0)
(10.0385 0.104767 0)
(10.0369 0.109471 0)
(10.0344 0.113244 0)
(10.0312 0.116131 0)
(10.0221 0.118684 0)
(10.0055 -0.0480297 0)
(10.0268 -0.088098 0)
(10.0417 -0.110846 0)
(10.0497 -0.13254 0)
(10.0547 -0.152549 0)
(10.0567 -0.169668 0)
(10.0564 -0.184141 0)
(10.0548 -0.196245 0)
(10.0524 -0.20621 0)
(10.0497 -0.214356 0)
(10.0467 -0.221001 0)
(10.0436 -0.22639 0)
(10.0404 -0.230706 0)
(10.0373 -0.234097 0)
(10.0343 -0.236619 0)
(10.0319 -0.23829 0)
(10.03 -0.238944 0)
(10.035 -0.23851 0)
(10.0144 -0.000913305 0)
(10.0466 0.0157687 0)
(10.0451 0.0507085 0)
(10.0306 0.0850472 0)
(10.0161 0.115025 0)
(10.0026 0.139534 0)
(9.98965 0.15861 0)
(9.9775 0.173282 0)
(9.96614 0.184677 0)
(9.95535 0.193581 0)
(9.94501 0.200523 0)
(9.93509 0.20589 0)
(9.92555 0.209967 0)
(9.9163 0.212965 0)
(9.90742 0.214982 0)
(9.89835 0.216096 0)
(9.88964 0.216099 0)
(9.87414 0.215128 0)
(10.0327 -0.1241 0)
(10.0632 -0.217281 0)
(10.0515 -0.267666 0)
(10.0252 -0.303994 0)
(9.99882 -0.327359 0)
(9.97286 -0.341639 0)
(9.94751 -0.350663 0)
(9.92366 -0.356328 0)
(9.9013 -0.359593 0)
(9.88012 -0.361094 0)
(9.85992 -0.361273 0)
(9.84059 -0.360436 0)
(9.82206 -0.358793 0)
(9.8043 -0.356525 0)
(9.78721 -0.353721 0)
(9.77122 -0.350598 0)
(9.75603 -0.346846 0)
(9.74934 -0.342215 0)
(9.86208 0.0595877 0)
(9.66859 0.23528 0)
(9.4944 0.33668 0)
(9.34886 0.379479 0)
(9.22824 0.395453 0)
(9.12118 0.400416 0)
(9.02279 0.400484 0)
(8.932 0.398233 0)
(8.84805 0.394817 0)
(8.77019 0.390725 0)
(8.69789 0.386167 0)
(8.63073 0.381257 0)
(8.5683 0.376062 0)
(8.51017 0.370634 0)
(8.45594 0.364938 0)
(8.40505 0.3591 0)
(8.35699 0.352096 0)
(8.30696 0.344548 0)
(-0.00627299 -0.104143 -2.20755e-19)
(0.104547 -0.141185 1.32335e-19)
(0.181685 -0.156631 0)
(0.251643 -0.147353 0)
(0.314402 -0.136289 0)
(0.369868 -0.124659 -6.27678e-20)
(0.419199 -0.114859 0)
(0.464123 -0.105898 0)
(0.504995 -0.0980909 0)
(0.542049 -0.0909675 0)
(0.575305 -0.0844911 4.76332e-20)
(0.60482 -0.0784166 0)
(0.630547 -0.0726479 0)
(0.652463 -0.0669983 0)
(0.670332 -0.061334 0)
(0.684149 -0.0553522 4.30234e-20)
(0.69298 -0.0487875 0)
(0.696985 -0.0408173 0)
(0.693688 -0.0305313 0)
(0.682417 -0.0187186 0)
(0.66304 -0.00678381 0)
(0.635931 0.00392986 0)
(0.602126 0.0124188 0)
(0.563273 0.0181427 4.93188e-20)
(0.521231 0.0210699 -5.18845e-20)
(0.477813 0.0215686 5.48384e-20)
(0.43474 0.0201693 5.81735e-20)
(0.393291 0.0173725 0)
(0.354992 0.0131404 0)
(0.32102 0.0079933 -6.99768e-20)
(0.292493 0.00244761 -7.39588e-20)
(0.269391 -0.00369751 0)
(0.250213 -0.00999025 0)
(0.232953 -0.0158393 -8.39894e-20)
(0.215006 -0.0204412 0)
(0.193844 -0.0229075 0)
(0.167921 -0.0219944 9.69769e-20)
(0.134532 -0.0162997 0)
(0.091684 -0.00801331 1.18577e-19)
(0.0390645 -0.00373452 2.79366e-19)
(-0.0219401 -0.00205964 0)
(-0.0862437 0.00302258 0)
(-0.155294 0.00814329 0)
(-0.229037 0.0118117 0)
(-0.306276 0.0140273 0)
(-0.384701 0.0156043 1.20959e-19)
(-0.464005 0.0169163 1.07786e-19)
(-0.544237 0.0174975 9.73195e-20)
(-0.624284 0.0170311 0)
(-0.703427 0.0154898 -8.19932e-20)
(-0.780978 0.0129678 0)
(-0.85645 0.00963257 7.15564e-20)
(-0.929511 0.00568305 6.75573e-20)
(-0.999983 0.00135113 0)
(-1.06776 -0.00312979 0)
(-1.13297 -0.00763745 0)
(-1.19584 -0.0121514 5.64287e-20)
(-1.25651 -0.0166453 0)
(-1.31518 -0.0210962 0)
(-1.37204 -0.0254988 0)
(-1.4273 -0.0298564 0)
(-1.48113 -0.0341814 0)
(-1.5337 -0.0384897 0)
(-1.58514 -0.0428019 0)
(-1.63558 -0.0471383 0)
(-1.68513 -0.0515211 -4.39208e-20)
(-1.73389 -0.0559703 0)
(-1.78191 -0.0605067 0)
(-1.82926 -0.0651481 4.13083e-20)
(-1.87598 -0.0699124 4.0529e-20)
(-1.92209 -0.0748148 0)
(-1.96762 -0.0798705 -3.90809e-20)
(-2.01257 -0.085092 3.84054e-20)
(-2.05692 -0.0904918 0)
(-2.10067 -0.0960798 -3.71378e-20)
(-2.14378 -0.101866 0)
(-2.18622 -0.107858 0)
(-2.22794 -0.114064 3.54128e-20)
(-2.26888 -0.120489 0)
(-2.30897 -0.12714 -3.43604e-20)
(-2.34812 -0.134018 0)
(-2.38623 -0.141129 3.33731e-20)
(-2.42319 -0.148471 3.2901e-20)
(-2.45885 -0.156048 3.2442e-20)
(-2.49305 -0.163854 6.39903e-20)
(-2.52562 -0.171883 -6.31191e-20)
(-2.55632 -0.180118 0)
(-2.58491 -0.188535 0)
(-2.61111 -0.19709 0)
(-2.63457 -0.205726 -5.9832e-20)
(-2.65493 -0.214361 -5.90527e-20)
(-2.67178 -0.222839 5.82878e-20)
(-2.68473 -0.230889 0)
(-2.69331 -0.238104 -5.67952e-20)
(-2.69709 -0.244222 -5.60296e-20)
(-2.69627 -0.249549 -5.51988e-20)
(-2.69128 -0.254796 0)
(-2.68169 -0.260481 0)
(-2.66705 -0.266839 0)
(-2.64676 -0.27399 -5.14783e-20)
(-2.62007 -0.282018 0)
(-2.58615 -0.290995 0)
(-2.54413 -0.301 4.79436e-20)
(-2.49304 -0.312115 0)
(-2.43189 -0.324426 0)
(-2.35963 -0.338014 4.33252e-20)
(-2.2752 -0.352943 0)
(-2.17739 -0.369261 0)
(-2.06502 -0.387025 -3.72192e-20)
(-1.93728 -0.406158 -3.47685e-20)
(-1.79306 -0.426179 0)
(-1.62995 -0.447236 2.91129e-20)
(-1.44881 -0.472063 0)
(-1.25008 -0.49947 -2.2207e-20)
(-1.02885 -0.528708 0)
(-0.786291 -0.562795 -1.37096e-20)
(-0.527412 -0.600439 -8.6425e-21)
(-0.253588 -0.635447 0)
(0.0341778 -0.644286 0)
(0.351712 -0.615752 0)
(0.685182 -0.581919 0)
(1.01634 -0.550319 0)
(1.33118 -0.518105 0)
(1.61868 -0.485273 0)
(1.87041 -0.452299 -1.99699e-21)
(2.07899 -0.418529 3.96177e-21)
(2.23236 -0.386614 0)
(2.32749 -0.352354 0)
(2.30713 -0.278415 0)
(2.15146 -0.167885 0)
(1.86274 -0.0572052 7.41435e-21)
(1.48995 0.0131679 0)
(1.13631 0.0205189 9.06327e-21)
(0.827607 0.00730087 -1.64804e-20)
(0.602675 0.00199957 0)
(0.523895 -0.0576997 0)
(0.479383 -0.100157 0)
(0.00510077 0.0408487 2.96729e-20)
(-0.75796 0.110573 5.96022e-21)
(-1.42521 0.0574553 0)
(-1.99968 -0.0337789 -2.7906e-20)
(-2.44307 -0.131945 -3.71678e-20)
(-2.75814 -0.219377 4.2929e-20)
(-2.96064 -0.2884 0)
(-3.06668 -0.335386 0)
(-3.09411 -0.361525 4.41893e-20)
(-3.06522 -0.373623 0)
(-3.00407 -0.381914 0)
(-2.91774 -0.388926 0)
(-2.81278 -0.395274 0)
(-2.69232 -0.400242 -6.13819e-21)
(-2.56294 -0.404512 5.63457e-21)
(-2.42776 -0.409694 0)
(-2.28718 -0.414598 3.2522e-20)
(-2.14419 -0.419959 0)
(-1.99856 -0.425924 0)
(-1.85091 -0.43276 8.19279e-20)
(-1.70083 -0.440717 0)
(-1.54793 -0.450042 1.22964e-19)
(-1.39147 -0.460985 0)
(-1.23064 -0.47379 0)
(-1.06471 -0.48881 2.05557e-19)
(-0.893218 -0.506355 0)
(-0.71518 -0.52641 2.85861e-19)
(-0.529844 -0.549632 0)
(-0.338804 -0.576522 0)
(-0.143744 -0.604112 0)
(0.0613788 -0.604521 -5.28244e-19)
(0.277882 -0.575358 0)
(0.502219 -0.550005 4.3066e-19)
(0.728025 -0.529794 0)
(0.95247 -0.512737 0)
(1.17479 -0.497576 0)
(1.39225 -0.483455 0)
(1.60539 -0.469932 0)
(1.80846 -0.45736 0)
(2.00441 -0.444942 0)
(2.1739 -0.432701 -5.32547e-19)
(2.3414 -0.416511 0)
(2.39216 -0.407759 0)
(-0.0398162 -0.22185 4.12507e-19)
(0.121734 -0.218439 -2.30258e-19)
(0.125886 -0.202778 0)
(0.168054 -0.156321 7.92857e-20)
(0.195133 -0.136209 0)
(0.229135 -0.11399 3.06089e-20)
(0.26031 -0.101752 -5.72373e-20)
(0.293471 -0.0891366 -5.41969e-20)
(0.324182 -0.0790186 0)
(0.353203 -0.0681524 -4.99887e-20)
(0.379263 -0.0577965 -2.41128e-20)
(0.402594 -0.0471018 0)
(0.42289 -0.0365295 0)
(0.44029 -0.0257565 0)
(0.454787 -0.0148435 0)
(0.466526 -0.00334352 -2.20612e-20)
(0.476118 0.00898578 0)
(0.483421 0.0231046 4.40617e-20)
(0.489456 0.039228 0)
(0.490215 0.0565061 0)
(0.483148 0.0737539 -4.40592e-20)
(0.467411 0.0896146 0)
(0.443496 0.102843 4.45556e-20)
(0.412769 0.112488 -2.22679e-20)
(0.377006 0.118044 2.22606e-20)
(0.338125 0.119424 -2.21737e-20)
(0.29784 0.116907 -2.20977e-20)
(0.257433 0.11093 0)
(0.217325 0.101554 0)
(0.177211 0.0891048 2.2749e-20)
(0.135741 0.0758794 -2.34249e-20)
(0.0913455 0.0656782 0)
(0.042063 0.0615037 0)
(-0.0136901 0.0643582 2.51406e-20)
(-0.0769477 0.0735608 0)
(-0.147913 0.087658 0)
(-0.225991 0.105125 -2.24358e-20)
(-0.309157 0.123931 0)
(-0.395079 0.141971 2.07044e-20)
(-0.483189 0.157842 -3.93663e-20)
(-0.573362 0.171348 0)
(-0.664194 0.182524 0)
(-0.753844 0.191086 -7.06816e-20)
(-0.840875 0.196874 -6.84584e-20)
(-0.92439 0.199983 -6.65583e-20)
(-1.00357 0.200869 3.271e-20)
(-1.07768 0.19996 -3.15195e-20)
(-1.14614 0.197496 -9.30779e-20)
(-1.2088 0.193722 6.09968e-20)
(-1.26582 0.188996 2.97065e-20)
(-1.31755 0.183665 0)
(-1.36443 0.178066 -2.87165e-20)
(-1.40699 0.172485 2.86961e-20)
(-1.44573 0.167169 0)
(-1.48115 0.162314 0)
(-1.51366 0.158033 0)
(-1.54364 0.15436 -2.6876e-20)
(-1.57142 0.151292 0)
(-1.59731 0.14881 5.29668e-20)
(-1.62153 0.146879 0)
(-1.64429 0.145458 5.19845e-20)
(-1.66576 0.144504 0)
(-1.68607 0.143974 -5.11177e-20)
(-1.70534 0.143824 0)
(-1.72365 0.144017 5.03385e-20)
(-1.74107 0.144519 -2.51324e-20)
(-1.75768 0.145301 0)
(-1.77352 0.146335 -4.92871e-20)
(-1.78863 0.147598 -2.4332e-20)
(-1.80306 0.149072 -2.41706e-20)
(-1.81685 0.150738 0)
(-1.83002 0.15258 -2.41643e-20)
(-1.84261 0.154585 -2.37015e-20)
(-1.85466 0.156737 0)
(-1.86619 0.159025 2.33946e-20)
(-1.87725 0.161434 -4.68183e-20)
(-1.88787 0.16395 0)
(-1.89808 0.166556 -2.29298e-20)
(-1.90793 0.169234 0)
(-1.91747 0.171962 6.82037e-20)
(-1.92675 0.174715 0)
(-1.93582 0.177464 -6.72185e-20)
(-1.94475 0.180174 -2.20951e-20)
(-1.9536 0.182804 2.23456e-20)
(-1.96244 0.185306 4.43439e-20)
(-1.97136 0.187621 -4.39824e-20)
(-1.98043 0.189682 0)
(-1.98974 0.191405 0)
(-1.99938 0.192692 0)
(-2.00941 0.193426 1.24854e-19)
(-2.0199 0.193466 4.07358e-20)
(-2.0309 0.192644 -4.02037e-20)
(-2.04233 0.190791 0)
(-2.05407 0.187837 -4.04539e-20)
(-2.06592 0.183839 3.84758e-20)
(-2.07653 0.178935 3.78383e-20)
(-2.08458 0.173049 0)
(-2.0888 0.166526 0)
(-2.08832 0.159335 0)
(-2.08232 0.151423 3.48387e-20)
(-2.07004 0.14274 0)
(-2.05068 0.133237 -6.85412e-20)
(-2.0234 0.122868 -9.87064e-20)
(-1.98734 0.111592 6.45867e-20)
(-1.94161 0.099385 0)
(-1.8853 0.086216 3.14944e-20)
(-1.81748 0.0720324 0)
(-1.73723 0.0567785 5.37696e-20)
(-1.64359 0.0404499 -2.72552e-20)
(-1.53575 0.0229022 -2.55718e-20)
(-1.41284 0.00371557 0)
(-1.27349 -0.0163886 -5.49474e-20)
(-1.11756 -0.0362467 3.3869e-20)
(-0.942815 -0.0589421 1.15029e-20)
(-0.747305 -0.0837551 0)
(-0.531053 -0.108626 6.14285e-21)
(-0.291104 -0.138595 1.87118e-20)
(-0.0226159 -0.17665 0)
(0.273964 -0.206229 6.24195e-21)
(0.57226 -0.215854 3.59735e-21)
(0.863028 -0.208794 2.53745e-21)
(1.14388 -0.187754 0)
(1.40492 -0.155303 0)
(1.63721 -0.113372 0)
(1.83287 -0.0636276 -6.38346e-21)
(1.98752 -0.00542575 -2.49207e-21)
(2.09456 0.0662283 0)
(2.1549 0.158979 -1.29128e-20)
(2.22543 0.248631 -1.30317e-20)
(2.26802 0.334974 0)
(2.18904 0.404235 -4.2244e-21)
(1.95484 0.414088 -6.17545e-21)
(1.58603 0.381307 -4.00276e-21)
(1.18669 0.315177 -3.05257e-21)
(0.93968 0.176671 0)
(0.609974 0.152028 0)
(-0.113962 0.422806 0)
(-0.944889 0.663852 -8.175e-21)
(-1.57017 0.713012 -8.23442e-21)
(-1.95708 0.645307 -2.29741e-20)
(-2.18593 0.552522 1.51887e-20)
(-2.31412 0.468048 -2.89407e-20)
(-2.39037 0.398483 -2.67044e-20)
(-2.44114 0.339128 0)
(-2.47901 0.284902 0)
(-2.50662 0.234485 3.29936e-20)
(-2.5125 0.19066 0)
(-2.48368 0.157595 0)
(-2.42659 0.132942 -3.61877e-20)
(-2.34794 0.115854 0)
(-2.25291 0.103114 -9.19958e-21)
(-2.14711 0.0944847 -3.09994e-21)
(-2.03151 0.0895163 0)
(-1.91063 0.0865287 1.10547e-20)
(-1.78571 0.0850579 0)
(-1.65804 0.0842716 0)
(-1.52805 0.0837627 -3.99458e-20)
(-1.39565 0.0831351 8.96264e-20)
(-1.26042 0.0821447 -5.65855e-20)
(-1.12167 0.080649 0)
(-0.978545 0.0785849 0)
(-0.830108 0.0759167 7.73875e-20)
(-0.675464 0.072547 0)
(-0.513397 0.0681927 9.85248e-20)
(-0.344093 0.0630296 0)
(-0.164732 0.05601 0)
(0.0262599 0.0453015 0)
(0.230495 0.0329684 1.44646e-19)
(0.441912 0.0264087 0)
(0.65516 0.0264331 -1.43835e-19)
(0.870447 0.0296364 0)
(1.08606 0.034291 0)
(1.301 0.0396589 2.75341e-19)
(1.51269 0.0460474 -2.73105e-19)
(1.72071 0.0530197 0)
(1.91983 0.0629873 0)
(2.11244 0.0747245 0)
(2.2834 0.0925908 8.00098e-19)
(2.44976 0.120788 0)
(2.56663 0.17905 -5.39316e-19)
(-0.124679 -0.347029 -1.57741e-22)
(0.0985738 -0.272992 2.68435e-19)
(0.00637688 -0.268891 0)
(0.0730333 -0.229693 -1.22849e-19)
(0.0578374 -0.232025 0)
(0.0950406 -0.217962 0)
(0.107445 -0.214818 -7.18406e-23)
(0.136454 -0.200341 3.69124e-20)
(0.156271 -0.187468 3.48272e-20)
(0.179294 -0.169926 3.31214e-20)
(0.196853 -0.153531 0)
(0.213221 -0.135941 0)
(0.225302 -0.119221 -2.9766e-20)
(0.234166 -0.102237 -5.80353e-20)
(0.238491 -0.0857884 5.69195e-20)
(0.238668 -0.0696725 0)
(0.234652 -0.0547407 5.59578e-20)
(0.227038 -0.0381227 -2.79516e-20)
(0.215945 -0.0127761 0)
(0.201302 0.0230646 5.61397e-20)
(0.182698 0.0633504 2.81362e-20)
(0.160241 0.10128 -5.68808e-20)
(0.134329 0.132448 -2.86878e-20)
(0.105518 0.154882 0)
(0.0741636 0.16822 5.95932e-20)
(0.0403328 0.173347 6.08898e-20)
(0.0035755 0.172083 0)
(-0.0368903 0.166961 6.16511e-20)
(-0.0822765 0.160891 0)
(-0.134254 0.15693 5.96487e-20)
(-0.194249 0.157478 2.9026e-20)
(-0.262502 0.163667 0)
(-0.337896 0.175363 0)
(-0.418494 0.191483 0)
(-0.50209 0.210498 0)
(-0.586535 0.230782 0)
(-0.669889 0.250774 0)
(-0.75038 0.268937 4.69974e-20)
(-0.826653 0.283742 -6.867e-20)
(-0.897856 0.293888 0)
(-0.963441 0.298892 0)
(-1.02317 0.299138 0)
(-1.07686 0.295075 -3.48565e-22)
(-1.12451 0.287134 4.16178e-20)
(-1.16648 0.275959 8.24666e-20)
(-1.20325 0.262327 -8.14141e-20)
(-1.23533 0.246994 -4.03757e-20)
(-1.26339 0.230609 3.95521e-20)
(-1.28816 0.213767 3.12117e-22)
(-1.31039 0.196986 3.89264e-20)
(-1.33077 0.180678 0)
(-1.3499 0.165154 3.80247e-20)
(-1.36827 0.150619 2.35504e-22)
(-1.38627 0.137193 0)
(-1.40415 0.124918 0)
(-1.4221 0.113758 -3.64231e-20)
(-1.44023 0.103627 0)
(-1.45863 0.094421 0)
(-1.47734 0.0860267 3.55534e-20)
(-1.49639 0.0783309 7.01495e-20)
(-1.5158 0.0712264 -3.46172e-20)
(-1.53557 0.0646143 0)
(-1.55571 0.0584065 3.40416e-20)
(-1.5762 0.0525251 0)
(-1.59705 0.0469031 3.37887e-20)
(-1.61826 0.0414826 3.32256e-20)
(-1.63981 0.0362148 -6.62256e-20)
(-1.66171 0.0310581 -3.30072e-20)
(-1.68394 0.0259779 0)
(-1.70649 0.0209447 6.46957e-20)
(-1.72936 0.0159344 0)
(-1.75252 0.0109267 9.53836e-20)
(-1.77596 0.00590543 6.32052e-20)
(-1.79966 0.000857191 6.27138e-20)
(-1.82357 -0.00422778 -6.22244e-20)
(-1.84768 -0.009357 9.24218e-20)
(-1.87194 -0.0145347 0)
(-1.89629 -0.0197635 0)
(-1.92069 -0.025043 -6.02789e-20)
(-1.94505 -0.0303714 -8.94851e-20)
(-1.96931 -0.0357434 0)
(-1.99338 -0.0411537 2.91927e-20)
(-2.01715 -0.0465932 0)
(-2.04051 -0.0520536 -8.65455e-20)
(-2.06332 -0.0575224 4.85664e-22)
(-2.08545 -0.0629892 -5.02827e-22)
(-2.10672 -0.0684396 5.63882e-20)
(-2.12694 -0.0738628 0)
(-2.14589 -0.0792482 -5.54027e-20)
(-2.16333 -0.0845945 5.84457e-22)
(-2.17898 -0.0899139 0)
(-2.19254 -0.0952398 0)
(-2.20365 -0.100632 0)
(-2.21182 -0.106248 5.21887e-20)
(-2.21652 -0.112364 0)
(-2.21724 -0.119076 0)
(-2.21361 -0.126594 0)
(-2.20566 -0.135538 0)
(-2.19288 -0.145914 0)
(-2.17473 -0.157791 4.88962e-20)
(-2.15053 -0.171253 0)
(-2.11951 -0.186371 4.58425e-20)
(-2.08087 -0.203203 4.46079e-20)
(-2.03372 -0.221791 -4.32129e-20)
(-1.97713 -0.242148 0)
(-1.91014 -0.264266 -3.98844e-20)
(-1.83175 -0.288097 0)
(-1.74096 -0.313559 -3.57554e-20)
(-1.63677 -0.340526 3.33652e-20)
(-1.5182 -0.368929 9.56507e-20)
(-1.38431 -0.398683 0)
(-1.23397 -0.429615 7.86824e-20)
(-1.06591 -0.461997 2.58715e-20)
(-0.879402 -0.495874 0)
(-0.674219 -0.530006 3.53107e-20)
(-0.449245 -0.563657 2.92334e-20)
(-0.205605 -0.596029 -3.26133e-20)
(0.0533579 -0.62508 0)
(0.325945 -0.650114 -3.66539e-21)
(0.606676 -0.66461 -2.21768e-21)
(0.888541 -0.659755 -9.63394e-21)
(1.16218 -0.634022 0)
(1.41546 -0.588836 0)
(1.63751 -0.528708 0)
(1.82234 -0.458037 -9.02104e-21)
(1.96517 -0.376852 0)
(2.05449 -0.29333 0)
(2.08222 -0.219042 9.23895e-21)
(2.06646 -0.105944 9.33204e-21)
(2.03226 0.0974945 0)
(1.94472 0.348652 0)
(1.71594 0.551095 4.14576e-21)
(1.37142 0.61 0)
(1.07409 0.491889 6.46375e-21)
(0.673099 0.435105 4.28865e-21)
(-0.124196 0.695052 0)
(-0.957916 0.98552 0)
(-1.51793 1.03161 4.1863e-21)
(-1.84516 0.866883 -8.12953e-21)
(-2.08354 0.632573 -6.55613e-21)
(-2.30085 0.417647 0)
(-2.50514 0.24501 6.70747e-20)
(-2.67874 0.111431 0)
(-2.80584 0.00858706 0)
(-2.87907 -0.0703008 0)
(-2.89974 -0.131224 -3.76559e-20)
(-2.87648 -0.179388 0)
(-2.82059 -0.218993 6.14872e-20)
(-2.73914 -0.249507 2.21679e-20)
(-2.63818 -0.271439 0)
(-2.52302 -0.286477 7.71957e-21)
(-2.3974 -0.296795 0)
(-2.26407 -0.303206 0)
(-2.12569 -0.30668 -4.68821e-20)
(-1.9836 -0.308438 4.73077e-20)
(-1.83861 -0.309362 0)
(-1.69094 -0.310117 8.3135e-20)
(-1.54037 -0.311209 -5.28969e-20)
(-1.3864 -0.312961 0)
(-1.22833 -0.315557 0)
(-1.06532 -0.319039 0)
(-0.896495 -0.323356 -2.73988e-19)
(-0.721102 -0.328336 0)
(-0.538485 -0.333539 -1.147e-19)
(-0.348185 -0.338909 0)
(-0.150405 -0.344394 0)
(0.0545315 -0.350571 0)
(0.263923 -0.357263 0)
(0.475415 -0.362774 0)
(0.689837 -0.364983 0)
(0.90726 -0.365127 -3.13964e-19)
(1.12552 -0.36351 0)
(1.3431 -0.360229 -1.62525e-19)
(1.55701 -0.354824 4.85805e-19)
(1.76633 -0.347533 0)
(1.96584 -0.337132 0)
(2.15844 -0.323872 -3.2586e-19)
(2.3302 -0.304533 -3.31068e-19)
(2.49883 -0.27573 3.30487e-19)
(2.62568 -0.23447 3.41734e-19)
(-0.184521 -0.360082 -6.40864e-19)
(0.0777898 -0.256591 -3.5335e-19)
(-0.0610134 -0.266149 -1.36674e-19)
(0.0109231 -0.229108 -5.02308e-20)
(-0.0390865 -0.22318 0)
(-0.0128368 -0.212254 6.95885e-20)
(-0.0350093 -0.208014 -3.10987e-20)
(-0.0237166 -0.195692 0)
(-0.0316079 -0.180991 -2.68949e-20)
(-0.0253256 -0.159847 0)
(-0.0281532 -0.138514 4.93264e-20)
(-0.0260472 -0.11479 0)
(-0.029595 -0.0901321 2.32777e-20)
(-0.0327933 -0.0636159 4.56385e-20)
(-0.0409686 -0.0365008 -4.49976e-20)
(-0.0518171 -0.00936947 0)
(-0.0681799 0.0166192 -4.4303e-20)
(-0.0893791 0.0426128 0)
(-0.114819 0.0705259 0)
(-0.141095 0.101372 -4.36144e-20)
(-0.166444 0.133259 0)
(-0.190387 0.163336 -9.09555e-23)
(-0.213916 0.1892 0)
(-0.238432 0.209697 0)
(-0.26568 0.224961 1.51839e-22)
(-0.297344 0.236166 -4.33915e-20)
(-0.334922 0.245052 -4.33042e-20)
(-0.379404 0.253411 -4.26975e-20)
(-0.431069 0.26261 0)
(-0.489299 0.273342 -8.30183e-20)
(-0.552601 0.285676 0)
(-0.6189 0.299292 -3.99858e-20)
(-0.685912 0.313641 0)
(-0.751456 0.327981 0)
(-0.813641 0.341459 3.73747e-20)
(-0.870975 0.3532 0)
(-0.922368 0.362363 -3.57308e-20)
(-0.967144 0.368238 2.09758e-22)
(-1.00514 0.370302 6.85307e-20)
(-1.03671 0.36834 -6.76498e-20)
(-1.06257 0.36257 0)
(-1.08351 0.353472 0)
(-1.10042 0.34159 -3.27626e-20)
(-1.11427 0.327639 0)
(-1.12603 0.312384 -3.14824e-20)
(-1.13658 0.296561 3.1141e-20)
(-1.14668 0.280801 3.08065e-20)
(-1.15696 0.265599 0)
(-1.16789 0.251312 -3.01594e-20)
(-1.1798 0.238166 -2.98496e-20)
(-1.19287 0.226281 5.95427e-20)
(-1.20718 0.215694 -2.92584e-20)
(-1.22272 0.20638 -2.89761e-20)
(-1.23942 0.198281 0)
(-1.25716 0.19131 0)
(-1.27582 0.185369 2.81838e-20)
(-1.29527 0.180351 0)
(-1.31539 0.176152 0)
(-1.33609 0.172674 -5.49466e-20)
(-1.35727 0.169829 -5.45059e-20)
(-1.37886 0.167537 0)
(-1.40081 0.165728 0)
(-1.42304 0.164341 0)
(-1.44553 0.163322 0)
(-1.46824 0.162623 -5.24911e-20)
(-1.49112 0.162203 5.24528e-20)
(-1.51415 0.162026 5.17484e-20)
(-1.5373 0.16206 1.03117e-19)
(-1.56054 0.162274 0)
(-1.58384 0.162642 3.52442e-22)
(-1.60717 0.163138 0)