# vtk DataFile Version 2.0
track0
ASCII
DATASET POLYDATA
POINTS 11149 double
-0.0205 0.001 1e-05
-0.0204983 0.00100536 1e-05
-0.0204961 0.00101055 1e-05
-0.0204924 0.00101479 1e-05
-0.0204877 0.00101796 1e-05
-0.0204683 0.00102682 1e-05
-0.0201781 0.00104929 1e-05
-0.0202826 0.00132096 1e-05
-0.0203741 0.00141936 1e-05
-0.0201027 0.0014516 1e-05
-0.0201192 0.00172439 1e-05
-0.0202038 0.00184007 1e-05
-0.0199671 0.00193025 1e-05
-0.0200268 0.00217644 1e-05
-0.0200574 0.00229098 1e-05
-0.0199099 0.00238763 1e-05
-0.0198956 0.0025634 1e-05
-0.0199381 0.00273455 1e-05
-0.0199134 0.00277425 1e-05
-0.0197858 0.00287784 1e-05
-0.019732 0.00303316 1e-05
-0.0197285 0.00319749 1e-05
-0.0196867 0.00329221 1e-05
-0.019568 0.00340323 1e-05
-0.0194894 0.0035456 1e-05
-0.0194232 0.00369407 1e-05
-0.0193459 0.00383711 1e-05
-0.0193357 0.00384734 1e-05
-0.019272 0.00390856 1e-05
-0.0192146 0.0039757 1e-05
-0.0191581 0.00404369 1e-05
-0.0190995 0.00410974 1e-05
-0.0190172 0.00419634 1e-05
-0.018966 0.00424554 1e-05
-0.0189136 0.00429335 1e-05
-0.01886 0.00433979 1e-05
-0.0188052 0.00438484 1e-05
-0.0187319 0.00444232 1e-05
-0.0185601 0.00456986 1e-05
-0.0183823 0.0046887 1e-05
-0.0181992 0.00479939 1e-05
-0.0180114 0.00490176 1e-05
-0.0176419 0.00508 1e-05
-0.017613 0.00509064 1e-05
-0.0175841 0.00510119 1e-05
-0.0175552 0.00511164 1e-05
-0.0175262 0.00512195 1e-05
-0.0174976 0.00513194 1e-05
-0.0172058 0.00523173 1e-05
-0.0169086 0.00531413 1e-05
-0.0166073 0.00537944 1e-05
-0.016303 0.00542943 1e-05
-0.0160387 0.00546044 1e-05
-0.0157586 0.00548139 1e-05
-0.0154778 0.00549009 1e-05
-0.0151969 0.00548863 1e-05
-0.0149162 0.00547843 1e-05
-0.0146381 0.00546078 1e-05
-0.0143692 0.00543772 1e-05
-0.0141008 0.00540917 1e-05
-0.013833 0.00537499 1e-05
-0.013566 0.00533563 1e-05
-0.0132934 0.00529034 1e-05
-0.0130685 0.00524827 1e-05
-0.0128441 0.00520294 1e-05
-0.0126204 0.00515445 1e-05
-0.0123974 0.00510285 1e-05
-0.0123049 0.00508 1e-05
-0.0122444 0.00506467 1e-05
-0.012184 0.00504903 1e-05
-0.0121237 0.0050331 1e-05
-0.0120635 0.00501685 1e-05
-0.0120025 0.00500012 1e-05
-0.0117547 0.00493091 1e-05
-0.0115079 0.00485789 1e-05
-0.0112623 0.00478086 1e-05
-0.0110181 0.00469978 1e-05
-0.0107632 0.00461096 1e-05
-0.0106714 0.00457723 1e-05
-0.0105799 0.00454302 1e-05
-0.0104885 0.00450832 1e-05
-0.0103972 0.00447322 1e-05
-0.0103179 0.00444232 1e-05
-0.010169 0.00438363 1e-05
-0.0100207 0.0043234 1e-05
-0.0098731 0.00426153 1e-05
-0.00972616 0.00419807 1e-05
-0.00957337 0.00413059 1e-05
-0.00944819 0.00407394 1e-05
-0.00932345 0.00401634 1e-05
-0.00919917 0.00395774 1e-05
-0.00907529 0.00389832 1e-05
-0.0089707 0.00384734 1e-05
-0.00886277 0.00379399 1e-05
-0.00875528 0.00373977 1e-05
-0.00864826 0.00368464 1e-05
-0.00854166 0.0036287 1e-05
-0.00843108 0.00356975 1e-05
-0.00832876 0.00351424 1e-05
-0.00822686 0.00345798 1e-05
-0.00812541 0.00340091 1e-05
-0.0080244 0.00334307 1e-05
-0.00793697 0.00329221 1e-05
-0.00781646 0.00322107 1e-05
-0.00769678 0.00314854 1e-05
-0.00757805 0.00307448 1e-05
-0.00746015 0.00299909 1e-05
-0.00733443 0.00291659 1e-05
-0.00729237 0.00288812 1e-05
-0.00725046 0.00285942 1e-05
-0.00720872 0.00283049 1e-05
-0.00716715 0.00280131 1e-05
-0.00712898 0.00277425 1e-05
-0.00699399 0.0026776 1e-05
-0.00686089 0.00257834 1e-05
-0.00673012 0.00247604 1e-05
-0.00660175 0.00237075 1e-05
-0.00650922 0.00229098 1e-05
-0.0064637 0.00224995 1e-05
-0.00641891 0.00220813 1e-05
-0.00637462 0.00216577 1e-05
-0.00633037 0.00212336 1e-05
-0.0062816 0.00207652 1e-05
-0.00623247 0.00202923 1e-05
-0.0061838 0.00198148 1e-05
-0.00613561 0.00193323 1e-05
-0.00608795 0.00188446 1e-05
-0.00604364 0.00184007 1e-05
-0.00595555 0.00175593 1e-05
-0.00586022 0.00168009 1e-05
-0.00575885 0.00161253 1e-05
-0.0056527 0.00155277 1e-05
-0.00537872 0.00141936 1e-05
-0.00535714 0.00141277 1e-05
-0.00533547 0.00140651 1e-05
-0.0053137 0.00140057 1e-05
-0.00529189 0.00139478 1e-05
-0.00527083 0.00138848 1e-05
-0.00507675 0.00132374 1e-05
-0.0048837 0.00125601 1e-05
-0.00469237 0.00118356 1e-05
-0.00451065 0.00108954 1e-05
-0.00443195 0.00102682 1e-05
-0.00440565 0.00100096 1e-05
-0.00438084 0.000973668 1e-05
-0.00435246 0.000950116 1e-05
-0.00432004 0.000932521 1e-05
-0.00430044 0.000925009 1e-05
-0.00413583 0.00087212 1e-05
-0.00397383 0.000811698 1e-05
-0.0038129 0.000748468 1e-05
-0.00364204 0.000721957 1e-05
-0.00336883 0.000699198 1e-05
-0.00318995 0.000698545 1e-05
-0.00301112 0.000694247 1e-05
-0.00283226 0.000691435 1e-05
-0.00265339 0.000689681 1e-05
-0.00247443 0.000688704 1e-05
-0.0023027 0.0006909 1e-05
-0.00213096 0.000691432 1e-05
-0.00195921 0.000692159 1e-05
-0.00178747 0.000693049 1e-05
-0.00161577 0.000694078 1e-05
-0.0014509 0.000697088 1e-05
-0.00128601 0.000698386 1e-05
-0.00112111 0.000699476 1e-05
-0.000956218 0.000700383 1e-05
-0.000791418 0.000701126 1e-05
-0.000633135 0.000703322 1e-05
-0.000474837 0.000703898 1e-05
-0.000316538 0.000704257 1e-05
-0.00015824 0.000704421 1e-05
0 0.000704408 1e-05
0.000105677 0.000705169 1e-05
0.000211358 0.000705165 1e-05
0.000317038 0.000705193 1e-05
0.000422718 0.000705249 1e-05
0.000528387 0.000705332 1e-05
0.000634886 0.000706095 1e-05
0.000741388 0.000706454 1e-05
0.000847888 0.00070694 1e-05
0.000954388 0.000707547 1e-05
0.00106088 0.000708267 1e-05
0.00116821 0.000709587 1e-05
0.00127554 0.000710739 1e-05
0.00138287 0.00071206 1e-05
0.00149019 0.000713542 1e-05
0.00159752 0.000715176 1e-05
0.00170568 0.000717347 1e-05
0.00181384 0.000719563 1e-05
0.001922 0.000722036 1e-05
0.00203014 0.000724758 1e-05
0.00213833 0.00072772 1e-05
0.00224733 0.000731259 1e-05
0.00235632 0.000735157 1e-05
0.00246529 0.000739452 1e-05
0.00257425 0.000744132 1e-05
0.00268334 0.000749196 1e-05
0.00279319 0.000754866 1e-05
0.002903 0.000761257 1e-05
0.00301278 0.000768066 1e-05
0.00312254 0.000775288 1e-05
0.00323259 0.000782925 1e-05
0.00334329 0.000790922 1e-05
0.00345393 0.000799745 1e-05
0.00356453 0.000809072 1e-05
0.00367511 0.000818693 1e-05
0.00378611 0.000828442 1e-05
0.00389767 0.000838212 1e-05
0.00400918 0.000848636 1e-05
0.00412062 0.000859685 1e-05
0.00423206 0.000870847 1e-05
0.00434393 0.000881832 1e-05
0.00445636 0.000892634 1e-05
0.00456876 0.000903833 1e-05
0.00468111 0.000915412 1e-05
0.00479345 0.000927101 1e-05
0.00490609 0.000938572 1e-05
0.0050194 0.000949845 1e-05
0.00513268 0.000961295 1e-05
0.00524596 0.000972859 1e-05
0.00535924 0.00098443 1e-05
0.00547262 0.000995945 1e-05
0.00558681 0.00100736 1e-05
0.00570099 0.00101882 1e-05
0.00581518 0.00103025 1e-05
0.00592936 0.00104166 1e-05
0.00604356 0.00105304 1e-05
0.00614174 0.00106276 1e-05
0.00623993 0.00107247 1e-05
0.00633811 0.00108216 1e-05
0.0064363 0.00109183 1e-05
0.00653682 0.0011017 1e-05
0.00655324 0.00110331 1e-05
0.00656966 0.00110492 1e-05
0.00658609 0.00110653 1e-05
0.00660251 0.00110813 1e-05
0.00661893 0.00110974 1e-05
0.0067349 0.00112106 1e-05
0.00685087 0.00113238 1e-05
0.00696684 0.00114368 1e-05
0.00708282 0.00115495 1e-05
0.00719878 0.0011662 1e-05
0.00731565 0.00117743 1e-05
0.00743252 0.00118871 1e-05
0.00754938 0.00119998 1e-05
0.00766625 0.00121123 1e-05
0.00778313 0.00122246 1e-05
0.00790091 0.00123365 1e-05
0.00801869 0.00124487 1e-05
0.00813647 0.0012561 1e-05
0.00825424 0.00126731 1e-05
0.00837203 0.00127847 1e-05
0.00849073 0.00128963 1e-05
0.00860942 0.00130079 1e-05
0.00872812 0.00131195 1e-05
0.00884682 0.0013231 1e-05
0.00896551 0.00133421 1e-05
0.00908513 0.00134535 1e-05
0.00920475 0.00135648 1e-05
0.00932437 0.00136758 1e-05
0.009444 0.00137865 1e-05
0.0095636 0.0013897 1e-05
0.00968415 0.00140082 1e-05
0.0098047 0.00141188 1e-05
0.00992526 0.00142289 1e-05
0.0100458 0.00143386 1e-05
0.0101663 0.00144481 1e-05
0.0102878 0.00145584 1e-05
0.0104093 0.00146678 1e-05
0.0105308 0.00147766 1e-05
0.0106523 0.00148849 1e-05
0.0107738 0.00149926 1e-05
0.0108962 0.00151013 1e-05
0.0110186 0.00152089 1e-05
0.0111411 0.00153159 1e-05
0.0112635 0.00154222 1e-05
0.0113859 0.00155279 1e-05
0.011492 0.00156192 1e-05
0.011598 0.00157097 1e-05
0.0117041 0.00157997 1e-05
0.0118102 0.0015889 1e-05
0.0119261 0.00159861 1e-05
0.0119414 0.00159988 1e-05
0.0119568 0.00160116 1e-05
0.0119721 0.00160243 1e-05
0.0119875 0.0016037 1e-05
0.0120028 0.00160497 1e-05
0.0121272 0.00161525 1e-05
0.0122515 0.00162543 1e-05
0.0123759 0.00163551 1e-05
0.0125002 0.00164549 1e-05
0.0126245 0.00165536 1e-05
0.0127498 0.00166523 1e-05
0.0128752 0.00167494 1e-05
0.0130005 0.00168453 1e-05
0.0131258 0.001694 1e-05
0.0132511 0.00170334 1e-05
0.0133774 0.00171267 1e-05
0.0135037 0.00172179 1e-05
0.01363 0.00173077 1e-05
0.0137563 0.00173961 1e-05
0.0138825 0.00174831 1e-05
0.0140098 0.00175699 1e-05
0.014137 0.00176544 1e-05
0.0142643 0.0017737 1e-05
0.0143916 0.00178179 1e-05
0.0145188 0.00178973 1e-05
0.0146471 0.00179763 1e-05
0.0147753 0.00180526 1e-05
0.0149036 0.00181265 1e-05
0.0150319 0.00181984 1e-05
0.0151601 0.00182688 1e-05
0.0152893 0.00183383 1e-05
0.0154186 0.00184048 1e-05
0.0155479 0.00184684 1e-05
0.0156772 0.00185297 1e-05
0.0158063 0.00185893 1e-05
0.0159366 0.00186479 1e-05
0.0160669 0.00187033 1e-05
0.0161971 0.00187555 1e-05
0.0163274 0.00188053 1e-05
0.0164576 0.00188532 1e-05
0.0165889 0.00188997 1e-05
0.0167202 0.0018943 1e-05
0.0168514 0.00189831 1e-05
0.0169827 0.00190206 1e-05
0.0171139 0.0019056 1e-05
0.0172462 0.00190897 1e-05
0.0173785 0.00191201 1e-05
0.0175108 0.00191472 1e-05
0.0176431 0.00191717 1e-05
0.0177754 0.00191938 1e-05
0.0179087 0.00192139 1e-05
0.018042 0.00192306 1e-05
0.0181754 0.00192441 1e-05
0.0183087 0.00192548 1e-05
0.018442 0.00192632 1e-05
0.0185763 0.00192694 1e-05
0.0187107 0.00192724 1e-05
0.018845 0.00192723 1e-05
0.0189794 0.00192696 1e-05
0.0191137 0.00192647 1e-05
0.0192491 0.00192574 1e-05
0.0193845 0.00192473 1e-05
0.0195199 0.00192344 1e-05
0.0196553 0.0019219 1e-05
0.0197907 0.00192015 1e-05
0.0199272 0.00191818 1e-05
0.0200636 0.00191595 1e-05
0.0202001 0.00191348 1e-05
0.0203365 0.00191079 1e-05
0.020473 0.00190792 1e-05
0.0206105 0.00190484 1e-05
[...]
POINT_DATA 11149
 FIELD attributes 2
p 1 11149 float
-196.354 -185.426 -179.162 -174.581 -171.699 -165.458 -168.208 387.415 370.646 326.362 547.319 385.779 397.592 412.975 271.252 303.366 381.165 226.606 182.04 216.132 286.29 178.617 97.2156 120.894 128.405 104.914 17.0214 9.58646 15.9021 10.4064 -3.96699 -18.8979 -39.8136 -52.9779 -66.4636 -80.2551 -86.849 -80.3865 -113.502 -146.831 -169.161 -171.66 -180.278 -183.377 -186.478 -188.6 -189.593 -190.59 -199.176 -209.468 -213.116 -210.706 -209.654 -208.717 -208.026 -207.619 -206.112 -203.125 -200.313 -197.865 -195.228 -191.405 -187.745 -184.895 -181.535 -177.714 -174.029 -172.554 -171.571 -170.6 -169.642 -168.377 -166.977 -161.896 -157.104 -152.283 -146.601 -140.736 -138.824 -136.925 -134.851 -132.781 -130.986 -127.1 -123.238 -119.38 -115.477 -111.424 -108.313 -105.217 -102.403 -99.7272 -97.4729 -94.3229 -91.176 -88.3949 -85.9377 -83.3866 -81.053 -78.7263 -76.7081 -75.1089 -73.728 -70.7572 -67.7861 -65.6446 -63.7329 -61.688 -60.9808 -60.2751 -59.604 -59.1927 -58.8159 -56.3796 -53.9434 -52.2419 -51.1716 -50.4161 -49.5555 -48.8643 -48.434 -48.004 -47.5298 -47.0172 -46.5083 -46.0035 -45.6876 -45.5049 -44.5346 -43.541 -42.7527 -42.5071 -41.6866 -41.5381 -41.3883 -41.2499 -41.1818 -41.1213 -40.3818 -39.671 -39.1646 -39.0639 -39.2285 -39.2449 -39.947 -40.9424 -41.7491 -42.1259 -41.1411 -40.4692 -43.5157 -44.736 -46.5642 -44.3427 -43.8894 -43.3227 -42.6752 -43.0336 -40.7526 -39.8229 -38.8773 -37.9183 -38.4519 -36.0247 -35.3912 -34.7755 -34.1755 -35.7028 -34.2006 -34.9572 -35.7323 -36.5243 -39.5547 -39.0915 -40.0205 -40.9475 -41.8726 -44.0402 -43.2545 -43.5633 -43.8642 -44.1578 -45.6703 -45.3876 -45.6922 -45.9892 -46.2789 -47.4387 -47.3542 -47.2336 -47.107 -46.9744 -47.2507 -46.9507 -46.0795 -45.2067 -44.3324 -43.4117 -42.7594 -41.2719 -39.7879 -38.2684 -36.5707 -35.4268 -34.0581 -32.5274 -30.9932 -29.4501 -28.2336 -27.0249 -25.8934 -24.8956 -23.8913 -22.8313 -21.7763 -20.9913 -20.5583 -20.1216 -19.338 -18.6573 -18.1736 -17.8559 -17.7894 -17.2728 -16.9837 -16.711 -16.4381 -16.3974 -16.1804 -16.0631 -15.9456 -15.828 -15.7075 -15.6849 -15.6623 -15.6397 -15.6171 -15.5933 -15.5151 -15.446 -15.3768 -15.3075 -15.2284 -15.1226 -15.1035 -15.0844 -15.0686 -15.0734 -14.9759 -14.9475 -14.9717 -15.034 -15.1165 -15.0691 -15.0216 -15.0688 -15.1551 -15.2413 -15.2017 -15.1621 -15.1739 -15.2639 -15.354 -15.3156 -15.2874 -15.3081 -15.3919 -15.5074 -15.4886 -15.5142 -15.5625 -15.6165 -15.7533 -15.781 -15.8594 -15.938 -16.0167 -16.1316 -16.205 -16.2982 -16.3915 -16.485 -16.5872 -16.6005 -16.6138 -16.6271 -16.6404 -16.6582 -16.7933 -16.9348 -17.0766 -17.2186 -17.3989 -17.5251 -17.7021 -17.8794 -18.0571 -18.2969 -18.4204 -18.6287 -18.8373 -19.0582 -19.3261 -19.4744 -19.6886 -19.9437 -20.2338 -20.5555 -20.752 -20.9807 -21.2917 -21.654 -22.0288 -22.2699 -22.5122 -22.8666 -23.2781 -23.6899 -23.9623 -24.2361 -24.6071 -25.0437 -25.4808 -25.7781 -26.0769 -26.4534 -26.8925 -27.3324 -27.6345 -27.9382 -28.3034 -28.7237 -29.1451 -29.4338 -29.7244 -30.0663 -30.4555 -30.8461 -31.1122 -31.3802 -31.6844 -32.0234 -32.3637 -32.5906 -32.8192 -33.062 -33.3285 -33.5963 -33.7641 -33.9334 -34.0986 -34.289 -34.4818 -34.5881 -34.6918 -34.7857 -34.8988 -35.0225 -35.0718 -35.1088 -35.1353 -35.1712 -35.2268 -35.2172 -35.1834 -35.1457 -35.1084 -35.1006 -35.0431 -34.9486 -34.8543 -34.7601 -34.6765 -34.5558 -34.4171 -34.2784 -34.1396 -34.0043 -33.9519 -33.8951 -33.8383 -33.7814 -33.7231 -33.6084 -33.4936 -33.3787 -33.2638 -33.1553 -32.9348 -32.7379 -32.5407 -32.3434 -32.1655 -31.8946 -31.6808 -31.4668 -31.2527 -31.0751 -30.7685 -30.5455 -30.3242 -30.1122 -29.9393 -29.6347 -29.3861 -29.1652 -28.9687 -28.8021 -28.5049 -28.2407 -28.0248 -27.8487 -27.6923 -27.4064 -27.1356 -26.9281 -26.7749 -26.6314 -26.3598 -26.0905 -25.8932 -25.7613 -25.6298 -25.3731 -25.1164 -24.9285 -24.8036 -24.6787 -24.4332 -24.1876 -24.0054 -23.8847 -23.7639 -23.5278 -23.2917 -23.1134 -22.9937 -22.8739 -22.6454 -22.4169 -22.2408 -22.1195 -21.9983 -21.7745 -21.5506 -21.378 -21.26 -21.142 -20.9279 -20.7138 -20.5488 -20.4368 -20.3248 -20.1253 -19.9257 -19.7707 -19.6649 -19.5591 -19.3751 -19.1927 -19.0457 -18.9358 -18.8284 -18.6527 -18.4815 -18.3367 -18.2195 -18.1084 -17.9375 -17.7741 -17.6311 -17.5095 -17.3977 -17.2348 -17.0807 -16.9399 -16.8132 -16.6982 -16.5414 -16.3943 -16.2554 -16.125 -16.0077 -15.8574 -15.7175 -15.5822 -15.451 -15.3334 -15.1923 -15.059 -14.927 -14.7957 -14.6748 -14.5392 -14.4085 -14.2777 -14.147 -14.0222 -13.8903 -13.7608 -13.6313 -13.5019 -13.3758 -13.249 -13.1229 -12.9968 -12.8707 -12.7464 -12.6259 -12.5075 -12.3891 -12.2707 -12.1544 -12.0462 -11.9401 -11.834 -11.7279 -11.6232 -11.5288 -11.4351 -11.3413 -11.2476 -11.1542 -11.0893 -11.0243 -10.9593 -10.8943 -10.8234 -10.804 -10.7845 -10.765 -10.7455 -10.7265 -10.6448 -10.5636 -10.4824 -10.4012 -10.3218 -10.2418 -10.1636 -10.0854 -10.0072 -9.93174 -9.85323 -9.77757 -9.70194 -9.62633 -9.5542 -9.47784 -9.4051 -9.3324 -9.25973 -9.19126 -9.11813 -9.0493 -8.98051 -8.91174 -8.84784 -8.77909 -8.71523 -8.65139 -8.5876 -8.52912 -8.46543 -8.40696 -8.34853 -8.29013 -8.23719 -8.17871 -8.12549 -8.07232 -8.01918 -7.97146 -7.91795 -7.86998 -7.82205 -7.77417 -7.73195 -7.68401 -7.64142 -7.59887 -7.55636 -7.5193 -7.47715 -7.43982 -7.40253 -7.36528 -7.33298 -7.29641 -7.26426 -7.23215 -7.20009 -7.17252 -7.14142 -7.11438 -7.0874 -7.06046 -7.03753 -7.01165 -6.98927 -6.96695 -6.94467 -6.92582 -6.90458 -6.88625 -6.86797 -6.84975 -6.83434 -6.81722 -6.80239 -6.78761 -6.77289 -6.76029 -6.74656 -6.73452 -6.72254 -6.71061 -6.70011 -6.6889 -6.67873 -6.66862 -6.65855 -6.64918 -6.63951 -6.63035 -6.62124 -6.61219 -6.6032 -6.6031 -6.60302 -6.60293 -6.60284 -6.60275 -6.5948 -6.58691 -6.57907 -6.57128 -6.56325 -6.55719 -6.55116 -6.54519 -6.53928 -6.53298 -6.52909 -6.52528 -6.52152 -6.51782 -6.51358 -6.5116 -6.50964 -6.50773 -6.50588 -6.50318 -6.50263 -6.50183 -6.50109 -6.50035 -6.49836 -6.49856 -6.49828 -6.49796 -6.49722 -6.49541 -6.49563 -6.49545 -6.49493 -6.49347 -6.49128 -6.49102 -6.4906 -6.48944 -6.48674 -6.48379 -6.48267 -6.48161 -6.47935 -6.47541 -6.4715 -6.46931 -6.46719 -6.46363 -6.45857 -6.45353 -6.45011 -6.44675 -6.44177 -6.43547 -6.42919 -6.42442 -6.41942 -6.4129 -6.40554 -6.3979 -6.39168 -6.38455 -6.37658 -6.3683 -6.35923 -6.35149 -6.34216 -6.33268 -6.32325 -6.31286 -6.30304 -6.29198 -6.28097 -6.26999 -6.25863 -6.24927 -6.23937 -6.2295 -6.21966 -6.21046 -6.20769 -6.20493 -6.20217 -6.19941 -6.19629 -6.18263 -6.16868 -6.15478 -6.14093 -6.12515 -6.11131 -6.09573 -6.08018 -6.06469 -6.04566 -6.03113 -6.01442 -5.99725 -5.97858 -5.9579 -5.94168 -5.92489 -5.9062 -5.88447 -5.8624 -5.84466 -5.82696 -5.80656 -5.78333 -5.76011 -5.74108 -5.72209 -5.70036 -5.67615 -5.65197 -5.63184 -5.61066 -5.58754 -5.56355 -5.53843 -5.51722 -5.49341 -5.46919 -5.44501 -5.41922 -5.39567 -5.37021 -5.34479 -5.3194 -5.29376 -5.28875 -5.28341 -5.27807 -5.27274 -5.26747 -5.24626 -5.22507 -5.20391 -5.18277 -5.15986 -5.13366 -5.1059 -5.07817 -5.05049 -5.01882 -4.99258 -4.96432 -4.93536 -4.90426 -4.87134 -4.84384 -4.81637 -4.78579 -4.7517 -4.71763 -4.6889 -4.66022 -4.62822 -4.59303 -4.55786 -4.52797 -4.49706 -4.46334 -4.42838 -4.3921 -4.36103 -4.32664 -4.29178 -4.25695 -4.22039 -4.19109 -4.15984 -4.12861 -4.09741 -4.06764 -4.06271 -4.05778 -4.05285 -4.04793 -4.04257 -4.00619 -3.96946 -3.93278 -3.89613 -3.85589 -3.82131 -3.78343 -3.7456 -3.70595 -3.66299 -3.62725 -3.59096 -3.55182 -3.50756 -3.4633 -3.42627 -3.38929 -3.34806 -3.30268 -3.2573 -3.21909 -3.1793 -3.13619 -3.09188 -3.04548 -3.00612 -2.96186 -2.91763 -2.87344 -2.82784 -2.8083 -2.78723 -2.76616 -2.7451 -2.72453 -2.70071 -2.6769 -2.65311 -2.62932 -2.60376 -2.55996 -2.51461 -2.46931 -2.42323 -2.37363 -2.32996 -2.28562 -2.23942 -2.18911 -2.13867 -2.09418 -2.04974 -2.00182 -1.95061 -1.89941 -1.85415 -1.80659 -1.75728 -1.70801 -1.65651 -1.62156 -1.58411 -1.54668 -1.50927 -1.47313 -1.46044 -1.44775 -1.43507 -1.42239 -1.40909 -1.35913 -1.30871 -1.25831 -1.20787 -1.15455 -1.10524 -1.05523 -1.00442 -0.951169 -0.897493 -0.847811 -0.798162 -0.746242 -0.692248 -0.638257 -0.588237 -0.536736 -0.483976 -0.431242 -0.377179 -0.341782 -0.304704 -0.267639 -0.230587 -0.194568 -0.178389 -0.162213 -0.146039 -0.129868 -0.113058 -0.0601533 -0.00679775 0.0465319 0.100126 0.155836 0.20821 0.260887 0.314373 0.370177 0.42601 0.478541 0.531046 0.58551 0.641288 0.697152 0.749749 0.804011 0.858793 0.913553 0.968893 0.989123 1.0101 1.03106 1.05203 1.07272 1.10665 1.14057 1.17448 1.20838 1.24365 1.29743 1.35222 1.40699 1.46281 1.51995 1.57339 1.6268 1.68187 1.73875 1.79565 1.84886 1.90268 1.95812 2.01386 2.0704 2.11649 2.16436 2.21223 2.26009 2.30674 2.31425 2.32177 2.32928 2.33679 2.34458 2.39935 2.45432 2.50928 2.56433 2.62147 2.67499 2.72883 2.78336 2.83998 2.89667 2.94976 3.00284 3.05783 3.11382 3.17 3.22262 3.27701 3.33168 3.38634 3.4413 3.45146 3.46199 3.47253 3.48306 3.49355 3.53738 3.5812 3.62502 3.66883 3.71414 3.76709 3.82073 3.87456 3.92973 3.98547 4.03783 4.09018 4.14397 4.19906 4.25417 4.30594 4.35884 4.41239 4.46594 4.52007 4.54122 4.56308 4.58495 4.60681 4.62852 4.65973 4.69095 4.72216 4.75338 4.78563 4.83727 4.88973 4.94219 4.99559 5.04984 5.1007 5.15155 5.20371 5.25718 5.31066 5.36078 5.41171 5.46352 5.51534 5.56792 5.59524 5.62345 5.65167 5.67989 5.70793 5.7309 5.75387 5.77684 5.7998 5.82343 5.87338 5.92387 5.97436 6.02546 6.07743 6.12635 6.17527 6.22524 6.27632 6.3274 6.37547 6.42405 6.47351 6.523 6.57319 6.60364 6.63493 6.66623 6.69753 6.72876 6.74613 6.7635 6.78086 6.79823 6.81607 6.86357 6.91149 6.9594 7.00776 7.057 7.10324 7.14948 7.1967 7.24494 7.29317 7.33845 7.38409 7.43059 7.47722 7.52441 7.55619 7.58881 7.62143 7.65405 7.68678 7.69968 7.71257 7.72547 7.73836 7.75156 7.79597 7.84065 7.88533 7.93028 7.976 8.01895 8.06191 8.10565 8.15019 8.19472 8.23653 8.27856 8.3213 8.36422 8.40752 8.4402 8.47356 8.50692 8.54028 8.57406 8.58215 8.59025 8.59834 8.60644 8.61468 8.65505 8.69555 8.73606 8.77669 8.81795 8.85667 8.89543 8.93457 8.97419 9.0138 9.0509 9.08808 9.12592 9.16397 9.2022 9.23629 9.27047 9.30464 9.33882 9.37414 9.37559 9.37703 9.37848 9.37992 9.38136 9.41598 9.45063 9.48527 9.5199 9.55557 9.58898 9.62195 9.65427 9.68519 9.71598 9.74448 9.77296 9.80436 9.83794 9.87165 9.90309 9.92929 9.9541 9.97891 10.0016 10.0081 10.0185 10.0288 10.0392 10.0498 10.0676 10.0853 10.103 10.1207 10.1456 10.1828 10.2116 10.2397 10.2534 10.2633 10.271 10.2793 10.2969 10.3163 10.3387 10.3493 10.3589 10.368 10.3772 10.3867 10.3963 10.406 10.4156 10.4248 10.4329 10.4481 10.4627 10.4769 10.4894 10.5016 10.5121 10.5223 10.5316 10.5408 10.5495 10.5519 10.5537 10.5554 10.557 10.5587 10.5629 10.5672 10.5714 10.5751 10.578 10.5804 10.5826 10.5835 10.5826 10.5817 10.5787 10.5746 10.5693 10.564 10.5581 10.5567 10.5551 10.5533 10.5515 10.5496 10.5418 10.5339 10.5259 10.5172 10.5069 10.4923 10.4776 10.4607 10.4416 10.4225 10.4008 10.3766 10.3512 10.3257 10.2999 10.2986 10.2972 10.2958 10.2944 10.293 10.2633 10.2335 10.2035 10.1728 10.1398 10.1024 10.0649 10.0238 9.97926 9.93464 9.88671 9.83502 9.78145 9.7278 9.67333 9.66676 9.65965 9.65239 9.64513 9.6377 9.58139 9.52496 9.46838 9.41077 9.34866 9.27438 9.19975 9.12069 9.0369 8.95297 8.86397 8.77209 8.67408 8.57571 8.47245 8.41206 8.3492 8.28604 8.22286 8.15002 8.10209 8.05412 8.00612 7.95804 7.90769 7.78239 7.6491 7.51558 7.37415 7.22341 7.06582 6.90809 6.75301 6.60047 6.44775 6.28809 6.1117 5.90673 5.69805 5.46453 5.26834 5.10733 4.94611 4.78469 4.58374 4.55435 4.52495 4.49556 4.46616 4.44205 4.18575 3.91184 3.63729 3.36213 2.94783 2.50648 2.1652 1.90109 1.83355 1.82084 1.80362 1.78659 1.41156 0.705599 0