# vtk DataFile Version 2.0
track0
ASCII
DATASET POLYDATA
POINTS 11149 double
-0.0205 0.001 1e-05
-0.0204983 0.00100536 1e-05
-0.0204961 0.00101055 1e-05
-0.0204924 0.00101479 1e-05
-0.0204877 0.00101796 1e-05
-0.0204683 0.00102682 1e-05
-0.0201781 0.00104929 1e-05
-0.0202826 0.00132096 1e-05
-0.0203741 0.00141936 1e-05
-0.0201027 0.0014516 1e-05
-0.0201192 0.00172439 1e-05
-0.0202038 0.00184007 1e-05
-0.0199671 0.00193025 1e-05
-0.0200268 0.00217644 1e-05
-0.0200574 0.00229098 1e-05
-0.0199099 0.00238763 1e-05
-0.0198956 0.0025634 1e-05
-0.0199381 0.00273455 1e-05
-0.0199134 0.00277425 1e-05
-0.0197858 0.00287784 1e-05
-0.019732 0.00303316 1e-05
-0.0197285 0.00319749 1e-05
-0.0196867 0.00329221 1e-05
-0.019568 0.00340323 1e-05
-0.0194894 0.0035456 1e-05
-0.0194232 0.00369407 1e-05
-0.0193459 0.00383711 1e-05
-0.0193357 0.00384734 1e-05
-0.019272 0.00390856 1e-05
-0.0192146 0.0039757 1e-05
-0.0191581 0.00404369 1e-05
-0.0190995 0.00410974 1e-05
-0.0190172 0.00419634 1e-05
-0.018966 0.00424554 1e-05
-0.0189136 0.00429335 1e-05
-0.01886 0.00433979 1e-05
-0.0188052 0.00438484 1e-05
-0.0187319 0.00444232 1e-05
-0.0185601 0.00456986 1e-05
-0.0183823 0.0046887 1e-05
-0.0181992 0.00479939 1e-05
-0.0180114 0.00490176 1e-05
-0.0176419 0.00508 1e-05
-0.017613 0.00509064 1e-05
-0.0175841 0.00510119 1e-05
-0.0175552 0.00511164 1e-05
-0.0175262 0.00512195 1e-05
-0.0174976 0.00513194 1e-05
-0.0172058 0.00523173 1e-05
-0.0169086 0.00531413 1e-05
-0.0166073 0.00537944 1e-05
-0.016303 0.00542943 1e-05
-0.0160387 0.00546044 1e-05
-0.0157586 0.00548139 1e-05
-0.0154778 0.00549009 1e-05
-0.0151969 0.00548863 1e-05
-0.0149162 0.00547843 1e-05
-0.0146381 0.00546078 1e-05
-0.0143692 0.00543772 1e-05
-0.0141008 0.00540917 1e-05
-0.013833 0.00537499 1e-05
-0.013566 0.00533563 1e-05
-0.0132934 0.00529034 1e-05
-0.0130685 0.00524827 1e-05
-0.0128441 0.00520294 1e-05
-0.0126204 0.00515445 1e-05
-0.0123974 0.00510285 1e-05
-0.0123049 0.00508 1e-05
-0.0122444 0.00506467 1e-05
-0.012184 0.00504903 1e-05
-0.0121237 0.0050331 1e-05
-0.0120635 0.00501685 1e-05
-0.0120025 0.00500012 1e-05
-0.0117547 0.00493091 1e-05
-0.0115079 0.00485789 1e-05
-0.0112623 0.00478086 1e-05
-0.0110181 0.00469978 1e-05
-0.0107632 0.00461096 1e-05
-0.0106714 0.00457723 1e-05
-0.0105799 0.00454302 1e-05
-0.0104885 0.00450832 1e-05
-0.0103972 0.00447322 1e-05
-0.0103179 0.00444232 1e-05
-0.010169 0.00438363 1e-05
-0.0100207 0.0043234 1e-05
-0.0098731 0.00426153 1e-05
-0.00972616 0.00419807 1e-05
-0.00957337 0.00413059 1e-05
-0.00944819 0.00407394 1e-05
-0.00932345 0.00401634 1e-05
-0.00919917 0.00395774 1e-05
-0.00907529 0.00389832 1e-05
-0.0089707 0.00384734 1e-05
-0.00886277 0.00379399 1e-05
-0.00875528 0.00373977 1e-05
-0.00864826 0.00368464 1e-05
-0.00854166 0.0036287 1e-05
-0.00843108 0.00356975 1e-05
-0.00832876 0.00351424 1e-05
-0.00822686 0.00345798 1e-05
-0.00812541 0.00340091 1e-05
-0.0080244 0.00334307 1e-05
-0.00793697 0.00329221 1e-05
-0.00781646 0.00322107 1e-05
-0.00769678 0.00314854 1e-05
-0.00757805 0.00307448 1e-05
-0.00746015 0.00299909 1e-05
-0.00733443 0.00291659 1e-05
-0.00729237 0.00288812 1e-05
-0.00725046 0.00285942 1e-05
-0.00720872 0.00283049 1e-05
-0.00716715 0.00280131 1e-05
-0.00712898 0.00277425 1e-05
-0.00699399 0.0026776 1e-05
-0.00686089 0.00257834 1e-05
-0.00673012 0.00247604 1e-05
-0.00660175 0.00237075 1e-05
-0.00650922 0.00229098 1e-05
-0.0064637 0.00224995 1e-05
-0.00641891 0.00220813 1e-05
-0.00637462 0.00216577 1e-05
-0.00633037 0.00212336 1e-05
-0.0062816 0.00207652 1e-05
-0.00623247 0.00202923 1e-05
-0.0061838 0.00198148 1e-05
-0.00613561 0.00193323 1e-05
-0.00608795 0.00188446 1e-05
-0.00604364 0.00184007 1e-05
-0.00595555 0.00175593 1e-05
-0.00586022 0.00168009 1e-05
-0.00575885 0.00161253 1e-05
-0.0056527 0.00155277 1e-05
-0.00537872 0.00141936 1e-05
-0.00535714 0.00141277 1e-05
-0.00533547 0.00140651 1e-05
-0.0053137 0.00140057 1e-05
-0.00529189 0.00139478 1e-05
-0.00527083 0.00138848 1e-05
-0.00507675 0.00132374 1e-05
-0.0048837 0.00125601 1e-05
-0.00469237 0.00118356 1e-05
-0.00451065 0.00108954 1e-05
-0.00443195 0.00102682 1e-05
-0.00440565 0.00100096 1e-05
-0.00438084 0.000973668 1e-05
-0.00435246 0.000950116 1e-05
-0.00432004 0.000932521 1e-05
-0.00430044 0.000925009 1e-05
-0.00413583 0.00087212 1e-05
-0.00397383 0.000811698 1e-05
-0.0038129 0.000748468 1e-05
-0.00364204 0.000721957 1e-05
-0.00336883 0.000699198 1e-05
-0.00318995 0.000698545 1e-05
-0.00301112 0.000694247 1e-05
-0.00283226 0.000691435 1e-05
-0.00265339 0.000689681 1e-05
-0.00247443 0.000688704 1e-05
-0.0023027 0.0006909 1e-05
-0.00213096 0.000691432 1e-05
-0.00195921 0.000692159 1e-05
-0.00178747 0.000693049 1e-05
-0.00161577 0.000694078 1e-05
-0.0014509 0.000697088 1e-05
-0.00128601 0.000698386 1e-05
-0.00112111 0.000699476 1e-05
-0.000956218 0.000700383 1e-05
-0.000791418 0.000701126 1e-05
-0.000633135 0.000703322 1e-05
-0.000474837 0.000703898 1e-05
-0.000316538 0.000704257 1e-05
-0.00015824 0.000704421 1e-05
0 0.000704408 1e-05
0.000105677 0.000705169 1e-05
0.000211358 0.000705165 1e-05
0.000317038 0.000705193 1e-05
0.000422718 0.000705249 1e-05
0.000528387 0.000705332 1e-05
0.000634886 0.000706095 1e-05
0.000741388 0.000706454 1e-05
0.000847888 0.00070694 1e-05
0.000954388 0.000707547 1e-05
0.00106088 0.000708267 1e-05
0.00116821 0.000709587 1e-05
0.00127554 0.000710739 1e-05
0.00138287 0.00071206 1e-05
0.00149019 0.000713542 1e-05
0.00159752 0.000715176 1e-05
0.00170568 0.000717347 1e-05
0.00181384 0.000719563 1e-05
0.001922 0.000722036 1e-05
0.00203014 0.000724758 1e-05
0.00213833 0.00072772 1e-05
0.00224733 0.000731259 1e-05
0.00235632 0.000735157 1e-05
0.00246529 0.000739452 1e-05
0.00257425 0.000744132 1e-05
0.00268334 0.000749196 1e-05
0.00279319 0.000754866 1e-05
0.002903 0.000761257 1e-05
0.00301278 0.000768066 1e-05
0.00312254 0.000775288 1e-05
0.00323259 0.000782925 1e-05
0.00334329 0.000790922 1e-05
0.00345393 0.000799745 1e-05
0.00356453 0.000809072 1e-05
0.00367511 0.000818693 1e-05
0.00378611 0.000828442 1e-05
0.00389767 0.000838212 1e-05
0.00400918 0.000848636 1e-05
0.00412062 0.000859685 1e-05
0.00423206 0.000870847 1e-05
0.00434393 0.000881832 1e-05
0.00445636 0.000892634 1e-05
0.00456876 0.000903833 1e-05
0.00468111 0.000915412 1e-05
0.00479345 0.000927101 1e-05
0.00490609 0.000938572 1e-05
0.0050194 0.000949845 1e-05
0.00513268 0.000961295 1e-05
0.00524596 0.000972859 1e-05
0.00535924 0.00098443 1e-05
0.00547262 0.000995945 1e-05
0.00558681 0.00100736 1e-05
0.00570099 0.00101882 1e-05
0.00581518 0.00103025 1e-05
0.00592936 0.00104166 1e-05
0.00604356 0.00105304 1e-05
0.00614174 0.00106276 1e-05
0.00623993 0.00107247 1e-05
0.00633811 0.00108216 1e-05
0.0064363 0.00109183 1e-05
0.00653682 0.0011017 1e-05
0.00655324 0.00110331 1e-05
0.00656966 0.00110492 1e-05
0.00658609 0.00110653 1e-05
0.00660251 0.00110813 1e-05
0.00661893 0.00110974 1e-05
0.0067349 0.00112106 1e-05
0.00685087 0.00113238 1e-05
0.00696684 0.00114368 1e-05
0.00708282 0.00115495 1e-05
0.00719878 0.0011662 1e-05
0.00731565 0.00117743 1e-05
0.00743252 0.00118871 1e-05
0.00754938 0.00119998 1e-05
0.00766625 0.00121123 1e-05
0.00778313 0.00122246 1e-05
0.00790091 0.00123365 1e-05
0.00801869 0.00124487 1e-05
0.00813647 0.0012561 1e-05
0.00825424 0.00126731 1e-05
0.00837203 0.00127847 1e-05
0.00849073 0.00128963 1e-05
0.00860942 0.00130079 1e-05
0.00872812 0.00131195 1e-05
0.00884682 0.0013231 1e-05
0.00896551 0.00133421 1e-05
0.00908513 0.00134535 1e-05
0.00920475 0.00135648 1e-05
0.00932437 0.00136758 1e-05
0.009444 0.00137865 1e-05
0.0095636 0.0013897 1e-05
0.00968415 0.00140082 1e-05
0.0098047 0.00141188 1e-05
0.00992526 0.00142289 1e-05
0.0100458 0.00143386 1e-05
0.0101663 0.00144481 1e-05
0.0102878 0.00145584 1e-05
0.0104093 0.00146678 1e-05
0.0105308 0.00147766 1e-05
0.0106523 0.00148849 1e-05
0.0107738 0.00149926 1e-05
0.0108962 0.00151013 1e-05
0.0110186 0.00152089 1e-05
0.0111411 0.00153159 1e-05
0.0112635 0.00154222 1e-05
0.0113859 0.00155279 1e-05
0.011492 0.00156192 1e-05
0.011598 0.00157097 1e-05
0.0117041 0.00157997 1e-05
0.0118102 0.0015889 1e-05
0.0119261 0.00159861 1e-05
0.0119414 0.00159988 1e-05
0.0119568 0.00160116 1e-05
0.0119721 0.00160243 1e-05
0.0119875 0.0016037 1e-05
0.0120028 0.00160497 1e-05
0.0121272 0.00161525 1e-05
0.0122515 0.00162543 1e-05
0.0123759 0.00163551 1e-05
0.0125002 0.00164549 1e-05
0.0126245 0.00165536 1e-05
0.0127498 0.00166523 1e-05
0.0128752 0.00167494 1e-05
0.0130005 0.00168453 1e-05
0.0131258 0.001694 1e-05
0.0132511 0.00170334 1e-05
0.0133774 0.00171267 1e-05
0.0135037 0.00172179 1e-05
0.01363 0.00173077 1e-05
0.0137563 0.00173961 1e-05
0.0138825 0.00174831 1e-05
0.0140098 0.00175699 1e-05
0.014137 0.00176544 1e-05
0.0142643 0.0017737 1e-05
0.0143916 0.00178179 1e-05
0.0145188 0.00178973 1e-05
0.0146471 0.00179763 1e-05
0.0147753 0.00180526 1e-05
0.0149036 0.00181265 1e-05
0.0150319 0.00181984 1e-05
0.0151601 0.00182688 1e-05
0.0152893 0.00183383 1e-05
0.0154186 0.00184048 1e-05
0.0155479 0.00184684 1e-05
0.0156772 0.00185297 1e-05
0.0158063 0.00185893 1e-05
0.0159366 0.00186479 1e-05
0.0160669 0.00187033 1e-05
0.0161971 0.00187555 1e-05
0.0163274 0.00188053 1e-05
0.0164576 0.00188532 1e-05
0.0165889 0.00188997 1e-05
0.0167202 0.0018943 1e-05
0.0168514 0.00189831 1e-05
0.0169827 0.00190206 1e-05
0.0171139 0.0019056 1e-05
0.0172462 0.00190897 1e-05
0.0173785 0.00191201 1e-05
0.0175108 0.00191472 1e-05
0.0176431 0.00191717 1e-05
0.0177754 0.00191938 1e-05
0.0179087 0.00192139 1e-05
0.018042 0.00192306 1e-05
0.0181754 0.00192441 1e-05
0.0183087 0.00192548 1e-05
0.018442 0.00192632 1e-05
0.0185763 0.00192694 1e-05
0.0187107 0.00192724 1e-05
0.018845 0.00192723 1e-05
0.0189794 0.00192696 1e-05
0.0191137 0.00192647 1e-05
0.0192491 0.00192574 1e-05
0.0193845 0.00192473 1e-05
0.0195199 0.00192344 1e-05
0.0196553 0.0019219 1e-05
0.0197907 0.00192015 1e-05
0.0199272 0.00191818 1e-05
0.0200636 0.00191595 1e-05
0.0202001 0.00191348 1e-05
0.0203365 0.00191079 1e-05
0.020473 0.00190792 1e-05
0.0206105 0.00190484 1e-05
[...]
POINT_DATA 11149
 FIELD attributes 1
U 3 11149 float
1.84023 	5.7112 	0 2.26787 	5.33534 	0 3.64142 	4.16482 	0 4.72976 	3.2158 	0 5.50765 	2.51542 	0 7.5646 	0.585758 	0 -1.68732 	4.38386 	0 -9.47376 	10.192 	0 7.11995 	0.845839 	0 -0.315189 	5.21048 	0 -10.1926 	13.9363 	0 6.68079 	2.54487 	0 -3.15423 	12.9908 	0 -4.12811 	15.4689 	0 7.50336 	4.91648 	0 1.12143 	13.7346 	0 -5.64556 	22.7202 	0 6.03227 	9.70551 	0 8.67399 	7.0412 	0 4.88087 	14.0969 	0 0.47306 	21.8875 	0 6.2805 	14.2578 	0 10.1292 	9.46807 	0 8.41808 	15.2595 	0 8.10859 	18.1667 	0 9.51529 	17.6062 	0 12.6092 	12.6895 	0 12.8531 	12.351 	0 12.6518 	14.7947 	0 12.9247 	15.5774 	0 13.5281 	15.2264 	0 14.137 	14.8755 	0 14.9669 	14.4017 	0 15.5101 	14.1486 	0 16.0565 	13.8971 	0 16.6057 	13.6474 	0 16.9396 	13.2847 	0 16.9311 	12.5741 	0 18.5859 	12.4199 	0 20.1892 	12.2088 	0 21.2529 	11.5833 	0 21.4497 	10.3461 	0 21.9485 	8.09424 	0 22.105 	8.06642 	0 22.2613 	8.03816 	0 22.3627 	7.95689 	0 22.4009 	7.81433 	0 22.4388 	7.67384 	0 23.1663 	6.42411 	0 23.9217 	5.18421 	0 23.9956 	3.94198 	0 23.5052 	2.75842 	0 23.0673 	1.72477 	0 22.9939 	0.712509 	0 22.805 	-0.118751 	0 22.5312 	-0.81817 	0 22.0952 	-1.4023 	0 21.4759 	-1.8415 	0 21.281 	-2.26383 	0 21.0748 	-2.69083 	0 20.6722 	-3.0467 	0 20.0723 	-3.33584 	0 19.4492 	-3.63657 	0 19.2712 	-3.89397 	0 18.9818 	-4.11464 	0 18.5892 	-4.30143 	0 18.1865 	-4.48953 	0 18.0143 	-4.56843 	0 17.9001 	-4.63372 	0 17.7848 	-4.69939 	0 17.6686 	-4.76544 	0 17.5272 	-4.81192 	0 17.3733 	-4.85129 	0 17.0444 	-5.04348 	0 16.6516 	-5.22324 	0 16.1881 	-5.37399 	0 15.6027 	-5.43684 	0 14.9774 	-5.50561 	0 14.8445 	-5.54561 	0 14.7101 	-5.58595 	0 14.5269 	-5.58718 	0 14.3408 	-5.58733 	0 14.1774 	-5.58758 	0 13.8548 	-5.62758 	0 13.5258 	-5.66911 	0 13.1853 	-5.69472 	0 12.8211 	-5.66175 	0 12.4358 	-5.62803 	0 12.1829 	-5.62549 	0 11.9259 	-5.62339 	0 11.6501 	-5.58856 	0 11.3641 	-5.53862 	0 11.1189 	-5.49644 	0 10.85 	-5.4726 	0 10.577 	-5.44924 	0 10.296 	-5.40252 	0 10.008 	-5.33511 	0 9.70483 	-5.26513 	0 9.45888 	-5.22283 	0 9.20916 	-5.18064 	0 8.95195 	-5.1256 	0 8.68618 	-5.05295 	0 8.45221 	-4.98979 	0 8.11265 	-4.91662 	0 7.76583 	-4.84368 	0 7.43025 	-4.75161 	0 7.093 	-4.65442 	0 6.72304 	-4.55007 	0 6.59801 	-4.51816 	0 6.47179 	-4.48626 	0 6.34603 	-4.45399 	0 6.23219 	-4.41881 	0 6.12643 	-4.3864 	0 5.71647 	-4.26325 	0 5.29266 	-4.13991 	0 4.87526 	-3.99874 	0 4.45422 	-3.84044 	0 4.13083 	-3.72267 	0 3.9295 	-3.66938 	0 3.79025 	-3.62531 	0 3.75203 	-3.59582 	0 3.71358 	-3.56632 	0 3.6709 	-3.53377 	0 3.55104 	-3.48365 	0 3.42947 	-3.43364 	0 3.30607 	-3.38375 	0 3.31197 	-3.3176 	0 3.39893 	-3.24667 	0 3.74394 	-2.97827 	0 4.08625 	-2.72344 	0 4.31889 	-2.43147 	0 4.247 	-2.06804 	0 4.12799 	-1.26069 	0 4.16043 	-1.201 	0 4.19255 	-1.14444 	0 4.20901 	-1.11683 	0 4.13826 	-1.23764 	0 4.06572 	-1.35626 	0 3.57836 	-1.25535 	0 3.07383 	-1.16403 	0 2.88055 	-1.49034 	0 2.95978 	-2.35904 	0 2.95987 	-2.90974 	0 2.89827 	-3.18843 	0 3.67343 	-3.04796 	0 4.89075 	-2.65475 	0 5.97068 	-2.28834 	0 6.51932 	-2.09457 	0 6.95901 	-2.5955 	0 7.67103 	-3.01409 	0 11.845 	-1.83789 	0 14.3875 	-1.19849 	0 18.1677 	-0.0663622 	0 18.0486 	-0.433775 	0 19.1149 	-0.300491 	0 20.0856 	-0.196942 	0 20.9883 	-0.114561 	0 22.4406 	0.286916 	0 22.4216 	0.0694077 	0 22.9901 	0.0973128 	0 23.5468 	0.122112 	0 24.0937 	0.144308 	0 25.1897 	0.459938 	0 25.0345 	0.197032 	0 25.4135 	0.168073 	0 25.8042 	0.141886 	0 26.2054 	0.118159 	0 27.1603 	0.376751 	0 27.0311 	0.0983012 	-9.63743e-22 27.3662 	0.062222 	-3.26079e-21 27.7127 	0.0287249 	-5.56466e-21 28.0695 	-0.00242812 	-7.87473e-21 28.8992 	0.2082 	-1.12833e-20 28.9344 	-0.00100012 	-1.08779e-20 29.2484 	0.00751665 	-1.11811e-20 29.561 	0.0156861 	-1.14837e-20 29.8723 	0.0235296 	-1.17855e-20 30.4895 	0.218544 	-1.3146e-20 30.6553 	0.103303 	-2.15371e-20 30.9588 	0.141304 	-2.32029e-20 31.2568 	0.177991 	-2.489e-20 31.5496 	0.213434 	-2.65972e-20 32.0411 	0.393986 	-1.99986e-20 32.3155 	0.346973 	-1.98407e-20 32.6071 	0.401266 	-2.58469e-20 32.8923 	0.454018 	-3.18196e-20 33.1713 	0.505298 	-3.77601e-20 33.5621 	0.673613 	-4.61598e-20 33.9043 	0.694514 	-3.27131e-20 34.1586 	0.781161 	-1.53371e-20 34.4044 	0.865764 	2.05014e-21 34.6419 	0.948398 	1.9448e-20 34.9209 	1.13388 	1.53001e-20 35.3529 	1.26455 	-3.87753e-20 35.5239 	1.39986 	-3.69013e-20 35.6841 	1.53279 	-3.56206e-20 35.8337 	1.66338 	-3.49186e-20 35.9102 	1.85361 	4.80069e-20 36.5599 	2.12788 	4.10452e-20 36.5843 	2.26884 	3.98501e-20 36.6007 	2.40846 	3.85027e-20 36.5573 	2.53695 	4.17186e-20 36.2707 	2.62004 	6.62065e-20 37.0279 	2.9528 	2.10844e-19 37.2646 	3.14276 	2.78685e-19 37.1292 	3.23042 	2.91332e-19 36.6644 	3.22029 	1.96269e-19 36.006 	3.15296 	3.77059e-20 36.7785 	3.43816 	-1.03733e-19 37.5399 	3.72186 	-2.4517e-19 37.2615 	3.73258 	-2.61827e-19 36.3368 	3.5677 	-1.45445e-19 35.4105 	3.40224 	-2.86041e-20 36.1577 	3.60269 	-1.71388e-20 36.9009 	3.80295 	-5.67591e-21 36.8837 	3.83771 	-2.10462e-20 35.8331 	3.64938 	-5.13469e-20 34.7806 	3.46032 	-8.16575e-20 35.4928 	3.58713 	-8.46468e-20 35.9253 	3.66767 	-8.30776e-20 35.8165 	3.65837 	-7.26148e-20 35.3255 	3.58776 	-6.13717e-20 34.2536 	3.42386 	-4.89216e-20 34.938 	3.50636 	-3.7036e-20 34.8557 	3.49066 	-2.59857e-20 34.717 	3.4677 	-1.49923e-20 34.5786 	3.44473 	-3.9938e-21 33.869 	3.3556 	-6.17105e-22 34.1452 	3.37648 	0 34.0206 	3.3568 	0 33.8961 	3.3371 	0 33.7717 	3.31737 	0 33.6444 	3.29715 	0 33.6245 	3.29375 	0 33.6046 	3.29035 	0 33.5847 	3.28695 	0 33.5648 	3.28354 	0 33.5079 	3.27202 	0 33.4272 	3.26214 	-5.35137e-21 33.2898 	3.24256 	-1.12765e-20 33.1524 	3.22295 	-1.72035e-20 33.015 	3.20331 	-2.31323e-20 32.5723 	3.1276 	-3.26875e-20 32.8827 	3.17458 	-5.28934e-20 32.7557 	3.15863 	-5.64383e-20 32.6286 	3.14265 	-5.99796e-20 32.4322 	3.11571 	-5.9796e-20 31.7907 	3.01842 	-3.57294e-20 32.2282 	3.07026 	8.56989e-21 32.3537 	3.08481 	3.61874e-20 32.2421 	3.07102 	5.11271e-20 31.7881 	3.0119 	3.79379e-20 31.1526 	2.92871 	9.83992e-21 31.5889 	2.97009 	3.92075e-20 32.0251 	3.01146 	6.8575e-20 31.8882 	2.99517 	6.90086e-20 31.2678 	2.92527 	4.02353e-20 30.6474 	2.85534 	1.14644e-20 31.0852 	2.89056 	6.59516e-21 31.523 	2.92576 	1.7268e-21 31.4631 	2.91291 	0 30.8615 	2.85127 	0 30.2599 	2.78963 	0 30.7024 	2.81717 	0 31.0554 	2.83676 	-5.99531e-23 30.9733 	2.81776 	-4.11758e-22 30.5601 	2.77569 	-2.48088e-21 29.9804 	2.72201 	-5.41418e-21 30.4284 	2.74093 	-2.52155e-20 30.5306 	2.734 	-2.85476e-20 30.4557 	2.71383 	-2.34469e-20 30.3503 	2.69201 	-1.73537e-20 29.796 	2.64627 	3.45492e-21 30.1759 	2.65212 	2.31548e-20 30.1108 	2.63057 	1.99461e-20 30.0459 	2.60901 	1.67496e-20 29.9811 	2.58742 	1.35654e-20 29.6936 	2.55753 	1.80272e-21 29.8506 	2.54802 	1.48938e-21 29.8054 	2.52768 	-7.0449e-22 29.7603 	2.50733 	-2.89767e-21 29.7153 	2.48696 	-5.09016e-21 29.6663 	2.46468 	-7.48548e-21 29.6598 	2.46174 	-7.93831e-21 29.6533 	2.4588 	-8.39097e-21 29.6468 	2.45586 	-8.84345e-21 29.6404 	2.45292 	-9.29576e-21 29.619 	2.44889 	-8.89842e-21 29.5948 	2.42264 	-6.93566e-21 29.5541 	2.39559 	-4.97408e-21 29.5136 	2.36852 	-3.01432e-21 29.4733 	2.34142 	-1.05637e-21 29.3024 	2.30679 	0 29.4124 	2.27942 	5.60625e-22 29.3835 	2.24851 	1.79328e-21 29.3549 	2.21759 	3.0278e-21 29.3263 	2.18666 	4.26419e-21 29.0613 	2.14706 	5.50521e-21 29.2831 	2.11529 	4.07273e-21 29.2651 	2.08084 	3.86185e-21 29.2473 	2.04639 	3.65506e-21 29.175 	2.01071 	3.59902e-21 28.8834 	1.97021 	4.13531e-21 29.1055 	1.93203 	3.31813e-21 29.1844 	1.89326 	5.36355e-21 29.175 	1.85413 	9.17972e-21 29.0274 	1.81315 	1.33958e-20 28.7534 	1.77051 	1.79726e-20 28.9741 	1.72434 	3.30955e-20 29.1332 	1.67839 	4.33441e-20 29.1306 	1.63297 	4.09221e-20 28.9198 	1.58721 	2.60035e-20 28.6591 	1.54142 	8.07299e-21 28.8751 	1.48591 	5.28331e-21 29.0921 	1.43042 	2.49746e-21 29.0831 	1.37881 	-5.16292e-21 28.8345 	1.33187 	-1.01399e-20 28.5867 	1.28498 	-1.51213e-20 28.7937 	1.22397 	-9.70135e-21 29.0021 	1.16298 	-4.29965e-21 28.9934 	1.10747 	-1.7368e-21 28.757 	1.05898 	-3.94215e-21 28.5217 	1.01053 	-6.14983e-21 28.7184 	0.946871 	-3.82394e-21 28.9164 	0.883214 	-1.50553e-21 28.9062 	0.825331 	-2.89683e-21 28.6807 	0.774488 	-7.52124e-21 28.4563 	0.723679 	-1.21508e-20 28.6408 	0.657922 	-4.21907e-20 28.8268 	0.592159 	-7.22457e-20 28.8136 	0.532258 	-7.23094e-20 28.5963 	0.479189 	-4.214e-20 28.3802 	0.426131 	-1.19945e-20 28.5479 	0.358331 	-7.34515e-21 28.7173 	0.290508 	-2.70938e-21 28.702 	0.230758 	0 28.4971 	0.180143 	0 28.2934 	0.129515 	0 28.4486 	0.0641703 	0 28.6053 	-0.0012105 	0 28.5911 	-0.0579692 	4.15267e-21 28.3984 	-0.1044 	1.13489e-20 28.2069 	-0.150866 	1.85524e-20 28.351 	-0.211307 	1.96024e-19 28.4965 	-0.271794 	3.73502e-19 28.4845 	-0.324273 	3.47801e-19 28.3035 	-0.365698 	1.34912e-19 28.1234 	-0.407172 	-7.80597e-20 28.2569 	-0.460619 	-3.02495e-19 28.3906 	-0.514054 	-5.25271e-19 28.3713 	-0.559177 	-5.22061e-19 28.2088 	-0.593795 	-3.1943e-19 28.0379 	-0.627793 	-1.04051e-19 28.1602 	-0.671132 	-7.15865e-20 28.2466 	-0.712649 	-3.11577e-20 28.2255 	-0.748722 	3.27846e-20 28.1147 	-0.779034 	7.75087e-20 27.9566 	-0.806313 	1.12062e-19 28.0731 	-0.840053 	8.16625e-20 28.1158 	-0.870129 	6.87477e-20 28.0958 	-0.897084 	7.07579e-20 28.0363 	-0.921727 	9.13096e-20 27.8897 	-0.9413 	1.52243e-19 28.0012 	-0.964626 	3.33046e-19 28.0004 	-0.981636 	3.20583e-19 27.981 	-0.997601 	2.75507e-19 27.962 	-1.01358 	2.30255e-19 27.8332 	-1.02368 	4.0608e-20 27.9162 	-1.03263 	-1.92959e-19 27.8987 	-1.03819 	-1.05819e-19 27.8814 	-1.04376 	-1.8578e-20 27.8642 	-1.04933 	6.87646e-20 27.7891 	-1.05376 	3.22537e-19 27.8297 	-1.05204 	4.97534e-19 27.8154 	-1.04886 	5.11611e-19 27.8009 	-1.04568 	5.25734e-19 27.7865 	-1.04249 	5.39901e-19 27.7586 	-1.03924 	5.09655e-19 27.7679 	-1.03576 	5.27507e-19 27.7641 	-1.03194 	4.81139e-19 27.7603 	-1.02812 	4.34802e-19 27.7564 	-1.0243 	3.88495e-19 27.7524 	-1.02038 	3.41021e-19 27.7453 	-1.01302 	2.51458e-19 27.7379 	-1.00565 	1.6199e-19 27.7305 	-0.998276 	7.2617e-20 27.723 	-0.990893 	-1.66611e-20 27.6469 	-0.981744 	-4.02384e-20 27.7066 	-0.964181 	-1.19563e-19 27.6983 	-0.94585 	-1.42691e-19 27.6896 	-0.927493 	-1.6549e-19 27.6805 	-0.90911 	-1.8796e-19 27.5061 	-0.888201 	1.69827e-22 27.6604 	-0.864719 	2.4795e-19 27.6539 	-0.84095 	3.11046e-19 27.6467 	-0.817152 	3.73765e-19 27.639 	-0.793324 	4.36105e-19 27.376 	-0.767983 	1.74227e-19 27.6097 	-0.738307 	1.26976e-19 27.6085 	-0.710506 	8.08173e-20 27.6015 	-0.682718 	3.47421e-20 27.5395 	-0.655196 	1.34305e-20 27.2469 	-0.628913 	9.68308e-20 27.4799 	-0.59451 	6.6508e-19 27.5519 	-0.562891 	8.24424e-19 27.5435 	-0.532642 	7.79945e-19 27.4057 	-0.504589 	4.68331e-19 27.1092 	-0.479254 	-1.71329e-19 27.3425 	-0.44112 	-1.59802e-19 27.4764 	-0.40564 	-1.4826e-19 27.4653 	-0.374067 	-1.36477e-19 27.258 	-0.348101 	-2.12446e-19 26.9538 	-0.324905 	-3.31824e-19 27.1864 	-0.283526 	-8.49332e-19 27.3707 	-0.243979 	-1.23782e-18 27.3555 	-0.212191 	-1.09224e-18 27.0869 	-0.191131 	-4.55402e-19 26.7738 	-0.171938 	2.67586e-19 27.0051 	-0.128662 	1.79893e-19 27.2282 	-0.0857327 	9.22981e-20 27.2075 	-0.0550591 	8.48513e-22 26.8868 	-0.041003 	3.83956e-20 26.564 	-0.0270448 	7.68275e-20 26.7908 	0.0163916 	4.00987e-20 27.0174 	0.0598976 	3.27769e-21 26.9821 	0.0878965 	-7.3506e-20 26.6514 	0.0968999 	-8.25314e-20 26.3207 	0.105922 	-9.16539e-20 26.5406 	0.148454 	5.57249e-19 26.7605 	0.191064 	1.20574e-18 26.7171 	0.216297 	1.2811e-18 26.3806 	0.22092 	7.20196e-19 26.0442 	0.225559 	1.59217e-19 26.2557 	0.266224 	8.54152e-20 26.4673 	0.306972 	1.14234e-20 26.4167 	0.329324 	0 26.0765 	0.330229 	0 25.7362 	0.331146 	0 25.938 	0.369413 	0 26.1398 	0.407768 	0 26.0835 	0.427352 	5.44807e-20 25.7418 	0.425093 	6.3509e-20 25.4001 	0.422843 	7.25717e-20 25.5911 	0.457991 	-5.7056e-19 25.7823 	0.493229 	-1.21336e-18 25.7218 	0.510316 	-1.22485e-18 25.381 	0.505915 	-6.53768e-19 25.0401 	0.501521 	-8.25473e-20 25.2196 	0.533848 	-6.50989e-19 25.3994 	0.566265 	-1.21898e-18 25.3357 	0.580999 	-1.2949e-18 24.9971 	0.574376 	-8.07312e-19 24.6584 	0.567756 	-3.1962e-19 24.824 	0.596931 	-7.99654e-19 24.9899 	0.626196 	-1.27942e-18 24.9236 	0.638649 	-1.32016e-18 24.5906 	0.63029 	-7.2952e-19 24.2575 	0.62193 	-1.38761e-19 24.409 	0.647685 	8.48171e-19 24.5518 	0.672887 	1.79482e-18 24.4772 	0.68278 	1.77044e-18 24.1685 	0.674869 	9.1203e-19 23.8436 	0.665728 	-4.08489e-21 23.9829 	0.688164 	-3.61731e-20 24.0902 	0.708494 	-5.6434e-20 24.0108 	0.716295 	-7.72544e-21 23.7356 	0.710003 	-6.12129e-20 23.417 	0.700599 	-1.37263e-19 23.5416 	0.720374 	-6.91861e-19 23.61 	0.736329 	-1.07019e-18 23.526 	0.741804 	-9.71106e-19 23.2872 	0.736056 	-4.46999e-19 22.978 	0.725197 	2.70351e-19 23.0872 	0.741034 	8.11008e-19 23.1173 	0.75182 	1.15974e-18 23.0303 	0.755085 	1.22425e-18 22.83 	0.750755 	1.04434e-18 22.5344 	0.740028 	6.58932e-19 22.6311 	0.752863 	1.04319e-18 22.6263 	0.759473 	1.16824e-18 22.5367 	0.760889 	1.07725e-18 22.3712 	0.757582 	8.27481e-19 22.0868 	0.746854 	3.28919e-19 22.1681 	0.756442 	2.17419e-19 22.1293 	0.759185 	1.32142e-19 22.0377 	0.758922 	5.84095e-20 21.9054 	0.756375 	-6.12878e-21 21.6358 	0.746099 	-3.97438e-20 21.7049 	0.752578 	-6.05371e-19 21.637 	0.752127 	-6.07842e-19 21.5446 	0.750438 	-5.09234e-19 21.4416 	0.748263 	-3.77744e-19 21.1858 	0.738869 	2.32956e-19 21.2426 	0.742566 	2.35383e-19 21.1495 	0.739658 	2.38723e-19 21.0564 	0.736752 	2.42067e-19 20.9633 	0.733848 	2.45415e-19 20.7361 	0.725847 	2.53217e-19 20.7596 	0.726211 	-2.39052e-19 20.6663 	0.722188 	-2.19051e-19 20.573 	0.718161 	-1.99093e-19 20.4797 	0.71413 	-1.79178e-19 20.2871 	0.707267 	2.58762e-19 20.282 	0.704989 	6.37086e-19 20.1893 	0.700078 	5.49331e-19 20.0965 	0.695157 	4.61642e-19 20.0037 	0.690226 	3.74021e-19 19.8411 	0.684005 	7.20511e-21 19.8119 	0.679789 	-2.89878e-19 19.7203 	0.674393 	-2.75821e-19 19.6286 	0.668984 	-2.61866e-19 19.5369 	0.663561 	-2.48016e-19 19.3999 	0.657896 	-6.05554e-21 19.3506 	0.652559 	8.13657e-20 19.2599 	0.646778 	2.25484e-19 19.1691 	0.640979 	3.69572e-19 19.0783 	0.635164 	5.13629e-19 18.9619 	0.62951 	6.48397e-19 18.8957 	0.623401 	5.77012e-19 18.8061 	0.617248 	5.13413e-19 18.7164 	0.611076 	4.49757e-19 18.6266 	0.604884 	3.86044e-19 18.5271 	0.598891 	3.32991e-19 18.4693 	0.594045 	2.41985e-19 18.4023 	0.589244 	1.40367e-19 18.3353 	0.584431 	3.8749e-20 18.2682 	0.579605 	-6.28704e-20 18.195 	0.574327 	-1.73703e-19 18.1748 	0.572859 	-2.04185e-19 18.1546 	0.57139 	-2.34668e-19 18.1344 	0.56992 	-2.6515e-19 18.1142 	0.568448 	-2.95633e-19 18.0899 	0.566746 	-3.24213e-19 18.0068 	0.560425 	-3.47868e-19 17.9195 	0.553907 	-3.58375e-19 17.8321 	0.547367 	-3.68754e-19 17.7446 	0.540803 	-3.79002e-19 17.6365 	0.533146 	-3.20107e-19 17.5714 	0.527223 	-2.52523e-19 17.4855 	0.520525 	-1.85033e-19 17.3995 	0.513802 	-1.17567e-19 17.3134 	0.507053 	-5.01249e-20 17.1928 	0.498646 	0 17.1428 	0.492903 	0 17.0585 	0.486084 	0 16.9741 	0.479239 	0 16.8896 	0.472366 	0 16.759 	0.463516 	0 16.7214 	0.457798 	-3.49248e-20 16.6388 	0.450946 	-9.03939e-20 16.556 	0.444066 	-1.45888e-19 16.4732 	0.437158 	-2.01406e-19 16.3355 	0.428156 	-2.83083e-19 16.3073 	0.42233 	-4.15827e-19 16.2263 	0.41546 	-3.69061e-19 16.1452 	0.408562 	-3.22113e-19 16.0639 	0.401634 	-2.74982e-19 15.9216 	0.392618 	4.0352e-20 15.9003 	0.386484 	3.23221e-19 15.821 	0.37957 	5.40958e-19 15.7415 	0.372625 	7.58585e-19 15.6618 	0.36565 	9.76102e-19 15.5172 	0.356758 	1.02872e-18 15.5006 	0.350254 	1.26229e-18 15.4231 	0.343337 	1.16299e-18 15.3454 	0.336389 	1.06342e-18 15.2675 	0.32941 	9.63586e-19 15.1229 	0.320791 	4.62877e-19 15.1088 	0.313892 	3.20436e-19 15.0329 	0.307053 	1.14509e-19 14.9568 	0.300184 	-9.14158e-20 14.8805 	0.293283 	-2.97339e-19 14.7378 	0.285111 	-3.68783e-19 14.7237 	0.277812 	-3.70361e-19 14.6497 	0.271066 	-4.03063e-19 14.5756 	0.26429 	-4.35898e-19 14.5012 	0.257482 	-4.68869e-19 14.363 	0.249781 	-5.44063e-19 14.3479 	0.242144 	-1.2234e-18 14.2762 	0.235513 	-1.17939e-18 14.2044 	0.228851 	-1.13488e-18 14.1323 	0.222158 	-1.08987e-18 14.0003 	0.214909 	-4.07687e-19 13.9831 	0.207028 	-2.86877e-19 13.9138 	0.200557 	-1.99427e-19 13.8442 	0.194055 	-1.1203e-19 13.7745 	0.187522 	-2.46876e-20 13.6498 	0.180769 	0 13.63 	0.172781 	-1.15273e-20 13.5628 	0.166414 	-5.14445e-20 13.4955 	0.160018 	-9.13873e-20 13.4279 	0.15359 	-1.31356e-19 13.311 	0.147163 	-1.71448e-19 13.2879 	0.139073 	-1.56769e-19 13.2228 	0.132786 	-1.95519e-19 13.1575 	0.126469 	-2.34348e-19 13.0921 	0.120122 	-2.73257e-19 12.9836 	0.114 	-3.38173e-19 12.9569 	0.105992 	-2.6201e-19 12.8941 	0.0998727 	-1.86733e-19 12.831 	0.0937238 	-1.11511e-19 12.7678 	0.0875453 	-3.63436e-20 12.6682 	0.0817407 	-6.80589e-21 12.6376 	0.0739864 	1.12046e-20 12.5769 	0.0680539 	5.17219e-20 12.5161 	0.0620932 	9.22653e-20 12.4551 	0.0561038 	1.32835e-19 12.3648 	0.0505255 	1.38707e-19 12.33 	0.043105 	-1.0801e-19 12.2715 	0.0373127 	-1.00886e-19 12.2128 	0.0314928 	-9.33221e-20 12.1539 	0.025645 	-8.53136e-20 12.073 	0.0201681 	1.30815e-19 12.0341 	0.0131154 	1.44849e-19 11.9776 	0.0074241 	1.45132e-19 11.921 	0.001706 	1.45466e-19 11.8641 	-0.00403928 	1.45852e-19 11.7926 	-0.00948615 	1.56429e-19 11.7498 	-0.0160475 	1.24071e-19 11.6956 	-0.0216316 	9.17072e-20 11.6412 	-0.0272417 	5.9369e-20 11.5866 	-0.0328782 	2.70569e-20 11.5247 	-0.038357 	0 11.4786 	-0.0442778 	0 11.4268 	-0.0496756 	0 11.3748 	-0.0550982 	0 11.3227 	-0.0605457 	0 11.2703 	-0.0660165 	0 11.2698 	-0.0660787 	-2.70085e-22 11.2693 	-0.0661347 	-5.92385e-22 11.2687 	-0.0661907 	-9.14687e-22 11.2682 	-0.0662467 	-1.23699e-21 11.2677 	-0.0663025 	-1.55846e-21 11.2187 	-0.0714321 	-2.89615e-20 11.1696 	-0.0765851 	-5.63419e-20 11.1204 	-0.0817617 	-8.36992e-20 11.071 	-0.0869624 	-1.11033e-19 11.0204 	-0.0913207 	-1.3827e-19 10.9763 	-0.0967973 	-2.43725e-19 10.9291 	-0.101808 	-3.27965e-19 10.8818 	-0.106841 	-4.12279e-19 10.8344 	-0.111898 	-4.96668e-19 10.7847 	-0.115238 	-5.16042e-19 10.7458 	-0.121021 	-5.31667e-19 10.7009 	-0.125868 	-5.04076e-19 10.6559 	-0.130737 	-4.76513e-19 10.6108 	-0.135627 	-4.48977e-19 10.5624 	-0.137963 	-3.38921e-19 10.5285 	-0.144076 	5.77429e-21 10.4858 	-0.148802 	1.11469e-19 10.443 	-0.15355 	2.17591e-19 10.4 	-0.158317 	3.24144e-19 10.3526 	-0.159711 	1.16221e-19 10.3237 	-0.166127 	3.70432e-19 10.283 	-0.170761 	3.43157e-19 10.2422 	-0.175415 	3.16285e-19 10.2011 	-0.179939 	2.76271e-19 10.1549 	-0.180643 	-1.09825e-19 10.1289 	-0.187081 	-1.32742e-19 10.0921 	-0.191926 	-1.32696e-19 10.0533 	-0.196499 	-1.28437e-19 10.0128 	-0.199984 	-1.47561e-19 9.96872 	-0.200837 	-2.22768e-19 9.94406 	-0.207026 	-5.5585e-19 9.91269 	-0.212278 	-7.27841e-19 9.87583 	-0.216764 	-7.68029e-19 9.83596 	-0.219288 	-5.92101e-19 9.79381 	-0.220316 	-2.51433e-19 9.77049 	-0.226289 	2.8755e-20 9.7444 	-0.231911 	2.44331e-19 9.70941 	-0.236316 	2.43059e-19 9.66994 	-0.237961 	-3.24941e-20 9.62966 	-0.239144 	-3.54287e-19 9.60766 	-0.244888 	-4.21695e-19 9.58549 	-0.250648 	-4.89019e-19 9.55272 	-0.254662 	-4.25135e-19 9.51426 	-0.256011 	-3.02908e-19 9.47574 	-0.257365 	-1.80674e-19 9.455 	-0.262902 	-1.08219e-19 9.43411 	-0.268453 	-3.57932e-20 9.40512 	-0.272009 	0 9.36829 	-0.273492 	0 9.33138 	-0.274981 	0 9.31185 	-0.280289 	0 9.29216 	-0.285611 	0 9.26663 	-0.288747 	0 9.23129 	-0.290369 	0 9.19587 	-0.291998 	0 9.17746 	-0.297104 	0 9.15804 	-0.301856 	0 9.13389 	-0.304677 	0 9.10254 	-0.306695 	0 9.06847 	-0.308421 	0 9.0511 	-0.313308 	0 9.03068 	-0.317109 	0 9.00746 	-0.319909 	0 8.9813 	-0.322412 	-1.28724e-20 8.94847 	-0.324224 	-5.54531e-20 8.93205 	-0.328907 	-5.25502e-21 8.91037 	-0.331865 	-3.427e-22 8.88799 	-0.334626 	-7.25676e-22 8.86552 	-0.337392 	-1.10889e-21 8.83515 	-0.339384 	-7.48657e-20 8.81794 	-0.343348 	-2.54513e-19 8.7964 	-0.346049 	-1.97756e-19 8.77477 	-0.348756 	-1.40729e-19 8.75305 	-0.351468 	-8.34307e-20 8.72784 	-0.353871 	1.04358e-19 8.71346 	-0.356454 	1.80518e-19 8.69711 	-0.35853 	1.21997e-19 8.6807 	-