/*--------------------------------*- C++ -*----------------------------------*\
| =========                 |                                                 |
| \\      /  F ield         | OpenFOAM: The Open Source CFD Toolbox           |
|  \\    /   O peration     | Version:  v1906                                 |
|   \\  /    A nd           | Web:      www.OpenFOAM.com                      |
|    \\/     M anipulation  |                                                 |
\*---------------------------------------------------------------------------*/
FoamFile
{
    version     2.0;
    format      ascii;
    class       volScalarField;
    location    "700";
    object      epsilon;
}
// * * * * * * * * * * * * * * * * * * * * * * * * * * * * * * * * * * * * * //

dimensions      [0 2 -3 0 0 0 0];


internalField   nonuniform List<scalar> 
12225
(
8534.02
8352.96
7991.41
7605.19
7244.45
6922.63
6639.39
6393.89
6175.51
5989.41
5816.37
5677.49
5566.16
5476.9
5395.28
5337.48
5267.59
5242.4
612.839
1496.61
1698.51
1689.04
1643.04
1564.95
1506.98
1460.96
1422.69
1390.16
1362.74
1338.61
1320.06
1303.74
1290.28
1279.08
1264.98
1256.07
136.092
458.852
618.692
686.912
717.295
720.655
717.552
710.205
700.245
689.687
679.668
669.666
660.605
652.088
644.08
637.45
629.206
625.401
58.4939
196.181
292.428
349.166
383.804
402.63
412.967
418.16
419.598
419.052
417.514
414.76
411.576
408.161
404.535
401.316
396.934
395.282
35.9829
104.797
162.953
203.261
231.265
250.088
262.822
271.455
277.078
280.615
282.788
283.868
284.073
283.852
283.243
282.432
280.892
280.844
26.8376
65.6335
102.216
130.424
151.686
167.443
179.138
187.868
194.348
199.132
202.676
205.255
207.055
208.297
209.1
209.587
209.7
210.253
22.3043
46.129
70.0863
90.0236
105.967
118.522
128.392
136.18
142.331
147.19
151.045
154.102
156.508
158.4
159.878
161.033
161.863
162.908
19.7657
35.3023
51.562
65.8841
77.8823
87.7546
95.8406
102.471
107.918
112.4
116.101
119.164
121.699
123.8
125.542
126.988
128.173
129.427
18.2251
28.7915
40.1554
50.6102
59.7069
67.4544
74.0044
79.5361
84.2118
88.1709
91.5322
94.3935
96.8334
98.918
100.703
102.235
103.557
104.853
17.2354
24.6377
32.7695
40.5139
47.4711
53.5692
58.8613
63.4392
67.3981
70.8252
73.7976
76.3812
78.6315
80.5954
82.3133
83.8205
85.1564
86.4213
16.5719
21.8683
27.7957
33.6056
38.9714
43.7933
48.0731
51.8522
55.1836
58.1204
60.7123
63.0032
65.0316
66.8307
68.4301
69.8563
71.1405
72.3385
16.15
20.118
24.6282
29.1493
33.4181
37.3325
40.8708
44.0474
46.8909
49.4339
51.7089
53.7458
55.5719
57.2114
58.6861
60.0165
61.2261
62.3488
15.8382
18.8307
22.2846
25.8208
29.2306
32.4184
35.3505
38.0246
40.453
42.6539
44.6474
46.4532
48.0901
49.5753
50.9248
52.1543
53.2807
54.3256
15.58
17.773
20.348
23.0454
25.7065
28.2472
30.6289
32.8385
34.8762
36.7491
38.4677
40.0433
41.4877
42.8122
44.0279
45.1456
46.1772
47.1358
15.3746
16.94
18.814
20.8269
22.8632
24.8528
26.7571
28.5569
30.2444
31.8188
33.2831
34.6423
35.9025
37.0704
38.1529
39.157
40.0902
40.9606
15.2202
16.3202
17.6661
19.1522
20.6972
22.2455
23.7612
25.2224
26.6168
27.9382
29.1842
30.3553
31.4535
32.4818
33.4437
34.3434
35.1851
35.9732
15.1154
15.9033
16.8898
18.0101
19.2076
20.4384
21.6705
22.8818
24.0573
25.1879
26.2679
27.2947
28.2675
29.1866
30.0536
30.8703
31.639
32.3615
15.0629
15.6954
16.5005
17.4331
18.4493
19.5123
20.5928
21.6693
22.726
23.7524
24.7413
25.6886
26.5921
27.4508
28.2652
29.036
29.7648
30.4538
15.079
15.7585
16.6173
17.6041
18.672
19.7824
20.9058
22.0206
23.1116
24.1686
25.1851
26.1573
27.0832
27.9623
28.7948
29.5816
30.3238
31.0222
15.1988
16.2331
17.5009
18.9061
20.374
21.8526
23.3075
24.717
26.0685
27.3551
28.5737
29.7239
30.8068
31.8246
32.7798
33.6748
34.5119
35.2921
15.4072
17.0668
19.0415
21.1515
23.2775
25.3491
27.3283
29.1969
30.9483
32.5825
34.1034
35.5164
36.8283
38.0457
39.1754
40.2228
41.1925
42.0849
15.7671
18.525
21.7124
24.9937
28.1795
31.1798
33.9603
36.5153
38.8527
40.9866
42.9334
44.7099
46.332
47.8147
49.1716
50.4141
51.5509
52.5807
16.3868
21.0661
26.3185
31.5139
36.3624
40.7677
44.7221
48.2526
51.3988
54.2026
56.7038
58.9384
60.9389
62.7336
64.3482
65.8041
67.1189
68.2844
17.4988
25.6604
34.5311
42.8946
50.3481
56.8504
62.4814
67.3448
71.5465
75.1833
78.3385
81.0832
83.4774
85.5717
87.4113
89.033
90.4748
91.7148
19.6475
34.5757
50.1055
63.8336
75.3844
84.974
92.9203
99.4921
104.94
109.471
113.251
116.413
119.065
121.292
123.175
124.768
126.157
127.287
24.2998
53.9039
82.4122
105.381
123.268
137.152
147.966
156.314
162.796
167.85
171.782
174.839
177.203
179.01
180.411
181.452
182.312
182.857
36.4922
103.325
158.513
197.276
224.161
242.91
255.967
264.569
270.36
274.167
276.484
277.754
278.237
278.138
277.79
277.045
276.296
275.256
81.6126
262.53
372.087
433.128
466.553
484.64
492.874
493.515
492.288
489.367
485.153
480.506
475.756
470.865
466.278
461.522
457.566
453.214
390.158
975.283
1160.2
1205.54
1197.69
1174.12
1134.79
1094.99
1063.59
1037.73
1015.71
996.621
980.006
965.224
952.38
940.646
930.763
921.361
6457.22
6260.43
5992.29
5735.72
5500.27
5289.45
5101.2
4933.69
4784.79
4652.07
4533.31
4426.47
4330.21
4242.71
4163.63
4090.77
4025.09
3963.26
9.18739
14.257
24.4778
31.3651
36.8767
40.9123
44.3039
47.0089
49.3334
51.267
52.9336
54.3487
55.5787
56.6467
57.5875
58.4149
59.1408
59.7678
60.2901
60.6998
60.997
61.1052
61.0921
60.9388
60.5662
60.016
59.2877
58.3877
57.2956
55.6282
53.3189
50.2976
46.4866
41.7805
36.1487
29.4709
23.4982
19.5122
18.0031
19.3865
24.5612
30.9037
33.984
34.8219
35.051
35.6263
36.5459
37.494
38.5627
39.8368
41.3622
43.2183
45.4371
47.8494
50.4642
53.2171
56.1554
59.3228
62.7808
66.5866
70.825
75.5889
80.9743
87.0585
93.9213
101.631
110.161
119.554
129.834
141.011
153.09
166.058
179.902
194.595
210.113
226.424
243.491
261.272
279.72
298.784
318.406
338.524
359.06
379.938
401.055
422.318
443.607
464.823
485.867
506.774
527.572
548.538
569.887
591.538
613.34
634.931
655.847
675.45
693.158
705.398
712.022
714.569
708.601
692.01
659.051
623.355
585.767
547.085
508.028
469.745
433.514
401.073
373.577
351.396
335.153
324.284
318.144
315.588
315.205
316.54
319.139
322.52
326.276
330.18
334.038
337.739
341.478
345.688
350.083
353.893
354.835
354.492
353.59
352.307
350.729
348.922
346.946
344.851
342.684
340.484
338.284
336.111
333.988
331.932
329.956
328.067
326.271
324.568
322.958
321.44
320.009
318.66
317.389
316.188
315.049
313.963
312.924
311.928
310.974
310.047
309.145
308.277
307.457
306.69
305.985
305.342
304.766
304.251
303.807
303.408
303.089
302.769
302.555
302.212
302.044
301.448
300.978
299.659
295.423
269.49
21.6107
17.8017
18.6468
20.278
21.7295
23.0397
24.1907
25.2358
26.1534
26.9813
27.714
28.3606
28.9168
29.3901
29.7863
30.1159
30.3887
30.6153
30.8049
30.9658
31.1089
31.2446
31.3861
31.5461
31.7413
31.9596
32.1893
32.4309
32.6995
33.0515
33.5451
34.1659
34.8675
35.5753
36.1956
36.6374
37.2005
37.9568
39.0132
40.5501
42.6978
45.1065
47.2034
48.8747
50.361
51.8712
53.4566
55.0554
56.6153
58.0983
59.4823
60.7706
61.9881
63.1763
64.3959
65.7197
67.2229
68.9704
71.0125
73.3862
76.1203
79.1529
82.432
85.8981
89.5082
93.3298
97.3653
101.603
106.028
110.621
115.364
120.236
125.218
130.291
135.436
140.633
145.819
150.969
156.061
161.077
166.004
170.834
175.57
180.225
184.838
189.481
194.289
199.494
205.517
212.694
220.612
229.617
238.666
247.494
255.885
263.608
270.409
276.05
279.973
281.558
281.837
279.521
274.843
267.206
256.393
244.633
231.83
218.452
204.968
191.918
179.857
168.97
159.481
151.817
145.684
140.809
137.176
134.807
133.732
133.674
134.28
135.265
136.43
137.653
138.859
140.036
141.202
142.217
142.806
142.908
142.567
142.003
141.301
140.477
139.546
138.529
137.444
136.309
135.14
133.951
132.755
131.56
130.376
129.209
128.064
126.944
125.852
124.789
123.758
122.758
121.788
120.849
119.939
119.057
118.202
117.372
116.567
115.785
115.024
114.287
113.578
112.895
112.236
111.6
110.989
110.402
109.839
109.3
108.786
108.295
107.825
107.374
106.941
106.516
106.094
105.681
105.171
104.977
105.422
106.028
51.0686
27.9813
24.8601
23.8295
23.9655
24.2583
24.7606
25.2843
25.8723
26.4798
27.0832
27.6681
28.2089
28.7066
29.1595
29.5762
29.9655
30.3413
30.7192
31.1192
31.5696
32.0961
32.6966
33.3614
34.0853
34.8686
35.7181
36.6503
37.6886
38.8599
40.1845
41.6689
43.3069
45.0861
46.9986
49.0582
51.1349
53.3068
55.7149
58.4938
61.5875
64.6666
67.3899
69.599
71.2688
72.4537
73.2355
73.7091
73.9923
74.2065
74.4626
74.8549
75.4572
76.3221
77.4838
78.9596
80.7491
82.8351
85.1854
87.7549
90.4879
93.3689
96.3845
99.5326
102.809
106.154
109.523
112.887
116.217
119.49
122.68
125.766
128.729
131.552
134.154
136.581
138.881
141.092
143.216
145.27
147.283
149.287
151.317
153.413
155.62
157.99
160.576
163.427
166.572
170.004
173.651
177.368
180.96
184.329
187.331
189.879
191.807
192.779
193.021
192.221
190.346
187.197
182.867
177.262
170.32
162.468
153.83
144.847
136.005
127.832
120.942
115.098
110.227
106.272
103.086
100.596
98.7705
97.5589
96.8894
96.6165
96.5878
96.7116
96.9104
97.129
97.3364
97.5154
97.6417
97.6704
97.5404
97.2471
96.835
96.3544
95.8193
95.2325
94.5993
93.927
93.2235
92.4965
91.7531
90.9993
90.2408
89.482
88.7267
87.9779
87.238
86.509
85.7924
85.0893
84.4003
83.7262
83.067
82.423
81.7944
81.1814
80.5852
80.0058
79.4426
78.8948
78.3631
77.8526
77.3758
76.9183
76.4752
76.0451
75.6277
75.223
74.8315
74.4533
74.0885
73.737
73.3989
73.0737
72.7628
72.4656
72.1897
71.934
71.718
71.6988
71.9197
72.792
67.0709
37.4852
31.2377
29.1026
28.3702
28.2856
28.485
28.9336
29.4616
30.0799
30.7047
31.3392
31.9465
32.5358
33.1002
33.6518
34.1975
34.7518
35.3268
35.9354
36.5902
37.3099
38.1332
39.1324
40.2774
41.5449
42.9183
44.384
45.9276
47.5318
49.1812
50.8687
52.5951
54.3679
56.2057
58.1525
60.2901
62.7275
65.5297
68.622
71.7425
74.5376
76.7526
78.3161
79.3033
79.8707
80.1952
80.4431
80.7607
81.2644
82.0365
83.1276
84.5594
86.3304
88.4206
90.7958
93.4112
96.2151
99.1535
102.174
105.229
108.28
111.292
114.234
117.077
119.794
122.363
124.766
126.991
129.031
130.884
132.555
134.052
135.393
136.641
137.816
138.885
139.861
140.81
141.768
142.759
143.8
144.907
146.09
147.362
148.732
150.208
151.799
153.525
155.404
157.516
159.517
161.241
162.604
163.476
163.837
163.739
162.997
161.663
159.667
157.039
153.806
150.076
145.967
141.013
135.2
128.641
121.665
114.696
108.159
102.361
97.4551
93.417
90.1284
87.5164
85.5176
84.0537
83.0344
82.3644
81.9484
81.7056
81.5741
81.504
81.4575
81.4073
81.3304
81.2052
81.0139
80.7481
80.414
80.0266
79.5988
79.1355
78.6401
78.1166
77.5699
77.0048
76.4261
75.8382
75.2448
74.6494
74.0547
73.463
72.8761
72.2955
71.7225
71.1579
70.6026
70.057
69.5216
68.9968
68.4829
67.9808
67.4918
67.0184
66.5607
66.1173
65.6871
65.27
64.867
64.4777
64.0988
63.7286
63.3669
63.0133
62.6685
62.3329
62.0065
61.689
61.3805
61.0805
60.7899
60.5078
60.2392
59.9854
59.757
59.5663
59.5071
59.6139
60.1829
96.5219
47.6123
38.4722
35.0601
33.7045
33.1822
33.1808
33.4576
33.9362
34.5549
35.228
35.9583
36.6813
37.4089
38.1188
38.8262
39.528
40.2398
40.9723
41.7472
42.5873
43.5147
44.542
45.6841
46.9648
48.3913
49.9455
51.6004
53.3207
55.0683
56.8118
58.537
60.2515
61.9839
63.7807
65.6989
67.7891
70.0636
72.4613
74.8425
77.0344
78.9031
80.4031
81.579
82.534
83.3977
84.2972
85.3403
86.609
88.156
90.006
92.1592
94.595
97.2771
100.158
103.183
106.295
109.438
112.56
115.614
118.56
121.366
124.006
126.46
128.714
130.759
132.595
134.223
135.653
136.901
137.985
138.929
139.761
140.509
141.198
141.85
142.517
143.232
143.989
144.79
145.636
146.52
147.433
148.361
149.288
150.195
151.058
151.849
152.554
153.162
153.605
153.808
153.832
153.603
153.127
152.356
151.259
149.82
148.059
145.95
143.51
140.796
137.93
134.756
130.911
126.204
120.613
114.362
107.853
101.522
95.7226
90.6279
86.2959
82.7377
79.9136
77.7458
76.1348
74.9763
74.1712
73.631
73.2811
73.0599
72.917
72.8118
72.7117
72.591
72.4307
72.2198
71.9553
71.6401
71.2792
70.877
70.4378
69.9667
69.4695
68.952
68.4197
67.8776
67.3299
66.7802
66.2316
65.6863
65.1465
64.6135
64.0884
63.5722
63.0655
62.5686
62.0818
61.6055
61.14
60.6856
60.2437
59.8163
59.4081
59.017
58.6394
58.2732
57.9172
57.5704
57.2317
56.8999
56.5746
56.2554
55.9426
55.6374
55.3404
55.0504
54.7669
54.4901
54.2197
53.957
53.7023
53.4619
53.2446
53.0557
52.9214
52.8927
53.0117
53.4566
118.994
58.254
45.8807
41.2826
39.2179
38.3359
38.0918
38.2655
38.6906
39.3341
40.0819
40.9198
41.7836
42.6686
43.5506
44.4307
45.3041
46.1779
47.0579
47.9601
48.903
49.9111
51.0008
52.1796
53.4539
54.8368
56.3221
57.8854
59.4982
61.1333
62.772
64.4083
66.0497
67.7139
69.4214
71.1866
73.0069
74.8565
76.6893
78.4548
80.119
81.6782
83.1614
84.6228
86.1297
87.7501
89.5423
91.5478
93.7888
96.2681
98.9709
101.868
104.919
108.078
111.293
114.513
117.69
120.778
123.741
126.544
129.164
131.582
133.787
135.772
137.54
139.097
140.455
141.632
142.649
143.531
144.306
145.003
145.649
146.274
146.901
147.552
148.242
148.977
149.755
150.568
151.4
152.235
153.05
153.819
154.513
155.095
155.529
155.777
155.863
155.729
155.326
154.677
153.828
152.846
151.802
150.458
148.785
146.806
144.584
142.077
139.305
136.392
133.698
131.037
127.903
123.888
118.764
112.646
105.939
99.1509
92.7772
87.12
82.3038
78.3632
75.2487
72.8624
71.0874
69.8062
68.9109
68.3069
67.9141
67.6662
67.5083
67.3963
67.2953
67.1796
67.0315
66.8409
66.6039
66.3206
65.993
65.6244
65.2197
64.7845
64.325
63.847
63.356
62.8567
62.3531
61.8485
61.3457
60.8468
60.3535
59.867
59.3882
58.918
58.4566
58.0045
57.5619
57.129
56.7063
56.2944
55.8951
55.5118
55.1542
54.8129
54.4823
54.1599
53.8443
53.5346
53.23
52.93
52.6343
52.3429
52.056
51.774
51.4973
51.2258
50.9595
50.6988
50.4443
50.1975
49.9597
49.7364
49.5319
49.3573
49.2303
49.1936
49.2708
49.5871
149.185
70.0613
53.706
47.5366
44.7628
43.4387
42.9929
43.012
43.396
43.9924
44.7625
45.6368
46.5883
47.5941
48.6184
49.6553
50.6938
51.734
52.7764
53.8266
54.8913
55.9825
57.1127
58.2923
59.5287
60.8298
62.2056
63.6498
65.1373
66.6487
68.1715
69.6997
71.2337
72.7789
74.3422
75.9281
77.5363
79.1641
80.8104
82.4803
84.1865
85.9497
87.7958
89.7541
91.8547
94.1236
96.579
99.2266
102.056
105.044
108.157
111.358
114.605
117.857
121.071
124.211
127.24
130.131
132.857
135.4
137.747
139.891
141.828
143.564
145.106
146.469
147.67
148.731
149.679
150.54
151.344
152.122
152.901
153.708
154.565
155.488
156.486
157.558
158.697
159.883
161.09
162.283
163.42
164.453
165.33
166.009
166.427
166.593
166.496
166.042
165.233
164.074
162.565
160.684
158.431
155.831
152.972
149.989
147.125
144.19
141.154
138.04
135.019
132.367
129.578
125.935
120.877
114.377
106.917
99.1989
91.9116
85.468
80.0364
75.6422
72.2089
69.6064
67.6899
66.3201
65.3735
64.7443
64.3443
64.101
63.9555
63.8606
63.7802
63.6879
63.5667
63.4065
63.2022
62.9527
62.6596
62.3265
61.9585
61.5618
61.1423
60.7058
60.2575
59.8018
59.3424
58.8824
58.4241
57.9695
57.5201
57.0768
56.6406
56.2119
55.7912
55.3786
54.9744
54.5789
54.1925
53.8162
53.4512
53.0998
52.763
52.4367
52.1183
51.8063
51.4996
51.1975
50.8995
50.6052
50.3147
50.0277
49.7446
49.4656
49.1911
48.9213
48.6568
48.3983
48.147
47.9046
47.6745
47.46
47.2694
47.1101
47.005
46.9738
47.0455
47.2677
171.903
80.8359
61.0063
53.4528
49.9886
48.2592
47.6087
47.5037
47.8476
48.4374
49.2318
50.1399
51.1393
52.1932
53.2976
54.4384
55.5923
56.7541
57.9215
59.0965
60.2821
61.4807
62.6942
63.9268
65.1822
66.4638
67.7734
69.1115
70.4785
71.8775
73.3118
74.7744
76.2692
77.8093
79.4138
81.0924
82.8393
84.6476
86.5116
88.4294
90.4049
92.4478
94.5738
96.8028
99.158
101.665
104.354
107.233
110.257
113.385
116.576
119.793
122.999
126.162
129.252
132.241
135.107
137.83
140.394
142.789
145.007
147.045
148.906
150.595
152.125
153.51
154.77
155.93
157.018
158.064
159.103
160.166
161.288
162.496
163.813
165.255
166.824
168.512
170.297
172.144
174.005
175.822
177.533
179.07
180.368
181.367
181.989
182.247
182.124
181.524
180.459
178.933
176.946
174.501
171.606
168.282
164.573
160.565
156.369
152.14
148.295
144.531
140.81
137.289
134.402
130.802
125.471
118.183
109.538
100.515
91.9876
84.5429
78.3801
73.4832
69.7264
66.9315
64.9134
63.5027
62.5542
61.9474
61.5838
61.3841
61.2844
61.235
61.1981
61.1467
61.0644
60.9411
60.7717
60.5552
60.2938
59.9921
59.6562
59.2925
58.9072
58.5062
58.0944
57.6761
57.2548
56.8333
56.4138
55.9979
55.5869
55.1817
54.7828
54.3907
54.0057
53.628
53.2577
52.895
52.5403
52.1943
51.8576
51.5308
51.2132
50.9027
50.598
50.2979
50.0016
49.7088
49.419
49.1321
48.848
48.5667
48.2884
48.0134
47.7421
47.4749
47.2127
46.9563
46.7076
46.4683
46.2423
46.0331
45.8493
45.6976
45.5981
45.5589
45.6066
45.7395
198.185
91.1164
67.6408
58.7091
54.638
52.5463
51.7544
51.5769
51.8974
52.5023
53.3412
54.3193
55.4069
56.5576
57.7547
58.9767
60.2146
61.4619
62.7198
63.9871
65.2645
66.552
67.8499
69.1588
70.4797
71.8134
73.161
74.5244
75.9065
77.3123
78.75
80.2321
81.7791
83.4204
85.1599
86.9908
88.9025
90.8837
92.925
95.0214
97.173
99.3857
101.67
104.042
106.518
109.118
111.863
114.768
117.785
120.872
123.994
127.118
130.217
133.265
136.243
139.129
141.907
144.563
147.085
149.466
151.698
153.781
155.716
157.51
159.175
160.726
162.187
163.586
164.954
166.331
167.754
169.265
170.9
172.69
174.654
176.797
179.109
181.561
184.106
186.681
189.21
191.613
193.803
195.7
197.232
198.344
198.971
199.168
198.895
198.126
196.906
195.264
193.219
190.785
187.963
184.712
180.97
176.674
171.818
166.446
160.746
155.077
150.136
145.773
142.238
138.33
132.426
123.974
113.707
102.964
92.9265
84.2848
77.2935
71.8622
67.7886
64.8271
62.7413
61.3253
60.4092
59.856
59.5564
59.4233
59.3878
59.3978
59.413
59.4059
59.3622
59.2723
59.1315
58.9394
58.6998
58.4187
58.1032
57.7607
57.3978
57.0205
56.6339
56.2421
55.8485
55.4556
55.0655
54.6794
54.2985
53.9233
53.5543
53.1919
52.8361
52.4869
52.1445
51.809
51.4804
51.1592
50.8452
50.5384
50.2378
49.9422
49.6507
49.3624
49.0769
48.7938
48.5128
48.2337
47.9565
47.6813
47.4083
47.1376
46.8699
46.6057
46.346
46.0918
45.8451
45.6079
45.3844
45.1781
44.9973
44.8478
44.7456
44.6916
44.7074
44.7712
213.958
99.2514
73.0632
63.1123
58.5105
56.1187
55.1746
54.9255
55.232
55.8642
56.7664
57.8368
59.043
60.3337
61.6862
63.0721
64.4784
65.8927
67.3087
68.7219
70.1336
71.5435
72.9501
74.3525
75.7512
77.1485
78.5482
79.9559
81.3801
82.8324
84.3283
85.8882
87.538
89.3079
91.1882
93.1651
95.2229
97.3469
99.5255
101.751
104.022
106.34
108.711
111.144
113.651
116.245
118.939
121.749
124.665
127.646
130.661
133.684
136.691
139.663
142.582
145.431
148.197
150.866
153.428
155.875
158.199
160.398
162.474
164.431
166.284
168.05
169.756
171.435
173.125
174.87
176.714
178.697
180.851
183.197
185.735
188.447
191.289
194.201
197.1
199.894
202.486
204.779
206.688
208.146
209.096
209.53
209.495
208.98
208.042
206.76
205.223
203.51
201.695
199.828
197.921
195.954
193.805
191.231
187.839
183.277
177.395
170.523
163.503
157.41
152.755
148.201
141.505
131.564
119.241
106.363
94.5013
84.5021
76.5902
70.6038
66.2263
63.1274
61.0092
59.6246
58.7763
58.3097
58.1038
58.0638
58.1171
58.2053
58.2829
58.3228
58.3131
58.2513
58.1303
57.9502
57.7174
57.4402
57.1277
56.7884
56.4298
56.0584
55.6795
55.2972
54.9148
54.5349
54.159
53.7885
53.4241
53.0663
52.7153
52.371
52.0334
51.7024
51.378
51.0601
50.7485
50.4431
50.1438
49.8498
49.5605
49.2749
48.9923
48.7122
48.4341
48.1576
47.8824
47.6086
47.336
47.0647
46.7948
46.5267
46.2609
45.9981
45.7392
45.4854
45.239
45.0019
44.7782
44.5715
44.3893
44.2362
44.1246
44.052
44.0337
44.0375
234.151
105.99
77.3448
66.4964
61.4657
58.8429
57.7847
57.4888
57.7976
58.4707
59.4469
60.6193
61.9531
63.394
64.9172
66.491
68.0975
69.7177
71.3415
72.959
74.5633
76.1496
77.7159
79.2629
80.793
82.3098
83.8204
85.3349
86.8662
88.4305
90.047
91.7374
93.5264
95.4381
97.4722
99.601
101.802
104.057
106.352
108.679
111.034
113.415
115.827
118.274
120.765
123.309
125.916
128.6
131.379
134.244
137.161
140.107
143.058
145.994
148.899
151.756
154.55
157.267
159.894
162.422
164.842
167.15
169.346
171.436
173.435
175.362
177.248
179.129
181.046
183.041
185.153
187.411
189.83
192.404
195.105
197.883
200.666
203.367
205.89
208.138
210.026
211.48
212.445
212.903
212.881
212.386
211.473
210.217
208.71
207.054
205.346
203.673
202.122
200.767
199.673
198.888
198.399
198.085
197.606
196.292
193.203
187.657
180.025
172.116
165.755
160.258
152.626
140.912
126.103
110.68
96.715
85.2158
76.3351
69.7955
65.1406
61.9379
59.8218
58.5026
57.7562
57.409
57.327
57.4061
57.5645
57.735
57.8754
57.9595
57.9763
57.9304
57.818
57.6361
57.3946
57.1048
56.7781
56.4244
56.0523
55.6688
55.2798
54.8893
54.5005
54.1162
53.7374
53.3657
53.001
52.6445
52.2959
51.9549
51.6213
51.2949
50.9754
50.6625
50.3559
50.0551
49.7598
49.4691
49.1824
48.899
48.6183
48.3397
48.0628
47.7872
47.5127
47.2393
46.9667
46.6952
46.4247
46.1557
45.8886
45.624
45.3631
45.1071
44.8581
44.6181
44.3911
44.1805
43.9927
43.8313
43.7054
43.6112
43.5577
43.5146
243.405
110.06
80.2474
68.9034
63.5528
60.7775
59.6265
59.3052
59.6445
60.3836
61.4596
62.7581
64.2433
65.8569
67.5724
69.3543
71.1818
73.0316
74.8886
76.7378
78.57
80.3764
82.1544
83.9054
85.6326
87.3428
89.0449
90.7505
92.4757
94.2396
96.0633
97.9709
99.9891
102.128
104.361
106.663
109.013
111.396
113.799
116.214
118.638
121.067
123.505
125.956
128.425
130.922
133.457
136.045
138.7
141.446
144.284
147.179
150.102
153.028
155.934
158.801
161.611
164.348
166.997
169.545
171.981
174.299
176.502
178.594
180.591
182.518
184.404
186.287
188.205
190.195
192.284
194.486
196.797
199.193
201.63
204.044
206.362
208.505
210.396
211.968
213.17
213.968
214.358
214.357
213.979
213.27
212.296
211.128
209.843
208.513
207.214
205.993
204.89
203.943
203.163
202.567
202.203
202.171
202.576
203.306
203.539
201.708
196.236
188.058
180.357
173.924
165.348
151.652
133.97
115.642
99.3556
86.2731
76.4336
69.3768
64.4916
61.2335
59.1654
57.9537
57.3446
57.1468
57.2143
57.4349
57.7114
57.9755
58.1838
58.3109
58.3486
58.3089
58.1923
57.9932
57.7254
57.4045
57.0446
56.6574
56.2529
55.8387
55.4212
55.0044
54.5917
54.1857
53.7872
53.3979
53.0169
52.6461
52.2845
51.9316
51.5871
51.2507
50.9218
50.6001
50.2849
49.9758
49.6721
49.3731
49.0782
48.7867
48.498
48.2116
47.9271
47.6441
47.3624
47.0818
46.8022
46.5236
46.2462
45.9701
45.6959
45.4242
45.1558
44.8921
44.6353
44.3873
44.1516
43.9312
43.7317
43.5555
43.4097
43.2888
43.1994
43.1097
252.439
112.53
81.9502
70.3167
64.797
61.9696
60.7943
60.5001
60.9163
61.766
62.9858
64.455
66.1378
67.9718
69.9296
71.9719
74.0756
76.2133
78.3664
80.5159
82.6486
84.7545
86.83
88.8729
90.8864
92.8791
94.8612
96.8476
98.8575
100.911
103.03
105.238
107.557
109.962
112.426
114.93
117.456
119.992
122.527
125.055
127.572
130.077
132.571
135.06
137.548
140.046
142.564
145.117
147.723
150.405
153.194
156.072
158.988
161.905
164.796
167.635
170.4
173.073
175.635
178.071
180.372
182.532
184.554
186.449
188.237
189.945
191.609
193.268
194.962
196.722
198.573
200.524
202.564
204.669
206.795
208.891
210.895
212.749
214.4
215.803
216.928
217.756
218.28
218.519
218.519
218.337
218.026
217.644
217.248
216.887
216.593
216.379
216.239
216.138
216.032
215.841
215.464
214.829
214.042
213.509
213.249
212.896
210.099
203.398
195.504
188.479
178.996
163.141
142.285
120.827
102.153
87.5343
76.8327
69.3503
64.3154
61.0676
59.1012
58.0424
57.6125
57.6064
57.8625
58.2502
58.6622
59.029
59.3056
59.4691
59.5174
59.4723
59.3355
59.1009
58.7882
58.4177
58.0065
57.5683
57.1144
56.6531
56.1908
55.732
55.2799
54.8368
54.4036
53.9812
53.5696
53.1688
52.7786
52.3984
52.0279
51.6663
51.3133
50.968
50.6301
50.2987
49.9733
49.6531
49.3375
49.0258
48.7175
48.4122
48.1093
47.8086
47.5096
47.2123
46.9166
46.6222
46.3295
46.0384
45.7495
45.4634
45.1808
44.9029
44.632
44.3696
44.119
43.8826
43.6651
43.468
43.2965
43.1446
43.0147
42.8786
253.826
112.948
82.4256
70.8747
65.3449
62.5877
61.4625
61.2644
61.8276
62.8559
64.2896
66.0012
67.9566
70.0887
72.3698
74.7566
77.2243
79.7419
82.2885
84.8417
87.3859
89.9074
92.3986
94.8569
97.2851
99.688
102.077
104.471
106.892
109.357
111.89
114.508
117.193
119.925
122.684
125.456
128.226
130.985
133.725
136.441
139.129
141.79
144.426
147.04
149.641
152.237
154.841
157.468
160.135
162.872
165.704
168.617
171.54
174.43
177.253
179.98
182.588
185.056
187.364
189.501
191.46
193.242
194.859
196.331
197.69
198.973
200.228
201.503
202.845
204.293
205.873
207.598
209.46
211.435
213.485
215.559
217.605
219.566
221.391
223.036
224.468
225.671
226.644
227.402
227.972
228.387
228.692
228.942
229.193
229.493
229.88
230.383
231.023
231.813
232.764
233.84
234.876
235.47
235.077
233.348
230.81
228.259
224.636
218.333
210.638
203.207
192.642
174.375
150.172
125.598
104.698
88.7564
77.3872
69.6446
64.5824
61.4383
59.6485
58.8071
58.618
58.8541
59.344
59.9263
60.4931
60.9695
61.3103
61.4979
61.542
61.4758
61.2975
61.0042
60.6244
60.1832
59.7009
59.1933
58.6724
58.1474
57.6247
57.1087
56.6024
56.1076
55.6253
55.1559
54.6993
54.2551
53.8229
53.402
52.9919
52.5918
52.2011
51.819
51.445
51.0782
50.7181
50.364
50.0152
49.6711
49.3313
48.9952
48.6624
48.3326
48.0055
47.6809
47.3585
47.0384
46.7206
46.4052
46.0925
45.7831
45.4778
45.1775
44.8839
44.5988
44.3247
44.0638
43.82
43.5937
43.3891
43.1993
43.0254
42.8392
253.273
112.105
82.0487
70.7562
65.3774
62.8081
61.848
61.8517
62.645
63.9414
65.6884
67.7503
70.0958
72.6519
75.3913
78.2657
81.249
84.3058
87.4125
90.5427
93.6776
96.7998
99.8991
102.969
106.01
109.027
112.032
115.032
118.042
121.075
124.154
127.289
130.459
133.648
136.842
140.028
143.194
146.332
149.435
152.501
155.527
158.514
161.466
164.388
167.29
170.183
173.073
175.972
178.899
181.885
184.912
187.912
190.833
193.638
196.294
198.775
201.054
203.114
204.94
206.528
207.883
209.022
209.974
210.778
211.485
212.155
212.852
213.643
214.587
215.73
217.102
218.712
220.548
222.577
224.754
227.021
229.314
231.568
233.723
235.728
237.545
239.152
240.541
241.719
242.712
243.558
244.304
245.001
245.696
246.426
247.222
248.12
249.168
250.412
251.879
253.586
255.551
257.704
259.515
259.625
257.247
252.296
245.023
235.96
226.802
217.781
205.246
184.082
156.518
129.213
106.578
89.741
78.0263
70.2565
65.3347
62.4173
60.9013
60.3605
60.4839
61.0345
61.7995
62.6094
63.3466
63.9316
64.3224
64.5089
64.526
64.4201
64.1694
63.7873
63.3125
62.7749
62.198
61.5993
60.9919
60.3849
59.785
59.1961
58.6209
58.0608
57.5163
56.9873
56.4733
55.9738
55.4879
55.0149
54.5538
54.1039
53.6644
53.2344
52.8132
52.4001
51.9944
51.5955
51.2027
50.8155
50.4335
50.056
49.6828
49.3136
48.948
48.5857
48.2267
47.8709
47.5182
47.1686
46.8226
46.4805
46.1429
45.8108
45.4856
45.1687
44.8624
44.5683
44.2895
44.0259
43.7805
43.5461
43.3225
43.081
248.185
109.913
80.837
70.0988
65.045
62.8186
62.1489
62.5097
63.6704
65.3903
67.6239
70.2234
73.1628
76.3608
79.7917
83.4007
87.1611
91.0322
94.9886
98.9994
103.044
107.1
111.156
115.203
119.237
123.254
127.252
131.232
135.19
139.133
143.071
147.006
150.943
154.889
158.835
162.759
166.647
170.496
174.299
178.058
181.771
185.442
189.079
192.698
196.32
199.929
203.509
207.046
210.521
213.903
217.149
220.215
223.062
225.656
227.968
229.969
231.639
232.965
233.948
234.602
234.956
235.054
234.958
234.738
234.472
234.248
234.155
234.28
234.702
235.456
236.57
238.047
239.856
241.949
244.262
246.721
249.248
251.765
254.201
256.499
258.619
260.535
262.241
263.749
265.088
266.299
267.43
268.529
269.642
270.813
272.088
273.516
275.144
276.999
279.077
281.306
283.557
285.741
287.817
289.209
288.546
284.048
273.455
259.756
246.616
231.898
215.591
190.803
160.31
131.15
107.483
90.2974
78.6681
71.1837
66.6215
64.0907
62.9772
62.853
63.3873
64.3319
65.4285
66.5005
67.4183
68.1017
68.5176
68.6757
68.6424
68.4553
68.0892
67.5809
66.9765
66.3107
65.6097
64.8926
64.1731
63.4606
62.7611
62.0784
61.4146
60.7705
60.1461
59.5406
58.9534
58.3832
57.829
57.2897
56.7641
56.2513
55.7502
55.2601
54.7799
54.309
53.8465
53.3918
52.9444
52.5036
52.0689
51.6399
51.2163
50.7976
50.3836
49.9741
49.5688
49.1676
48.7705
48.3775
47.9888
47.6048
47.226
46.8531
46.4874
46.1299
45.7826
45.4466
45.1245
44.8154
44.5216
44.2354
43.9561
43.652
240.052
106.075
78.766
68.9282
64.4907
62.8426
62.6884
63.6194
65.392
67.79
70.7849
74.217
78.0697
82.2525
86.7446
91.483
96.4438
101.58
106.867
112.27
117.769
123.337
128.962
134.627
140.317
146.017
151.71
157.38
163.018
168.618
174.172
179.683
185.173
190.646
196.076
201.448
206.764
212.032
217.253
222.428
227.552
232.62
237.623
242.551
247.388
252.102
256.659
261.016
265.128
268.941
272.403
275.467
278.09
280.239
281.888
283.009
283.588
283.628
283.167
282.247
280.939
279.333
277.533
275.655
273.82
272.153
270.768
269.766
269.214
269.186
269.699
270.741
272.228
274.109
276.292
278.687
281.203
283.747
286.237
288.614
290.833
292.867
294.707
296.366
297.872
299.266
300.593
301.903
303.24
304.647
306.173
307.871
309.795
311.989
314.481
317.242
320.104
322.66
324.329
324.728
323.744
318.913
304.986
284.267
264.099
242.596
221.521
193.6
161.102
130.775
106.907
90.1701
79.2205
72.4135
68.4707
66.5138
65.9526
66.359
67.4266
68.8244
70.2948
71.6408
72.7256
73.4759
73.8767
73.9725
73.8615
73.5544
73.039
72.3757
71.6165
70.7996
69.9533
69.0975
68.2461
67.4084
66.5901
65.7945
65.0232
64.2764
63.5535
62.8536
62.1753
61.5172
60.878
60.2562
59.6506
59.0599
58.4831
57.9192
57.367
56.8258
56.2948
55.7732
55.2604
54.7557
54.2587
53.7689
53.2858
52.809
52.3383
51.8734
51.4139
50.9598
50.5108
50.0671
49.6285
49.1955
48.7684
48.3478
47.9346
47.5297
47.1346
46.7501
46.3782
46.0174
45.6695
45.326
44.9857
44.6142
228.223
101.518
76.3963
67.7306
64.1171
63.2339
63.8285
65.5851
68.247
71.6273
75.7167
80.34
85.4959
91.081
97.0864
103.441
110.13
117.101
124.335
131.794
139.461
147.307
155.315
163.461
171.72
180.06
188.45
196.857
205.25
213.604
221.914
230.185
238.398
246.515
254.496
262.353
270.107
277.769
285.349
292.833
300.199
307.421
314.469
321.31
327.901
334.187
340.106
345.585
350.549
354.922
358.631
361.611
363.816
365.221
365.805
365.544
364.426
362.462
359.737
356.366
352.477
348.22
343.76
339.273
334.936
330.917
327.366
324.407
322.126
320.567
319.726
319.592
320.095
321.204
322.698
324.521
326.571
328.717
330.866
332.956
334.934
336.762
338.433
339.953
341.347
342.648
343.897
345.138
346.413
347.76
349.23
350.878
352.745