/*--------------------------------*- C++ -*----------------------------------*\
| =========                 |                                                 |
| \\      /  F ield         | OpenFOAM: The Open Source CFD Toolbox           |
|  \\    /   O peration     | Version:  v1906                                 |
|   \\  /    A nd           | Web:      www.OpenFOAM.com                      |
|    \\/     M anipulation  |                                                 |
\*---------------------------------------------------------------------------*/
FoamFile
{
    version     2.0;
    format      ascii;
    class       volScalarField;
    location    "700";
    object      k;
}
// * * * * * * * * * * * * * * * * * * * * * * * * * * * * * * * * * * * * * //

dimensions      [0 2 -2 0 0 0 0];


internalField   nonuniform List<scalar> 
12225
(
2.25874
2.22668
2.16195
2.09172
2.02504
1.96462
1.91066
1.86326
1.82059
1.78383
1.7493
1.72134
1.69877
1.68056
1.66382
1.65191
1.63746
1.63223
2.25029
2.13779
1.98565
1.87244
1.78123
1.71369
1.66067
1.61698
1.58113
1.55032
1.52536
1.50229
1.4855
1.46768
1.45718
1.44245
1.43613
1.42201
2.25785
2.21888
2.14361
2.07156
2.00395
1.94415
1.89183
1.8456
1.80507
1.76896
1.73737
1.70856
1.68384
1.66054
1.64131
1.62198
1.60747
1.59155
2.25839
2.23538
2.18791
2.13578
2.08419
2.03589
1.99183
1.95174
1.91552
1.88263
1.85297
1.82582
1.80146
1.77892
1.75886
1.73988
1.72363
1.70661
2.25891
2.24457
2.21501
2.18006
2.14383
2.10824
2.07435
2.04244
2.01264
1.9849
1.95922
1.93533
1.91328
1.89274
1.87385
1.85615
1.84026
1.82445
2.25905
2.24839
2.22761
2.20199
2.17442
2.14647
2.1191
2.09277
2.0677
2.04397
2.02165
2.00065
1.98097
1.9625
1.94525
1.92904
1.91398
1.89924
2.25918
2.25077
2.23561
2.21657
2.19561
2.17389
2.1522
2.13093
2.11033
2.09055
2.07166
2.05368
2.03662
2.02045
2.00518
1.99074
1.97719
1.96406
2.25922
2.25211
2.24034
2.22548
2.20884
2.19132
2.17352
2.15582
2.13846
2.12159
2.10531
2.08967
2.07469
2.06038
2.04675
2.03378
2.02143
2.00952
2.25927
2.2531
2.24365
2.23178
2.2184
2.20416
2.18953
2.17482
2.16025
2.14595
2.13203
2.11854
2.10552
2.09299
2.08098
2.06948
2.05849
2.04789
2.25929
2.25376
2.24586
2.23607
2.22499
2.21312
2.20081
2.18832
2.17584
2.16349
2.15138
2.13956
2.12809
2.11698
2.10626
2.09594
2.086
2.07642
2.25932
2.2543
2.24753
2.23929
2.22998
2.21996
2.20951
2.19884
2.18811
2.17743
2.16688
2.15653
2.14642
2.13659
2.12706
2.11785
2.10895
2.10033
2.25934
2.25466
2.24864
2.24143
2.23332
2.22459
2.21544
2.20605
2.19656
2.18707
2.17765
2.16837
2.15926
2.15037
2.14171
2.13331
2.12516
2.11727
2.25937
2.25498
2.24954
2.24316
2.23601
2.22832
2.22024
2.21193
2.20349
2.19501
2.18657
2.17821
2.16999
2.16193
2.15405
2.14639
2.13894
2.1317
2.25939
2.25525
2.25032
2.24464
2.23834
2.23156
2.22444
2.21708
2.20958
2.20202
2.19446
2.18695
2.17953
2.17224
2.16508
2.1581
2.15129
2.14466
2.25943
2.25552
2.25102
2.24594
2.24036
2.23438
2.22809
2.22158
2.21493
2.2082
2.20145
2.19471
2.18804
2.18145
2.17498
2.16864
2.16244
2.15639
2.25946
2.25574
2.25157
2.24697
2.24196
2.23661
2.231
2.22518
2.21921
2.21317
2.20708
2.20099
2.19494
2.18895
2.18304
2.17725
2.17157
2.16603
2.25949
2.25592
2.252
2.24774
2.24315
2.23827
2.23314
2.22783
2.22238
2.21685
2.21126
2.20565
2.20007
2.19453
2.18906
2.18368
2.1784
2.17323
2.25951
2.25603
2.25225
2.24818
2.24381
2.23919
2.23435
2.22933
2.22418
2.21893
2.21364
2.20833
2.20302
2.19775
2.19255
2.18741
2.18237
2.17741
2.2595
2.25599
2.25218
2.24806
2.24364
2.23894
2.23403
2.22893
2.2237
2.21837
2.21299
2.20759
2.2022
2.19685
2.19156
2.18635
2.18124
2.17626
2.25949
2.25585
2.25179
2.24733
2.24248
2.23731
2.23189
2.22627
2.22052
2.21467
2.20879
2.2029
2.19704
2.19123
2.1855
2.17986
2.17432
2.16888
2.25943
2.25553
2.25102
2.24592
2.24031
2.23429
2.22796
2.22141
2.21471
2.20792
2.20111
2.19432
2.18758
2.18092
2.17438
2.16796
2.1617
2.15563
2.25941
2.25519
2.25002
2.24399
2.23727
2.23003
2.22244
2.2146
2.20664
2.19863
2.19063
2.1827
2.17488
2.1672
2.15968
2.15234
2.1452
2.1382
2.25935
2.25456
2.24826
2.24066
2.23209
2.22284
2.21317
2.20325
2.19322
2.18321
2.17328
2.1635
2.15391
2.14454
2.13542
2.12656
2.11797
2.10975
2.25935
2.25385
2.24584
2.23594
2.22475
2.21278
2.20039
2.18783
2.17527
2.16285
2.15066
2.13876
2.12719
2.11599
2.10518
2.09478
2.08482
2.07519
2.25927
2.25242
2.24124
2.22717
2.21139
2.1947
2.17766
2.16062
2.14384
2.12747
2.11162
2.09635
2.08167
2.06761
2.05415
2.04127
2.02889
2.01719
2.25924
2.25041
2.23397
2.21363
2.19147
2.16867
2.14591
2.12362
2.10205
2.08135
2.0616
2.0428
2.02497
2.00807
1.99208
1.97699
1.96286
1.94965
2.25889
2.24472
2.21618
2.18219
2.14678
2.11175
2.07806
2.04624
2.01648
1.98877
1.96301
1.9391
1.91688
1.89626
1.87703
1.85918
1.84217
1.8264
2.25872
2.23436
2.18569
2.13367
2.08299
2.03495
1.99028
1.94959
1.91261
1.87899
1.84838
1.82051
1.79501
1.77172
1.75028
1.73067
1.71255
1.69703
2.25333
2.17274
2.05404
1.95318
1.87047
1.80143
1.74471
1.69878
1.66015
1.62709
1.59836
1.5734
1.55127
1.53197
1.5145
1.49934
1.48522
1.47201
2.25474
2.20869
2.14516
2.08349
2.02607
1.97396
1.92685
1.88443
1.84632
1.81202
1.78105
1.75295
1.72745
1.7041
1.68286
1.66317
1.64532
1.62842
0.0332169
0.0737885
0.105749
0.124716
0.138879
0.148785
0.15685
0.163121
0.168406
0.172727
0.176399
0.179477
0.182123
0.184395
0.186378
0.188105
0.189607
0.19089
0.191945
0.192757
0.193328
0.193502
0.193413
0.193031
0.192189
0.19096
0.18935
0.187359
0.184976
0.181331
0.176245
0.169499
0.160813
0.149771
0.135998
0.118708
0.101967
0.0899116
0.0849901
0.0891828
0.104494
0.121677
0.129566
0.131852
0.132749
0.134437
0.136791
0.139142
0.141764
0.144847
0.148498
0.152895
0.157922
0.163235
0.168883
0.174709
0.180801
0.187239
0.194131
0.201572
0.2097
0.21866
0.228583
0.239556
0.251662
0.26494
0.279291
0.294695
0.311124
0.32852
0.346829
0.365969
0.38587
0.406447
0.427627
0.449331
0.471488
0.494021
0.516858
0.539925
0.563148
0.586455
0.609762
0.63299
0.656039
0.678825
0.701237
0.723198
0.744625
0.765549
0.786059
0.806333
0.826689
0.847067
0.86734
0.887201
0.906259
0.923979
0.939782
0.95116
0.957413
0.959582
0.95468
0.940725
0.912477
0.878517
0.842889
0.80521
0.766177
0.726808
0.688306
0.65263
0.621326
0.595259
0.575458
0.561738
0.553543
0.54971
0.548635
0.549574
0.552072
0.555498
0.559399
0.563468
0.567474
0.57128
0.575004
0.579176
0.583624
0.587641
0.588707
0.587991
0.586539
0.584647
0.58241
0.579902
0.577193
0.574339
0.571394
0.568401
0.565399
0.562419
0.559487
0.556624
0.553846
0.551161
0.548576
0.546094
0.543713
0.541433
0.539248
0.537155
0.535146
0.533215
0.531352
0.529546
0.52779
0.526081
0.524418
0.522788
0.521182
0.519609
0.518081
0.516609
0.515201
0.513859
0.512588
0.511381
0.51025
0.509166
0.508166
0.50716
0.50627
0.505232
0.504385
0.503056
0.501862
0.499729
0.494342
0.464338
0.0586705
0.146827
0.208819
0.245737
0.2745
0.296773
0.315319
0.330585
0.343729
0.355073
0.365228
0.374482
0.383193
0.391546
0.399707
0.407745
0.415692
0.423528
0.431204
0.438638
0.445728
0.452358
0.458417
0.463848
0.468676
0.473035
0.47713
0.481255
0.485806
0.491237
0.497985
0.506379
0.51655
0.52839
0.541475
0.555064
0.568256
0.58089
0.593551
0.607582
0.624332
0.642187
0.658244
0.672121
0.685
0.69765
0.709932
0.721174
0.730885
0.738738
0.744576
0.748449
0.750583
0.751519
0.75188
0.752261
0.753287
0.755446
0.75905
0.764236
0.771006
0.779274
0.788906
0.799759
0.811707
0.824654
0.83855
0.853377
0.869131
0.885802
0.903372
0.921798
0.941023
0.960968
0.981546
1.00264
1.02413
1.04591
1.06787
1.0899
1.11191
1.13379
1.15547
1.17686
1.19789
1.21853
1.23875
1.2586
1.2782
1.29773
1.3173
1.33706
1.35762
1.37947
1.40274
1.4272
1.45246
1.47782
1.50219
1.52453
1.54369
1.55559
1.5598
1.55671
1.54439
1.52371
1.49498
1.4596
1.41978
1.37823
1.33757
1.30067
1.2696
1.24531
1.22747
1.21529
1.20749
1.20273
1.19988
1.19828
1.19761
1.19753
1.19779
1.19803
1.19792
1.19716
1.19569
1.19416
1.19306
1.19138
1.18825
1.18386
1.1785
1.1724
1.16576
1.15874
1.15147
1.14405
1.13658
1.12913
1.12174
1.11447
1.10734
1.10037
1.09359
1.087
1.08059
1.07438
1.06834
1.06249
1.05679
1.05125
1.04584
1.04056
1.03538
1.03028
1.02526
1.0203
1.01541
1.01057
1.00577
1.00102
0.99634
0.991737
0.987216
0.982779
0.978427
0.974155
0.969969
0.965857
0.961837
0.957873
0.954034
0.950194
0.946594
0.942765
0.939511
0.934678
0.926014
0.903127
0.104086
0.214548
0.287543
0.331304
0.367111
0.394805
0.418448
0.43822
0.455711
0.471166
0.4854
0.498668
0.511416
0.523823
0.536107
0.548368
0.560701
0.573153
0.585775
0.598614
0.611727
0.625111
0.638648
0.652192
0.665696
0.679216
0.692899
0.706984
0.721777
0.737571
0.754537
0.772646
0.79166
0.811195
0.830802
0.850106
0.869047
0.888095
0.908277
0.930699
0.955247
0.979979
1.00281
1.02266
1.0391
1.05213
1.06196
1.06892
1.07362
1.07681
1.07927
1.08174
1.0849
1.08931
1.09539
1.10343
1.11356
1.12574
1.13981
1.15548
1.17243
1.19031
1.20877
1.22755
1.24642
1.26523
1.28389
1.30233
1.32053
1.33846
1.35608
1.37336
1.39028
1.4068
1.42291
1.43859
1.45385
1.46871
1.48323
1.49745
1.51147
1.52536
1.53924
1.55319
1.56733
1.58179
1.59669
1.61218
1.62845
1.64576
1.66439
1.68461
1.70652
1.73009
1.75512
1.7813
1.80822
1.8353
1.86166
1.88618
1.90758
1.92386
1.93194
1.933
1.92466
1.90654
1.87856
1.84213
1.7997
1.75434
1.70901
1.66625
1.62807
1.59567
1.56946
1.54927
1.53445
1.52411
1.51734
1.51337
1.51153
1.51114
1.51162
1.51242
1.51305
1.51315
1.51242
1.51074
1.50803
1.50414
1.49895
1.49258
1.48526
1.47719
1.46856
1.45954
1.45027
1.44085
1.43139
1.42196
1.41262
1.40341
1.39437
1.38552
1.37687
1.36843
1.36021
1.35221
1.34441
1.3368
1.32938
1.32213
1.31504
1.30809
1.30125
1.29452
1.28788
1.28133
1.27486
1.26848
1.26219
1.25598
1.24987
1.24384
1.23791
1.23208
1.22634
1.22069
1.21513
1.20966
1.2043
1.19903
1.19388
1.18882
1.18395
1.1791
1.17451
1.16913
1.16166
1.14678
0.1248
0.258544
0.345937
0.396935
0.439178
0.472596
0.501899
0.526658
0.548882
0.568668
0.587138
0.604485
0.621304
0.637737
0.654079
0.670431
0.686942
0.70369
0.720784
0.738331
0.75645
0.775215
0.794598
0.814448
0.8346
0.854933
0.875379
0.8959
0.916434
0.936871
0.957103
0.977063
0.996742
1.01618
1.03554
1.05523
1.076
1.09878
1.12422
1.15191
1.1801
1.20639
1.22901
1.24731
1.2616
1.27267
1.28151
1.28915
1.29653
1.3045
1.31374
1.32473
1.33775
1.35289
1.37012
1.38923
1.40992
1.43181
1.45446
1.47746
1.50039
1.52291
1.54474
1.56567
1.58555
1.60429
1.62186
1.63825
1.65349
1.66763
1.68074
1.69291
1.70427
1.71493
1.72504
1.73475
1.74423
1.75361
1.76304
1.77263
1.78246
1.79262
1.80316
1.81412
1.82556
1.83752
1.85006
1.86325
1.87718
1.89195
1.90765
1.92437
1.94218
1.96115
1.9813
2.00259
2.02489
2.04791
2.07115
2.09383
2.11482
2.13266
2.14504
2.15041
2.14752
2.13425
2.10995
2.07566
2.0338
1.98762
1.94045
1.89511
1.85377
1.8178
1.78775
1.76361
1.74502
1.73139
1.72197
1.71596
1.71254
1.71093
1.71038
1.71027
1.71003
1.70924
1.70758
1.70481
1.70082
1.69559
1.68917
1.68171
1.67335
1.66429
1.65469
1.6447
1.63447
1.6241
1.61368
1.6033
1.593
1.58283
1.57283
1.56302
1.55341
1.54401
1.53483
1.52585
1.51708
1.5085
1.50011
1.49188
1.48381
1.47588
1.46807
1.46036
1.45276
1.44525
1.43784
1.43054
1.42333
1.41622
1.4092
1.40228
1.39546
1.38873
1.3821
1.37556
1.36912
1.36278
1.35656
1.35044
1.34446
1.33861
1.33298
1.32743
1.3221
1.31627
1.30915
1.29793
0.159067
0.313469
0.409764
0.465971
0.513343
0.55136
0.585606
0.615369
0.642654
0.667175
0.690144
0.711655
0.732495
0.752784
0.772954
0.793092
0.813434
0.834035
0.854979
0.876238
0.897771
0.919551
0.941667
0.964216
0.987211
1.01059
1.0342
1.05786
1.0813
1.10425
1.1265
1.148
1.16885
1.18939
1.21008
1.23147
1.2541
1.27819
1.30339
1.32874
1.353
1.37517
1.39483
1.41217
1.42778
1.44244
1.45696
1.47207
1.48836
1.50625
1.52595
1.54751
1.57081
1.59561
1.62156
1.64824
1.6752
1.702
1.72823
1.75353
1.7776
1.80022
1.82124
1.84058
1.85821
1.87418
1.88856
1.90145
1.91302
1.92344
1.9329
1.94162
1.94982
1.9577
1.96547
1.97332
1.98139
1.98979
1.9986
2.00786
2.01758
2.02773
2.03826
2.04911
2.06021
2.07151
2.08296
2.09455
2.10628
2.1182
2.13037
2.14282
2.15558
2.16876
2.18257
2.19727
2.21308
2.23004
2.24807
2.26691
2.28599
2.30417
2.3198
2.32982
2.3325
2.3247
2.30453
2.27229
2.23035
2.18233
2.1321
2.08304
2.03769
1.99767
1.96378
1.93618
1.91457
1.89839
1.88686
1.87914
1.87433
1.87157
1.87002
1.86899
1.86787
1.86619
1.86361
1.85994
1.85508
1.84905
1.84192
1.83381
1.82486
1.81524
1.80511
1.79462
1.78387
1.77299
1.76206
1.75115
1.74031
1.7296
1.71904
1.70865
1.69844
1.68844
1.67863
1.66901
1.65959
1.65034
1.64127
1.63236
1.6236
1.61497
1.60645
1.59805
1.58974
1.58154
1.57344
1.56544
1.55754
1.54973
1.54201
1.53439
1.52685
1.51941
1.51206
1.5048
1.49765
1.4906
1.48366
1.47685
1.4702
1.46371
1.45745
1.45132
1.44539
1.43906
1.43191
1.42186
0.182848
0.360581
0.468506
0.531485
0.584246
0.627125
0.665952
0.700367
0.732333
0.761696
0.789302
0.815182
0.839965
0.863893
0.887413
0.910727
0.934073
0.957562
0.981296
1.00526
1.0294
1.0536
1.07781
1.10208
1.12646
1.15092
1.17536
1.19963
1.22354
1.24695
1.26976
1.29203
1.31389
1.33561
1.35744
1.37963
1.40224
1.42519
1.44819
1.47089
1.49303
1.51455
1.5356
1.55649
1.57762
1.59939
1.62216
1.64617
1.67155
1.6983
1.72629
1.7553
1.78501
1.81504
1.84501
1.87451
1.90317
1.93065
1.95667
1.98103
2.00356
2.02418
2.04289
2.0597
2.07471
2.08804
2.09987
2.11037
2.11979
2.12834
2.13627
2.14383
2.15124
2.15872
2.16644
2.17456
2.18319
2.19237
2.20213
2.21243
2.2232
2.23432
2.24565
2.25704
2.26833
2.27937
2.29002
2.30017
2.30974
2.31872
2.32712
2.33503
2.3426
2.34998
2.35743
2.36525
2.37393
2.3838
2.39531
2.40889
2.42469
2.44224
2.46009
2.47563
2.48457
2.48348
2.46826
2.43809
2.3952
2.34389
2.289
2.23478
2.18439
2.1398
2.10199
2.07116
2.047
2.02885
2.01586
2.00706
2.00145
1.99806
1.996
1.9945
1.99292
1.99076
1.98771
1.98357
1.97826
1.9718
1.96427
1.95579
1.94651
1.93658
1.92614
1.91535
1.90431
1.89314
1.88191
1.8707
1.85955
1.84852
1.83762
1.82688
1.81631
1.80592
1.79571
1.78568
1.77582
1.76614
1.7566
1.74722
1.73798
1.72886
1.71986
1.71096
1.70217
1.69347
1.68486
1.67635
1.66792
1.65957
1.65131
1.64312
1.63503
1.62701
1.61908
1.61125
1.60351
1.59587
1.58836
1.58098
1.57378
1.56675
1.55996
1.55332
1.54686
1.54008
1.53262
1.52262
0.212594
0.408952
0.52793
0.596729
0.654289
0.701479
0.744401
0.782929
0.819025
0.852618
0.884487
0.914637
0.943451
0.971053
0.99782
1.02397
1.04977
1.07535
1.10084
1.12631
1.15179
1.17725
1.20265
1.22795
1.25313
1.27815
1.30295
1.32743
1.35151
1.37512
1.39824
1.4209
1.44319
1.46525
1.48722
1.50922
1.53137
1.55376
1.57649
1.59965
1.62337
1.64781
1.67309
1.69933
1.72661
1.75498
1.78441
1.81482
1.84605
1.8779
1.91011
1.94238
1.97438
2.00581
2.03635
2.06572
2.09367
2.12001
2.14459
2.16732
2.18814
2.20707
2.22416
2.23951
2.25324
2.26553
2.27657
2.28659
2.29581
2.30448
2.31287
2.3212
2.32973
2.33866
2.34817
2.3584
2.36943
2.38128
2.39392
2.40723
2.42106
2.43519
2.44935
2.46328
2.47669
2.48931
2.50088
2.51119
2.52008
2.52747
2.53329
2.5376
2.54053
2.54211
2.54276
2.5429
2.54292
2.54353
2.54566
2.5505
2.5591
2.57206
2.5889
2.60738
2.62212
2.62742
2.61698
2.58796
2.54253
2.48606
2.42485
2.3643
2.30825
2.25898
2.21751
2.18393
2.15777
2.13823
2.1243
2.11488
2.10888
2.10522
2.10296
2.10125
2.09946
2.09707
2.09377
2.08936
2.08379
2.07708
2.06931
2.06062
2.05114
2.04104
2.03046
2.01954
2.00838
1.99709
1.98575
1.97442
1.96316
1.95199
1.94095
1.93006
1.91932
1.90874
1.89833
1.88808
1.87799
1.86804
1.85824
1.84857
1.83902
1.8296
1.82028
1.81105
1.80192
1.79287
1.7839
1.775
1.76618
1.75742
1.74873
1.74011
1.73156
1.72308
1.71468
1.70636
1.69814
1.69002
1.68202
1.67417
1.66649
1.659
1.65176
1.64467
1.63773
1.63045
1.6225
1.61225
0.233653
0.449051
0.580363
0.655467
0.717931
0.769272
0.816037
0.858267
0.897997
0.935246
0.970793
1.00464
1.03713
1.06832
1.09844
1.12759
1.156
1.18381
1.21116
1.2381
1.26471
1.29102
1.31706
1.34284
1.36835
1.39355
1.41842
1.44291
1.467
1.49065
1.5139
1.5368
1.55943
1.58192
1.60444
1.62718
1.65035
1.67417
1.69885
1.72457
1.75145
1.77956
1.80886
1.8393
1.87073
1.90301
1.93593
1.96928
2.00283
2.03634
2.06956
2.10223
2.13413
2.16501
2.19468
2.22296
2.24971
2.27482
2.29823
2.31991
2.33985
2.3581
2.37473
2.38986
2.40361
2.41616
2.42771
2.43849
2.44873
2.45872
2.46871
2.47898
2.4898
2.5014
2.51397
2.52764
2.54245
2.55837
2.57527
2.59291
2.61101
2.62918
2.64702
2.66412
2.68008
2.69452
2.70713
2.7177
2.72606
2.73214
2.73592
2.73761
2.73741
2.73521
2.7312
2.72555
2.71846
2.71059
2.70292
2.69736
2.69547
2.69938
2.71044
2.72789
2.7468
2.758
2.75217
2.72348
2.67386
2.61025
2.54089
2.47271
2.41032
2.35622
2.3113
2.27544
2.2479
2.22763
2.21344
2.20406
2.19826
2.19487
2.19288
2.1914
2.18974
2.18741
2.18409
2.17959
2.17388
2.167
2.15905
2.15019
2.14055
2.13032
2.11962
2.1086
2.09736
2.08601
2.07462
2.06325
2.05194
2.04074
2.02965
2.01871
2.00791
1.99726
1.98676
1.97641
1.9662
1.95612
1.94618
1.93634
1.92662
1.917
1.90747
1.89803
1.88866
1.87935
1.8701
1.86092
1.85178
1.8427
1.83368
1.8247
1.81578
1.80693
1.79813
1.78941
1.78078
1.77225
1.76384
1.75557
1.74749
1.7396
1.73195
1.72444
1.71703
1.70926
1.70082
1.69016
0.25693
0.486495
0.627783
0.708015
0.774507
0.829354
0.879379
0.924784
0.967626
1.00798
1.04663
1.0836
1.11922
1.15351
1.18664
1.21867
1.24973
1.2799
1.30931
1.33805
1.36618
1.39377
1.42085
1.44744
1.47355
1.4992
1.52439
1.54913
1.57346
1.5974
1.62104
1.64446
1.6678
1.69123
1.71494
1.73915
1.76408
1.78995
1.81689
1.84502
1.87435
1.90485
1.93638
1.96879
2.00187
2.03542
2.0692
2.10301
2.13663
2.16986
2.20252
2.23441
2.26538
2.29528
2.32398
2.35137
2.37737
2.40191
2.42495
2.44647
2.46649
2.48504
2.50218
2.51801
2.53267
2.54631
2.55915
2.57143
2.58341
2.5954
2.60773
2.62069
2.63459
2.64967
2.66608
2.68391
2.70309
2.72344
2.74466
2.76635
2.78802
2.80913
2.82916
2.8476
2.86403
2.87812
2.88965
2.89856
2.90492
2.90883
2.91063
2.91069
2.909
2.90582
2.90133
2.89539
2.88771
2.87804
2.86641
2.85355
2.84135
2.83372
2.83406
2.84542
2.86513
2.88147
2.88028
2.85136
2.79605
2.72337
2.64421
2.56733
2.49816
2.43926
2.39125
2.3536
2.32524
2.30482
2.2909
2.28205
2.2769
2.27417
2.27277
2.27175
2.27042
2.26827
2.26498
2.26041
2.25452
2.24741
2.23921
2.23008
2.22019
2.20973
2.19884
2.18765
2.17628
2.16482
2.15335
2.14191
2.13055
2.11931
2.10819
2.09721
2.08638
2.0757
2.06516
2.05476
2.04449
2.03434
2.02431
2.01439
2.00456
1.99482
1.98515
1.97555
1.96601
1.95652
1.94707
1.93767
1.92831
1.91898
1.90968
1.90043
1.89122
1.88205
1.87293
1.86388
1.85491
1.84603
1.83727
1.82865
1.82022
1.81197
1.80395
1.79604
1.78819
1.77994
1.77099
1.76009
0.270411
0.513327
0.66479
0.749997
0.820317
0.878258
0.931144
0.979229
1.0247
1.06765
1.10892
1.14853
1.18683
1.22383
1.25967
1.29436
1.32797
1.36055
1.39216
1.42284
1.45268
1.48177
1.51015
1.53786
1.56492
1.59139
1.61731
1.64275
1.66777
1.69247
1.71696
1.74137
1.76587
1.79062
1.81581
1.84163
1.86824
1.89578
1.92432
1.95389
1.98444
2.01587
2.04805
2.0808
2.11393
2.14725
2.18058
2.21373
2.24655
2.27889
2.3106
2.34157
2.37169
2.40086
2.42898
2.45598
2.48179
2.50636
2.52962
2.55157
2.57219
2.59149
2.60953
2.62638
2.64217
2.65707
2.67129
2.68511
2.69884
2.71282
2.72738
2.74284
2.75948
2.77745
2.7968
2.81742
2.83905
2.8613
2.88363
2.90546
2.92614
2.94509
2.96176
2.97574
2.98677
2.99478
2.99982
3.00219
3.00245
3.001
2.9985
2.99558
2.99286
2.99091
2.99016
2.99081
2.99256
2.99442
2.99468
2.99072
2.98069
2.96731
2.95804
2.96025
2.97772
2.99889
3.00326
2.97441
2.91226
2.82863
2.73792
2.6512
2.57475
2.51103
2.46022
2.42126
2.39263
2.37262
2.35956
2.3518
2.3478
2.34619
2.34574
2.34546
2.34463
2.34275
2.33951
2.3348
2.32863
2.32114
2.31251
2.30293
2.2926
2.28172
2.27044
2.2589
2.24722
2.23549
2.22378
2.21213
2.2006
2.18919
2.17793
2.16683
2.15588
2.14508
2.13443
2.12392
2.11354
2.10329
2.09314
2.08309
2.07313
2.06325
2.05343
2.04367
2.03396
2.02429
2.01465
2.00504
1.99545
1.98589
1.97635
1.96684
1.95736
1.94791
1.9385
1.92915
1.91986
1.91066
1.90158
1.89264
1.88387
1.87527
1.86687
1.85856
1.85026
1.84152
1.83214
1.82103
0.287235
0.539306
0.695581
0.783645
0.856444
0.916592
0.971586
1.02172
1.06922
1.1142
1.15751
1.19922
1.23965
1.27884
1.31691
1.35386
1.38975
1.42457
1.45836
1.49115
1.52296
1.55382
1.58378
1.61292
1.64129
1.66896
1.69601
1.72252
1.74863
1.77443
1.80008
1.82571
1.85148
1.87754
1.90405
1.93114
1.95893
1.98749
2.01685
2.04698
2.07783
2.1093
2.14127
2.17358
2.2061
2.23867
2.27115
2.30342
2.33534
2.36682
2.39775
2.42806
2.45767
2.48648
2.51444
2.54145
2.56744
2.59233
2.61607
2.63859
2.65986
2.67987
2.69864
2.71624
2.73278
2.74846
2.76349
2.77817
2.79283
2.80779
2.82336
2.83979
2.85723
2.87567
2.89496
2.9148
2.93473
2.95417
2.97252
2.98915
3.00351
3.01512
3.02369
3.02904
3.03128
3.03063
3.02743
3.02224
3.0157
3.0085
3.00141
2.99518
2.99065
2.98864
2.99003
2.99574
3.00641
3.02201
3.04105
3.05997
3.07382
3.07751
3.07136
3.06881
3.08407
3.11121
3.12334
3.09589
3.02631
2.93011
2.82642
2.72906
2.64514
2.57685
2.52368
2.48393
2.45556
2.43652
2.42483
2.41865
2.41625
2.41612
2.41691
2.41755
2.4173
2.41569
2.41242
2.40743
2.4008
2.39271
2.38341
2.37314
2.36212
2.35056
2.33865
2.32653
2.31431
2.30209
2.28993
2.27788
2.26597
2.25422
2.24264
2.23124
2.22002
2.20896
2.19807
2.18732
2.17671
2.16623
2.15586
2.1456
2.13542
2.12531
2.11527
2.10529
2.09535
2.08544
2.07556
2.06571
2.05587
2.04605
2.03625
2.02647
2.0167
2.00696
1.99726
1.9876
1.97801
1.96849
1.95909
1.94982
1.9407
1.93175
1.92296
1.91423
1.90547
1.89627
1.88644
1.87516
0.294798
0.555599
0.715839
0.806302
0.881342
0.943343
1.00014
1.05196
1.10117
1.14784
1.19288
1.23634
1.27859
1.31963
1.35961
1.39849
1.43634
1.47312
1.50885
1.54352
1.57716
1.60978
1.64141
1.67211
1.70199
1.7311
1.75956
1.78747
1.81493
1.84209
1.86908
1.89603
1.92308
1.95035
1.97798
2.00605
2.03465
2.06381
2.09355
2.12383
2.1546
2.18579
2.2173
2.24903
2.28087
2.31271
2.34445
2.376
2.40726
2.43816
2.46863
2.49859
2.52798
2.55671
2.5847
2.61185
2.63806
2.66323
2.68726
2.71004
2.73153
2.75167
2.77047
2.78799
2.80436
2.81974
2.83439
2.8486
2.86266
2.87687
2.89147
2.90661
2.92229
2.93839
2.95464
2.97064
2.98592
2.99995
3.01223
3.02232
3.02987
3.03467
3.03668
3.036
3.03282
3.02748
3.02034
3.01191
3.00276
2.99347
2.98463
2.97687
2.97082
2.96728
2.96697
2.97074
2.97979
2.99583
3.0208
3.05513
3.09459
3.12895
3.1489
3.15784
3.17822
3.21557
3.23968
3.21608
3.13918
3.02906
2.91116
2.80263
2.71134
2.63892
2.58397
2.54406
2.5166
2.49914
2.48945
2.48543
2.48519
2.48698
2.48935
2.49109
2.49145
2.49006
2.48666
2.48122
2.47389
2.46496
2.45472
2.44348
2.4315
2.41901
2.4062
2.39324
2.38023
2.36726
2.35441
2.34171
2.32919
2.31687
2.30476
2.29285
2.28113
2.26961
2.25827
2.24709
2.23606
2.22517
2.21441
2.20375
2.1932
2.18272
2.17231
2.16197
2.15166
2.1414
2.13117
2.12097
2.11079
2.10062
2.09047
2.08034
2.07023
2.06014
2.05008
2.04007
2.03012
2.02024
2.01047
2.00082
1.99132
1.98195
1.97273
1.96352
1.95426
1.94457
1.9343
1.92272
0.302116
0.567459
0.72891
0.820526
0.896931
0.960189
1.01831
1.07142
1.12199
1.17005
1.21657
1.26156
1.30542
1.34814
1.38985
1.43053
1.47021
1.50885
1.54646
1.58299
1.61846
1.65287
1.68627
1.7187
1.75021
1.78092
1.81091
1.8403
1.86923
1.89781
1.92616
1.9544
1.98264
2.011
2.03957
2.06843
2.09765
2.12724
2.15723
2.18758
2.21826
2.24923
2.28041
2.31174
2.34314
2.37453
2.40585
2.437
2.46794
2.49857
2.52885
2.5587
2.58803
2.61676
2.64477
2.67194
2.69812
2.72317
2.74696
2.76936
2.79027
2.80964
2.82747
2.84382
2.85883
2.8727
2.88568
2.89807
2.91016
2.92223
2.93447
2.94697
2.95971
2.97253
2.98516
2.99725
3.00842
3.01826
3.02644
3.03267
3.03674
3.03859
3.03824
3.03581
3.03147
3.0255
3.01826
3.01019
3.00174
2.99337
2.98555
2.97877
2.97348
2.97013
2.96922
2.97129
2.97701
2.98748
3.00483
3.03281
3.075
3.12838
3.17762
3.21398
3.25312
3.30884
3.3507
3.33391
3.25038
3.12552
2.99294
2.87353
2.77563
2.7
2.6442
2.60496
2.57918
2.56406
2.55707
2.55589
2.55834
2.56251
2.56667
2.56962
2.57057
2.56928
2.56555
2.55939
2.55109
2.54102
2.52956
2.51708
2.50387
2.4902
2.47626
2.46222
2.44819
2.43427
2.42051
2.40695
2.39362
2.38052
2.36765
2.35502
2.34262
2.33042
2.31843
2.30661
2.29497
2.28348
2.27213
2.2609
2.24977
2.23875
2.2278
2.21692
2.2061
2.19533
2.1846
2.1739
2.16324
2.15259
2.14198
2.13138
2.12081
2.11026
2.09976
2.08929
2.07889
2.06857
2.05834
2.04823
2.03825
2.02839
2.01865
2.0089
1.99906
1.98881
1.97801
1.96601
0.303284
0.571093
0.733243
0.825741
0.903264
0.967555
1.02682
1.08107
1.13288
1.18225
1.23019
1.27667
1.32211
1.36646
1.4099
1.45235
1.49385
1.53435
1.57384
1.61228
1.64967
1.68598
1.72124
1.7555
1.78883
1.82129
1.85297
1.88401
1.91455
1.94468
1.97449
2.00409
2.03358
2.06309
2.09268
2.12243
2.15239
2.18259
2.21304
2.24373
2.27465
2.30575
2.337
2.36835
2.39974
2.43111
2.46239
2.49352
2.52444
2.55507
2.58534
2.61516
2.64443
2.67303
2.7008
2.72759
2.75322
2.77751
2.80029
2.82143
2.84082
2.85842
2.87425
2.88841
2.90108
2.9125
2.92297
2.93283
2.9424
2.95196
2.96171
2.97175
2.98204
2.99244
3.00269
3.01248
3.02146
3.02929
3.03566
3.04029
3.04301
3.04373
3.04251
3.03933
3.03431
3.02767
3.01975
3.01094
3.00168
2.99241
2.98363
2.97586
2.96967
2.9658
2.96524
2.96901
2.97798
2.99172
3.00955
3.03243
3.06631
3.11702
3.17846
3.23922
3.30612
3.38959
3.45497
3.4471
3.3575
3.21763
3.07079
2.94167
2.83867
2.76129
2.70591
2.66847
2.64538
2.63354
2.63016
2.6326
2.63844
2.64537
2.65155
2.6557
2.65712
2.65568
2.65129
2.64406
2.63441
2.62284
2.60983
2.5958
2.58108
2.56597
2.55067
2.53534
2.5201
2.50503
2.49018
2.47558
2.46125
2.4472
2.43341
2.41988
2.4066
2.39356
2.38073
2.3681
2.35565
2.34337
2.33124
2.31925
2.30738
2.29561
2.28394
2.27235
2.26084
2.24938
2.23798
2.22662
2.21531
2.20403
2.19279
2.18158
2.17041
2.15927
2.14818
2.13713
2.12616
2.11526
2.10445
2.09375
2.08318
2.07271
2.06232
2.05191
2.04139
2.03048
2.01904
2.00646
0.302889
0.569993
0.731305
0.823886
0.901968
0.966932
1.02711
1.08238
1.1354
1.18607
1.23545
1.28348
1.33059
1.37672
1.42204
1.46645
1.50998
1.55257
1.5942
1.6348
1.67436
1.71285
1.75029
1.7867
1.82214
1.85671
1.89049
1.92357
1.95605
1.98802
2.0196
2.05089
2.082
2.11303
2.14407
2.17517
2.20638
2.23772
2.2692
2.30083
2.33258
2.36444
2.39637
2.42832
2.46024
2.49207
2.52375
2.55521
2.58637
2.61715
2.64746
2.67717
2.70615
2.73426
2.7613
2.78708
2.8114
2.83407
2.85493
2.87384
2.89075
2.90565
2.91862
2.92983
2.93953
2.94807
2.9558
2.96312
2.97039
2.97793
2.98591
2.99441
3.00335
3.01255
3.02173
3.03053
3.03858
3.04552
3.05099
3.0547
3.05646
3.0563
3.05423
3.05008
3.04394
3.03608
3.02679
3.01643
3.00536
2.99393
2.98253
2.97168
2.96209
2.95469
2.95048
2.95103
2.95822
2.97455
3.00037
3.03281
3.07044
3.11913
3.18063
3.25304
3.34605
3.46198
3.55319
3.55339
3.45702
3.30256
3.14338
3.00717
2.9016
2.82463
2.77141
2.73722
2.7181
2.71073
2.71203
2.71906
2.7289
2.73894
2.74722
2.75243
2.75397
2.75198
2.74643
2.73759
2.72608
2.71255
2.69757
2.68162
2.66507
2.64822
2.6313
2.61446
2.5978
2.58139
2.56528
2.54949
2.53402
2.51887
2.50402
2.48947
2.47518
2.46115
2.44736
2.43378
2.4204
2.4072
2.39416
2.38126
2.3685
2.35586
2.34332
2.33088
2.31852
2.30623
2.29401
2.28185
2.26975
2.25769
2.24568
2.23372
2.2218
2.20993
2.19811
2.18634
2.17465
2.16304
2.15152
2.1401
2.12879
2.11757
2.10641
2.09521
2.08389
2.07218
2.05995
2.04664
0.29888
0.562681
0.722537
0.814818
0.893273
0.958806
1.01989
1.07619
1.13049
1.18259
1.23363
1.28348
1.33262
1.38091
1.42852
1.47533
1.52137
1.56655
1.61084
1.65418
1.69653
1.73787
1.7782
1.81756
1.856
1.89357
1.93033
1.96635
2.00168
2.03641
2.07068
2.1046
2.1383
2.17188
2.20542
2.23893
2.27244
2.30597
2.33952
2.37311
2.40671
2.44029
2.4738
2.50718
2.54038
2.57332
2.60592
2.6381
2.66975
2.70077
2.73101
2.76033
2.78855
2.81551
2.84101
2.86483
2.88679
2.90671
2.92447
2.94001
2.95332
2.96451
2.97376
2.98133
2.98761
2.99299
2.99792
3.00285
3.00816
3.01413
3.0209
3.02847
3.03669
3.04529
3.05392
3.06217
3.06963
3.07588
3.08058
3.08343
3.0843
3.08338
3.08049
3.07539
3.06824
3.05929
3.04881
3.03709
3.02444
3.01118
2.99771
2.98451
2.97218
2.96147
2.95331
2.94878
2.94988
2.95919
2.98089
3.0171
3.06704
3.12783
3.19536
3.27521
3.38988
3.53637
3.64892
3.65203
3.54622
3.37821
3.21003
3.07065
2.96603
2.89227
2.84344
2.81438
2.80092
2.79963
2.807
2.81972
2.83421
2.84765
2.85794
2.8638
2.86494
2.86178
2.85436
2.84323
2.82923
2.81315
2.79567
2.77732
2.75852
2.73956
2.72067
2.702
2.68362
2.66561
2.64799
2.63077
2.61393
2.59747
2.58137
2.56559
2.55013
2.53494
2.52002
2.50533
2.49086
2.47659
2.46249
2.44855
2.43476
2.4211
2.40756
2.39413
2.38079
2.36754
2.35437
2.34127
2.32824
2.31526
2.30235
2.2895
2.2767
2.26395
2.25127
2.23865
2.22611
2.21364
2.20127
2.18899
2.1768
2.16469
2.15262
2.14048
2.12822
2.11556
2.10241
2.08816
0.292365
0.550927
0.707527
0.799001
0.877578
0.943659
1.00576
1.06333
1.11926
1.17321
1.22638
1.27854
1.33021
1.38121
1.43173
1.48161
1.53091
1.5795
1.62737
1.67444
1.72069
1.76609
1.81066
1.8544
1.89734
1.93948
1.98085
2.02145
2.06136
2.10063
2.13935
2.17764
2.21571
2.25366
2.29148
2.32912
2.36661
2.40398
2.44124
2.47838
2.51535
2.55209
2.58853
2.62458
2.66016
2.69515
2.72943
2.76288
2.79533
2.82663
2.85659
2.88503
2.91178
2.93664
2.95945
2.98002
2.99819
3.01387
3.02703
3.03772
3.04605
3.05227
3.05669
3.0597
3.06176
3.06337
3.06504
3.06722
3.07029
3.07451
3.07993
3.08643
3.09377
3.10159
3.10948
3.11698
3.12365
3.12907
3.13287
3.13477
3.13489
3.13346
3.12988
3.12398
3.11594
3.106
3.0944
3.08139
3.06719
3.05208
3.03636
3.02043
3.00482
2.99025
2.97768
2.96835
2.96376
2.96627
2.97942
3.00956
3.06264
3.13786
3.22136
3.31573
3.4518
3.62025
3.73966
3.73507
3.61545
3.43731
3.26635
3.12968
3.03052
2.96328
2.9214
2.89961
2.89379
2.90016
2.91511
2.93426
2.95376
2.97048
2.98228
2.9881
2.98816
2.98316
2.97319
2.9592
2.94224
2.92325
2.90296
2.88196
2.86066
2.83938
2.81831
2.7976
2.77731
2.75749
2.73815
2.71929
2.70089
2.68293
2.66537
2.64819
2.63136
2.61485
2.59863
2.58268
2.56697
2.55149
2.5362
2.5211
2.50617
2.49138
2.47674
2.46222
2.44781
2.43351
2.41931
2.4052
2.39116
2.37721
2.36332
2.34951
2.33576
2.32208
2.30847
2.29493
2.28146
2.26808
2.25478
2.24156
2.22843
2.21535
2.2023
2.18916
2.17588
2.1622
2.14802
2.13272
0.282716
0.535397
0.688375
0.779075
0.857845
0.924639
0.987976
1.0471
1.10498
1.16114
1.21684
1.27179
1.32655
1.38085
1.43488
1.4885
1.54182
1.5947
1.64716
1.6991
1.75054
1.80143
1.8518
1.90161
1.95087
1.99952
2.04756
2.09493
2.14163
2.18765