/*--------------------------------*- C++ -*----------------------------------*\
| =========                 |                                                 |
| \\      /  F ield         | OpenFOAM: The Open Source CFD Toolbox           |
|  \\    /   O peration     | Version:  v1906                                 |
|   \\  /    A nd           | Web:      www.OpenFOAM.com                      |
|    \\/     M anipulation  |                                                 |
\*---------------------------------------------------------------------------*/
FoamFile
{
    version     2.0;
    format      ascii;
    class       volScalarField;
    location    "700";
    object      nut;
}
// * * * * * * * * * * * * * * * * * * * * * * * * * * * * * * * * * * * * * //

dimensions      [0 2 -1 0 0 0 0];


internalField   nonuniform List<scalar> 
12225
(
5.38048e-05
5.34216e-05
5.26394e-05
5.17774e-05
5.09454e-05
5.01796e-05
4.94856e-05
4.8868e-05
4.83052e-05
4.7815e-05
4.735e-05
4.69701e-05
4.6661e-05
4.64102e-05
4.61785e-05
4.6013e-05
4.58112e-05
4.5738e-05
0.00074366
0.00027483
0.000208919
0.000186817
0.000173794
0.000168891
0.000164703
0.00016107
0.00015815
0.000155604
0.000153664
0.000151738
0.00015045
0.000148701
0.000148111
0.000146402
0.00014674
0.000144889
0.00337131
0.000965693
0.000668432
0.000562258
0.00050387
0.000472035
0.000448905
0.000431652
0.000418777
0.000408343
0.000399698
0.000392326
0.000386279
0.000380572
0.00037643
0.000371438
0.000369605
0.000364521
0.00784749
0.00229239
0.00147327
0.00117577
0.00101861
0.000926495
0.000864633
0.00081987
0.000787015
0.000761206
0.000740132
0.000723372
0.000709648
0.000697791
0.000688252
0.000678885
0.000673613
0.000663136
0.0127628
0.00432674
0.00270976
0.00210439
0.00178859
0.00159952
0.00147348
0.00138306
0.00131575
0.0012636
0.00122166
0.00118751
0.00115976
0.00113589
0.00111572
0.00109788
0.00108507
0.0010667
0.0171139
0.00693202
0.00436919
0.00334593
0.00280532
0.00247642
0.00225611
0.00209813
0.00197987
0.00188821
0.0018149
0.00175506
0.00170575
0.0016641
0.00162869
0.00159794
0.00157225
0.00154404
0.0205947
0.00988398
0.00641802
0.00491191
0.0040943
0.00358856
0.00324689
0.00300099
0.00281608
0.00267229
0.00255725
0.00246321
0.00238521
0.00231946
0.00226338
0.0022149
0.00217365
0.00213112
0.0232407
0.0129306
0.00876071
0.00676562
0.00563807
0.00492474
0.0044363
0.00408193
0.00381375
0.00360414
0.00343591
0.00329802
0.00318319
0.00308616
0.00300321
0.00293147
0.00286923
0.00280802
0.0252064
0.0158687
0.0112825
0.00885746
0.00741819
0.00648215
0.00583025
0.00535214
0.00498744
0.00470064
0.00446945
0.0042793
0.00412036
0.00398569
0.00387024
0.00377023
0.00368266
0.00359975
0.0266542
0.0185549
0.0138528
0.0111073
0.00938579
0.00822881
0.00740589
0.00679371
0.00632191
0.00594794
0.00564463
0.00539394
0.00518352
0.00500456
0.00485062
0.00471683
0.00459892
0.00449005
0.0277221
0.0209147
0.0163559
0.0134292
0.0114841
0.010128
0.0091397
0.00839195
0.00780854
0.00734176
0.00696041
0.0066434
0.00637601
0.00614767
0.00595055
0.00577865
0.00562676
0.00548846
0.0284468
0.0227417
0.0184777
0.0155119
0.0134327
0.0119304
0.0108081
0.00994382
0.00926063
0.00870847
0.00825379
0.00787342
0.00755089
0.00727422
0.00703446
0.00682465
0.0066388
0.00647091
0.0290075
0.024303
0.0204374
0.0175385
0.0153941
0.013785
0.0125501
0.0115803
0.0108022
0.0101662
0.00963768
0.00919237
0.00881255
0.00848515
0.00820023
0.00795003
0.00772803
0.00752814
0.0294889
0.0257557
0.022398
0.0196767
0.0175409
0.0158666
0.0145395
0.0134717
0.0125989
0.0118751
0.0112669
0.0107496
0.0103051
0.00991948
0.00958218
0.00928471
0.0090201
0.00878233
0.0298838
0.0270286
0.0242393
0.0217979
0.019758
0.0180793
0.0166982
0.0155545
0.0145988
0.0137923
0.013105
0.0125139
0.0120013
0.0115533
0.011159
0.0108095
0.0104976
0.0102172
0.0301877
0.0280604
0.025827
0.0237257
0.0218568
0.0202387
0.0188526
0.0176679
0.0166527
0.0157788
0.0150221
0.014363
0.0137853
0.0132762
0.0128249
0.0124227
0.0120623
0.0117379
0.0303978
0.0288005
0.0270244
0.0252476
0.0235769
0.0220607
0.0207113
0.0195217
0.0184771
0.0175599
0.0167531
0.0160413
0.0154109
0.0148506
0.0143503
0.013902
0.0134987
0.0131349
0.0305044
0.0291849
0.027668
0.0260934
0.0245604
0.0231269
0.0218187
0.0206417
0.0195911
0.0186563
0.0178252
0.0170855
0.0164259
0.015836
0.0153069
0.0148309
0.0144011
0.0140115
0.0304715
0.029067
0.0274719
0.025837
0.0242636
0.022806
0.0214859
0.0203052
0.0192559
0.0183256
0.0175008
0.0167682
0.016116
0.0155336
0.0150119
0.0145432
0.0141211
0.0137402
0.030231
0.0282139
0.026076
0.0240422
0.0222138
0.0206155
0.0192351
0.0180469
0.0170229
0.0161371
0.0153669
0.0146935
0.0141017
0.0135786
0.0131141
0.0126997
0.0123288
0.011996
0.0298206
0.026828
0.0239496
0.021463
0.0194054
0.0177239
0.0163473
0.0152112
0.0142639
0.0134656
0.0127858
0.0122015
0.0116947
0.0112517
0.0108617
0.0105165
0.0102097
0.00993721
0.0291395
0.0247087
0.0209848
0.0181323
0.0159862
0.0143546
0.0130897
0.0120882
0.0112794
0.0106146
0.0100597
0.00959021
0.00918824
0.00884053
0.00853703
0.00827014
0.00803415
0.00782551
0.028036
0.0217162
0.0172852
0.0143382
0.0123314
0.010908
0.00985711
0.00905416
0.00842278
0.0079143
0.00749655
0.00714754
0.00685176
0.00659799
0.00637783
0.00618508
0.00601503
0.00586654
0.0262543
0.0178167
0.0131459
0.0104896
0.00884754
0.00775152
0.00697416
0.00639684
0.00595225
0.00559983
0.00531386
0.00507733
0.00487851
0.00470913
0.00456305
0.00443577
0.00432366
0.00422588
0.0233814
0.0132059
0.00902263
0.0069936
0.00583836
0.0051016
0.00459316
0.00422291
0.00394173
0.0037211
0.00354351
0.00339756
0.00327555
0.00317211
0.00308308
0.00300566
0.00293662
0.00287708
0.0189045
0.0084556
0.00545011
0.00418493
0.00350641
0.00308621
0.00280095
0.00259655
0.00244278
0.00232281
0.00222675
0.00214812
0.0020826
0.00202731
0.00197967
0.0019386
0.00190198
0.00187088
0.0125844
0.00438894
0.0027886
0.00217247
0.00185037
0.00165228
0.00151836
0.00142435
0.00135359
0.00129836
0.00125435
0.00121838
0.00118855
0.00116352
0.00114148
0.00112288
0.00110542
0.00109068
0.00562612
0.00171148
0.00115552
0.000945974
0.000836979
0.00076901
0.000723325
0.000693156
0.00066877
0.000649319
0.000633793
0.000620771
0.000609522
0.000599978
0.000591304
0.000584089
0.000576863
0.000571898
0.00117126
0.000435642
0.000327288
0.000284803
0.000262907
0.000248751
0.000241421
0.000237195
0.000233219
0.000229607
0.000226372
0.00022356
0.000220999
0.000218833
0.000216756
0.000215088
0.000213298
0.000211657
7.08579e-05
7.01306e-05
6.91147e-05
6.81139e-05
6.71688e-05
6.62995e-05
6.55034e-05
6.47784e-05
6.41201e-05
6.35217e-05
6.29765e-05
6.24778e-05
6.20216e-05
6.1601e-05
6.12159e-05
6.08567e-05
6.05293e-05
6.02177e-05
1.08086e-05
3.4371e-05
4.11173e-05
4.46316e-05
4.70722e-05
4.86974e-05
4.99767e-05
5.09428e-05
5.17388e-05
5.23753e-05
5.29061e-05
5.33424e-05
5.37109e-05
5.40217e-05
5.42881e-05
5.45157e-05
5.47094e-05
5.48706e-05
5.49982e-05
5.50905e-05
5.51474e-05
5.51489e-05
5.51098e-05
5.50302e-05
5.48869e-05
5.46841e-05
5.44264e-05
5.41088e-05
5.37464e-05
5.31975e-05
5.24317e-05
5.14079e-05
5.00679e-05
4.83196e-05
4.60483e-05
4.30334e-05
3.98226e-05
3.72879e-05
3.61104e-05
3.69237e-05
4.00109e-05
4.31172e-05
4.44581e-05
4.49327e-05
4.52484e-05
4.56574e-05
4.60806e-05
4.64725e-05
4.69036e-05
4.74002e-05
4.79823e-05
4.86809e-05
4.93989e-05
5.01177e-05
5.08665e-05
5.16203e-05
5.23906e-05
5.31879e-05
5.40265e-05
5.4918e-05
5.58796e-05
5.69274e-05
5.80741e-05
5.93262e-05
6.06896e-05
6.21597e-05
6.37276e-05
6.53769e-05
6.70994e-05
6.88831e-05
7.07172e-05
7.25891e-05
7.44886e-05
7.64045e-05
7.83286e-05
8.02516e-05
8.21678e-05
8.40701e-05
8.59531e-05
8.78116e-05
8.96411e-05
9.14372e-05
9.31956e-05
9.49124e-05
9.65824e-05
9.82015e-05
9.97642e-05
0.000101267
0.000102707
0.000104082
0.000105407
0.000106676
0.000107929
0.000109168
0.000110388
0.000111573
0.000112705
0.000113756
0.000114674
0.000115429
0.000115864
0.000115974
0.000115759
0.000115095
0.000113702
0.000111432
0.000109159
0.000106661
0.000103995
0.000101209
9.83563e-05
9.55769e-05
9.3004e-05
9.07523e-05
8.89255e-05
8.75758e-05
8.66804e-05
8.61765e-05
8.59443e-05
8.58751e-05
8.59516e-05
8.61095e-05
8.63179e-05
8.65428e-05
8.67637e-05
8.6968e-05
8.71407e-05
8.73331e-05
8.75664e-05
8.78204e-05
8.79052e-05
8.77763e-05
8.7566e-05
8.73189e-05
8.70417e-05
8.67408e-05
8.64218e-05
8.60891e-05
8.57472e-05
8.53995e-05
8.50493e-05
8.46991e-05
8.43512e-05
8.40074e-05
8.36689e-05
8.33368e-05
8.30116e-05
8.26935e-05
8.23827e-05
8.2079e-05
8.17821e-05
8.14917e-05
8.12074e-05
8.09285e-05
8.06544e-05
8.03843e-05
8.01174e-05
7.98535e-05
7.95929e-05
7.93354e-05
7.90788e-05
7.88231e-05
7.85695e-05
7.83189e-05
7.80722e-05
7.78294e-05
7.75913e-05
7.73571e-05
7.71278e-05
7.69012e-05
7.66801e-05
7.64579e-05
7.62435e-05
7.60172e-05
7.58046e-05
7.55548e-05
7.53144e-05
7.50039e-05
7.44481e-05
7.20059e-05
1.43355e-05
0.000108992
0.000210463
0.000268015
0.000312089
0.000344043
0.000369908
0.000389755
0.000406582
0.000420549
0.000433182
0.000445031
0.000457011
0.00046947
0.000482736
0.000496848
0.000511768
0.000527314
0.000543235
0.000559206
0.000574774
0.000589431
0.000602597
0.00061383
0.00062282
0.000630125
0.00063651
0.000642738
0.000649572
0.000657103
0.000665344
0.000675462
0.000688728
0.000706322
0.000729026
0.00075684
0.000781233
0.000800093
0.000812732
0.000819334
0.000821615
0.000822861
0.000826121
0.000831866
0.00083855
0.000844482
0.000848545
0.000850204
0.000849194
0.000845396
0.000838828
0.000829609
0.00081796
0.000804579
0.000790098
0.000774969
0.000759708
0.000744709
0.000730212
0.000716281
0.000702843
0.000690487
0.000679512
0.000670157
0.000662488
0.000655791
0.000649975
0.000645084
0.000641199
0.000638378
0.000636658
0.000636032
0.000636467
0.000637891
0.000640222
0.000643347
0.000647356
0.00065215
0.000657638
0.000663721
0.000670289
0.000677228
0.000684398
0.000691635
0.000698696
0.00070526
0.000710821
0.000714638
0.000715474
0.000712616
0.000707916
0.000700713
0.000695034
0.000691994
0.00069207
0.000695432
0.000702145
0.000712026
0.000725399
0.000742929
0.000760962
0.000779142
0.000796703
0.00081623
0.000837246
0.000854149
0.000867649
0.000877716
0.000885117
0.000890777
0.000895255
0.000901089
0.000909635
0.000919339
0.000930794
0.000943997
0.000956607
0.000965755
0.00096891
0.000966746
0.000961311
0.000954181
0.000946434
0.000938405
0.00093009
0.0009211
0.000911246
0.000902427
0.000897063
0.000893901
0.000891333
0.000888267
0.000884614
0.000880625
0.000876486
0.000872319
0.000868205
0.000864195
0.000860325
0.000856611
0.00085306
0.000849675
0.000846453
0.000843389
0.000840475
0.000837697
0.00083504
0.000832488
0.000830026
0.000827638
0.000825308
0.00082302
0.000820758
0.000818504
0.000816235
0.00081393
0.000811582
0.000809187
0.000806746
0.000804228
0.000801576
0.00079883
0.000796026
0.000793178
0.000790293
0.000787371
0.000784411
0.000781407
0.000778368
0.000775285
0.00077219
0.000769058
0.000765997
0.000762875
0.000760114
0.000756922
0.000755355
0.000748981
0.000732057
0.000692339
1.9093e-05
0.000148055
0.000299327
0.000414554
0.000506117
0.00057829
0.000636448
0.000683558
0.000722415
0.000754527
0.000782964
0.000808884
0.000834462
0.000860261
0.000887085
0.000915046
0.000944243
0.000974429
0.0010053
0.00103635
0.00106682
0.00109573
0.0011227
0.00114749
0.00117011
0.00119076
0.00120975
0.0012274
0.00124405
0.00125994
0.0012751
0.00128941
0.00130245
0.00131356
0.00132176
0.0013258
0.00132926
0.00133161
0.00133263
0.00133276
0.00133346
0.00133658
0.00134302
0.00135238
0.0013635
0.00137507
0.0013859
0.00139511
0.00140203
0.00140631
0.00140787
0.00140691
0.00140384
0.00139924
0.0013937
0.00138781
0.00138208
0.00137692
0.00137259
0.00136929
0.00136718
0.0013657
0.00136435
0.00136257
0.00136
0.00135721
0.00135453
0.00135221
0.00135043
0.00134934
0.00134908
0.00134973
0.00135136
0.00135397
0.00135828
0.00136372
0.00136974
0.00137598
0.00138251
0.00138923
0.00139601
0.00140271
0.00140918
0.00141523
0.00142068
0.0014253
0.0014289
0.00143134
0.00143281
0.0014339
0.00143574
0.00144001
0.00144838
0.00146146
0.00147995
0.00150397
0.00153419
0.00157252
0.00161599
0.00166574
0.00172053
0.00177948
0.00183694
0.00189709
0.00195742
0.00201356
0.00206467
0.0021085
0.00214333
0.00216687
0.00217348
0.00217098
0.00216422
0.00215629
0.00215054
0.00214742
0.00214545
0.00214292
0.00213861
0.00213344
0.0021289
0.00212508
0.00212205
0.00211953
0.00211677
0.00211315
0.0021084
0.00210309
0.00209836
0.00209383
0.00208825
0.00208089
0.00207202
0.00206219
0.00205181
0.00204119
0.00203054
0.00202002
0.00200974
0.00199978
0.00199018
0.00198097
0.00197216
0.00196377
0.00195579
0.00194818
0.00194092
0.00193399
0.00192734
0.00192094
0.00191475
0.00190873
0.00190282
0.00189696
0.00189108
0.00188511
0.00187905
0.00187289
0.00186663
0.00186011
0.00185305
0.00184578
0.00183844
0.00183106
0.00182366
0.00181622
0.00180875
0.00180122
0.00179365
0.00178602
0.00177837
0.00177067
0.00176301
0.00175525
0.00174757
0.00173943
0.00173111
0.00171575
0.00168869
0.00162599
2.08996e-05
0.000160491
0.000344793
0.000487249
0.000611873
0.000710654
0.0007959
0.000862773
0.000920329
0.00096757
0.00101046
0.00104936
0.0010875
0.00112503
0.00116325
0.0012021
0.0012419
0.00128241
0.00132358
0.00136528
0.00140747
0.00144965
0.00149016
0.00152557
0.00155646
0.00158339
0.00160691
0.00162755
0.00164577
0.00166195
0.00167633
0.00168903
0.00170005
0.0017094
0.00171712
0.00172334
0.0017283
0.00173224
0.00173583
0.00174026
0.00174704
0.00175729
0.00177116
0.0017879
0.00180631
0.00182509
0.00184307
0.00185933
0.00187329
0.00188466
0.00189346
0.00189999
0.0019047
0.00190812
0.00191076
0.00191305
0.00191529
0.00191765
0.00192017
0.00192279
0.00192537
0.00192772
0.0019297
0.00193128
0.00193254
0.00193364
0.00193474
0.00193602
0.00193764
0.00193975
0.00194247
0.00194588
0.00195004
0.00195496
0.00196002
0.00196525
0.00197149
0.00197886
0.00198671
0.0019948
0.002003
0.00201122
0.0020194
0.00202747
0.00203539
0.00204315
0.00205078
0.00205834
0.00206575
0.00207301
0.0020793
0.00208935
0.00210545
0.00212879
0.00216118
0.00220299
0.00225368
0.00231571
0.00238811
0.00247121
0.0025632
0.00266141
0.00275931
0.00285121
0.00294346
0.00303218
0.00311465
0.00318706
0.00324571
0.00328735
0.00331064
0.00331669
0.00331077
0.0032997
0.00328676
0.00327336
0.00326053
0.00324917
0.00324007
0.00323382
0.00323052
0.00322964
0.00323036
0.00323176
0.00323286
0.00323293
0.00323162
0.00322876
0.00322425
0.00321775
0.00320891
0.0031977
0.00318454
0.00316998
0.00315451
0.00313852
0.00312233
0.00310618
0.00309024
0.00307464
0.00305948
0.00304481
0.00303067
0.00301708
0.00300403
0.0029915
0.00297947
0.00296788
0.0029567
0.00294587
0.00293534
0.00292503
0.00291485
0.00290467
0.00289429
0.00288368
0.00287286
0.00286187
0.00285071
0.00283934
0.00282776
0.00281613
0.0028045
0.00279288
0.00278129
0.0027697
0.00275807
0.00274642
0.00273477
0.00272311
0.00271153
0.00269997
0.00268862
0.00267716
0.00266589
0.00265387
0.00264103
0.00262036
0.00258747
0.00251924
2.35926e-05
0.000185743
0.000392792
0.000557374
0.000703672
0.000824532
0.00093018
0.00101863
0.0010953
0.00115934
0.00121684
0.0012676
0.00131646
0.00136336
0.00141062
0.00145803
0.00150655
0.00155581
0.0016057
0.00165523
0.00170331
0.00174887
0.00179171
0.00183158
0.00186762
0.00189942
0.00192734
0.00195185
0.00197352
0.00199287
0.00201034
0.00202624
0.00204078
0.00205406
0.00206623
0.00207747
0.00208809
0.00209865
0.00211001
0.00212311
0.00213871
0.00215705
0.00217778
0.00220009
0.00222296
0.00224533
0.00226633
0.00228531
0.00230196
0.00231625
0.00232837
0.00233868
0.0023476
0.00235552
0.00236278
0.0023696
0.00237609
0.00238229
0.00238816
0.00239364
0.00239867
0.00240323
0.00240731
0.002411
0.0024144
0.00241765
0.0024209
0.00242431
0.00242802
0.00243217
0.00243687
0.00244219
0.00244818
0.00245489
0.00246234
0.00247064
0.00247922
0.0024878
0.00249668
0.00250594
0.00251558
0.00252561
0.00253612
0.00254715
0.00255882
0.00257135
0.00258501
0.00260022
0.00261728
0.00263649
0.00265917
0.00268679
0.00271848
0.00275591
0.00279978
0.00285199
0.00291417
0.00298743
0.00307205
0.0031689
0.00327725
0.00339377
0.00351142
0.00362526
0.00374033
0.00385393
0.00396291
0.00406338
0.00415101
0.00422205
0.00427408
0.00430899
0.0043304
0.00434098
0.00434319
0.00433967
0.00433314
0.00432602
0.00432004
0.00431619
0.00431464
0.00431493
0.00431626
0.00431773
0.00431849
0.00431788
0.00431549
0.00431105
0.00430434
0.00429522
0.00428372
0.00427016
0.00425496
0.00423859
0.00422141
0.00420376
0.00418589
0.004168
0.00415025
0.00413275
0.00411559
0.00409881
0.00408245
0.00406653
0.00405103
0.00403594
0.00402123
0.00400687
0.00399281
0.00397898
0.00396533
0.00395176
0.00393812
0.00392421
0.00390962
0.00389444
0.00387889
0.0038631
0.00384714
0.00383105
0.00381491
0.00379876
0.00378265
0.00376658
0.00375054
0.00373444
0.00371825
0.00370205
0.0036859
0.00366982
0.00365389
0.00363805
0.00362247
0.00360669
0.00359048
0.00357303
0.00355288
0.00352377
0.00348099
0.00340374
2.52871e-05
0.000200873
0.000430568
0.000615825
0.00078334
0.000923306
0.00104784
0.00115368
0.00124754
0.00132751
0.00139888
0.00146157
0.0015197
0.00157418
0.00162742
0.0016801
0.00173327
0.00178707
0.00184166
0.00189636
0.00195018
0.00200168
0.00204997
0.00209492
0.00213646
0.00217401
0.00220753
0.00223753
0.00226453
0.00228908
0.00231165
0.00233262
0.0023523
0.00237096
0.00238887
0.0024064
0.00242396
0.00244209
0.00246127
0.00248189
0.00250406
0.00252759
0.00255199
0.00257662
0.00260072
0.00262363
0.00264484
0.00266405
0.00268121
0.00269643
0.00270997
0.00272213
0.00273318
0.00274335
0.00275281
0.00276163
0.00276988
0.00277754
0.00278462
0.00279113
0.00279707
0.0028025
0.00280749
0.00281216
0.00281662
0.002821
0.00282544
0.00283008
0.00283503
0.00284038
0.00284624
0.00285264
0.00285965
0.00286727
0.0028755
0.00288432
0.0028937
0.0029037
0.00291439
0.00292584
0.00293813
0.00295133
0.00296547
0.00298066
0.00299703
0.00301491
0.00303466
0.00305674
0.00308052
0.00310719
0.00313788
0.00317249
0.00321071
0.00325175
0.00329489
0.00334643
0.00340893
0.00348369
0.00357148
0.0036758
0.00379828
0.00393576
0.00407397
0.00420939
0.00434375
0.00448058
0.00461678
0.00474927
0.00487383
0.00498679
0.00508269
0.00515934
0.00521773
0.00525869
0.00528452
0.00529867
0.00530498
0.00530697
0.0053073
0.00530758
0.00530848
0.00530992
0.00531139
0.00531222
0.00531173
0.00530939
0.00530483
0.00529779
0.00528822
0.00527619
0.00526196
0.00524593
0.00522849
0.00521003
0.00519087
0.00517128
0.00515148
0.00513165
0.00511192
0.00509239
0.00507313
0.00505419
0.00503559
0.00501735
0.00499944
0.00498186
0.00496457
0.00494753
0.00493069
0.00491399
0.00489733
0.00488061
0.0048636
0.00484593
0.00482669
0.00480664
0.00478622
0.00476562
0.00474496
0.00472428
0.00470364
0.00468308
0.0046626
0.00464221
0.0046219
0.00460163
0.00458138
0.00456119
0.00454108
0.00452106
0.0045012
0.00448142
0.00446179
0.00444187
0.00442162
0.00439959
0.00437435
0.00433933
0.00429065
0.0042078
2.72659e-05
0.000214836
0.000467061
0.00067417
0.000860724
0.00101952
0.00116
0.00128262
0.00139119
0.00148722
0.00157294
0.00164977
0.00171951
0.0017831
0.00184309
0.00190043
0.00195647
0.00201171
0.00206659
0.0021211
0.00217512
0.00222806
0.00227923
0.00232805
0.00237416
0.00241708
0.00245621
0.00249154
0.00252378
0.00255349
0.00258109
0.00260699
0.00263152
0.00265498
0.00267766
0.00269989
0.00272207
0.00274464
0.00276793
0.00279216
0.00281732
0.00284323
0.0028695
0.00289562
0.002921
0.00294502
0.00296722
0.00298731
0.00300532
0.00302147
0.00303601
0.00304921
0.00306126
0.00307233
0.00308252
0.0030919
0.00310052
0.00310842
0.00311564
0.00312225
0.00312831
0.00313391
0.00313915
0.00314414
0.00314899
0.00315382
0.00315874
0.00316385
0.00316923
0.00317495
0.0031811
0.0031877
0.0031948
0.00320244
0.00321064
0.00321945
0.00322891
0.0032391
0.00325008
0.00326195
0.00327481
0.00328877
0.003304
0.0033207
0.00333915
0.00335944
0.00338223
0.00340678
0.00343295
0.00346257
0.00349556
0.00353225
0.00357325
0.00361959
0.00367293
0.00373464
0.0038045
0.003882
0.00396421
0.0040603
0.00417564
0.0043132
0.00446765
0.00462246
0.00477548
0.00493349
0.00509915
0.00527009
0.00544161
0.00560738
0.00575762
0.0058863
0.00599128
0.00607162
0.0061289
0.00616693
0.00619054
0.00620447
0.00621256
0.00621746
0.00622063
0.00622261
0.00622336
0.00622253
0.00621973
0.00621458
0.00620682
0.00619634
0.00618326
0.00616783
0.00615043
0.00613146
0.00611129
0.00609026
0.00606864
0.00604666
0.00602453
0.00600239
0.00598035
0.00595851
0.00593691
0.00591559
0.00589457
0.00587384
0.0058534
0.00583323
0.00581328
0.00579351
0.00577387
0.00575428
0.00573464
0.0057148
0.00569455
0.00567362
0.00565182
0.00562951
0.00560692
0.00558417
0.00556135
0.0055385
0.00551566
0.00549285
0.00547008
0.00544735
0.00542465
0.00540196
0.00537927
0.00535659
0.00533391
0.00531124
0.00528855
0.00526578
0.0052428
0.00521927
0.00519464
0.00516755
0.00513551
0.00509335
0.0050361
0.00494928
2.85826e-05
0.000224506
0.000496899
0.000723392
0.000927977
0.00110363
0.00125886
0.0013956
0.00151681
0.00162522
0.00172286
0.00181167
0.00189301
0.00196804
0.00203744
0.00210203
0.00216345
0.00222235
0.00227931
0.00233451
0.002388
0.00243987
0.00249015
0.00253869
0.00258527
0.00262969
0.00267174
0.00271127
0.00274817
0.0027823
0.00281362
0.00284265
0.00286961
0.00289454
0.00291738
0.00293855
0.00295908
0.00298006
0.00300246
0.00302696
0.00305385
0.00308297
0.00311374
0.00314527
0.00317643
0.00320592
0.00323231
0.00325484
0.00327433
0.00329144
0.00330664
0.00332027
0.00333258
0.00334374
0.00335388
0.00336309
0.00337146
0.00337905
0.00338596
0.00339227
0.00339806
0.00340343
0.00340848
0.00341329
0.00341798
0.00342261
0.00342728
0.00343205
0.00343698
0.00344211
0.0034475
0.00345317
0.00345916
0.00346551
0.00347228
0.00347951
0.0034873
0.00349574
0.00350494
0.00351502
0.00352612
0.00353841
0.00355205
0.00356721
0.00358409
0.00360285
0.00362424
0.00364741
0.00367236
0.00370098
0.00373311
0.00376959
0.00381138
0.00385855
0.00391215
0.00397293
0.00404137
0.00411831
0.00420491
0.00430404
0.00440946
0.00453742
0.00469558
0.00487821
0.00505234
0.00523378
0.00543313
0.00564855
0.0058743
0.00610064
0.00631663
0.00650896
0.00667093
0.00679964
0.00689538
0.00696212
0.00700586
0.00703296
0.0070489
0.00705774
0.00706208
0.00706328
0.0070619
0.00705804
0.00705164
0.00704256
0.00703062
0.00701588
0.00699862
0.00697925
0.0069582
0.00693586
0.00691256
0.00688859
0.00686419
0.00683955
0.00681484
0.00679016
0.00676562
0.00674129
0.00671719
0.00669336
0.00666981
0.00664652
0.00662347
0.00660065
0.006578
0.00655549
0.00653305
0.0065106
0.00648804
0.00646523
0.00644203
0.00641831
0.00639408
0.00636952
0.00634475
0.00631987
0.00629492
0.00626994
0.00624495
0.00621997
0.006195
0.00617004
0.00614509
0.00612013
0.00609515
0.00607015
0.00604511
0.00602
0.00599477
0.0059693
0.00594339
0.0059166
0.00588816
0.00585657
0.00581908
0.00577144
0.0057086
0.00562092
2.99779e-05
0.000233777
0.000524388
0.000768462
0.000988095
0.0011781
0.00134477
0.00149234
0.00162372
0.00174167
0.00184826
0.00194548
0.00203475
0.00211737
0.00219428
0.0022664
0.0023344
0.00239879
0.00245994
0.00251821
0.00257384
0.00262703
0.00267787
0.00272644
0.00277275
0.0028168
0.00285861
0.00289815
0.00293544
0.00297044
0.00300315
0.00303347
0.00306117
0.00308584
0.00310816
0.00312927
0.00315041
0.00317275
0.00319718
0.0032242
0.00325387
0.00328579
0.00331918
0.003353
0.00338604
0.00341705
0.00344477
0.00346818
0.00348827
0.00350574
0.00352112
0.00353478
0.00354698
0.00355792
0.00356775
0.00357659
0.00358453
0.00359169
0.00359814
0.00360397
0.00360928
0.00361414
0.00361864
0.00362284
0.00362681
0.00363061
0.00363428
0.00363786
0.00364137
0.00364485
0.00364832
0.00365179
0.00365532
0.00365896
0.00366279
0.00366693
0.00367151
0.00367668
0.00368259
0.00368942
0.00369734
0.00370649
0.00371705
0.00372915
0.003743
0.00375873
0.00377697
0.00379652
0.00381845
0.00384359
0.00387218
0.00390491
0.00394167
0.00398323
0.00403055
0.0040847
0.00414707
0.00421953
0.00430379
0.00440291
0.00452013
0.00466024
0.00481479
0.0049987
0.00519417
0.00540201
0.00563819
0.00590224
0.00618791
0.00648292
0.00677165
0.00703814
0.00726677
0.00745176
0.00759163
0.00769047
0.00775579
0.00779608
0.00781899
0.00783041
0.0078343
0.00783309
0.00782808
0.00781979
0.00780861
0.00779475
0.00777789
0.00775824
0.00773629
0.00771261
0.00768767
0.00766179
0.00763527
0.00760831
0.00758111
0.00755382
0.00752654
0.00749936
0.00747237
0.00744558
0.00741904
0.00739275
0.00736672
0.00734093
0.00731535
0.00728996
0.00726472
0.00723957
0.00721445
0.00718929
0.00716399
0.00713846
0.00711261
0.00708641
0.0070599
0.00703317
0.0070063
0.00697934
0.00695233
0.00692529
0.00689824
0.00687118
0.00684413
0.00681708
0.00679002
0.00676296
0.00673586
0.00670873
0.00668152
0.0066542
0.00662668
0.00659881
0.00657028
0.00654061
0.00650883
0.0064734
0.00643163
0.00638006
0.00631384
0.00622752
3.07583e-05
0.000238943
0.000544393
0.000802136
0.00103507
0.00123703
0.00141428
0.00157122
0.00171099
0.00183641
0.00194961
0.00205268
0.0021471
0.00223423
0.00231511
0.00239065
0.00246153
0.00252834
0.00259148
0.00265129
0.00270806
0.00276208
0.00281357
0.00286272
0.00290963
0.00295439
0.00299705
0.00303762
0.00307607
0.00311231
0.00314622
0.00317755
0.00320599
0.00323115
0.00325419
0.00327637
0.00329888
0.00332274
0.0033486
0.00337677
0.00340716
0.00343932
0.00347258
0.00350604
0.00353876
0.00356973
0.00359802
0.00362266
0.00364361
0.00366168
0.00367743
0.00369129
0.00370355
0.00371444
0.00372415
0.00373282
0.00374055
0.00374745
0.0037536
0.00375908
0.00376396
0.00376828
0.00377211
0.00377549
0.00377845
0.00378101
0.0037832
0.00378503
0.0037865
0.00378763
0.00378846
0.00378904
0.00378944
0.0037898
0.00379027
0.00379102
0.00379226
0.00379417
0.00379695
0.00380076
0.00380574
0.003812
0.00381967
0.0038288
0.00383972
0.00385236
0.00386597
0.00388162
0.0038998
0.00392019
0.003943
0.00396843
0.00399687
0.00402896
0.00406572
0.00410835
0.00415874
0.00421997
0.00429692
0.00439223
0.0045075
0.00464714
0.00481643
0.00501033
0.00522414
0.00546148
0.00573663
0.00605211
0.00640142
0.00677023
0.00713916
0.00748619
0.00779002
0.00803748
0.00822545
0.00835812
0.00844497
0.00849719
0.00852515
0.00853692
0.0085381
0.00853222
0.00852114
0.00850623
0.00848888
0.00846945
0.00844747
0.00842239
0.00839541
0.00836741
0.00833878
0.00830974
0.00828044
0.008251
0.00822153
0.00819212
0.0081628
0.00813363
0.00810467
0.0080759
0.00804735
0.00801901
0.00799087
0.00796291
0.00793513
0.00790751
0.00787999
0.00785253
0.00782507
0.00779755
0.00776991
0.00774206
0.00771399
0.00768567
0.00765716
0.0076285
0.00759974
0.00757092
0.00754205
0.00751316
0.00748425
0.00745535
0.00742644
0.00739753
0.00736861
0.00733968
0.00731072
0.00728171
0.00725261
0.00722336
0.00719384
0.00716386
0.00713308
0.00710091
0.00706632
0.00702777
0.00698276
0.00692839
0.00686079
0.00677729
3.1712e-05
0.000246972
0.000562998
0.000831157
0.00107401
0.00128499
0.00147025
0.00163425
0.00178019
0.00191086
0.00202846
0.00213514
0.00223244
0.00232181
0.00240434
0.00248102
0.00255261
0.00261979
0.00268307
0.00274289
0.00279959
0.00285348
0.00290485
0.00295392
0.00300082
0.00304567
0.0030885
0.0031293
0.003168
0.00320449
0.00323859
0.00327008
0.00329871
0.00332428
0.00334747
0.00336983
0.00339255
0.00341652
0.00344226
0.00346996
0.00349953
0.0035306
0.00356266
0.00359504
0.00362703
0.00365788
0.00368684
0.00371318
0.00373607
0.00375559
0.00377242
0.00378708
0.00379995
0.00381134
0.00382148
0.00383053
0.00383861
0.00384581
0.0038522
0.00385782
0.00386272
0.00386691
0.00387042
0.00387325
0.00387541
0.0038769
0.00387772
0.00387789
0.00387741
0.00387635
0.00387476
0.00387276
0.00387051
0.00386818
0.00386599
0.00386413
0.00386281
0.00386219
0.0038624
0.00386355
0.00386569
0.00386885
0.00387321
0.00387856
0.00388468
0.00389208
0.00390063
0.00391051
0.00392171
0.00393422
0.00394827
0.00396419
0.00398253
0.00400403
0.00402971
0.00406108
0.00410013
0.00414938
0.00421199
0.00429313
0.00440134
0.00454232
0.00471597
0.00492451
0.00516444
0.00543601
0.00575242
0.00612163
0.00653651
0.00698139
0.00743398
0.00786588
0.00824926
0.00856235
0.0087995
0.00896528
0.00907161
0.00913285
0.00916234
0.00917079
0.00916575
0.00915209
0.00913288
0.00911078
0.00908674
0.00906148
0.0090344
0.00900418
0.00897204
0.00893983
0.00890779
0.00887595
0.00884432
0.00881292
0.00878175
0.00875081
0.00872007
0.00868959
0.00865935
0.0086293
0.00859949
0.00856983
0.00854042
0.00851107
0.00848182
0.00845266
0.00842356
0.00839448
0.00836536
0.00833615
0.00830682
0.00827732
0.00824764
0.00821778
0.00818778
0.00815766
0.00812745
0.00809718
0.00806686
0.00803652
0.00800615
0.00797577
0.00794537
0.00791497
0.00788454
0.00785409
0.00782361
0.00779305
0.00776239
0.00773154
0.00770036
0.00766863
0.00763597
0.00760175
0.00756491
0.00752397
0.00747671
0.0074207
0.00735299
0.00727252
3.21339e-05
0.000252426
0.000574701
0.000849177
0.00110001
0.00131777
0.00150983
0.00167938
0.0018297
0.00196374
0.00208376
0.00219205
0.00229022
0.00237984
0.00246206
0.00253799
0.00260847
0.00267427
0.00273601
0.00279421
0.00284931
0.00290166
0.0029515
0.00299906
0.00304449
0.00308789
0.00312927
0.00316861
0.00320579
0.00324065
0.00327296
0.00330244
0.00332876
0.00335214
0.00337401
0.00339557
0.00341777
0.00344123
0.00346632
0.00349318
0.00352171
0.00355167
0.00358267
0.00361423
0.00364581
0.00367682
0.00370666
0.00373468
0.00376022
0.0037825
0.00380134
0.00381757
0.00383179
0.00384446
0.00385587
0.00386622
0.00387562
0.00388414
0.00389181
0.00389863
0.00390458
0.00390965
0.00391382
0.00391705
0.00391933
0.00392063
0.00392096
0.00392032
0.00391877
0.00391638
0.00391325
0.00390955
0.00390543
0.00390109
0.0038967
0.00389242
0.00388838
0.00388467
0.00388133
0.00387839
0.00387582
0.0038736
0.00387169
0.00386997
0.00386871
0.00386788
0.00386734
0.00386707
0.00386715
0.00386776
0.00386907
0.00387176
0.00387682
0.00388555
0.00389963
0.00392107
0.00395209
0.00399538
0.00405414
0.00413194
0.00423449
0.00436834
0.00454758
0.00477234
0.00504056
0.00535058
0.00571277
0.0061383
0.00662017
0.00714076
0.00767681
0.00819407
0.00865618
0.00903398
0.00931781
0.00951279
0.0096339
0.00969938
0.00972653
0.0097287
0.00971528
0.00969197