/*--------------------------------*- C++ -*----------------------------------*\
| =========                 |                                                 |
| \\      /  F ield         | OpenFOAM: The Open Source CFD Toolbox           |
|  \\    /   O peration     | Version:  v1906                                 |
|   \\  /    A nd           | Web:      www.OpenFOAM.com                      |
|    \\/     M anipulation  |                                                 |
\*---------------------------------------------------------------------------*/
FoamFile
{
    version     2.0;
    format      ascii;
    class       volScalarField;
    location    "700";
    object      p;
}
// * * * * * * * * * * * * * * * * * * * * * * * * * * * * * * * * * * * * * //

dimensions      [0 2 -2 0 0 0 0];


internalField   nonuniform List<scalar> 
12225
(
0.0213769
-1.18114
-1.23155
-1.23706
-1.37317
-1.5117
-1.61817
-1.71285
-1.80416
-1.89045
-1.97071
-2.0492
-2.12961
-2.21347
-2.30088
-2.39703
-2.51121
-2.65454
-1.73912
-2.2541
-2.4121
-2.39825
-2.45406
-2.5194
-2.56826
-2.61772
-2.6727
-2.72941
-2.78602
-2.8442
-2.90719
-2.97449
-3.04742
-3.12809
-3.21621
-3.34502
-1.15409
-1.93466
-2.07438
-2.04308
-2.07645
-2.12627
-2.16794
-2.21147
-2.25979
-2.30968
-2.35998
-2.41163
-2.46722
-2.52597
-2.58983
-2.65657
-2.72792
-2.7827
-1.80925
-2.27594
-2.49394
-2.56841
-2.66137
-2.74559
-2.80785
-2.86274
-2.91706
-2.97045
-3.02318
-3.07684
-3.13334
-3.19297
-3.25595
-3.32214
-3.38933
-3.46633
-1.6183
-2.07703
-2.29252
-2.35355
-2.41628
-2.47176
-2.51388
-2.5538
-2.59544
-2.63786
-2.68074
-2.72489
-2.7712
-2.82013
-2.87001
-2.92213
-2.96457
-2.99883
-1.99563
-2.29764
-2.50403
-2.60722
-2.71127
-2.80408
-2.8799
-2.94751
-3.01127
-3.07196
-3.13045
-3.18821
-3.24629
-3.30535
-3.36434
-3.42403
-3.48055
-3.54311
-1.93015
-2.17777
-2.378
-2.47671
-2.56392
-2.6354
-2.69171
-2.7415
-2.78871
-2.83418
-2.87853
-2.92261
-2.96679
-3.01136
-3.05453
-3.09655
-3.12808
-3.14817
-2.17091
-2.35464
-2.52975
-2.6377
-2.74236
-2.8351
-2.91527
-2.98824
-3.05662
-3.12136
-3.18331
-3.24345
-3.30233
-3.3603
-3.41663
-3.47148
-3.52439
-3.57949
-2.15809
-2.28491
-2.44587
-2.54808
-2.64211
-2.72118
-2.78742
-2.84609
-2.89996
-2.95035
-2.99814
-3.04407
-3.08836
-3.13109
-3.17089
-3.20746
-3.23464
-3.25182
-2.31949
-2.4292
-2.56889
-2.66899
-2.76821
-2.85744
-2.93771
-3.01191
-3.08154
-3.14744
-3.21026
-3.27058
-3.32871
-3.38476
-3.43854
-3.48991
-3.54047
-3.59039
-2.32925
-2.39402
-2.51444
-2.60584
-2.69575
-2.77506
-2.84526
-2.90876
-2.96706
-3.02119
-3.07186
-3.1196
-3.16453
-3.20665
-3.24508
-3.2795
-3.30635
-3.3261
-2.43185
-2.49845
-2.60663
-2.69405
-2.78385
-2.86675
-2.94358
-3.01549
-3.08317
-3.14719
-3.20797
-3.26584
-3.32098
-3.37337
-3.42313
-3.46991
-3.51566
-3.55844
-2.44881
-2.48602
-2.57613
-2.65466
-2.73624
-2.81191
-2.88177
-2.94647
-3.00653
-3.06251
-3.11481
-3.16373
-3.20935
-3.25165
-3.2902
-3.32476
-3.35403
-3.37834
-2.53322
-2.57702
-2.65918
-2.73402
-2.81322
-2.88959
-2.96248
-3.0319
-3.09783
-3.16041
-3.21979
-3.27607
-3.32938
-3.37968
-3.42721
-3.47161
-3.51404
-3.55232
-2.55535
-2.57766
-2.64073
-2.7051
-2.775
-2.84413
-2.91065
-2.97404
-3.03396
-3.09036
-3.14333
-3.19292
-3.23918
-3.28208
-3.32168
-3.35779
-3.39105
-3.42087
-2.62221
-2.64952
-2.70731
-2.76765
-2.83301
-2.89912
-2.96387
-3.02646
-3.08628
-3.14303
-3.19654
-3.24675
-3.29361
-3.33711
-3.37711
-3.41369
-3.44607
-3.4751
-2.64688
-2.6663
-2.7137
-2.7686
-2.82998
-2.89436
-2.9591
-3.02296
-3.08511
-3.14503
-3.20249
-3.25731
-3.30953
-3.35899
-3.40619
-3.45039
-3.49387
-3.53271
-2.65661
-2.671
-2.70929
-2.75473
-2.80459
-2.85624
-2.90706
-2.9557
-3.00132
-3.04336
-3.08152
-3.11573
-3.14584
-3.17218
-3.19426
-3.21356
-3.22757
-3.24229
-2.69595
-2.72401
-2.7784
-2.84078
-2.90995
-2.98386
-3.0599
-3.13677
-3.21365
-3.28988
-3.36506
-3.43883
-3.51105
-3.58115
-3.64932
-3.71393
-3.77672
-3.83192
-2.56019
-2.56722
-2.602
-2.64326
-2.68636
-2.72865
-2.76741
-2.80162
-2.83084
-2.85491
-2.87381
-2.88776
-2.89682
-2.90162
-2.90198
-2.90003
-2.89382
-2.89145
-2.58791
-2.63353
-2.70892
-2.78474
-2.86422
-2.94552
-3.02607
-3.1052
-3.18265
-3.25823
-3.33202
-3.4042
-3.47527
-3.54543
-3.61579
-3.68542
-3.75756
-3.82462
-2.40272
-2.42172
-2.48632
-2.54556
-2.59996
-2.6482
-2.6883
-2.72101
-2.74738
-2.7681
-2.78363
-2.79429
-2.79998
-2.80072
-2.79523
-2.78412
-2.76255
-2.73842
-2.43029
-2.51205
-2.62677
-2.72395
-2.81915
-2.91212
-2.99952
-3.08169
-3.15947
-3.23324
-3.30343
-3.37069
-3.436
-3.50037
-3.56617
-3.63474
-3.71364
-3.79912
-2.16698
-2.24151
-2.36457
-2.44433
-2.50575
-2.5549
-2.59114
-2.61836
-2.64004
-2.65759
-2.67162
-2.6825
-2.69019
-2.69438
-2.69318
-2.68503
-2.66016
-2.61814
-2.23087
-2.38959
-2.56003
-2.67683
-2.78453
-2.88641
-2.97525
-3.05334
-3.12423
-3.18915
-3.24888
-3.30443
-3.35687
-3.40716
-3.45744
-3.51014
-3.57685
-3.66542
-1.81706
-2.05934
-2.24646
-2.3159
-2.35926
-2.39507
-2.41886
-2.43652
-2.45338
-2.46977
-2.48501
-2.49902
-2.51176
-2.52305
-2.53182
-2.53676
-2.52715
-2.49041
-2.00882
-2.30996
-2.54042
-2.65541
-2.75964
-2.85506
-2.92671
-2.9833
-3.03347
-3.07916
-3.12085
-3.15948
-3.19593
-3.23058
-3.26421
-3.29772
-3.34053
-3.40931
-1.27239
-1.87729
-2.04155
-2.02119
-2.02654
-2.05528
-2.07861
-2.10019
-2.12552
-2.15228
-2.17823
-2.20309
-2.22687
-2.24944
-2.27051
-2.29031
-2.30273
-2.29255
-1.89728
-2.28373
-2.5073
-2.51953
-2.55928
-2.6074
-2.6397
-2.66835
-2.70065
-2.73473
-2.76826
-2.80096
-2.83289
-2.86386
-2.89361
-2.92221
-2.95433
-3.00455
-0.0265371
-1.14718
-1.2174
-1.19698
-1.29576
-1.41382
-1.50494
-1.58168
-1.65433
-1.72213
-1.78382
-1.84014
-1.89206
-1.93991
-1.98377
-2.02335
-2.05715
-2.08358
-3.35587
-3.38062
-3.39924
-3.42279
-3.45147
-3.48402
-3.51767
-3.55223
-3.58663
-3.62072
-3.65398
-3.68622
-3.71712
-3.74649
-3.77416
-3.79997
-3.82389
-3.8458
-3.86571
-3.88348
-3.89913
-3.91249
-3.92293
-3.93023
-3.93484
-3.93726
-3.93764
-3.93574
-3.93093
-3.92245
-3.90969
-3.89233
-3.87005
-3.84286
-3.81095
-3.77583
-3.7427
-3.71859
-3.70899
-3.7173
-3.74206
-3.77062
-3.78876
-3.79575
-3.79732
-3.79715
-3.79677
-3.79572
-3.79442
-3.79354
-3.79365
-3.79503
-3.79812
-3.80263
-3.80858
-3.81578
-3.8247
-3.83537
-3.84837
-3.86379
-3.88234
-3.90425
-3.93032
-3.96075
-3.99628
-4.03699
-4.08348
-4.13569
-4.19409
-4.25839
-4.32878
-4.40468
-4.48594
-4.57171
-4.66146
-4.75416
-4.84881
-4.94423
-5.03898
-5.13178
-5.22069
-5.30425
-5.38009
-5.44666
-5.5005
-5.53928
-5.55922
-5.55878
-5.53501
-5.48249
-5.39141
-5.2506
-5.05523
-4.80382
-4.49312
-4.11921
-3.67923
-3.17237
-2.60118
-1.97279
-1.29957
-0.600807
0.103635
0.796475
1.45798
2.06696
2.61138
3.08948
3.5064
3.87144
4.19351
4.47943
4.73462
4.96586
5.17977
5.38175
5.57761
5.77298
5.97344
6.18241
6.40073
6.62826
6.86403
7.10645
7.3534
7.60209
7.84983
8.09571
8.34012
8.58156
8.81682
9.0439
9.26203
9.47087
9.67035
9.86064
10.0421
10.2151
10.3801
10.5377
10.6885
10.8328
10.9711
11.104
11.2318
11.3549
11.4737
11.5884
11.6994
11.8068
11.911
12.0121
12.1103
12.2057
12.2986
12.3891
12.4772
12.563
12.6468
12.7285
12.8082
12.886
12.962
13.0363
13.1087
13.1795
13.2487
13.3162
13.3822
13.4468
13.5102
13.5724
13.6342
13.6957
13.7591
13.8246
13.9007
13.9898
14.1334
14.2988
-3.43198
-3.4977
-3.54286
-3.59477
-3.63814
-3.68224
-3.72075
-3.76001
-3.79535
-3.82983
-3.86158
-3.89178
-3.91959
-3.94544
-3.96904
-3.99059
-4.01003
-4.02747
-4.04297
-4.05653
-4.06823
-4.07796
-4.08583
-4.09196
-4.09601
-4.09703
-4.09467
-4.0892
-4.08056
-4.06822
-4.05118
-4.02862
-4.00028
-3.96661
-3.92865
-3.88772
-3.84673
-3.81181
-3.79068
-3.78826
-3.805
-3.82705
-3.84153
-3.85219
-3.85865
-3.86222
-3.86427
-3.86583
-3.86768
-3.87021
-3.87394
-3.8792
-3.88631
-3.89524
-3.90619
-3.91919
-3.93452
-3.95227
-3.97281
-3.99635
-4.02339
-4.0543
-4.08973
-4.13013
-4.17618
-4.22826
-4.28693
-4.35248
-4.42527
-4.5053
-4.59262
-4.68689
-4.7878
-4.89465
-5.00678
-5.12321
-5.24288
-5.36458
-5.48691
-5.60843
-5.72731
-5.84181
-5.94968
-6.04879
-6.13605
-6.20851
-6.26215
-6.29241
-6.29241
-6.25695
-6.18573
-6.08053
-5.93871
-5.75161
-5.51009
-5.20685
-4.83638
-4.39515
-3.88293
-3.30286
-2.66218
-1.97443
-1.25722
-0.530176
0.180679
0.851042
1.46821
2.02514
2.52196
2.96381
3.35767
3.71014
4.02717
4.31277
4.56827
4.80096
5.01882
5.23006
5.44077
5.65387
5.87226
6.09745
6.33001
6.56951
6.81479
7.06381
7.31435
7.56284
7.80441
8.03922
8.26963
8.49448
8.71242
8.92276
9.12509
9.31934
9.50559
9.68409
9.85515
10.0191
10.1765
10.3275
10.4727
10.6124
10.747
10.8767
11.002
11.1232
11.2404
11.3539
11.464
11.5709
11.6747
11.7756
11.8738
11.9693
12.0624
12.1532
12.2416
12.3279
12.412
12.4942
12.5744
12.6526
12.7289
12.8035
12.8762
12.9471
13.0165
13.0842
13.1506
13.2158
13.2804
13.3446
13.4109
13.4783
13.5557
13.636
13.7593
13.8929
-3.45121
-3.54367
-3.56807
-3.62661
-3.65482
-3.70178
-3.73048
-3.76643
-3.79389
-3.82552
-3.85247
-3.88063
-3.90561
-3.92985
-3.95139
-3.97124
-3.98862
-4.00397
-4.01708
-4.02824
-4.03722
-4.04376
-4.04673
-4.04702
-4.04536
-4.04212
-4.03755
-4.03192
-4.02536
-4.01782
-4.00881
-3.99771
-3.98402
-3.96758
-3.94865
-3.92785
-3.90612
-3.88532
-3.86757
-3.85418
-3.84782
-3.84614
-3.84878
-3.85387
-3.85947
-3.86464
-3.86924
-3.87364
-3.87805
-3.88268
-3.88786
-3.89383
-3.90091
-3.90922
-3.91896
-3.93023
-3.94327
-3.95826
-3.97554
-3.99539
-4.01828
-4.04459
-4.07488
-4.10958
-4.14925
-4.19431
-4.24522
-4.30224
-4.36562
-4.43538
-4.5115
-4.59374
-4.68177
-4.77507
-4.87304
-4.97488
-5.0797
-5.18646
-5.29397
-5.40099
-5.50601
-5.6075
-5.70362
-5.7925
-5.87176
-5.93925
-5.99267
-6.02905
-6.04338
-6.02999
-5.98536
-5.90553
-5.78235
-5.60746
-5.37609
-5.08296
-4.72252
-4.29112
-3.78856
-3.21877
-2.5877
-1.90356
-1.18566
-0.457389
0.255998
0.93221
1.55529
2.11644
2.61449
3.0536
3.44101
3.7845
4.0903
4.36404
4.61545
4.85002
5.07253
5.2871
5.49779
5.70965
5.92592
6.14836
6.37746
6.61285
6.85325
7.09656
7.34105
7.58597
7.82888
8.06688
8.29944
8.52605
8.74595
8.95848
9.16319
9.35987
9.54856
9.72942
9.90276
10.0689
10.2283
10.3813
10.5283
10.6696
10.8058
10.937
11.0637
11.1861
11.3045
11.4191
11.5303
11.6381
11.7428
11.8445
11.9435
12.0397
12.1335
12.2248
12.3139
12.4006
12.4853
12.5679
12.6484
12.727
12.8037
12.8786
12.9516
13.0228
13.0924
13.1603
13.2269
13.2921
13.3569
13.4208
13.4868
13.5529
13.6287
13.7044
13.813
13.9032
-3.48519
-3.61218
-3.63746
-3.71609
-3.74005
-3.79876
-3.82729
-3.87627
-3.90609
-3.94542
-3.97463
-4.00838
-4.03532
-4.06271
-4.0855
-4.10694
-4.12513
-4.14149
-4.15551
-4.16799
-4.17885
-4.18786
-4.1941
-4.19702
-4.1973
-4.19531
-4.19137
-4.18586
-4.17915
-4.17111
-4.16097
-4.14779
-4.13104
-4.11079
-4.08749
-4.0617
-4.03446
-4.00768
-3.98411
-3.96579
-3.95465
-3.94973
-3.94921
-3.95186
-3.95618
-3.9615
-3.96742
-3.97372
-3.98035
-3.98728
-3.99465
-4.00257
-4.01127
-4.02093
-4.03182
-4.04423
-4.05855
-4.07514
-4.0945
-4.11705
-4.14338
-4.174
-4.20951
-4.25047
-4.29744
-4.3509
-4.41134
-4.47912
-4.55454
-4.63774
-4.72875
-4.82742
-4.93343
-5.04626
-5.16524
-5.28949
-5.41797
-5.54946
-5.68257
-5.81577
-5.94731
-6.07536
-6.19782
-6.31239
-6.41639
-6.50684
-6.5807
-6.63454
-6.66398
-6.66496
-6.63359
-6.56489
-6.45283
-6.29274
-6.07713
-5.79878
-5.45043
-5.02677
-4.5253
-3.94825
-3.3022
-2.59516
-1.84068
-1.06615
-0.301759
0.426626
1.09783
1.69879
2.22576
2.68228
3.07684
3.42025
3.72294
3.99235
4.23729
4.46551
4.68427
4.89909
5.11363
5.33122
5.55416
5.7838
6.02026
6.26296
6.51068
6.76142
7.01293
7.26306
7.50966
7.75129
7.9872
8.21665
8.4389
8.65341
8.85989
9.05822
9.2485
9.43095
9.60588
9.77366
9.93468
10.0893
10.238
10.3812
10.5191
10.6521
10.7806
10.9048
11.025
11.1415
11.2545
11.3641
11.4706
11.5741
11.6747
11.7728
11.8682
11.9612
12.0518
12.1402
12.2264
12.3105
12.3926
12.4727
12.5508
12.627
12.7014
12.7739
12.8447
12.9138
12.9816
13.0477
13.1135
13.1778
13.2443
13.3093
13.3836
13.4532
13.5534
13.6297
-3.47613
-3.62483
-3.64357
-3.73418
-3.746
-3.81113
-3.82993
-3.87976
-3.90388
-3.94627
-3.97199
-4.00617
-4.0302
-4.05793
-4.07868
-4.09992
-4.11669
-4.13247
-4.14538
-4.15705
-4.16696
-4.17498
-4.1804
-4.18293
-4.18332
-4.18214
-4.17989
-4.177
-4.17376
-4.17025
-4.16609
-4.16067
-4.15328
-4.14339
-4.13071
-4.11523
-4.09731
-4.07802
-4.05926
-4.04283
-4.03036
-4.0223
-4.01856
-4.01842
-4.02078
-4.02465
-4.02932
-4.03432
-4.0394
-4.04441
-4.04944
-4.05459
-4.06014
-4.06636
-4.07364
-4.08232
-4.09285
-4.10564
-4.1212
-4.13997
-4.16249
-4.18927
-4.22086
-4.25778
-4.30056
-4.34967
-4.40556
-4.46855
-4.53891
-4.61674
-4.70203
-4.79457
-4.89399
-4.99974
-5.11109
-5.22714
-5.34684
-5.469
-5.59236
-5.71552
-5.83701
-5.95527
-6.06864
-6.17534
-6.27336
-6.36045
-6.43404
-6.49093
-6.52736
-6.53915
-6.5228
-6.47324
-6.38464
-6.24898
-6.05864
-5.8055
-5.4808
-5.07788
-4.59226
-4.02273
-3.37276
-2.65141
-1.87122
-1.0572
-0.244411
0.533832
1.2498
1.88566
2.43517
2.90192
3.29546
3.62867
3.91476
4.16599
4.39315
4.60492
4.80851
5.00976
5.21321
5.42231
5.63915
5.8646
6.09847
6.33961
6.58634
6.8365
7.08806
7.33907
7.58735
7.831
8.06879
8.29986
8.52348
8.73916
8.94664
9.14584
9.33687
9.51998
9.69549
9.86378
10.0253
10.1803
10.3294
10.4729
10.6111
10.7445
10.8732
10.9977
11.1181
11.2348
11.348
11.4577
11.5644
11.668
11.7688
11.8668
11.9623
12.0554
12.146
12.2344
12.3206
12.4047
12.4867
12.5667
12.6448
12.7209
12.7951
12.8675
12.9382
13.0071
13.0746
13.1404
13.2058
13.2694
13.3351
13.3981
13.4702
13.5335
13.6233
13.6668
-3.45851
-3.63722
-3.66634
-3.77084
-3.78731
-3.85886
-3.88249
-3.93708
-3.96588
-4.01084
-4.04324
-4.08377
-4.11546
-4.1482
-4.17539
-4.20167
-4.22378
-4.24418
-4.26148
-4.27707
-4.29031
-4.30215
-4.31105
-4.3176
-4.32149
-4.32318
-4.32277
-4.32054
-4.31658
-4.31084
-4.30311
-4.29314
-4.28076
-4.26598
-4.24899
-4.23025
-4.21054
-4.19096
-4.17277
-4.15709
-4.14481
-4.13611
-4.13071
-4.12802
-4.12734
-4.12804
-4.12962
-4.13174
-4.13421
-4.13696
-4.14006
-4.14367
-4.14805
-4.15345
-4.16027
-4.16886
-4.17968
-4.19318
-4.20991
-4.23037
-4.2552
-4.28498
-4.32037
-4.36198
-4.41043
-4.46631
-4.53011
-4.60226
-4.68302
-4.77253
-4.87071
-4.97731
-5.09184
-5.21363
-5.34177
-5.47522
-5.61274
-5.75298
-5.8945
-6.03579
-6.17526
-6.31124
-6.44201
-6.5657
-6.68027
-6.7835
-6.87294
-6.94568
-6.99788
-7.02603
-7.02527
-6.98959
-6.91193
-6.78671
-6.60717
-6.36507
-6.05096
-5.65564
-5.17294
-4.59827
-3.93058
-3.17675
-2.34981
-1.47317
-0.587148
0.262435
1.03788
1.71522
2.28666
2.75753
3.14114
3.45491
3.71651
3.94203
4.14551
4.33818
4.5286
4.72276
4.92463
5.1366
5.35966
5.59361
5.83726
6.08867
6.34549
6.60507
6.86495
7.12283
7.37664
7.62476
7.86604
8.09969
8.3251
8.54196
8.75014
8.94972
9.1409
9.32401
9.49944
9.66761
9.82898
9.98396
10.133
10.2765
10.4148
10.5482
10.6771
10.8018
10.9226
11.0396
11.1531
11.2633
11.3703
11.4744
11.5756
11.6742
11.7702
11.8638
11.955
12.0439
12.1306
12.2152
12.2978
12.3784
12.457
12.5337
12.6085
12.6815
12.7527
12.822
12.89
12.956
13.0216
13.0847
13.1498
13.2106
13.2798
13.3364
13.4168
13.4545
-3.40971
-3.62034
-3.65392
-3.76977
-3.78517
-3.86032
-3.88312
-3.93817
-3.9661
-4.01101
-4.04182
-4.08067
-4.11229
-4.14708
-4.17549
-4.20282
-4.22609
-4.24776
-4.26614
-4.28261
-4.29635
-4.30852
-4.31869
-4.327
-4.33336
-4.33799
-4.34099
-4.34255
-4.34272
-4.3415
-4.33871
-4.33413
-4.32753
-4.31881
-4.30803
-4.29548
-4.28169
-4.2674
-4.25352
-4.24089
-4.23015
-4.22155
-4.21504
-4.21033
-4.20701
-4.20468
-4.20301
-4.20176
-4.20084
-4.20022
-4.20001
-4.20033
-4.20144
-4.2036
-4.20719
-4.21259
-4.22029
-4.23076
-4.24461
-4.26241
-4.28485
-4.31257
-4.34629
-4.38666
-4.43437
-4.48996
-4.55397
-4.62673
-4.70846
-4.79918
-4.8987
-5.00659
-5.12223
-5.24477
-5.37318
-5.50627
-5.64275
-5.78123
-5.9203
-6.05855
-6.19454
-6.3269
-6.45422
-6.57506
-6.68788
-6.79098
-6.88246
-6.95983
-7.02029
-7.06056
-7.07727
-7.0657
-7.0198
-6.93143
-6.79172
-6.58973
-6.31458
-5.95418
-5.49878
-4.93865
-4.26758
-3.48677
-2.60772
-1.65286
-0.669065
0.279373
1.13797
1.875
2.48202
2.96744
3.34944
3.64996
3.891
4.0923
4.27051
4.43886
4.60742
4.78334
4.9712
5.17347
5.39072
5.62204
5.86548
6.1185
6.37808
6.64113
6.90483
7.16658
7.42409
7.67554
7.91969
8.15569
8.383
8.60135
8.81071
9.01121
9.20315
9.38688
9.56285
9.7315
9.89331
10.0487
10.1982
10.3421
10.4808
10.6146
10.744
10.8691
10.9903
11.1077
11.2217
11.3322
11.4397
11.5442
11.6458
11.7447
11.841
11.9348
12.0263
12.1155
12.2025
12.2873
12.3701
12.4509
12.5296
12.6065
12.6814
12.7544
12.8256
12.8949
12.9628
13.0286
13.0939
13.1564
13.2209
13.28
13.3475
13.3992
13.4742
13.4949
-3.36431
-3.60382
-3.64708
-3.77766
-3.79602
-3.87889
-3.90483
-3.96481
-3.99609
-4.0444
-4.07866
-4.12108
-4.15624
-4.19421
-4.22825
-4.26261
-4.29251
-4.32008
-4.34464
-4.36696
-4.38657
-4.40334
-4.4173
-4.42854
-4.4371
-4.44314
-4.44678
-4.44815
-4.44733
-4.44438
-4.43933
-4.43224
-4.42322
-4.41245
-4.40022
-4.38698
-4.37322
-4.35955
-4.34652
-4.3346
-4.32407
-4.31501
-4.30735
-4.30088
-4.29539
-4.29064
-4.28646
-4.28275
-4.27948
-4.27665
-4.27438
-4.2728
-4.27218
-4.27278
-4.27499
-4.27922
-4.28599
-4.29585
-4.30947
-4.32752
-4.35077
-4.37999
-4.416
-4.45958
-4.51149
-4.57239
-4.64284
-4.72324
-4.81378
-4.91446
-5.02497
-5.14481
-5.27317
-5.40902
-5.55113
-5.6981
-5.84842
-6.00054
-6.15291
-6.30402
-6.45245
-6.59685
-6.73594
-6.86848
-6.99313
-7.10848
-7.21284
-7.30403
-7.37929
-7.43597
-7.47007
-7.47679
-7.45076
-7.38482
-7.27129
-7.09973
-6.85831
-6.53348
-6.11005
-5.57097
-4.90168
-4.09531
-3.15692
-2.10525
-0.995896
0.0783791
1.03587
1.8351
2.46956
2.9552
3.3184
3.58849
3.79372
3.95895
4.10464
4.24657
4.39603
4.56036
4.74353
4.94687
5.1697
5.40976
5.66378
5.92803
6.19865
6.47193
6.7446
7.01387
7.27745
7.53364
7.78128
8.01967
8.24843
8.46749
8.67698
8.8772
9.06855
9.25151
9.42659
9.59431
9.75519
9.9097
10.0583
10.2014
10.3394
10.4727
10.6015
10.7262
10.8469
10.964
11.0777
11.1881
11.2954
11.3997
11.5013
11.6001
11.6964
11.7903
11.8819
11.9711
12.0582
12.1432
12.2261
12.3071
12.3861
12.4631
12.5382
12.6114
12.6829
12.7523
12.8203
12.8859
12.951
13.0126
13.076
13.1324
13.1967
13.2418
13.3106
13.3215
-3.31133
-3.57251
-3.62334
-3.76416
-3.78398
-3.87122
-3.89808
-3.95997
-3.99165
-4.04052
-4.07442
-4.11632
-4.15074
-4.18838
-4.2215
-4.25475
-4.28516
-4.31466
-4.3405
-4.36379
-4.38475
-4.4035
-4.41996
-4.43425
-4.44632
-4.45626
-4.46405
-4.46978
-4.47345
-4.47512
-4.47478
-4.4725
-4.46835
-4.46248
-4.45512
-4.44657
-4.43718
-4.42735
-4.41744
-4.40775
-4.3985
-4.3898
-4.38167
-4.37406
-4.36689
-4.36005
-4.35349
-4.34716
-4.3411
-4.33535
-4.33006
-4.32539
-4.32163
-4.31909
-4.31819
-4.31941
-4.32334
-4.3306
-4.34195
-4.35817
-4.38014
-4.40871
-4.44482
-4.48931
-4.54305
-4.60671
-4.68088
-4.76592
-4.86197
-4.96886
-5.08615
-5.21306
-5.34854
-5.49125
-5.63965
-5.79207
-5.94676
-6.102
-6.25615
-6.40774
-6.55549
-6.69831
-6.83526
-6.96555
-7.08833
-7.20269
-7.30761
-7.4016
-7.48295
-7.54923
-7.59748
-7.62429
-7.62612
-7.59661
-7.52677
-7.40705
-7.225
-6.96645
-6.61195
-6.13715
-5.51195
-4.71216
-3.72639
-2.55968
-1.27564
-0.016002
1.0876
1.97917
2.65954
3.15762
3.51098
3.75784
3.93269
4.06494
4.17824
4.29076
4.4155
4.5608
4.73102
4.92714
5.14772
5.38948
5.6481
5.91874
6.19656
6.47716
6.75676
7.03224
7.30113
7.5617
7.81281
8.05384
8.28456
8.50501
8.71546
8.91632
9.10809
9.29135
9.46664
9.63454
9.79559
9.9503
10.0991
10.2425
10.3808
10.5144
10.6436
10.7687
10.89
11.0076
11.1217
11.2326
11.3404
11.4453
11.5473
11.6467
11.7435
11.8378
11.9298
12.0195
12.107
12.1924
12.2757
12.357
12.4363
12.5136
12.589
12.6624
12.734
12.8035
12.8716
12.9371
13.002
13.0631
13.126
13.181
13.244
13.2858
13.3513
13.3546
-3.27355
-3.55025
-3.60829
-3.76074
-3.78151
-3.8759
-3.90393
-3.97081
-4.00418
-4.0567
-4.09255
-4.13735
-4.17382
-4.21402
-4.24973
-4.28639
-4.31985
-4.35232
-4.38247
-4.41117
-4.43628
-4.4584
-4.47782
-4.49446
-4.50851
-4.52004
-4.52913
-4.53587
-4.54032
-4.54259
-4.54279
-4.54107
-4.53758
-4.53254
-4.52617
-4.51874
-4.51051
-4.50177
-4.49272
-4.48357
-4.47446
-4.46546
-4.45659
-4.44784
-4.43919
-4.43058
-4.42204
-4.41354
-4.40517
-4.397
-4.38923
-4.38204
-4.37575
-4.37071
-4.36741
-4.36635
-4.36822
-4.37373
-4.38373
-4.39911
-4.42089
-4.45007
-4.48772
-4.53484
-4.59242
-4.66125
-4.74198
-4.835
-4.94037
-5.05781
-5.18662
-5.32573
-5.47366
-5.62864
-5.78868
-5.95167
-6.11551
-6.27822
-6.43806
-6.5936
-6.74372
-6.88763
-7.02482
-7.1549
-7.27744
-7.39189
-7.49749
-7.59317
-7.67726
-7.74777
-7.80216
-7.83682
-7.84614
-7.82595
-7.7727
-7.68058
-7.54142
-7.34393
-7.07039
-6.69479
-6.17472
-5.45963
-4.49946
-3.2536
-1.77566
-0.282794
1.00584
2.00903
2.736
3.23515
3.56217
3.76808
3.89641
3.98297
4.05572
4.13555
4.23677
4.36788
4.53251
4.7303
4.95806
5.21074
5.48233
5.76654
6.05744
6.3499
6.63971
6.92357
7.19901
7.46443
7.71886
7.96192
8.1936
8.41419
8.62414
8.82407
9.01462
9.19646
9.37026
9.53665
9.69622
9.84951
9.997
10.1392
10.2763
10.4089
10.5372
10.6615
10.782
10.8989
11.0125
11.1229
11.2303
11.3347
11.4365
11.5355
11.6321
11.7263
11.8181
11.9077
11.9951
12.0805
12.1638
12.245
12.3244
12.4017
12.4772
12.5507
12.6224
12.6919
12.7598
12.825
12.8894
12.9494
13.011
13.0632
13.1233
13.1593
13.2208
13.2154
-3.23286
-3.52477
-3.5833
-3.7427
-3.76358
-3.86199
-3.8904
-3.9598
-3.99355
-4.04764
-4.08367
-4.12926
-4.16561
-4.20603
-4.24141
-4.27799
-4.31137
-4.34447
-4.37478
-4.40439
-4.43197
-4.45702
-4.47929
-4.49964
-4.51776
-4.53361
-4.54716
-4.55847
-4.56746
-4.57425
-4.57883
-4.58135
-4.5819
-4.58066
-4.57779
-4.57352
-4.56803
-4.56154
-4.55423
-4.54625
-4.53774
-4.52878
-4.51943
-4.50972
-4.49966
-4.48928
-4.4786
-4.46766
-4.4566
-4.44551
-4.43464
-4.42421
-4.41459
-4.40618
-4.39954
-4.39526
-4.39411
-4.39689
-4.40461
-4.41826
-4.43904
-4.46808
-4.50664
-4.55585
-4.61685
-4.69051
-4.77749
-4.8781
-4.99219
-5.11912
-5.25776
-5.40643
-5.56304
-5.72521
-5.8904
-6.05614
-6.22014
-6.38045
-6.53557
-6.68447
-6.82658
-6.96171
-7.08984
-7.21103
-7.32526
-7.43229
-7.53157
-7.62204
-7.70232
-7.77034
-7.82344
-7.8578
-7.86857
-7.85385
-7.81035
-7.73177
-7.61288
-7.44734
-7.22768
-6.94402
-6.56519
-6.02515
-5.21968
-4.00517
-2.35861
-0.576931
0.973659
2.13973
2.93551
3.44401
3.74872
3.9168
4.00127
4.04345
4.0752
4.12011
4.19431
4.30715
4.46207
4.65782
4.88967
5.15085
5.43359
5.73005
6.03308
6.33672
6.63633
6.92835
7.21033
7.48073
7.73881
7.98437
8.21764
8.43912
8.64948
8.84946
9.03985
9.22142
9.39491
9.561
9.72031
9.87342
10.0208
10.1629
10.3002
10.4329
10.5615
10.686
10.8069
10.9242
11.0382
11.149
11.2569
11.3618
11.4641
11.5636
11.6607
11.7553
11.8477
11.9377
12.0256
12.1114
12.1951
12.2767
12.3564
12.4341
12.5099
12.5837
12.6556
12.7252
12.7932
12.8583
12.9226
12.9821
13.0432
13.0942
13.1532
13.187
13.246
13.2364
-3.20847
-3.5152
-3.57084
-3.73823
-3.75736
-3.86184
-3.88978
-3.96368
-3.99791
-4.05543
-4.09256
-4.14101
-4.17897
-4.22203
-4.25947
-4.29876
-4.33459
-4.37046
-4.40368
-4.4359
-4.46526
-4.49314
-4.5188
-4.5416
-4.56146
-4.57919
-4.59458
-4.60757
-4.61811
-4.62635
-4.63228
-4.63612
-4.63792
-4.63791
-4.63622
-4.63303
-4.62848
-4.62275
-4.61596
-4.60823
-4.59964
-4.59028
-4.58018
-4.56938
-4.55791
-4.54579
-4.53308
-4.51985
-4.50622
-4.49235
-4.47847
-4.46487
-4.45195
-4.44015
-4.43009
-4.42245
-4.41808
-4.41792
-4.42311
-4.43482
-4.45443
-4.4833
-4.5229
-4.57459
-4.63961
-4.71893
-4.81313
-4.92231
-5.04594
-5.18289
-5.33135
-5.489
-5.65307
-5.82068
-5.98901
-6.15549
-6.31804
-6.47508
-6.62563
-6.76922
-6.90584
-7.03572
-7.15922
-7.27666
-7.38821
-7.49372
-7.59248
-7.68327
-7.76435
-7.83349
-7.88784
-7.92502
-7.94115
-7.92905
-7.88231
-7.79654
-7.66876
-7.49525
-7.27211
-7.00338
-6.68244
-6.2784
-5.71091
-4.71469
-3.05094
-1.00762
0.846083
2.19959
3.06617
3.57479
3.84408
3.96061
3.9883
3.97558
3.95916
3.96589
4.0137
4.11223
4.26385
4.46533
4.70953
4.9871
5.28798
5.60247
5.92211
6.24016
6.55168
6.85306
7.14199
7.41718
7.67823
7.92528
8.15889
8.37984
8.58904
8.78745
8.97602
9.15563
9.32713
9.49127
9.64871
9.80005
9.94581
10.0864
10.2223
10.3538
10.4812
10.6048
10.7247
10.8412
10.9545
11.0647
11.172
11.2765
11.3782
11.4775
11.5742
11.6685
11.7606
11.8505
11.9382
12.0239
12.1075
12.1891
12.2689
12.3466
12.4224
12.4961
12.568
12.6376
12.7054
12.7701
12.8339
12.8923
12.952
13.0006
13.0569
13.086
13.1422
13.1266
-3.18681
-3.4999
-3.54975
-3.72026
-3.73667
-3.844
-3.87049
-3.94668
-3.98033
-4.03974
-4.07691
-4.12694
-4.16532
-4.20977
-4.24795
-4.28864
-4.32565
-4.36324
-4.39822
-4.43262
-4.46473
-4.49527
-4.52329
-4.54981
-4.57438
-4.59611
-4.61503
-4.63187
-4.64589
-4.65755
-4.66672
-4.67365
-4.67836
-4.68102
-4.68174
-4.68067
-4.67792
-4.67363
-4.6679
-4.66084
-4.65252
-4.64301
-4.63236
-4.6206
-4.60778
-4.59393
-4.57912
-4.56343
-4.54699
-4.52998
-4.51267
-4.49537
-4.47852
-4.46262
-4.44837
-4.43653
-4.42811
-4.42419
-4.4261
-4.43523
-4.4532
-4.4816
-4.5221
-4.57622
-4.64527
-4.73017
-4.83125
-4.94821
-5.07995
-5.22468
-5.37996
-5.54283
-5.71015
-5.87886
-6.04623
-6.21002
-6.36864
-6.52108
-6.66684
-6.80592
-6.93868
-7.06565
-7.18742
-7.30448
-7.41702
-7.52475
-7.62696
-7.72241
-7.80938
-7.88559
-7.94823
-7.99391
-8.01774
-8.0137
-7.97511
-7.89418
-7.76162
-7.56879
-7.31287
-7.0045
-6.65208
-6.27076
-5.86123
-5.14684
-3.63846
-1.42758
0.735251
2.30277
3.25293
3.76562
4.00159
4.06931
4.04264
3.9763
3.91168
3.87948
3.90031
3.98436
4.13327
4.3417
4.59987
4.89552
5.21596
5.5496
5.88662
6.21957
6.54323
6.8541
7.15005
7.4302
7.69447
7.94339
8.17785
8.39892
8.60775
8.80548
8.99321
9.17193
9.34257
9.50591
9.66267
9.81345
9.95878
10.0991
10.2348
10.3662
10.4937
10.6174
10.7375
10.8543
10.9679
11.0785
11.1861
11.291
11.3932
11.4929
11.5901
11.6849
11.7774
11.8677
11.9558
12.0419
12.1259
12.208
12.288
12.3661
12.4422
12.5162
12.5884
12.658
12.726
12.7906
12.8542
12.9122
12.9714
13.019
13.0743
13.1017
13.1557
13.1381
-3.1784
-3.49274
-3.53864
-3.71206
-3.72682
-3.83796
-3.86369
-3.94341
-3.9771
-4.03956
-4.07748
-4.13024
-4.16995
-4.21698
-4.25692
-4.30009
-4.33912
-4.37909
-4.4162
-4.45288
-4.4871
-4.51998
-4.55047
-4.57889
-4.60462
-4.62855
-4.65048
-4.66942
-4.68522
-4.69878
-4.70958
-4.7181
-4.72431
-4.72835
-4.73033
-4.73037
-4.72856
-4.72501
-4.7198
-4.71302
-4.70469
-4.69488
-4.68361
-4.67091
-4.65679
-4.64128
-4.62445
-4.60635
-4.58714
-4.56697
-4.54612
-4.52493
-4.50387
-4.4835
-4.4646
-4.44808
-4.43509
-4.4269
-4.42504
-4.43116
-4.4471
-4.4747
-4.51584
-4.57219
-4.64508
-4.73518
-4.84252
-4.96625
-5.10476
-5.25573
-5.41633
-5.58325
-5.7532
-5.92321
-6.09083
-6.25418
-6.41203
-6.56377
-6.70925
-6.84861
-6.98224
-7.1107
-7.23454
-7.35401
-7.46902
-7.57903
-7.68301
-7.77937
-7.86594
-7.94031
-7.99921
-8.03855
-8.05508
-8.0457
-8.00558
-7.92803
-7.80635
-7.63041
-7.38234
-7.04964
-6.63125
-6.17861
-5.80105
-5.30677
-4.03293
-1.78728
0.607002
2.35668
3.37116
3.87603
4.07202
4.0853
3.99903
3.87484
3.75972
3.68871
3.68516
3.75998
3.91338
4.13706
4.41744
4.73851
5.08458
5.44192
5.79942
6.1491
6.48576
6.80617
7.10868
7.39289
7.65925
7.90876
8.14268
8.36243
8.56941
8.765
8.95042
9.12681
9.29516
9.45632
9.61103
9.75992
9.90351
10.0423
10.1765
10.3067
10.433
10.5556
10.6749
10.7908
10.9037
11.0137
11.1208
11.2251
11.3269
11.4262
11.523
11.6175
11.7098
11.7999
11.8879
11.9739
12.0578
12.1398
12.2199
12.298
12.3742
12.4482
12.5204
12.59
12.6578
12.7221
12.7851
12.8422
12.9001
12.9456
12.9987
13.0226
13.0744
13.0535
-3.17162
-3.48093
-3.52099
-3.69315
-3.70497
-3.81711
-3.84081
-3.92218
-3.95482
-4.01922
-4.05701
-4.11176
-4.15209
-4.20113
-4.2423
-4.28765
-4.32847
-4.37086
-4.41026
-4.44965
-4.48661
-4.52249
-4.55602
-4.58775
-4.61718
-4.64414
-4.66916
-4.692
-4.7113
-4.72752
-4.74132
-4.75274
-4.76157
-4.76798
-4.7721
-4.774
-4.77384
-4.77163
-4.7675
-4.76145
-4.75355
-4.74381
-4.73224
-4.71885
-4.70364
-4.68663
-4.66784
-4.64735
-4.62527
-4.60178
-4.57717
-4.55177
-4.52614
-4.50086
-4.47685
-4.45514
-4.4371
-4.42418
-4.41824
-4.42121
-4.43517
-4.4621
-4.50401
-4.56257
-4.63891
-4.73347
-4.84587
-4.97491
-5.1184
-5.27371
-5.43766
-5.60704
-5.77865
-5.94968
-6.11782
-6.28137
-6.43923
-6.59089
-6.73629
-6.87568
-7.0095
-7.13836
-7.26262
-7.3823
-7.4971
-7.60634
-7.70888
-7.80292
-7.88661
-7.95742
-8.01305
-8.04995
-8.06351
-8.04825
-7.99961
-7.91197
-7.78
-7.5973
-7.35579
-7.03919
-6.60103
-6.06452
-5.63711
-5.24306
-4.15214
-1.95548
0.567428
2.44727
3.50625
3.99649
4.15218
4.1141
3.97121
3.78908
3.62182
3.51137
3.48545
3.55574
3.7199
3.96569
4.27463
4.62639
5.00201
5.38554
5.76487
6.13178
6.4814
6.81101
7.11968
7.40761
7.67587
7.92592
8.15948
8.37827
8.58395
8.77807
8.962
9.13696
9.30401
9.46402
9.61777
9.76586
9.90885
10.0471
10.1811
10.3111
10.4374
10.5601
10.6794
10.7956
10.9088
11.019
11.1265
11.2313
11.3334
11.4331
11.5304
11.6253
11.718
11.8085
11.8969
11.9833
12.0677
12.15
12.2305
12.3089
12.3854
12.4598
12.5322
12.602
12.6699
12.7342
12.7971
12.8538
12.9113
12.9561
13.0083
13.0309
13.081
13.0588
-3.17155
-3.47104
-3.50735
-3.67788
-3.68846
-3.80228
-3.82529
-3.90939
-3.94204
-4.00937
-4.04794
-4.10565
-4.14745
-4.19943
-4.2426
-4.29079
-4.33391
-4.37908
-4.42098
-4.46312
-4.50269
-4.54133
-4.57755
-4.61204
-4.64406
-4.67385
-4.70118
-4.72557
-4.74769
-4.76755
-4.78385
-4.79703
-4.80799
-4.81606
-4.82181
-4.8253
-4.8265
-4.82556
-4.82243
-4.81721
-4.80987
-4.80043
-4.78884
-4.77508
-4.75912
-4.74094
-4.72055
-4.698
-4.67339
-4.64689
-4.61877
-4.58941
-4.55934
-4.52925
-4.50017
-4.47342
-4.45058
-4.43335
-4.42374
-4.42378
-4.4356
-4.46134
-4.50312
-4.56248
-4.64049
-4.73739
-4.85271
-4.98482
-5.1314
-5.28961
-5.45621
-5.62778
-5.80133
-5.97412
-6.14395
-6.30924
-6.46896
-6.62268
-6.77036
-6.91211
-7.04846
-7.17986
-7.30655
-7.42815
-7.54438
-7.65438
-7.7568
-7.84991
-7.9313
-7.99861
-8.04855
-8.07723
-8.07977
-8.05065
-7.98382
-7.87407
-7.71709
-7.51056
-7.25563
-6.94581
-6.51118
-5.92363
-5.4163
-5.0041
-3.986
-1.88443
0.603878
2.4766
3.51462
3.97806
4.10422
4.0287
3.83812
3.6048
3.39192
3.24923
3.20926
3.28446
3.46951
3.74686
4.09225
4.48054
4.88939
5.301
5.70258
6.08621
6.44763
6.78504
7.0983
7.38841
7.65704
7.90623
8.13809
8.35466
8.55785
8.74938
8.93074
9.10324
9.26798
9.42587
9.57769
9.72405
9.86549
10.0024
10.1352
10.2641
10.3894
10.5113
10.6299
10.7455
10.8581
10.9679
11.075
11.1794
11.2812
11.3807
11.4777
11.5725
11.665
11.7554
11.8438
11.9302
12.0146
12.097
12.1776
12.2561
12.3328
12.4072