/*--------------------------------*- C++ -*----------------------------------*\
| =========                 |                                                 |
| \\      /  F ield         | OpenFOAM: The Open Source CFD Toolbox           |
|  \\    /   O peration     | Version:  v1906                                 |
|   \\  /    A nd           | Web:      www.OpenFOAM.com                      |
|    \\/     M anipulation  |                                                 |
\*---------------------------------------------------------------------------*/
FoamFile
{
    version     2.0;
    format      ascii;
    class       surfaceScalarField;
    location    "700";
    object      phi;
}
// * * * * * * * * * * * * * * * * * * * * * * * * * * * * * * * * * * * * * //

dimensions      [0 3 -1 0 0 0 0];
oriented        oriented;


internalField   nonuniform List<scalar> 
24170
(
3.08283e-06
1.05578e-07
2.98702e-06
9.58078e-08
2.92073e-06
6.62883e-08
2.86475e-06
5.5986e-08
2.81595e-06
4.88007e-08
2.77313e-06
4.28121e-08
2.73509e-06
3.80419e-08
2.70094e-06
3.4157e-08
2.67016e-06
3.07715e-08
2.64242e-06
2.7746e-08
2.61725e-06
2.51656e-08
2.59426e-06
2.29893e-08
2.57335e-06
2.09189e-08
2.55451e-06
1.88328e-08
2.53807e-06
1.64411e-08
2.52437e-06
1.37025e-08
2.51429e-06
1.00811e-08
-9.93857e-10
2.51528e-06
3.44276e-06
8.00701e-08
3.44404e-06
9.45213e-08
3.43233e-06
7.79986e-08
3.41874e-06
6.9582e-08
3.40402e-06
6.3521e-08
3.38923e-06
5.75949e-08
3.37488e-06
5.23921e-08
3.36108e-06
4.79664e-08
3.34783e-06
4.40135e-08
3.33519e-06
4.03867e-08
3.32321e-06
3.71445e-08
3.31194e-06
3.42615e-08
3.3013e-06
3.15626e-08
3.29129e-06
2.88382e-08
3.28179e-06
2.59479e-08
3.27287e-06
2.2615e-08
3.26511e-06
1.78453e-08
8.22729e-09
3.25589e-06
3.67627e-06
6.63132e-08
3.67857e-06
9.22206e-08
3.67281e-06
8.37652e-08
3.6653e-06
7.70852e-08
3.65774e-06
7.10859e-08
3.6506e-06
6.47348e-08
3.64394e-06
5.90521e-08
3.63769e-06
5.42135e-08
3.6318e-06
4.99113e-08
3.6262e-06
4.59783e-08
3.62093e-06
4.24169e-08
3.61601e-06
3.91811e-08
3.61145e-06
3.61225e-08
3.60727e-06
3.30261e-08
3.60342e-06
2.97913e-08
3.60009e-06
2.59455e-08
3.5961e-06
2.18386e-08
1.55679e-08
3.58876e-06
3.93547e-06
5.62341e-08
3.94303e-06
8.4657e-08
3.94513e-06
8.16644e-08
3.94517e-06
7.70509e-08
3.94401e-06
7.22429e-08
3.94202e-06
6.67201e-08
3.93957e-06
6.15057e-08
3.9369e-06
5.68886e-08
3.93414e-06
5.26719e-08
3.93137e-06
4.87437e-08
3.92868e-06
4.51061e-08
3.92614e-06
4.17198e-08
3.9238e-06
3.84615e-08
3.92169e-06
3.51414e-08
3.91981e-06
3.1667e-08
3.91812e-06
2.76423e-08
3.91689e-06
2.3066e-08
1.58253e-08
3.91663e-06
4.2181e-06
4.52564e-08
4.22759e-06
7.51675e-08
4.23154e-06
7.77157e-08
4.23292e-06
7.56716e-08
4.23313e-06
7.20369e-08
4.23268e-06
6.71699e-08
4.23192e-06
6.22672e-08
4.23104e-06
5.77662e-08
4.23012e-06
5.35884e-08
4.2292e-06
4.96673e-08
4.22831e-06
4.5999e-08
4.22749e-06
4.25363e-08
4.22677e-06
3.91776e-08
4.22616e-06
3.57517e-08
4.22561e-06
3.22226e-08
4.22504e-06
2.8214e-08
4.22374e-06
2.4362e-08
1.97289e-08
4.21984e-06
4.5171e-06
3.72458e-08
4.52583e-06
6.64328e-08
4.53157e-06
7.19731e-08
4.53564e-06
7.16073e-08
4.5387e-06
6.89739e-08
4.54095e-06
6.49218e-08
4.54261e-06
6.06093e-08
4.54388e-06
5.64942e-08
4.54489e-06
5.25776e-08
4.54572e-06
4.88356e-08
4.54645e-06
4.5271e-08
4.54714e-06
4.18468e-08
4.54783e-06
3.84841e-08
4.54853e-06
3.50531e-08
4.54925e-06
3.15008e-08
4.54987e-06
2.76034e-08
4.55083e-06
2.33957e-08
1.83055e-08
4.55226e-06
4.83986e-06
3.01031e-08
4.8484e-06
5.78932e-08
4.85443e-06
6.59466e-08
4.85861e-06
6.74285e-08
4.86165e-06
6.59363e-08
4.86387e-06
6.26923e-08
4.86559e-06
5.88908e-08
4.86702e-06
5.50631e-08
4.86829e-06
5.13165e-08
4.86944e-06
4.76828e-08
4.87053e-06
4.41816e-08
4.87159e-06
4.07865e-08
4.87263e-06
3.7443e-08
4.87363e-06
3.40487e-08
4.87453e-06
3.06038e-08
4.87518e-06
2.69529e-08
4.87505e-06
2.35309e-08
1.99736e-08
4.87338e-06
5.18534e-06
2.43466e-08
5.19299e-06
5.02447e-08
5.19937e-06
5.95611e-08
5.20466e-06
6.21439e-08
5.20916e-06
6.14324e-08
5.21299e-06
5.88593e-08
5.21631e-06
5.55754e-08
5.21926e-06
5.21157e-08
5.22193e-06
4.8641e-08
5.2244e-06
4.52141e-08
5.22672e-06
4.18645e-08
5.22893e-06
3.85784e-08
5.23105e-06
3.5318e-08
5.23308e-06
3.20161e-08
5.23504e-06
2.865e-08
5.23685e-06
2.51407e-08
5.23891e-06
2.14719e-08
1.76622e-08
5.24122e-06
5.55573e-06
1.99537e-08
5.56256e-06
4.34107e-08
5.56882e-06
5.33009e-08
5.57408e-06
5.68887e-08
5.57847e-06
5.70405e-08
5.58213e-06
5.51959e-08
5.58526e-06
5.24506e-08
5.58802e-06
4.93565e-08
5.59052e-06
4.61364e-08
5.59284e-06
4.28954e-08
5.59502e-06
3.96858e-08
5.59709e-06
3.65122e-08
5.59904e-06
3.33628e-08
5.60086e-06
3.01955e-08
5.60247e-06
2.70392e-08
5.60376e-06
2.38521e-08
5.60433e-06
2.09088e-08
1.79876e-08
5.604e-06
5.95382e-06
1.59087e-08
5.96021e-06
3.70169e-08
5.96648e-06
4.70348e-08
5.97222e-06
5.11522e-08
5.97743e-06
5.1832e-08
5.98212e-06
5.0505e-08
5.98637e-06
4.81944e-08
5.99029e-06
4.54392e-08
5.99394e-06
4.24891e-08
5.99736e-06
3.94693e-08
6.00061e-06
3.64422e-08
6.00369e-06
3.34255e-08
6.00664e-06
3.04173e-08
6.00944e-06
2.73979e-08
6.01211e-06
2.43674e-08
6.01465e-06
2.13141e-08
6.01733e-06
1.82252e-08
1.52945e-08
6.02002e-06
6.37949e-06
1.32353e-08
6.38481e-06
3.16894e-08
6.39067e-06
4.1182e-08
6.39624e-06
4.55776e-08
6.40132e-06
4.67478e-08
6.40587e-06
4.59579e-08
6.40995e-06
4.41161e-08
6.41365e-06
4.17347e-08
6.41706e-06
3.90831e-08
6.42022e-06
3.63076e-08
6.42318e-06
3.3488e-08
6.42594e-06
3.06588e-08
6.42852e-06
2.78397e-08
6.43089e-06
2.5029e-08
6.43299e-06
2.22669e-08
6.43475e-06
1.95508e-08
6.43594e-06
1.70391e-08
1.46343e-08
6.4366e-06
5.74324e-06
1.08262e-08
5.74771e-06
2.72249e-08
5.75266e-06
3.62261e-08
5.75756e-06
4.06815e-08
5.76223e-06
4.20738e-08
5.7666e-06
4.1588e-08
5.77068e-06
4.00421e-08
5.77449e-06
3.79211e-08
5.77808e-06
3.54969e-08
5.78146e-06
3.29221e-08
5.78467e-06
3.02827e-08
5.78771e-06
2.76213e-08
5.79058e-06
2.49614e-08
5.7933e-06
2.23134e-08
5.79587e-06
1.9693e-08
5.7983e-06
1.71206e-08
5.80075e-06
1.45902e-08
1.23006e-08
5.80309e-06
6.99986e-06
9.11685e-09
7.00402e-06
2.30687e-08
7.00919e-06
3.10588e-08
7.01457e-06
3.53018e-08
7.0198e-06
3.68453e-08
7.02471e-06
3.66737e-08
7.02928e-06
3.54726e-08
7.03353e-06
3.36754e-08
7.03748e-06
3.15436e-08
7.04117e-06
2.92325e-08
7.04462e-06
2.68353e-08
7.04783e-06
2.44047e-08
7.05082e-06
2.19766e-08
7.05356e-06
1.95725e-08
7.05603e-06
1.72258e-08
7.05819e-06
1.49551e-08
7.05997e-06
1.28142e-08
1.0705e-08
7.06156e-06
8.53319e-06
6.76953e-09
8.5381e-06
1.81593e-08
8.54405e-06
2.51108e-08
8.55036e-06
2.89944e-08
8.55667e-06
3.05384e-08
8.56279e-06
3.05518e-08
8.56865e-06
2.96093e-08
8.57424e-06
2.80906e-08
8.57954e-06
2.6237e-08
8.58458e-06
2.41971e-08
8.58935e-06
2.20621e-08
8.59387e-06
1.98873e-08
8.59814e-06
1.77081e-08
8.60216e-06
1.55498e-08
8.60595e-06
1.34345e-08
8.60951e-06
1.13915e-08
8.61289e-06
9.43491e-09
7.7302e-09
8.61587e-06
1.04007e-05
5.30691e-09
1.04049e-05
1.38958e-08
1.04108e-05
1.9243e-08
1.04175e-05
2.23322e-08
1.04244e-05
2.36452e-08
1.04312e-05
2.37404e-08
1.04378e-05
2.30383e-08
1.0444e-05
2.18302e-08
1.04499e-05
2.03132e-08
1.04555e-05
1.86156e-08
1.04608e-05
1.68211e-08
1.04657e-05
1.49845e-08
1.04702e-05
1.31422e-08
1.04745e-05
1.13224e-08
1.04783e-05
9.54008e-09
1.04819e-05
7.81646e-09
1.04852e-05
6.14183e-09
4.50245e-09
1.04884e-05
1.26789e-05
3.19173e-09
1.2684e-05
8.83735e-09
1.26907e-05
1.25372e-08
1.26983e-05
1.47343e-08
1.27062e-05
1.56869e-08
1.27142e-05
1.5749e-08
1.2722e-05
1.52105e-08
1.27296e-05
1.42794e-08
1.27368e-05
1.31034e-08
1.27436e-05
1.17823e-08
1.27501e-05
1.03834e-08
1.27561e-05
8.95198e-09
1.27617e-05
7.52196e-09
1.27669e-05
6.11875e-09
1.27717e-05
4.76954e-09
1.2776e-05
3.49268e-09
1.27799e-05
2.31336e-09
1.27244e-09
1.27831e-05
1.5455e-05
1.40699e-09
1.54599e-05
3.87019e-09
1.54671e-05
5.38959e-09
1.54756e-05
6.18601e-09
1.54849e-05
6.37446e-09
1.54946e-05
6.11619e-09
1.55042e-05
5.54947e-09
1.55137e-05
4.77472e-09
1.5523e-05
3.86662e-09
1.55319e-05
2.87915e-09
1.55404e-05
1.84934e-09
1.55486e-05
8.06073e-10
1.55563e-05
-2.34272e-10
1.55637e-05
-1.25041e-09
1.55707e-05
-2.24435e-09
1.55774e-05
-3.18664e-09
1.55838e-05
-4.10799e-09
-4.88942e-09
1.559e-05
1.88392e-05
-1.24263e-10
1.8844e-05
-9.16501e-10
1.8851e-05
-1.65895e-09
1.88594e-05
-2.24321e-09
1.88685e-05
-2.71917e-09
1.88778e-05
-3.12516e-09
1.88868e-05
-3.49007e-09
1.88954e-05
-3.83438e-09
1.89035e-05
-4.16874e-09
1.89108e-05
-4.49824e-09
1.89175e-05
-4.82411e-09
1.89235e-05
-5.14679e-09
1.89287e-05
-5.46452e-09
1.89332e-05
-5.78026e-09
1.89371e-05
-6.09293e-09
1.89403e-05
-6.40515e-09
1.89429e-05
-6.73518e-09
-7.14673e-09
1.89452e-05
2.29673e-05
-4.05286e-09
2.29763e-05
-9.91315e-09
2.29885e-05
-1.39353e-08
2.3003e-05
-1.66993e-08
2.30188e-05
-1.85675e-08
2.30355e-05
-1.9791e-08
2.30526e-05
-2.05715e-08
2.30698e-05
-2.10565e-08
2.3087e-05
-2.13448e-08
2.3104e-05
-2.14992e-08
2.31207e-05
-2.15576e-08
2.31371e-05
-2.15379e-08
2.31531e-05
-2.14445e-08
2.31686e-05
-2.12663e-08
2.31835e-05
-2.09884e-08
2.31976e-05
-2.05747e-08
2.32109e-05
-2.00189e-08
-1.8964e-08
2.32227e-05
1.68112e-05
-4.58631e-09
1.68147e-05
-1.34094e-08
1.68203e-05
-1.94584e-08
1.68268e-05
-2.32263e-08
1.68335e-05
-2.53207e-08
1.684e-05
-2.62643e-08
1.68459e-05
-2.64745e-08
1.68511e-05
-2.62388e-08
1.68555e-05
-2.57384e-08
1.68591e-05
-2.50837e-08
1.68619e-05
-2.43389e-08
1.68639e-05
-2.35424e-08
1.68651e-05
-2.27124e-08
1.68657e-05
-2.18693e-08
1.68658e-05
-2.10184e-08
1.68654e-05
-2.02069e-08
1.68648e-05
-1.94323e-08
-1.91633e-08
1.6865e-05
1.46387e-05
-8.68632e-09
1.46468e-05
-2.15187e-08
1.46567e-05
-2.94125e-08
1.46676e-05
-3.40695e-08
1.46788e-05
-3.65689e-08
1.46902e-05
-3.75986e-08
1.47014e-05
-3.77027e-08
1.47124e-05
-3.72609e-08
1.47232e-05
-3.6508e-08
1.47337e-05
-3.55895e-08
1.47439e-05
-3.45993e-08
1.4754e-05
-3.35961e-08
1.47639e-05
-3.26208e-08
1.47737e-05
-3.1691e-08
1.47835e-05
-3.08317e-08
1.47933e-05
-3.00084e-08
1.48032e-05
-2.92549e-08
-2.79329e-08
1.48119e-05
1.27416e-05
-1.01558e-08
1.27467e-05
-2.66516e-08
1.27533e-05
-3.60044e-08
1.276e-05
-4.07561e-08
1.27661e-05
-4.26938e-08
1.27714e-05
-4.28929e-08
1.27759e-05
-4.21262e-08
1.27795e-05
-4.0879e-08
1.27824e-05
-3.94044e-08
1.27846e-05
-3.7832e-08
1.27862e-05
-3.62297e-08
1.27873e-05
-3.46294e-08
1.27877e-05
-3.30312e-08
1.27874e-05
-3.1428e-08
1.27864e-05
-2.97725e-08
1.27844e-05
-2.80677e-08
1.27814e-05
-2.61995e-08
-2.48919e-08
1.27783e-05
1.10965e-05
-1.57705e-08
1.11062e-05
-3.6292e-08
1.11165e-05
-4.63214e-08
1.11267e-05
-5.09093e-08
1.11365e-05
-5.24972e-08
1.11458e-05
-5.21956e-08
1.11545e-05
-5.08717e-08
1.11627e-05
-4.90917e-08
1.11704e-05
-4.71288e-08
1.11777e-05
-4.51197e-08
1.11846e-05
-4.31482e-08
1.11913e-05
-4.12651e-08
1.11978e-05
-3.95095e-08
1.12042e-05
-3.79111e-08
1.1211e-05
-3.65448e-08
1.12184e-05
-3.5448e-08
1.12271e-05
-3.48602e-08
-3.40174e-08
1.12362e-05
9.65973e-06
-2.02881e-08
9.66814e-06
-4.47043e-08
9.67603e-06
-5.42049e-08
9.68234e-06
-5.72194e-08
9.68716e-06
-5.73211e-08
9.69072e-06
-5.57581e-08
9.69333e-06
-5.34734e-08
9.69526e-06
-5.10227e-08
9.69671e-06
-4.85826e-08
9.6978e-06
-4.62035e-08
9.69856e-06
-4.39157e-08
9.69903e-06
-4.17339e-08
9.69917e-06
-3.96456e-08
9.69889e-06
-3.76291e-08
9.69793e-06
-3.55858e-08
9.6959e-06
-3.34255e-08
9.69173e-06
-3.06859e-08
-2.78637e-08
9.68558e-06
8.41351e-06
-2.8449e-08
8.42507e-06
-5.62609e-08
8.43522e-06
-6.43572e-08
8.44396e-06
-6.59563e-08
8.45164e-06
-6.49978e-08
8.45825e-06
-6.2374e-08
8.46391e-06
-5.91313e-08
8.46879e-06
-5.59048e-08
8.47305e-06
-5.28376e-08
8.47679e-06
-4.99435e-08
8.48011e-06
-4.72393e-08
8.48311e-06
-4.47307e-08
8.48588e-06
-4.24167e-08
8.48854e-06
-4.02939e-08
8.49139e-06
-3.84285e-08
8.49486e-06
-3.68965e-08
8.50046e-06
-3.62849e-08
-3.63448e-08
8.50894e-06
7.32785e-06
-3.90134e-08
7.33966e-06
-6.80675e-08
7.34635e-06
-7.105e-08
7.34959e-06
-6.92019e-08
7.35099e-06
-6.63964e-08
7.35128e-06
-6.26639e-08
7.35098e-06
-5.88299e-08
7.35042e-06
-5.53454e-08
7.34974e-06
-5.2155e-08
7.34897e-06
-4.91738e-08
7.34812e-06
-4.6389e-08
7.34719e-06
-4.38001e-08
7.34616e-06
-4.13905e-08
7.34502e-06
-3.9153e-08
7.34361e-06
-3.70116e-08
7.34162e-06
-3.49088e-08
7.33741e-06
-3.20735e-08
-2.79911e-08
7.32905e-06
6.38126e-06
-5.02112e-08
6.3931e-06
-7.99039e-08
6.39985e-06
-7.78001e-08
6.40402e-06
-7.33698e-08
6.40642e-06
-6.88024e-08
6.40733e-06
-6.3567e-08
6.40719e-06
-5.86936e-08
6.40639e-06
-5.45431e-08
6.40516e-06
-5.09266e-08
6.40365e-06
-4.76675e-08
6.40197e-06
-4.47032e-08
6.40017e-06
-4.20019e-08
6.39831e-06
-3.95336e-08
6.39643e-06
-3.72665e-08
6.39464e-06
-3.5224e-08
6.39312e-06
-3.33893e-08
6.39356e-06
-3.25093e-08
-3.31678e-08
6.39873e-06
5.563e-06
-6.77421e-08
5.56908e-06
-8.59852e-08
5.56466e-06
-7.33785e-08
5.5572e-06
-6.59155e-08
5.54939e-06
-6.09954e-08
5.54194e-06
-5.61152e-08
5.53505e-06
-5.18023e-08
5.52867e-06
-4.81616e-08
5.52267e-06
-4.49278e-08
5.51697e-06
-4.19685e-08
5.51152e-06
-3.92484e-08
5.50627e-06
-3.6754e-08
5.5012e-06
-3.44627e-08
5.49631e-06
-3.23726e-08
5.49153e-06
-3.04512e-08
5.4869e-06
-2.87605e-08
5.48096e-06
-2.65672e-08
-2.24085e-08
5.4702e-06
4.85296e-06
-9.30996e-08
4.85866e-06
-9.16834e-08
4.84879e-06
-6.35028e-08
4.83768e-06
-5.48124e-08
4.82547e-06
-4.87774e-08
4.81325e-06
-4.38992e-08
4.80152e-06
-4.00701e-08
4.79034e-06
-3.69851e-08
4.77971e-06
-3.42955e-08
4.76957e-06
-3.18292e-08
4.75988e-06
-2.95534e-08
4.75058e-06
-2.74615e-08
4.74167e-06
-2.55479e-08
4.7331e-06
-2.38047e-08
4.72492e-06
-2.2266e-08
4.71709e-06
-2.09344e-08
4.71119e-06
-2.06697e-08
-2.18724e-08
4.71066e-06
4.10958e-06
4.01789e-06
3.95439e-06
3.89958e-06
3.8508e-06
3.8069e-06
3.76683e-06
3.72985e-06
3.69555e-06
3.66372e-06
3.63417e-06
3.60671e-06
3.58116e-06
3.55735e-06
3.53509e-06
3.51415e-06
3.49348e-06
3.47161e-06
1.2707e-08
-1.27185e-08
6.94637e-08
-5.67136e-08
1.52727e-07
-8.32972e-08
2.3071e-07
-7.79563e-08
3.04042e-07
-7.33643e-08
3.68506e-07
-6.44464e-08
4.26849e-07
-5.83774e-08
4.7868e-07
-5.18187e-08
5.2566e-07
-4.7013e-08
5.68036e-07
-4.23672e-08
6.06548e-07
-3.85419e-08
6.41389e-07
-3.48339e-08
6.72825e-07
-3.14627e-08
7.01011e-07
-2.81807e-08
7.26078e-07
-2.50924e-08
7.48208e-07
-2.21255e-08
7.67512e-07
-1.93275e-08
7.84174e-07
-1.6659e-08
7.98282e-07
-1.41291e-08
8.0991e-07
-1.16253e-08
8.18991e-07
-9.09833e-09
8.25521e-07
-6.5293e-09
8.29269e-07
-3.76326e-09
8.29974e-07
-7.10372e-10
8.27421e-07
2.54142e-09
8.21506e-07
5.89931e-09
8.12067e-07
9.43191e-09
7.98721e-07
1.33208e-08
7.80971e-07
1.77457e-08
7.57937e-07
2.29987e-08
7.28498e-07
2.94306e-08
6.9127e-07
3.71925e-08
6.44893e-07
4.63579e-08
5.87926e-07
5.69494e-08
5.18769e-07
6.91369e-08
4.35795e-07
8.29769e-08
3.38869e-07
9.692e-08
2.31611e-07
1.07258e-07
1.22142e-07
1.09488e-07
2.58243e-08
9.62913e-08
-3.32758e-08
5.91373e-08
-5.67245e-08
2.33939e-08
-6.97857e-08
1.30837e-08
-8.62525e-08
1.64173e-08
-1.08259e-07
2.19924e-08
-1.33088e-07
2.48177e-08
-1.59166e-07
2.60413e-08
-1.87349e-07
2.82164e-08
-2.18016e-07
3.06063e-08
-2.50817e-07
3.28783e-08
-2.85985e-07
3.51032e-08
-3.2325e-07
3.73943e-08
-3.63287e-07
3.99842e-08
-4.06295e-07
4.3158e-08
-4.5321e-07
4.68363e-08
-5.04034e-07
5.09779e-08
-5.5947e-07
5.53601e-08
-6.19214e-07
5.98852e-08
-6.83692e-07
6.43772e-08
-7.52393e-07
6.88158e-08
-8.25572e-07
7.30826e-08
-9.02692e-07
7.72013e-08
-9.83924e-07
8.11019e-08
-1.06872e-06
8.48354e-08
-1.1572e-06
8.83354e-08
-1.24883e-06
9.16436e-08
-1.34366e-06
9.46821e-08
-1.44112e-06
9.74538e-08
-1.54113e-06
9.98617e-08
-1.64304e-06
1.01908e-07
-1.74669e-06
1.03501e-07
-1.85136e-06
1.04654e-07
-1.95676e-06
1.05292e-07
-2.06222e-06
1.05435e-07
-2.16734e-06
1.05034e-07
-2.27148e-06
1.04106e-07
-2.37415e-06
1.02625e-07
-2.47479e-06
1.00591e-07
-2.57278e-06
9.79953e-08
-2.66766e-06
9.48045e-08
-2.75865e-06
9.10104e-08
-2.84528e-06
8.65358e-08
-2.92657e-06
8.1355e-08
-3.00202e-06
7.5324e-08
-3.07038e-06
6.84146e-08
-3.13095e-06
6.04358e-08
-3.1822e-06
5.13307e-08
-3.22293e-06
4.07983e-08
-3.25131e-06
2.86588e-08
-3.26572e-06
1.49732e-08
-3.26551e-06
2.8022e-10
-3.25091e-06
-1.41701e-08
-3.22193e-06
-2.86457e-08
-3.17739e-06
-4.42139e-08
-3.11589e-06
-6.12363e-08
-3.03558e-06
-8.00916e-08
-2.93467e-06
-1.00775e-07
-2.81165e-06
-1.22975e-07
-2.6655e-06
-1.4617e-07
-2.49602e-06
-1.69617e-07
-2.30418e-06
-1.91989e-07
-2.09297e-06
-2.11422e-07
-1.86663e-06
-2.26473e-07
-1.63116e-06
-2.35562e-07
-1.39413e-06
-2.37058e-07
-1.16438e-06
-2.29716e-07
-9.51708e-07
-2.12613e-07
-7.65705e-07
-1.85913e-07
-6.14148e-07
-1.51463e-07
-5.01891e-07
-1.12138e-07
-4.29616e-07
-7.21809e-08
-3.93127e-07
-3.64059e-08
-3.84792e-07
-8.29982e-09
-3.95692e-07
1.09151e-08
-4.16292e-07
2.05865e-08
-4.37891e-07
2.15732e-08
-4.53806e-07
1.58813e-08
-4.59958e-07
6.11435e-09
-4.55024e-07
-4.96929e-09
-4.39099e-07
-1.59618e-08
-4.12536e-07
-2.65791e-08
-3.75933e-07
-3.66046e-08
-3.29928e-07
-4.59758e-08
-2.75341e-07
-5.45539e-08
-2.13112e-07
-6.22005e-08
-1.44468e-07
-6.8633e-08
-7.10052e-08
-7.34462e-08
5.70971e-09
-7.66791e-08
8.68041e-08
-8.10432e-08
1.72236e-07
-8.53791e-08
2.58542e-07
-8.62759e-08
3.43917e-07
-8.53514e-08
4.27442e-07
-8.35285e-08
5.0868e-07
-8.12404e-08
5.87338e-07
-7.8687e-08
6.63264e-07
-7.59534e-08
7.36335e-07
-7.31259e-08
8.06518e-07
-7.02415e-08
8.73787e-07
-6.73634e-08
9.382e-07
-6.45135e-08
9.99822e-07
-6.17339e-08
1.05877e-06
-5.90422e-08
1.11515e-06
-5.64663e-08
1.1691e-06
-5.40165e-08
1.22075e-06
-5.17062e-08
1.27024e-06
-4.95323e-08
1.3177e-06
-4.74981e-08
1.36326e-06
-4.55949e-08
1.40705e-06
-4.38205e-08
1.44919e-06
-4.21633e-08
1.48978e-06
-4.0618e-08
1.52893e-06
-3.91722e-08
1.56672e-06
-3.78198e-08
1.60325e-06
-3.655e-08
1.63859e-06
-3.53581e-08
1.6728e-06
-3.42335e-08
1.70595e-06
-3.31722e-08
1.7381e-06
-3.21662e-08
1.76929e-06
-3.12129e-08
1.79958e-06
-3.03039e-08
1.829e-06
-2.94386e-08
1.8576e-06
-2.86158e-08
1.88543e-06
-2.78412e-08
1.91253e-06
-2.71134e-08
1.93896e-06
-2.64375e-08
1.96475e-06
-2.58054e-08
1.98996e-06
-2.52225e-08
2.01462e-06
-2.46665e-08
2.03876e-06
-2.41492e-08
2.06237e-06
-2.36126e-08
2.08546e-06
-2.30951e-08
2.10789e-06
-2.24344e-08
2.12964e-06
-2.17611e-08
2.15022e-06
-2.05829e-08
2.1695e-06
-1.92821e-08
2.18568e-06
-1.61811e-08
2.19666e-06
-1.09862e-08
2.1918e-06
4.85056e-09
2.14539e-06
4.63928e-08
9.54691e-08
2.04992e-06
9.74241e-08
-1.10147e-07
1.4448e-07
-1.03766e-07
1.80073e-07
-1.18897e-07
2.0397e-07
-1.01852e-07
2.32355e-07
-1.01758e-07
2.58977e-07
-9.10686e-08
2.88526e-07
-8.79354e-08
3.16547e-07
-7.98398e-08
3.44475e-07
-7.49507e-08
3.70277e-07
-6.81701e-08
3.9427e-07
-6.25432e-08
4.1534e-07
-5.59044e-08
4.33487e-07
-4.96176e-08
4.48349e-07
-4.30433e-08
4.60096e-07
-3.68471e-08
4.68851e-07
-3.08814e-08
4.74932e-07
-2.5415e-08
4.78649e-07
-2.03779e-08
4.80373e-07
-1.58597e-08
4.80491e-07
-1.17449e-08
4.79341e-07
-7.95359e-09
4.77425e-07
-4.61701e-09
4.75209e-07
-1.55159e-09
4.73203e-07
1.29062e-09
4.71664e-07
4.07538e-09
4.70362e-07
7.19499e-09
4.6885e-07
1.09385e-08
4.66637e-07
1.55263e-08
4.62684e-07
2.16929e-08
4.55034e-07
3.06409e-08
4.41282e-07
4.3175e-08
4.19383e-07
5.90826e-08
3.88166e-07
7.75676e-08
3.4718e-07
9.79301e-08
2.96446e-07
1.19865e-07
2.36605e-07
1.42816e-07
1.6973e-07
1.63794e-07
1.00459e-07
1.76529e-07
3.6515e-08
1.73433e-07
-1.67694e-08
1.49575e-07
-6.92393e-08
1.11608e-07
-1.28173e-07
8.23261e-08
-1.84433e-07
6.9341e-08
-2.34625e-07
6.66076e-08
-2.81924e-07
6.92866e-08
-3.30854e-07
7.37453e-08
-3.83999e-07
7.91809e-08
-4.41577e-07
8.57948e-08
-5.03651e-07
9.26751e-08
-5.70002e-07
9.92312e-08
-6.40102e-07
1.05201e-07
-7.13162e-07
1.10465e-07
-7.88239e-07
1.15063e-07
-8.64221e-07
1.1915e-07
-9.40164e-07
1.22779e-07
-1.01517e-06
1.25999e-07
-1.08869e-06
1.28872e-07
-1.1603e-06
1.31509e-07
-1.22991e-06
1.33977e-07
-1.29745e-06
1.36359e-07
-1.36305e-06
1.38674e-07
-1.4268e-06
1.40951e-07
-1.48888e-06
1.43162e-07
-1.54935e-06
1.45294e-07
-1.60833e-06
1.47282e-07
-1.66578e-06
1.49079e-07
-1.72173e-06
1.506e-07
-1.77609e-06
1.51792e-07
-1.82885e-06
1.52584e-07
-1.87992e-06
1.52955e-07
-1.92933e-06
1.52866e-07
-1.97702e-06
1.52327e-07
-2.0231e-06
1.51329e-07
-2.06759e-06
1.49904e-07
-2.11065e-06
1.48062e-07
-2.15242e-06
1.45837e-07
-2.19307e-06
1.43248e-07
-2.23283e-06
1.40314e-07
-2.2719e-06
1.37046e-07
-2.31058e-06
1.33439e-07
-2.34908e-06
1.29482e-07
-2.3877e-06
1.25119e-07
-2.42665e-06
1.20292e-07
-2.46625e-06
1.14871e-07
-2.50658e-06
1.08724e-07
-2.54779e-06
1.01601e-07
-2.58973e-06
9.32613e-08
-2.63226e-06
8.3352e-08
-2.67496e-06
7.16074e-08
-2.71717e-06
5.74992e-08
-2.75693e-06
4.03452e-08
-2.79022e-06
1.93672e-08
-2.81305e-06
-5.62672e-09
-2.82215e-06
-3.49378e-08
-2.81442e-06
-6.8843e-08
-2.78753e-06
-1.06875e-07
-2.73962e-06
-1.48653e-07
-2.6691e-06
-1.93479e-07
-2.57491e-06
-2.40399e-07
-2.45675e-06
-2.87859e-07
-2.31547e-06
-3.33347e-07
-2.15309e-06
-3.73891e-07
-1.97312e-06
-4.06483e-07
-1.78034e-06
-4.28359e-07
-1.5801e-06
-4.37272e-07
-1.37921e-06
-4.30572e-07
-1.18456e-06
-4.07219e-07
-1.00222e-06
-3.68209e-07
-8.37137e-07
-3.16509e-07
-6.92658e-07
-2.56582e-07
-5.7062e-07
-1.94188e-07
-4.71574e-07
-1.35433e-07
-3.94523e-07
-8.53406e-08
-3.3659e-07
-4.70186e-08
-2.9655e-07
-1.94573e-08
-2.7184e-07
-3.14734e-09
-2.58679e-07
2.71081e-09
-2.52444e-07
-1.33054e-10
-2.47747e-07
-9.6782e-09
-2.40609e-07
-2.31145e-08
-2.28291e-07
-3.89031e-08
-2.08968e-07
-5.593e-08
-1.81664e-07
-7.32698e-08
-1.46185e-07
-9.00242e-08
-1.02802e-07
-1.05575e-07
-5.19611e-08
-1.19473e-07
5.80139e-09
-1.31204e-07
6.94316e-08
-1.40302e-07
1.35798e-07
-1.47394e-07
2.033e-07
-1.52867e-07
2.72967e-07
-1.55931e-07
3.44159e-07
-1.56538e-07
4.15902e-07
-1.55268e-07
4.87361e-07
-1.52703e-07
5.57941e-07
-1.49273e-07
6.27218e-07
-1.45243e-07
6.94893e-07
-1.40817e-07
7.60761e-07
-1.36136e-07
8.24692e-07
-1.3133e-07
8.8662e-07
-1.26486e-07
9.46526e-07
-1.21686e-07
1.00443e-06
-1.16986e-07
1.06037e-06
-1.12439e-07
1.1144e-06
-1.08077e-07
1.1666e-06
-1.03924e-07
1.21704e-06
-9.99889e-08
1.2658e-06
-9.62767e-08
1.31297e-06
-9.27826e-08
1.35864e-06
-8.9501e-08
1.40289e-06
-8.64196e-08
1.44579e-06
-8.35271e-08
1.48741e-06
-8.08081e-08
1.52783e-06
-7.825e-08
1.56711e-06
-7.5839e-08
1.60531e-06
-7.3565e-08
1.64248e-06
-7.14149e-08
1.67868e-06
-6.93794e-08
1.71396e-06
-6.74482e-08
1.74835e-06
-6.56154e-08
1.78191e-06
-6.38743e-08
1.81469e-06
-6.22243e-08
1.84674e-06
-6.06638e-08
1.87809e-06
-5.91985e-08
1.9088e-06
-5.78262e-08
1.93891e-06
-5.65513e-08
1.96846e-06
-5.53609e-08
1.9975e-06
-5.42586e-08
2.02604e-06
-5.32086e-08
2.05411e-06
-5.22214e-08
2.0817e-06
-5.12023e-08
2.1088e-06
-5.01922e-08
2.1353e-06
-4.89329e-08
2.16111e-06
-4.75673e-08
2.18588e-06
-4.5355e-08
2.20927e-06
-4.26731e-08
2.23045e-06
-3.7354e-08
2.24877e-06
-2.93015e-08
2.26712e-06
-1.34976e-08
2.29303e-06
2.04802e-08
7.82069e-08
2.31029e-06
4.68044e-08
-1.56958e-07
7.04445e-08
-1.27402e-07
9.06848e-08
-1.39143e-07
1.0266e-07
-1.13826e-07
1.20308e-07
-1.19411e-07
1.39734e-07
-1.10493e-07
1.65872e-07
-1.14078e-07
1.94291e-07
-1.08257e-07
2.26677e-07
-1.0734e-07
2.58895e-07
-1.00387e-07
2.90959e-07
-9.46109e-08
3.20273e-07
-8.52176e-08
3.46709e-07
-7.60568e-08
3.69279e-07
-6.56128e-08
3.88263e-07
-5.58336e-08
4.03503e-07
-4.61211e-08
4.15351e-07
-3.7265e-08
4.24095e-07
-2.91216e-08
4.30306e-07
-2.2074e-08
4.34201e-07
-1.56403e-08
4.34926e-07
-8.68193e-09
4.30675e-07
-3.67622e-10
4.21457e-07
7.66342e-09
4.08416e-07
1.43292e-08
3.92579e-07
1.99087e-08
3.74651e-07
2.51198e-08
3.55145e-07
3.04417e-08
3.34337e-07
3.63292e-08
3.11987e-07
4.40401e-08
2.87158e-07
5.54655e-08
2.58531e-07
7.17981e-08
2.24953e-07
9.26574e-08
1.8592e-07
1.16597e-07
1.41671e-07
1.42176e-07
9.33875e-08
1.68145e-07
4.37591e-08
1.92443e-07
-3.14939e-09
2.10701e-07
-4.34974e-08
2.16875e-07
-7.70949e-08
2.07031e-07
-1.11829e-07
1.84307e-07
-1.59053e-07
1.58833e-07
-2.18584e-07
1.41856e-07
-2.84903e-07
1.3566e-07
-3.55031e-07
1.36733e-07
-4.27616e-07
1.4187e-07
-5.02221e-07
1.48349e-07
-5.78073e-07
1.55029e-07
-6.53732e-07
1.61453e-07
-7.27998e-07
1.66937e-07
-7.99864e-07
1.71095e-07
-8.68475e-07
1.73809e-07
-9.33167e-07
1.75158e-07
-9.93488e-07
1.75381e-07
-1.04914e-06
1.74807e-07
-1.1001e-06
1.73735e-07
-1.14656e-06
1.72462e-07
-1.18897e-06
1.71269e-07
-1.22786e-06
1.70405e-07
-1.26394e-06
1.70049e-07
-1.29791e-06
1.70326e-07
-1.33052e-06
1.71283e-07
-1.3625e-06
1.72927e-07
-1.39456e-06
1.75207e-07
-1.42733e-06
1.78054e-07
-1.46142e-06
1.81361e-07
-1.49737e-06
1.85021e-07
-1.53569e-06
1.88905e-07
-1.57681e-06
1.92906e-07
-1.62114e-06
1.96908e-07
-1.66902e-06
2.00819e-07
-1.7207e-06
2.04532e-07
-1.77634e-06
2.07965e-07
-1.83604e-06
2.11015e-07
-1.89975e-06
2.136e-07
-1.96733e-06
2.15621e-07
-2.03851e-06
2.17001e-07
-2.11294e-06
2.17653e-07
-2.19015e-06
2.175e-07
-2.2696e-06
2.16463e-07
-2.35065e-06
2.14461e-07
-2.43261e-06
2.11409e-07
-2.51471e-06
2.07193e-07
-2.59613e-06
2.01686e-07
-2.676e-06
1.94705e-07
-2.75334e-06
1.86043e-07
-2.82715e-06
1.75382e-07
-2.89628e-06
1.62359e-07
-2.9594e-06
1.46507e-07
-3.01498e-06
1.2729e-07
-3.06129e-06
1.04003e-07
-3.09664e-06
7.58715e-08
-3.11955e-06
4.23892e-08
-3.12865e-06
3.58095e-09
-3.12257e-06
-4.09635e-08
-3.10017e-06
-9.1167e-08
-3.05987e-06
-1.47152e-07
-2.99984e-06
-2.08667e-07
-2.91851e-06
-2.74806e-07
-2.81488e-06
-3.44066e-07
-2.68862e-06
-4.14157e-07
-2.54023e-06
-4.81784e-07
-2.3715e-06
-5.42658e-07
-2.1863e-06
-5.9168e-07
-1.98998e-06
-6.24652e-07
-1.78937e-06
-6.37826e-07
-1.5919e-06
-6.27999e-07
-1.4044e-06
-5.94665e-07
-1.23207e-06
-5.40509e-07
-1.07813e-06
-4.70398e-07
-9.44051e-07
-3.90644e-07
-8.30182e-07
-3.08034e-07
-7.36431e-07
-2.29181e-07
-6.61992e-07
-1.59782e-07
-6.05093e-07
-1.03929e-07
-5.61781e-07
-6.27853e-08
-5.28604e-07
-3.63411e-08
-5.02434e-07
-2.34788e-08
-4.80139e-07
-2.2443e-08
-4.58757e-07
-3.10762e-08
-4.35125e-07
-4.67564e-08
-4.06904e-07
-6.71283e-08
-3.72701e-07
-9.01302e-08
-3.31963e-07
-1.13998e-07
-2.84687e-07
-1.3729e-07
-2.3135e-07
-1.589e-07
-1.72719e-07
-1.78097e-07
-1.09537e-07
-1.94374e-07
-4.22601e-08
-2.07567e-07
2.82047e-08
-2.17842e-07
1.00509e-07
-2.25161e-07
1.73928e-07
-2.29341e-07
2.48013e-07
-2.30622e-07
3.22296e-07
-2.29549e-07
3.96254e-07
-2.26666e-07
4.69409e-07
-2.22435e-07
5.41377e-07
-2.17223e-07
6.11869e-07
-2.11323e-07
6.80682e-07
-2.0497e-07
7.47683e-07
-1.98356e-07
8.12798e-07
-1.91632e-07
8.76e-07
-1.84918e-07
9.37294e-07
-1.78307e-07
9.96706e-07
-1.71873e-07
1.05428e-06
-1.65668e-07
1.11007e-06
-1.59726e-07
1.16413e-06
-1.54067e-07
1.21654e-06
-1.48699e-07
1.26737e-06
-1.4362e-07
1.31668e-06
-1.38825e-07
1.36456e-06
-1.343e-07
1.41105e-06
-1.30032e-07
1.45624e-06
-1.26001e-07
1.50017e-06
-1.22193e-07
1.54292e-06
-1.18591e-07
1.58453e-06
-1.1518e-07
1.62505e-06
-1.11944e-07
1.66453e-06
-1.0887e-07
1.70303e-06
-1.05948e-07
1.74057e-06
-1.0317e-07
1.77722e-06
-1.00529e-07
1.81301e-06
-9.80224e-08
1.84799e-06
-9.56507e-08
1.88221e-06
-9.34182e-08
1.9157e-06
-9.13221e-08
1.94851e-06
-8.93657e-08
1.98067e-06
-8.75331e-08
2.01224e-06
-8.58263e-08
2.04322e-06
-8.41988e-08
2.07365e-06
-8.26584e-08
2.10353e-06
-8.10821e-08
2.13284e-06
-7.95083e-08
2.16151e-06
-7.76071e-08
2.18946e-06
-7.55208e-08
2.21644e-06
-7.23374e-08
2.24219e-06
-6.84293e-08
2.26611e-06
-6.1281e-08
2.28778e-06
-5.09788e-08
2.30636e-06
-3.20824e-08
2.32339e-06
3.44573e-09
6.66241e-08
2.33497e-06
3.83739e-08
-1.95339e-07
4.64612e-08
-1.35483e-07
5.87558e-08
-1.51443e-07
6.74179e-08
-1.22485e-07
7.45118e-08
-1.26508e-07
8.03057e-08
-1.16285e-07
8.77482e-08
-1.21523e-07
1.00276e-07
-1.20783e-07
1.17395e-07
-1.24462e-07
1.38548e-07
-1.21538e-07
1.61452e-07
-1.17517e-07
1.83503e-07
-1.07267e-07
2.03414e-07
-9.59693e-08
2.20368e-07
-8.2566e-08
2.34261e-07
-6.97275e-08
2.45123e-07
-5.69828e-08
2.5328e-07
-4.54228e-08
2.59133e-07
-3.49749e-08
2.63284e-07
-2.62261e-08
2.66038e-07
-1.83951e-08
2.66944e-07
-9.58901e-09
2.63704e-07
2.87057e-09
2.53766e-07
1.75996e-08
2.36956e-07
3.11378e-08
2.14446e-07
4.24167e-08
1.87674e-07
5.18894e-08
1.57786e-07
6.03273e-08
1.25356e-07
6.87565e-08
9.07868e-08
7.8607e-08
5.48245e-08
9.14253e-08
1.84874e-08
1.08133e-07
-1.74142e-08
1.28556e-07
-5.23205e-08
1.51501e-07
-8.53785e-08
1.75232e-07
-1.14868e-07
1.97632e-07
-1.38531e-07
2.16104e-07
-1.55605e-07
2.27773e-07
-1.69564e-07
2.30832e-07
-1.88939e-07
2.26404e-07
-2.23317e-07
2.18683e-07
-2.76543e-07
2.12058e-07
-3.43735e-07
2.09046e-07
-4.17408e-07
2.09332e-07
-4.92223e-07
2.11547e-07
-5.64826e-07
2.14471e-07
-6.33503e-07
2.17024e-07
-6.97063e-07
2.18586e-07
-7.54473e-07
2.18861e-07
-8.05226e-07
2.17687e-07
-8.49278e-07
2.15144e-07
-8.86955e-07
2.11484e-07
-9.1886e-07
2.07061e-07
-9.45781e-07
2.023e-07
-9.68618e-07
1.97641e-07
-9.88375e-07
1.93488e-07
-1.0061e-06
1.90188e-07
-1.02286e-06
1.88023e-07
-1.03966e-06
1.87198e-07
-1.05745e-06
1.87834e-07
-1.0771e-06
1.89978e-07
-1.09943e-06
1.93605e-07
-1.12514e-06
1.9863e-07
-1.15486e-06
2.04923e-07
-1.18913e-06
2.12315e-07
-1.22838e-06
2.20609e-07
-1.27295e-06
2.2959e-07
-1.32308e-06
2.39028e-07
-1.37886e-06
2.48685e-07
-1.44027e-06
2.58316e-07
-1.50713e-06
2.6768e-07
-1.57914e-06
2.76535e-07
-1.65583e-06
2.84654e-07
-1.73664e-06
2.91821e-07
-1.8209e-06
2.97849e-07
-1.90786e-06
3.02573e-07
-1.99674e-06
3.05862e-07
-2.08672e-06
3.07614e-07
-2.17699e-06
3.07755e-07
-2.26678e-06
3.0623e-07
-2.35534e-06
3.02996e-07
-2.44196e-06
2.98006e-07
-2.52598e-06
2.91189e-07
-2.60676e-06
2.82442e-07
-2.68369e-06
2.71608e-07
-2.75613e-06
2.58466e-07
-2.82348e-06
2.42703e-07
-2.88506e-06
2.23924e-07
-2.94018e-06
2.01634e-07
-2.98804e-06
1.75246e-07
-3.02789e-06
1.43961e-07
-3.05889e-06
1.06963e-07
-3.07994e-06
6.35039e-08
-3.08936e-06
1.30431e-08
-3.08547e-06
-4.48255e-08
-3.06616e-06
-1.10459e-07
-3.02928e-06
-1.8403e-07
-2.97266e-06
-2.65284e-07
-2.8945e-06
-3.52982e-07
-2.79352e-06
-4.45058e-07
-2.66924e-06
-5.38459e-07
-2.52221e-06
-6.28826e-07
-2.35451e-06
-7.10343e-07
-2.16981e-06
-7.76347e-07
-1.97418e-06
-8.20238e-07
-1.77559e-06
-8.36361e-07
-1.58249e-06
-8.2104e-07
-1.40224e-06
-7.74861e-07
-1.2401e-06
-7.02616e-07
-1.09875e-06
-6.11716e-07
-9.78596e-07
-5.10785e-07
-8.78396e-07
-4.08221e-07
-7.96052e-07
-3.11525e-07
-7.29238e-07
-2.266e-07
-6.75815e-07