/*--------------------------------*- C++ -*----------------------------------*\
| =========                 |                                                 |
| \\      /  F ield         | OpenFOAM: The Open Source CFD Toolbox           |
|  \\    /   O peration     | Version:  v1906                                 |
|   \\  /    A nd           | Web:      www.OpenFOAM.com                      |
|    \\/     M anipulation  |                                                 |
\*---------------------------------------------------------------------------*/
FoamFile
{
    version     2.0;
    format      ascii;
    class       volSymmTensorField;
    location    "700";
    object      R;
}
// * * * * * * * * * * * * * * * * * * * * * * * * * * * * * * * * * * * * * //

dimensions      [0 2 -2 0 0 0 0];


internalField   nonuniform List<symmTensor> 
12225
(
(1.62918 -0.333428 0 1.36079 0 1.52752)
(1.99604 -0.597711 0 0.915074 0 1.54224)
(2.14976 -0.586215 0 0.685674 0 1.48847)
(2.16281 -0.548294 0 0.5948 0 1.42583)
(2.13003 -0.521068 0 0.549809 0 1.37025)
(2.08415 -0.50134 0 0.521826 0 1.32326)
(2.03692 -0.485881 0 0.50127 0 1.28312)
(1.99284 -0.473153 0 0.484949 0 1.24873)
(1.95169 -0.462112 0 0.471156 0 1.21834)
(1.91577 -0.452725 0 0.459642 0 1.19224)
(1.88114 -0.444007 0 0.449255 0 1.1682)
(1.8538 -0.437404 0 0.440668 0 1.14822)
(1.8318 -0.432215 0 0.433697 0 1.13204)
(1.81448 -0.427955 0 0.427993 0 1.11864)
(1.79815 -0.424001 0 0.422831 0 1.10666)
(1.78679 -0.421556 0 0.419357 0 1.09768)
(1.773 -0.417452 0 0.414383 0 1.08754)
(1.76765 -0.4183 0 0.413886 0 1.08293)
(1.52372 -0.0379485 0 1.4601 0 1.51677)
(1.5765 -0.140429 0 1.18694 0 1.51213)
(1.58669 -0.19003 0 0.927639 0 1.45696)
(1.57201 -0.209335 0 0.773794 0 1.39906)
(1.54341 -0.218144 0 0.676222 0 1.34283)
(1.51871 -0.225216 0 0.611094 0 1.29757)
(1.49701 -0.231403 0 0.56441 0 1.25992)
(1.47753 -0.236821 0 0.529048 0 1.22738)
(1.46096 -0.241795 0 0.501447 0 1.19986)
(1.44626 -0.246059 0 0.479081 0 1.17529)
(1.43458 -0.250298 0 0.461005 0 1.15513)
(1.42359 -0.253572 0 0.445335 0 1.13565)
(1.41635 -0.257693 0 0.43323 0 1.12142)
(1.4088 -0.260009 0 0.42127 0 1.10529)
(1.40447 -0.264198 0 0.413822 0 1.09607)
(1.39978 -0.265303 0 0.40327 0 1.08185)
(1.39622 -0.269196 0 0.399686 0 1.07635)
(1.39196 -0.269069 0 0.389731 0 1.06232)
(1.51161 -0.00809824 0 1.49388 0 1.51021)
(1.5345 -0.0358567 0 1.38469 0 1.51858)
(1.5464 -0.0615043 0 1.23521 0 1.5056)
(1.54332 -0.0798321 0 1.11805 0 1.48174)
(1.52915 -0.0934314 0 1.02647 0 1.45228)
(1.51226 -0.10531 0 0.953052 0 1.42298)
(1.49496 -0.115972 0 0.893244 0 1.39547)
(1.47789 -0.125591 0 0.843574 0 1.36973)
(1.46198 -0.134412 0 0.801805 0 1.34636)
(1.44712 -0.142363 0 0.766093 0 1.3247)
(1.43383 -0.149837 0 0.73545 0 1.30547)
(1.4215 -0.156424 0 0.708428 0 1.2872)
(1.41062 -0.162892 0 0.685367 0 1.27169)
(1.40117 -0.168286 0 0.66385 0 1.25607)
(1.39143 -0.173892 0 0.647059 0 1.24413)
(1.38673 -0.178227 0 0.627412 0 1.22982)
(1.37237 -0.182674 0 0.6199 0 1.22268)
(1.3866 -0.185782 0 0.590088 0 1.2064)
(1.51151 -0.00606436 0 1.49419 0 1.51108)
(1.52717 -0.0162698 0 1.42188 0 1.52171)
(1.53966 -0.0294626 0 1.31304 0 1.52312)
(1.54279 -0.0418922 0 1.21368 0 1.51507)
(1.53766 -0.0521795 0 1.12994 0 1.50079)
(1.52857 -0.0612505 0 1.05935 0 1.48385)
(1.51766 -0.0694954 0 0.99982 0 1.46618)
(1.50583 -0.0770594 0 0.949187 0 1.44846)
(1.49391 -0.0840947 0 0.905747 0 1.43139)
(1.48219 -0.0905775 0 0.868089 0 1.41497)
(1.47101 -0.096682 0 0.835278 0 1.39965)
(1.46037 -0.102264 0 0.80628 0 1.38499)
(1.45037 -0.107601 0 0.780897 0 1.37166)
(1.44127 -0.112333 0 0.757858 0 1.35871)
(1.43216 -0.116921 0 0.738143 0 1.34741)
(1.42531 -0.12079 0 0.718662 0 1.3358)
(1.41581 -0.124387 0 0.704618 0 1.32682)
(1.41255 -0.127515 0 0.684793 0 1.31587)
(1.50985 -0.0045351 0 1.49823 0 1.50974)
(1.52086 -0.00881262 0 1.44955 0 1.51873)
(1.53211 -0.0148938 0 1.37345 0 1.52446)
(1.53777 -0.0219428 0 1.29859 0 1.52376)
(1.53763 -0.0285632 0 1.23205 0 1.51796)
(1.53392 -0.0348561 0 1.17339 0 1.50916)
(1.52807 -0.0409481 0 1.12185 0 1.49878)
(1.52086 -0.0468092 0 1.07648 0 1.48754)
(1.51294 -0.0524324 0 1.03633 0 1.47601)
(1.50468 -0.0577663 0 1.00065 0 1.46447)
(1.4964 -0.0628538 0 0.96882 0 1.45323)
(1.4882 -0.067627 0 0.940222 0 1.44224)
(1.48021 -0.0721639 0 0.91456 0 1.43179)
(1.4726 -0.0763162 0 0.891224 0 1.42166)
(1.46513 -0.0802019 0 0.870316 0 1.41226)
(1.45852 -0.0836514 0 0.850734 0 1.40305)
(1.45169 -0.0866856 0 0.833833 0 1.39499)
(1.44669 -0.0895811 0 0.815564 0 1.38665)
(1.50977 -0.00410826 0 1.49855 0 1.50978)
(1.51842 -0.00583455 0 1.46078 0 1.51758)
(1.5282 -0.00836418 0 1.40253 0 1.52449)
(1.53466 -0.0121617 0 1.34208 0 1.52724)
(1.53709 -0.016213 0 1.28564 0 1.5261)
(1.53658 -0.0203208 0 1.23413 0 1.52223)
(1.53401 -0.0244824 0 1.18763 0 1.51657)
(1.52999 -0.0286225 0 1.14582 0 1.50973)
(1.525 -0.0326872 0 1.1082 0 1.5022)
(1.51941 -0.0366275 0 1.07427 0 1.49426)
(1.51348 -0.0404366 0 1.04363 0 1.4862)
(1.50737 -0.0440692 0 1.01584 0 1.4781)
(1.50121 -0.0475285 0 0.990599 0 1.47014)
(1.49514 -0.0507443 0 0.967543 0 1.46233)
(1.48914 -0.053722 0 0.94652 0 1.45483)
(1.48351 -0.0564168 0 0.927031 0 1.44754)
(1.47791 -0.0587969 0 0.909323 0 1.44073)
(1.47292 -0.0611458 0 0.891614 0 1.43393)
(1.50945 -0.0033825 0 1.49937 0 1.50953)
(1.5163 -0.00432158 0 1.46918 0 1.51607)
(1.52445 -0.00507234 0 1.42407 0 1.5227)
(1.53069 -0.00674638 0 1.37572 0 1.52675)
(1.53415 -0.00886475 0 1.32913 0 1.52793)
(1.53531 -0.0112507 0 1.2856 0 1.52687)
(1.53472 -0.0138683 0 1.2455 0 1.52417)
(1.53278 -0.0166273 0 1.2088 0 1.52027)
(1.52987 -0.0194468 0 1.17525 0 1.51555)
(1.52626 -0.0222654 0 1.14456 0 1.51028)
(1.52219 -0.0250465 0 1.11647 0 1.50467)
(1.51781 -0.0277442 0 1.0907 0 1.49886)
(1.51324 -0.0303298 0 1.06703 0 1.49298)
(1.5086 -0.0327586 0 1.0452 0 1.4871)
(1.50397 -0.0350064 0 1.02506 0 1.48132)
(1.49947 -0.0370654 0 1.00632 0 1.47568)
(1.49514 -0.0389105 0 0.988927 0 1.4703)
(1.49094 -0.0407667 0 0.972176 0 1.465)
(1.50951 -0.00298477 0 1.49932 0 1.50962)
(1.51528 -0.00359048 0 1.47359 0 1.51536)
(1.52209 -0.00347505 0 1.43718 0 1.52141)
(1.52782 -0.00395127 0 1.39724 0 1.52589)
(1.53167 -0.00488466 0 1.35768 0 1.52832)
(1.53378 -0.00615728 0 1.31987 0 1.52898)
(1.53444 -0.00771897 0 1.28439 0 1.52822)
(1.53392 -0.00948013 0 1.25138 0 1.52634)
(1.53248 -0.0113581 0 1.22081 0 1.52364)
(1.53034 -0.0132918 0 1.19252 0 1.52032)
(1.52769 -0.0152371 0 1.16636 0 1.51657)
(1.52467 -0.0171507 0 1.14215 0 1.51252)
(1.52138 -0.0189971 0 1.11971 0 1.50829)
(1.51794 -0.0207433 0 1.09887 0 1.50395)
(1.51442 -0.0223652 0 1.07948 0 1.4996)
(1.51091 -0.0238638 0 1.06136 0 1.49528)
(1.50738 -0.0252559 0 1.04444 0 1.49105)
(1.50369 -0.0266652 0 1.02847 0 1.48687)
(1.50947 -0.0024433 0 1.49948 0 1.50959)
(1.51436 -0.00303325 0 1.47723 0 1.51462)
(1.52002 -0.00257248 0 1.44731 0 1.51996)
(1.5251 -0.0023407 0 1.41411 0 1.52436)
(1.52889 -0.00245314 0 1.3806 0 1.52731)
(1.53139 -0.00289066 0 1.34805 0 1.52889)
(1.53271 -0.00362694 0 1.31707 0 1.52929)
(1.53305 -0.00459173 0 1.2879 0 1.52871)
(1.53257 -0.00571213 0 1.26057 0 1.52736)
(1.53144 -0.00692981 0 1.23504 0 1.52542)
(1.52982 -0.00819777 0 1.21121 0 1.52303)
(1.52781 -0.0094736 0 1.18897 0 1.5203)
(1.52552 -0.010721 0 1.16819 0 1.51733)
(1.52303 -0.0119125 0 1.14875 0 1.5142)
(1.52042 -0.013029 0 1.13054 0 1.511)
(1.51775 -0.0140764 0 1.11345 0 1.50777)
(1.51501 -0.015066 0 1.09741 0 1.50457)
(1.51194 -0.0161037 0 1.08246 0 1.50137)
(1.5095 -0.00208751 0 1.49945 0 1.50964)
(1.51383 -0.00269641 0 1.4795 0 1.5142)
(1.51862 -0.00211878 0 1.45415 0 1.51895)
(1.52307 -0.00152314 0 1.42597 0 1.5231)
(1.52665 -0.00115939 0 1.3971 0 1.52623)
(1.52927 -0.00107945 0 1.36865 0 1.52832)
(1.53098 -0.001278 0 1.34119 0 1.52945)
(1.53186 -0.00170218 0 1.31503 0 1.52976)
(1.53204 -0.00229082 0 1.29026 0 1.52938)
(1.53165 -0.00299136 0 1.26689 0 1.52844)
(1.5308 -0.00375952 0 1.2449 0 1.52707)
(1.52957 -0.0045569 0 1.22421 0 1.52535)
(1.52805 -0.00535136 0 1.20475 0 1.52337)
(1.52632 -0.00612072 0 1.18643 0 1.52121)
(1.52443 -0.00685243 0 1.16918 0 1.51892)
(1.52241 -0.00755473 0 1.15292 0 1.51655)
(1.5202 -0.00825597 0 1.13767 0 1.51414)
(1.5176 -0.00900332 0 1.12353 0 1.51171)
(1.50947 -0.00167542 0 1.49957 0 1.50961)
(1.51333 -0.00230798 0 1.4815 0 1.51377)
(1.51741 -0.0017564 0 1.45968 0 1.51798)
(1.52127 -0.000998302 0 1.43553 0 1.52179)
(1.52453 -0.000344619 0 1.41055 0 1.52488)
(1.52709 9.62285e-05 0 1.38565 0 1.52717)
(1.52893 0.000301343 0 1.36138 0 1.52871)
(1.53011 0.000300238 0 1.33801 0 1.52956)
(1.5307 0.000137888 0 1.3157 0 1.52981)
(1.5308 -0.000142247 0 1.29448 0 1.52957)
(1.53047 -0.000501282 0 1.27436 0 1.52892)
(1.52981 -0.000905549 0 1.25531 0 1.52794)
(1.52887 -0.00132753 0 1.23727 0 1.52671)
(1.52772 -0.00174916 0 1.2202 0 1.52527)
(1.52639 -0.00216139 0 1.20404 0 1.5237)
(1.52489 -0.00257153 0 1.18878 0 1.52203)
(1.52318 -0.00299361 0 1.17443 0 1.52029)
(1.52103 -0.00348791 0 1.16115 0 1.51849)
(1.50943 -0.00141052 0 1.49967 0 1.50958)
(1.51301 -0.00204435 0 1.48283 0 1.51349)
(1.51659 -0.00155662 0 1.46338 0 1.51731)
(1.52 -0.00076385 0 1.44205 0 1.52082)
(1.52296 1.14879e-05 0 1.4199 0 1.52379)
(1.5254 0.00063259 0 1.39763 0 1.52614)
(1.52726 0.00105874 0 1.37573 0 1.52788)
(1.52858 0.00130272 0 1.35447 0 1.52905)
(1.52942 0.00139692 0 1.334 0 1.5297)
(1.52982 0.00137667 0 1.3144 0 1.52992)
(1.52985 0.00127507 0 1.29569 0 1.52977)
(1.52957 0.0011207 0 1.27786 0 1.5293)
(1.52903 0.000936309 0 1.2609 0 1.52859)
(1.52828 0.000736038 0 1.24477 0 1.52768)
(1.52735 0.000525473 0 1.22946 0 1.52662)
(1.52622 0.000297433 0 1.21496 0 1.52545)
(1.52483 3.26396e-05 0 1.20132 0 1.52418)
(1.52302 -0.000287403 0 1.18868 0 1.52284)
(1.50937 -0.0011369 0 1.49984 0 1.50953)
(1.51268 -0.00173271 0 1.48408 0 1.5132)
(1.51586 -0.00132173 0 1.46655 0 1.51667)
(1.51886 -0.000550525 0 1.44756 0 1.51989)
(1.52153 0.000276396 0 1.42779 0 1.5227)
(1.5238 0.00100862 0 1.40781 0 1.52503)
(1.52562 0.0015911 0 1.388 0 1.52686)
(1.527 0.00202104 0 1.36864 0 1.52822)
(1.52797 0.00231819 0 1.34986 0 1.52914)
(1.52857 0.00250901 0 1.33177 0 1.52968)
(1.52885 0.00262004 0 1.3144 0 1.52988)
(1.52886 0.0026746 0 1.29776 0 1.52981)
(1.52862 0.00269097 0 1.28185 0 1.5295)
(1.52818 0.00268058 0 1.26667 0 1.529)
(1.52756 0.00264755 0 1.25221 0 1.52834)
(1.52672 0.00258857 0 1.23848 0 1.52757)
(1.52563 0.002495 0 1.22555 0 1.52669)
(1.52412 0.00233639 0 1.21355 0 1.52572)
(1.50928 -0.000908146 0 1.50006 0 1.50944)
(1.51237 -0.00144893 0 1.48523 0 1.51291)
(1.51519 -0.00112212 0 1.46935 0 1.5161)
(1.51783 -0.000417877 0 1.45242 0 1.51903)
(1.52021 0.000393878 0 1.43482 0 1.52165)
(1.52228 0.00116327 0 1.41694 0 1.5239)
(1.52401 0.00182679 0 1.3991 0 1.52577)
(1.52539 0.00236954 0 1.38152 0 1.52724)
(1.52645 0.00280017 0 1.36435 0 1.52836)
(1.5272 0.0031364 0 1.34769 0 1.52916)
(1.52767 0.00339787 0 1.33159 0 1.52966)
(1.52791 0.00360219 0 1.31608 0 1.52991)
(1.52793 0.00376295 0 1.30119 0 1.52995)
(1.52776 0.00388793 0 1.28691 0 1.5298)
(1.52739 0.00397895 0 1.27327 0 1.5295)
(1.52682 0.00403144 0 1.2603 0 1.52908)
(1.52599 0.00403424 0 1.24804 0 1.52855)
(1.5248 0.00399644 0 1.2366 0 1.52793)
(1.50917 -0.000634652 0 1.50036 0 1.50933)
(1.51202 -0.00104087 0 1.48645 0 1.51258)
(1.51453 -0.000772082 0 1.47203 0 1.51549)
(1.51683 -0.00015537 0 1.4569 0 1.51815)
(1.51892 0.000598741 0 1.44125 0 1.52056)
(1.52077 0.00135883 0 1.4253 0 1.52269)
(1.52237 0.00206069 0 1.40929 0 1.52452)
(1.52371 0.00268095 0 1.3934 0 1.52605)
(1.52479 0.00321812 0 1.37778 0 1.52729)
(1.52563 0.00368088 0 1.36251 0 1.52826)
(1.52624 0.00408125 0 1.34767 0 1.52898)
(1.52665 0.00443087 0 1.33329 0 1.52949)
(1.52687 0.00473886 0 1.31942 0 1.5298)
(1.52691 0.00501104 0 1.30606 0 1.52994)
(1.52676 0.00524905 0 1.29326 0 1.52994)
(1.52642 0.00545088 0 1.28104 0 1.52981)
(1.52584 0.00561019 0 1.26947 0 1.52957)
(1.52493 0.00569492 0 1.25862 0 1.52923)
(1.50903 -0.000430509 0 1.50069 0 1.50919)
(1.51166 -0.000708797 0 1.48757 0 1.51224)
(1.51393 -0.000497371 0 1.47429 0 1.51493)
(1.51596 1.40925e-06 0 1.4606 0 1.51737)
(1.51781 0.000636661 0 1.44652 0 1.51959)
(1.51946 0.00130477 0 1.43217 0 1.52159)
(1.52093 0.0019488 0 1.41771 0 1.52336)
(1.52219 0.00254291 0 1.40327 0 1.52489)
(1.52326 0.00307939 0 1.38898 0 1.52619)
(1.52414 0.00355988 0 1.37493 0 1.52726)
(1.52483 0.00398981 0 1.3612 0 1.52813)
(1.52535 0.00437503 0 1.34782 0 1.52881)
(1.5257 0.00472008 0 1.33485 0 1.52932)
(1.5259 0.00502713 0 1.32232 0 1.52968)
(1.52593 0.00529624 0 1.31026 0 1.5299)
(1.52578 0.00552656 0 1.29871 0 1.53)
(1.52542 0.00571619 0 1.28772 0 1.53)
(1.52481 0.00588856 0 1.27734 0 1.5299)
(1.50889 -0.000161818 0 1.50104 0 1.50905)
(1.51133 -0.000201945 0 1.4886 0 1.51191)
(1.51339 4.04242e-05 0 1.4762 0 1.51441)
(1.51523 0.000470663 0 1.46358 0 1.51668)
(1.51688 0.00100715 0 1.45067 0 1.51875)
(1.51837 0.00158778 0 1.43753 0 1.52063)
(1.51972 0.00217454 0 1.42425 0 1.52232)
(1.5209 0.00274732 0 1.41094 0 1.52382)
(1.52194 0.00329705 0 1.3977 0 1.52513)
(1.52282 0.00382099 0 1.38462 0 1.52626)
(1.52355 0.00431917 0 1.37176 0 1.52721)
(1.52413 0.0047924 0 1.35919 0 1.528)
(1.52457 0.00524074 0 1.34695 0 1.52863)
(1.52486 0.0056631 0 1.33508 0 1.52912)
(1.525 0.00605622 0 1.32363 0 1.52949)
(1.52499 0.00641389 0 1.31263 0 1.52974)
(1.5248 0.00672671 0 1.30211 0 1.52988)
(1.52441 0.00696353 0 1.29212 0 1.52993)
(1.50877 9.27037e-07 0 1.50131 0 1.50894)
(1.51109 0.000136786 0 1.48931 0 1.51166)
(1.51306 0.000372151 0 1.47738 0 1.51407)
(1.51479 0.00067954 0 1.46532 0 1.51624)
(1.51636 0.00103531 0 1.45304 0 1.51823)
(1.51778 0.00141906 0 1.44056 0 1.52004)
(1.51906 0.00181637 0 1.42795 0 1.52169)
(1.52021 0.00221767 0 1.41528 0 1.52316)
(1.52123 0.00261667 0 1.40265 0 1.52447)
(1.52211 0.00300917 0 1.39014 0 1.52562)
(1.52287 0.00339207 0 1.3778 0 1.5266)
(1.52349 0.00376281 0 1.36572 0 1.52744)
(1.52399 0.00411906 0 1.35392 0 1.52813)
(1.52437 0.00445887 0 1.34244 0 1.5287)
(1.52461 0.00478064 0 1.33134 0 1.52914)
(1.52472 0.00508546 0 1.32063 0 1.52947)
(1.52469 0.00537455 0 1.31034 0 1.5297)
(1.52448 0.00566977 0 1.30052 0 1.52983)
(1.50879 0.000348746 0 1.50124 0 1.50896)
(1.51114 0.000871051 0 1.48913 0 1.51171)
(1.51314 0.0012619 0 1.47707 0 1.51414)
(1.51491 0.0015846 0 1.46486 0 1.51634)
(1.5165 0.00188979 0 1.45242 0 1.51834)
(1.51794 0.00221017 0 1.43978 0 1.52016)
(1.51923 0.00256356 0 1.42701 0 1.52181)
(1.52038 0.00295677 0 1.4142 0 1.52328)
(1.52139 0.00338939 0 1.40144 0 1.52457)
(1.52225 0.0038568 0 1.3888 0 1.52569)
(1.52298 0.00435207 0 1.37636 0 1.52664)
(1.52357 0.00486696 0 1.36417 0 1.52744)
(1.52404 0.00539244 0 1.35227 0 1.5281)
(1.52438 0.00591873 0 1.3407 0 1.52862)
(1.52461 0.00643496 0 1.32949 0 1.52902)
(1.52474 0.00692819 0 1.31865 0 1.52932)
(1.52478 0.00738297 0 1.30819 0 1.52952)
(1.52473 0.00777128 0 1.29813 0 1.52966)
(1.50904 0.000530825 0 1.50076 0 1.50918)
(1.51172 0.00120037 0 1.48777 0 1.51221)
(1.51402 0.00152182 0 1.47468 0 1.51489)
(1.5161 0.00165337 0 1.46124 0 1.51732)
(1.51798 0.00171228 0 1.44745 0 1.51953)
(1.51969 0.00177313 0 1.43342 0 1.52152)
(1.52122 0.00187662 0 1.41927 0 1.52329)
(1.52256 0.00203896 0 1.40515 0 1.52483)
(1.52372 0.00226138 0 1.39116 0 1.52616)
(1.52469 0.00253693 0 1.37739 0 1.52727)
(1.52549 0.00285454 0 1.36391 0 1.52818)
(1.52613 0.00320125 0 1.35077 0 1.5289)
(1.52661 0.00356385 0 1.33802 0 1.52945)
(1.52694 0.00392961 0 1.32567 0 1.52984)
(1.52714 0.0042883 0 1.31377 0 1.53009)
(1.52719 0.00463343 0 1.30232 0 1.5302)
(1.5271 0.00496721 0 1.29135 0 1.53019)
(1.52685 0.00531407 0 1.28087 0 1.53004)
(1.50921 0.00089672 0 1.5003 0 1.50935)
(1.51222 0.00185241 0 1.48615 0 1.51269)
(1.51491 0.00219882 0 1.47143 0 1.51569)
(1.5174 0.00226578 0 1.456 0 1.51845)
(1.51965 0.00225637 0 1.44005 0 1.52092)
(1.52166 0.00228131 0 1.42383 0 1.5231)
(1.5234 0.00239322 0 1.40757 0 1.52496)
(1.52486 0.00260711 0 1.39144 0 1.52652)
(1.52606 0.00291774 0 1.37558 0 1.52777)
(1.52701 0.00331137 0 1.36008 0 1.52875)
(1.52772 0.00377192 0 1.34503 0 1.52947)
(1.52822 0.00428406 0 1.33046 0 1.52996)
(1.52852 0.00483483 0 1.3164 0 1.53024)
(1.52864 0.00541474 0 1.30287 0 1.53034)
(1.5286 0.00601736 0 1.28988 0 1.53027)
(1.52843 0.0066393 0 1.27742 0 1.53007)
(1.52815 0.00727409 0 1.26549 0 1.52975)
(1.52784 0.00789515 0 1.25404 0 1.52938)
(1.50941 0.00116262 0 1.49988 0 1.50953)
(1.51281 0.00222829 0 1.48438 0 1.51318)
(1.51602 0.002485 0 1.46742 0 1.5166)
(1.51906 0.00244755 0 1.44918 0 1.51974)
(1.52179 0.00236826 0 1.43024 0 1.52251)
(1.52416 0.00236446 0 1.41108 0 1.52483)
(1.52611 0.00248752 0 1.39207 0 1.52669)
(1.52767 0.0027465 0 1.37342 0 1.52812)
(1.52885 0.00312852 0 1.3553 0 1.52913)
(1.52968 0.00361324 0 1.33779 0 1.52979)
(1.53021 0.00417903 0 1.32092 0 1.53013)
(1.53048 0.00480482 0 1.30473 0 1.5302)
(1.53052 0.00547063 0 1.28921 0 1.53003)
(1.53037 0.00615676 0 1.27435 0 1.52967)
(1.53006 0.0068435 0 1.26015 0 1.52915)
(1.52961 0.0075094 0 1.2466 0 1.52848)
(1.52902 0.00813775 0 1.23368 0 1.52769)
(1.52823 0.00874059 0 1.22143 0 1.52675)
(1.50955 0.00173021 0 1.49949 0 1.50966)
(1.5135 0.00300507 0 1.48184 0 1.51379)
(1.51753 0.00326814 0 1.46115 0 1.51784)
(1.52136 0.00333989 0 1.43844 0 1.52153)
(1.52468 0.00349689 0 1.41491 0 1.52459)
(1.52739 0.00381781 0 1.39135 0 1.52695)
(1.52947 0.00432212 0 1.36822 0 1.52864)
(1.53096 0.00499145 0 1.34582 0 1.52971)
(1.53191 0.00579064 0 1.3243 0 1.53024)
(1.5324 0.00668556 0 1.30371 0 1.5303)
(1.53249 0.00764772 0 1.28409 0 1.52998)
(1.53224 0.00865378 0 1.26543 0 1.52932)
(1.53171 0.00968529 0 1.24771 0 1.52839)
(1.53094 0.0107295 0 1.23091 0 1.52724)
(1.52995 0.0117804 0 1.21499 0 1.5259)
(1.52879 0.0128436 0 1.19993 0 1.5244)
(1.52747 0.013934 0 1.18568 0 1.52278)
(1.52619 0.0150576 0 1.17216 0 1.52115)
(1.50959 0.00209948 0 1.49945 0 1.50966)
(1.51416 0.00347826 0 1.47927 0 1.51427)
(1.51924 0.00389481 0 1.45342 0 1.51903)
(1.52399 0.00431858 0 1.42474 0 1.52314)
(1.52783 0.00492885 0 1.3955 0 1.52618)
(1.53063 0.00573274 0 1.36682 0 1.52811)
(1.53248 0.00673529 0 1.33924 0 1.52906)
(1.53347 0.00791297 0 1.31301 0 1.52918)
(1.53375 0.00922199 0 1.28818 0 1.52861)
(1.53345 0.0106228 0 1.26476 0 1.52749)
(1.53268 0.012085 0 1.2427 0 1.52593)
(1.53155 0.0135842 0 1.22192 0 1.52405)
(1.53012 0.0151013 0 1.20236 0 1.5219)
(1.52849 0.0166206 0 1.18392 0 1.51957)
(1.52671 0.0181265 0 1.16654 0 1.51712)
(1.52484 0.0195929 0 1.15014 0 1.51458)
(1.52298 0.0209766 0 1.13463 0 1.51203)
(1.52094 0.022226 0 1.12004 0 1.5094)
(1.50975 0.00300011 0 1.49898 0 1.5098)
(1.51563 0.00468982 0 1.47377 0 1.51544)
(1.52245 0.00581781 0 1.43878 0 1.52125)
(1.52836 0.00740863 0 1.40034 0 1.52565)
(1.53257 0.00933157 0 1.36202 0 1.52819)
(1.53513 0.0114117 0 1.32521 0 1.52906)
(1.53628 0.0136062 0 1.29046 0 1.52858)
(1.53626 0.0158808 0 1.25797 0 1.52701)
(1.53533 0.0181835 0 1.22773 0 1.52462)
(1.53369 0.0204782 0 1.19964 0 1.52162)
(1.53153 0.0227451 0 1.17355 0 1.51817)
(1.52897 0.02497 0 1.14932 0 1.51441)
(1.52613 0.027141 0 1.12678 0 1.51044)
(1.52308 0.0292481 0 1.10581 0 1.50634)
(1.51988 0.0312806 0 1.08628 0 1.50215)
(1.51655 0.0332372 0 1.06808 0 1.49791)
(1.51302 0.0351328 0 1.05115 0 1.49361)
(1.50957 0.0370554 0 1.03541 0 1.4894)
(1.50956 0.00335006 0 1.4994 0 1.50954)
(1.51697 0.00626927 0 1.46775 0 1.51609)
(1.5259 0.00944579 0 1.41958 0 1.52246)
(1.53255 0.0131742 0 1.3689 0 1.5258)
(1.53614 0.0169987 0 1.32072 0 1.52608)
(1.53715 0.0207281 0 1.27619 0 1.52399)
(1.53622 0.0244135 0 1.23537 0 1.52022)
(1.53389 0.0280881 0 1.19806 0 1.51528)
(1.53056 0.0317027 0 1.16397 0 1.50957)
(1.52655 0.035222 0 1.13279 0 1.50337)
(1.5221 0.0386325 0 1.10419 0 1.49691)
(1.51737 0.0419265 0 1.07792 0 1.49031)
(1.5125 0.0450999 0 1.05372 0 1.4837)
(1.50759 0.0481549 0 1.03139 0 1.47715)
(1.50271 0.0510967 0 1.01073 0 1.47073)
(1.49793 0.0539344 0 0.991581 0 1.46446)
(1.4935 0.0566589 0 0.973745 0 1.45849)
(1.4893 0.0591053 0 0.957206 0 1.4528)
(1.51072 0.00497957 0 1.49653 0 1.51053)
(1.52208 0.0113559 0 1.44804 0 1.51932)
(1.53421 0.0199485 0 1.37292 0 1.52522)
(1.541 0.0285963 0 1.29828 0 1.5251)
(1.54248 0.0362815 0 1.23081 0 1.52028)
(1.54006 0.0429051 0 1.17107 0 1.51237)
(1.53511 0.048805 0 1.11841 0 1.5026)
(1.52866 0.0542642 0 1.07197 0 1.49185)
(1.52133 0.059322 0 1.03094 0 1.48068)
(1.51355 0.0640262 0 0.994523 0 1.46946)
(1.5056 0.0684272 0 0.962026 0 1.45839)
(1.49768 0.0725582 0 0.932887 0 1.44763)
(1.48991 0.07644 0 0.906631 0 1.43722)
(1.48238 0.0800959 0 0.882877 0 1.42725)
(1.47509 0.0835302 0 0.861283 0 1.41769)
(1.46813 0.0867562 0 0.841611 0 1.40861)
(1.46107 0.0897217 0 0.823557 0 1.39972)
(1.45417 0.0925104 0 0.807313 0 1.39132)
(1.50986 0.00579422 0 1.49843 0 1.50915)
(1.52695 0.0254851 0 1.42426 0 1.51751)
(1.54206 0.0456348 0 1.31346 0 1.51586)
(1.5457 0.0606036 0 1.21733 0 1.5043)
(1.54107 0.0722152 0 1.13749 0 1.48741)
(1.53137 0.0816275 0 1.07055 0 1.46798)
(1.51926 0.0898535 0 1.01351 0 1.44779)
(1.50658 0.0974333 0 0.964481 0 1.42813)
(1.49384 0.10435 0 0.922037 0 1.40934)
(1.48142 0.110669 0 0.884963 0 1.3916)
(1.46952 0.116471 0 0.852321 0 1.37493)
(1.45828 0.121822 0 0.823381 0 1.35936)
(1.44768 0.12676 0 0.797537 0 1.34479)
(1.43782 0.131341 0 0.774358 0 1.33126)
(1.42859 0.135608 0 0.753384 0 1.31857)
(1.42002 0.139568 0 0.734483 0 1.30683)
(1.41227 0.14342 0 0.717046 0 1.29578)
(1.40595 0.14673 0 0.701863 0 1.28625)
(1.5189 0.0284588 0 1.47294 0 1.51483)
(1.5634 0.112018 0 1.26338 0 1.51871)
(1.58323 0.161046 0 1.03771 0 1.48715)
(1.57568 0.181986 0 0.887041 0 1.44364)
(1.55684 0.192599 0 0.784368 0 1.39973)
(1.53315 0.198893 0 0.711449 0 1.35826)
(1.51045 0.204129 0 0.657279 0 1.32169)
(1.49094 0.209213 0 0.615889 0 1.29073)
(1.47359 0.214011 0 0.582989 0 1.26373)
(1.45814 0.218474 0 0.556121 0 1.23992)
(1.44428 0.222576 0 0.533754 0 1.21869)
(1.43212 0.226377 0 0.514852 0 1.19984)
(1.42116 0.22987 0 0.498616 0 1.18277)
(1.41173 0.233109 0 0.484589 0 1.16761)
(1.40307 0.236111 0 0.472283 0 1.15365)
(1.39586 0.238876 0 0.461488 0 1.14133)
(1.38885 0.241509 0 0.451902 0 1.12969)
(1.38199 0.24372 0 0.443142 0 1.11888)
(1.59274 0.291964 0 1.39581 0 1.52093)
(1.91623 0.578694 0 0.96806 0 1.53309)
(2.06903 0.585624 0 0.732301 0 1.48899)
(2.10353 0.552948 0 0.628158 0 1.43529)
(2.09254 0.525579 0 0.573896 0 1.3857)
(2.06466 0.505435 0 0.540721 0 1.34255)
(2.03079 0.489936 0 0.517656 0 1.30525)
(1.99588 0.477394 0 0.50007 0 1.27291)
(1.96226 0.466868 0 0.48578 0 1.2446)
(1.93076 0.457768 0 0.47372 0 1.21956)
(1.90158 0.449745 0 0.463303 0 1.19721)
(1.87463 0.442575 0 0.454158 0 1.17712)
(1.84986 0.436122 0 0.446046 0 1.15898)
(1.82694 0.430265 0 0.438777 0 1.14248)
(1.80599 0.42492 0 0.432225 0 1.12749)
(1.78636 0.420051 0 0.426298 0 1.11367)
(1.76864 0.415486 0 0.420845 0 1.10115)
(1.75154 0.411254 0 0.415973 0 1.08934)
(0.0110644 0.00333022 0 0.0280415 0 0.0273279)
(0.0284547 0.00105758 0 0.0526825 0 0.0664397)
(0.050105 -0.000622745 0 0.0659361 0 0.0954573)
(0.0644172 -0.00477616 0 0.0739678 0 0.111048)
(0.077147 -0.00765413 0 0.078058 0 0.122554)
(0.0881981 -0.00967217 0 0.0788055 0 0.130566)
(0.0980849 -0.0111205 0 0.0788497 0 0.136765)
(0.106682 -0.0123961 0 0.0781996 0 0.141361)
(0.114418 -0.0135457 0 0.0773919 0 0.145003)
(0.121352 -0.0146746 0 0.0763026 0 0.147799)
(0.12772 -0.0157685 0 0.075064 0 0.150015)
(0.133601 -0.0168197 0 0.0736232 0 0.15173)
(0.13912 -0.0177837 0 0.0720452 0 0.15308)
(0.144319 -0.0186305 0 0.0703459 0 0.154126)
(0.149241 -0.0193342 0 0.0685811 0 0.154934)
(0.153888 -0.0198873 0 0.0667845 0 0.155538)
(0.158258 -0.0202929 0 0.0649938 0 0.155962)
(0.162336 -0.0205655 0 0.0632299 0 0.156214)
(0.16609 -0.0207261 0 0.0615092 0 0.15629)
(0.169521 -0.0207913 0 0.0598231 0 0.15617)
(0.172528 -0.0207995 0 0.058228 0 0.1559)
(0.175775 -0.0206922 0 0.0562145 0 0.155016)
(0.177423 -0.0206669 0 0.0550282 0 0.154375)
(0.179026 -0.0206186 0 0.0536283 0 0.153407)
(0.180408 -0.0205704 0 0.0520385 0 0.151932)
(0.181278 -0.0205436 0 0.0504955 0 0.150147)
(0.181669 -0.0205114 0 0.0489624 0 0.148069)
(0.181615 -0.0204516 0 0.0474002 0 0.145702)
(0.181127 -0.0203164 0 0.0457776 0 0.143046)
(0.179156 -0.0195524 0 0.0439063 0 0.1396)
(0.175563 -0.0183913 0 0.0417512 0 0.135176)
(0.170121 -0.0168942 0 0.0392912 0 0.129586)
(0.162492 -0.0150694 0 0.0365218 0 0.122613)
(0.152161 -0.0129613 0 0.0334298 0 0.11395)
(0.138711 -0.0107235 0 0.0299897 0 0.103295)
(0.121292 -0.00837148 0 0.0260761 0 0.0900469)
(0.10451 -0.00575082 0 0.0221326 0 0.0772924)
(0.092685 -0.00280075 0 0.0189711 0 0.0681671)
(0.0877652 0.000165483 0 0.0175878 0 0.0646271)
(0.0918276 0.00191144 0 0.0184257 0 0.0681123)
(0.107729 0.00286636 0 0.0212631 0 0.0799964)
(0.126227 0.00402809 0 0.0241975 0 0.0929294)
(0.13452 0.00266747 0 0.0256832 0 0.0989292)
(0.136766 0.00148732 0 0.0261869 0 0.100751)
(0.137624 0.00135219 0 0.0263769 0 0.101496)
(0.139417 0.00176229 0 0.0266743 0 0.102783)
(0.1419 0.00230769 0 0.0271176 0 0.104564)
(0.144309 0.0028436 0 0.0276223 0 0.106352)
(0.146945 0.00353703 0 0.0282284 0 0.108354)
(0.150002 0.00436194 0 0.0289783 0 0.110715)
(0.153586 0.00525573 0 0.0299004 0 0.11351)
(0.157908 0.00620529 0 0.0310139 0 0.116867)
(0.162848 0.0071624 0 0.0323021 0 0.120694)
(0.168045 0.0081217 0 0.033702 0 0.124723)
(0.173578 0.00911247 0 0.0352104 0 0.128978)
(0.1793 0.0101669 0 0.036794 0 0.133324)
(0.185319 0.01131 0 0.0384664 0 0.137817)
(0.191725 0.012562 0 0.0402385 0 0.142514)
(0.198637 0.0139398 0 0.0421301 0 0.147495)
(0.206149 0.0154602 0 0.0441611 0 0.152833)
(0.2144 0.0171383 0 0.0463624 0 0.158637)
(0.223534 0.0189883 0 0.0487644 0 0.165021)
(0.233678 0.0210225 0 0.0513979 0 0.172089)
(0.244915 0.0232528 0 0.0542862 0 0.179911)
(0.257317 0.0256911 0 0.057455 0 0.188552)
(0.270914 0.0283538 0 0.060924 0 0.198041)
(0.285599 0.0312223 0 0.0646685 0 0.208313)
(0.301341 0.0342931 0 0.0686892 0 0.219359)
(0.318098 0.0375587 0 0.0729853 0 0.231164)
(0.335796 0.041011 0 0.0775511 0 0.243693)
(0.354363 0.0446387 0 0.0823832 0 0.256911)
(0.373697 0.04843 0 0.0874741 0 0.270767)
(0.393703 0.0523707 0 0.0928213 0 0.285217)
(0.41427 0.0564473 0 0.0984201 0 0.300205)
(0.435295 0.0606446 0 0.104273 0 0.315687)
(0.456668 0.0649491 0 0.110383 0 0.331612)
(0.47828 0.0693446 0 0.11676 0 0.347937)
(0.500014 0.073818 0 0.123418 0 0.364611)
(0.52175 0.0783561 0 0.13038 0 0.381586)
(0.543364 0.0829469 0 0.137674 0 0.398813)
(0.56472 0.0875791 0 0.145338 0 0.416239)
(0.585679 0.0922399 0 0.153424 0 0.433808)
(0.60608 0.0969172 0 0.16199 0 0.451453)
(0.625759 0.101597 0 0.171114 0 0.469106)
(0.644521 0.106264 0 0.180881 0 0.486675)
(0.662177 0.110892 0 0.191397 0 0.504075)
(0.678512 0.115455 0 0.202772 0 0.52119)
(0.693334 0.119927 0 0.215138 0 0.537924)
(0.706454 0.124299 0 0.228629 0 0.554168)
(0.717771 0.128532 0 0.243432 0 0.569896)
(0.727245 0.132524 0 0.259763 0 0.585108)
(0.734947 0.136165 0 0.277855 0 0.599864)
(0.741051 0.139372 0 0.298014 0 0.614313)
(0.745447 0.142011 0 0.320354 0 0.628333)
(0.747971 0.143826 0 0.344953 0 0.641757)
(0.748329 0.144568 0 0.371783 0 0.654289)
(0.746207 0.143905 0 0.400713 0 0.665598)
(0.741217 0.141448 0 0.431473 0 0.675268)
(0.732895 0.136601 0 0.463829 0 0.682841)
(0.721647 0.128348 0 0.493841 0 0.686832)
(0.709756 0.118134 0 0.517145 0 0.687925)
(0.695674 0.107335 0 0.536477 0 0.687012)
(0.671556 0.0914113 0 0.55716 0 0.680645)
(0.646136 0.0719986 0 0.565879 0 0.669435)
(0.613528 0.0433305 0 0.559974 0 0.651452)
(0.58666 0.00799451 0 0.537743 0 0.632632)
(0.566257 -0.0212067 0 0.506032 0 0.613488)
(0.550653 -0.0437689 0 0.466188 0 0.593579)
(0.538125 -0.0590033 0 0.421475 0 0.572756)
(0.527208 -0.067202 0 0.375274 0 0.551134)
(0.516663 -0.0693902 0 0.3308 0 0.529149)
(0.506196 -0.0672942 0 0.291042 0 0.508022)
(0.495858 -0.0626647 0 0.257806 0 0.488988)
(0.48626 -0.0562108 0 0.231342 0 0.472916)
(0.478178 -0.0491651 0 0.21202 0 0.460717)
(0.471711 -0.0433719 0 0.199241 0 0.452524)
(0.467062 -0.0393827 0 0.191953 0 0.448071)
(0.46393 -0.0373934 0 0.189004 0 0.446487)
(0.462082 -0.0368241 0 0.188725 0 0.446464)
(0.46083 -0.0372399 0 0.190588 0 0.447731)
(0.460318 -0.0388591 0 0.194038 0 0.449788)
(0.460341 -0.0414889 0 0.198399 0 0.452256)
(0.460771 -0.0449678 0 0.203202 0 0.454825)
(0.461551 -0.0491282 0 0.208086 0 0.4573)
(0.462655 -0.0538176 0 0.212774 0 0.459518)
(0.464108 -0.0589287 0 0.217076 0 0.461376)
(0.466019 -0.064719 0 0.221028 0 0.46296)
(0.46895 -0.0716056 0 0.22458 0 0.464821)
(0.473059 -0.0787532 0 0.227041 0 0.467147)
(0.477805 -0.0850984 0 0.228193 0 0.469285)
(0.481821 -0.0892012 0 0.225702 0 0.469891)
(0.484514 -0.0913631 0 0.222052 0 0.469415)
(0.486512 -0.092998 0 0.218334 0 0.468231)
(0.487808 -0.094202 0 0.214894 0 0.466593)
(0.488644 -0.0951442 0 0.211566 0 0.46461)
(0.489152 -0.0958848 0 0.208282 0 0.46237)
(0.489421 -0.0964587 0 0.205023 0 0.459942)
(0.489506 -0.0968924 0 0.201791 0 0.457381)
(0.489453 -0.0972091 0 0.198602 0 0.454734)
(0.489292 -0.0974306 0 0.195473 0 0.452037)
(0.489052 -0.0975769 0 0.192423 0 0.449323)
(0.488754 -0.0976655 0 0.189466 0 0.446618)
(0.488417 -0.097711 0 0.186614 0 0.443942)
(0.488058 -0.0977256 0 0.183876 0 0.441314)
(0.487691 -0.0977194 0 0.181255 0 0.438746)
(0.487323 -0.0977007 0 0.178753 0 0.436246)
(0.486964 -0.0976757 0 0.176369 0 0.43382)
(0.486616 -0.0976492 0 0.174101 0 0.43147)
(0.486284 -0.0976245 0 0.171945 0 0.429198)
(0.485968 -0.0976039 0 0.169896 0 0.427001)
(0.48567 -0.0975887 0 0.167948 0 0.424878)
(0.485388 -0.0975796 0 0.166096 0 0.422826)
(0.48512 -0.0975768 0 0.164333 0 0.42084)
(0.484864 -0.09758 0 0.162652 0 0.418914)
(0.484613 -0.0975881 0 0.161048 0 0.417042)
(0.484362 -0.0976001 0 0.159514 0 0.415215)
(0.484106 -0.0976154 0 0.158045 0 0.41343)
(0.483845 -0.097634 0 0.156636 0 0.411681)
(0.48358 -0.0976566 0 0.155286 0 0.409971)
(0.483301 -0.0976816 0 0.153988 0 0.408287)
(0.483003 -0.0977079 0 0.152738 0 0.406624)
(0.482693 -0.0977376 0 0.151537 0 0.404988)
(0.482386 -0.0977741 0 0.150387 0 0.403389)
(0.482091 -0.09782 0 0.149291 0 0.401837)