/*--------------------------------*- C++ -*----------------------------------*\
| =========                 |                                                 |
| \\      /  F ield         | OpenFOAM: The Open Source CFD Toolbox           |
|  \\    /   O peration     | Version:  v1906                                 |
|   \\  /    A nd           | Web:      www.OpenFOAM.com                      |
|    \\/     M anipulation  |                                                 |
\*---------------------------------------------------------------------------*/
FoamFile
{
    version     2.0;
    format      ascii;
    class       volVectorField;
    location    "700";
    object      U;
}
// * * * * * * * * * * * * * * * * * * * * * * * * * * * * * * * * * * * * * //

dimensions      [0 1 -1 0 0 0 0];


internalField   nonuniform List<vector> 
12225
(
(9.79727 -0.108751 0)
(9.50672 -0.35676 0)
(9.26444 -0.488276 0)
(9.06608 -0.540829 0)
(8.9032 -0.559464 0)
(8.76217 -0.565145 0)
(8.63612 -0.565588 0)
(8.52294 -0.563571 0)
(8.42129 -0.560176 0)
(8.32974 -0.555976 0)
(8.24726 -0.551068 0)
(8.17173 -0.545461 0)
(8.10285 -0.539629 0)
(8.04034 -0.53383 0)
(7.98478 -0.528261 0)
(7.93723 -0.524266 0)
(7.89875 -0.516667 0)
(7.87609 -0.536752 0)
(10.0492 0.15044 0)
(10.0911 0.259741 0)
(10.0684 0.319237 0)
(10.0256 0.363313 0)
(9.9828 0.392922 0)
(9.94004 0.411563 0)
(9.89726 0.423508 0)
(9.85577 0.431307 0)
(9.81619 0.436152 0)
(9.77828 0.438903 0)
(9.74226 0.440157 0)
(9.70818 0.440362 0)
(9.67615 0.439578 0)
(9.6459 0.438071 0)
(9.61758 0.435362 0)
(9.59018 0.432707 0)
(9.56632 0.425231 0)
(9.54083 0.421495 0)
(10.0166 0.00775582 0)
(10.0499 -0.0105891 0)
(10.0415 -0.0528839 0)
(10.0183 -0.0930723 0)
(9.99678 -0.12749 0)
(9.97714 -0.155872 0)
(9.95834 -0.1782 0)
(9.94065 -0.195594 0)
(9.92409 -0.209393 0)
(9.90846 -0.220597 0)
(9.89358 -0.229722 0)
(9.87968 -0.237234 0)
(9.86663 -0.24352 0)
(9.85482 -0.249224 0)
(9.84366 -0.254442 0)
(9.83389 -0.26054 0)
(9.82493 -0.266572 0)
(9.80904 -0.281375 0)
(10.0096 0.0582888 0)
(10.039 0.0976228 0)
(10.0507 0.114999 0)
(10.0512 0.134062 0)
(10.0493 0.15293 0)
(10.0454 0.169351 0)
(10.0396 0.183333 0)
(10.0329 0.195108 0)
(10.0259 0.204862 0)
(10.0188 0.212895 0)
(10.0118 0.219565 0)
(10.0051 0.225118 0)
(9.99885 0.229644 0)
(9.9932 0.233144 0)
(9.98806 0.235646 0)
(9.98359 0.236821 0)
(9.97961 0.236714 0)
(9.97732 0.2339 0)
(10.0094 0.019921 0)
(10.0407 0.0291076 0)
(10.0563 0.0219636 0)
(10.0606 0.0109039 0)
(10.0619 -0.00230634 0)
(10.0616 -0.0167388 0)
(10.06 -0.0307277 0)
(10.0579 -0.0435094 0)
(10.0558 -0.0550618 0)
(10.0536 -0.0654989 0)
(10.0514 -0.0749234 0)
(10.0493 -0.0834914 0)
(10.0475 -0.0914289 0)
(10.0459 -0.0990433 0)
(10.0446 -0.106552 0)
(10.0431 -0.114587 0)
(10.0421 -0.122767 0)
(10.0353 -0.133741 0)
(10.0058 0.0332788 0)
(10.0287 0.0619831 0)
(10.0451 0.0730671 0)
(10.0549 0.0811256 0)
(10.0626 0.0886559 0)
(10.0685 0.0956819 0)
(10.0728 0.102532 0)
(10.0759 0.109156 0)
(10.0784 0.115324 0)
(10.0804 0.120927 0)
(10.0821 0.125966 0)
(10.0836 0.130443 0)
(10.0851 0.13432 0)
(10.0867 0.137494 0)
(10.0883 0.139938 0)
(10.0898 0.141398 0)
(10.0911 0.142021 0)
(10.0942 0.14182 0)
(10.0046 0.0159918 0)
(10.0242 0.0297308 0)
(10.0401 0.0319925 0)
(10.0498 0.0301374 0)
(10.0571 0.0258184 0)
(10.0625 0.0196353 0)
(10.0664 0.0126052 0)
(10.0696 0.00535021 0)
(10.0723 -0.00188981 0)
(10.0748 -0.00899206 0)
(10.0771 -0.0158855 0)
(10.0793 -0.0225801 0)
(10.0815 -0.0291501 0)
(10.0836 -0.0357479 0)
(10.0857 -0.0424426 0)
(10.0872 -0.0495493 0)
(10.0885 -0.0566645 0)
(10.0861 -0.0652222 0)
(10.0032 0.0203162 0)
(10.0185 0.0433175 0)
(10.0328 0.0542315 0)
(10.0436 0.0606802 0)
(10.053 0.0652169 0)
(10.061 0.0687474 0)
(10.0679 0.0719887 0)
(10.0738 0.0751858 0)
(10.0792 0.0783068 0)
(10.0842 0.08129 0)
(10.0888 0.0840899 0)
(10.0931 0.0866488 0)
(10.0973 0.0889005 0)
(10.1013 0.0907471 0)
(10.1052 0.0921499 0)
(10.1089 0.0930062 0)
(10.1122 0.0933498 0)
(10.1169 0.0938057 0)
(10.0019 0.0115232 0)
(10.0136 0.024739 0)
(10.0264 0.0300212 0)
(10.0365 0.0315057 0)
(10.0452 0.0306148 0)
(10.0524 0.0280251 0)
(10.0584 0.0244441 0)
(10.0637 0.0202974 0)
(10.0684 0.0157953 0)
(10.0727 0.0110671 0)
(10.0767 0.00619551 0)
(10.0806 0.00120624 0)
(10.0842 -0.0039098 0)
(10.0876 -0.00921141 0)
(10.0908 -0.0146983 0)
(10.0934 -0.0204881 0)
(10.0955 -0.0263068 0)
(10.0952 -0.0330526 0)
(10.0017 0.0127136 0)
(10.0117 0.0306646 0)
(10.0231 0.0409086 0)
(10.033 0.0471185 0)
(10.0422 0.05103 0)
(10.0505 0.053611 0)
(10.058 0.05558 0)
(10.0649 0.0572895 0)
(10.0712 0.0588636 0)
(10.0771 0.0603393 0)
(10.0827 0.0617164 0)
(10.088 0.0629652 0)
(10.0931 0.0640476 0)
(10.0979 0.0649085 0)
(10.1025 0.0655341 0)
(10.1069 0.0659112 0)
(10.111 0.0660555 0)
(10.1161 0.0666777 0)
(10.0007 0.00801315 0)
(10.0076 0.0191187 0)
(10.0172 0.0248985 0)
(10.0261 0.0275743 0)
(10.0346 0.0281114 0)
(10.0421 0.0271444 0)
(10.0489 0.0252105 0)
(10.0549 0.0226349 0)
(10.0605 0.0196015 0)
(10.0656 0.0162245 0)
(10.0704 0.012576 0)
(10.0749 0.00868978 0)
(10.0791 0.0045813 0)
(10.083 0.000240354 0)
(10.0865 -0.00431178 0)
(10.0896 -0.00911991 0)
(10.0921 -0.0140105 0)
(10.0932 -0.0196165 0)
(10.0008 0.00816232 0)
(10.0074 0.0214307 0)
(10.0163 0.0299646 0)
(10.0248 0.0354835 0)
(10.0332 0.0389226 0)
(10.0411 0.0410353 0)
(10.0485 0.0423847 0)
(10.0553 0.043303 0)
(10.0618 0.0439672 0)
(10.0678 0.0444682 0)
(10.0736 0.0448492 0)
(10.079 0.0451201 0)
(10.0842 0.0452813 0)
(10.0891 0.0453192 0)
(10.0936 0.045252 0)
(10.098 0.0451039 0)
(10.1021 0.0449048 0)
(10.1066 0.0452917 0)
(10.0002 0.0057102 0)
(10.0046 0.0145429 0)
(10.0119 0.019739 0)
(10.0195 0.0226002 0)
(10.0272 0.0236475 0)
(10.0345 0.0234143 0)
(10.0413 0.0222956 0)
(10.0476 0.0205495 0)
(10.0534 0.0183369 0)
(10.0589 0.0157586 0)
(10.064 0.0128784 0)
(10.0687 0.00973312 0)
(10.0732 0.00634566 0)
(10.0773 0.00273002 0)
(10.081 -0.00109913 0)
(10.0843 -0.00514363 0)
(10.0872 -0.00934198 0)
(10.0894 -0.0142053 0)
(10.0005 0.00535901 0)
(10.005 0.0150857 0)
(10.0118 0.022076 0)
(10.019 0.0270775 0)
(10.0265 0.0304703 0)
(10.0339 0.0327681 0)
(10.0409 0.0343631 0)
(10.0476 0.0355233 0)
(10.054 0.03642 0)
(10.0601 0.037157 0)
(10.0658 0.0377961 0)
(10.0712 0.03837 0)
(10.0764 0.038902 0)
(10.0813 0.0394046 0)
(10.0858 0.0399105 0)
(10.0902 0.0404675 0)
(10.0942 0.0410709 0)
(10.0981 0.0423332 0)
(10.0001 0.00337697 0)
(10.0028 0.00889933 0)
(10.008 0.0122539 0)
(10.0142 0.0140573 0)
(10.0208 0.0145345 0)
(10.0274 0.014009 0)
(10.0339 0.0127257 0)
(10.0401 0.010856 0)
(10.0459 0.00851781 0)
(10.0515 0.00578931 0)
(10.0567 0.00272191 0)
(10.0616 -0.00064863 0)
(10.0661 -0.00430111 0)
(10.0704 -0.00821366 0)
(10.0743 -0.0123821 0)
(10.0779 -0.0168023 0)
(10.0811 -0.0214113 0)
(10.0842 -0.0266581 0)
(10.0002 0.00299667 0)
(10.0031 0.00884452 0)
(10.008 0.0135918 0)
(10.0138 0.0174147 0)
(10.02 0.0203993 0)
(10.0263 0.0227652 0)
(10.0326 0.0247143 0)
(10.0387 0.0264035 0)
(10.0445 0.0279508 0)
(10.0501 0.0294383 0)
(10.0553 0.0309227 0)
(10.0602 0.0324413 0)
(10.0648 0.0340237 0)
(10.0691 0.0356886 0)
(10.073 0.0374593 0)
(10.0766 0.039371 0)
(10.0799 0.0413417 0)
(10.0826 0.043906 0)
(10.0001 0.000975282 0)
(10.0022 0.00239293 0)
(10.0064 0.00281552 0)
(10.0115 0.0024352 0)
(10.0174 0.00131918 0)
(10.0236 -0.000422812 0)
(10.0299 -0.00269551 0)
(10.0361 -0.00543103 0)
(10.0422 -0.00857908 0)
(10.048 -0.0121026 0)
(10.0537 -0.0159747 0)
(10.0591 -0.0201714 0)
(10.0642 -0.0246742 0)
(10.0691 -0.0294539 0)
(10.0738 -0.0344887 0)
(10.0782 -0.0397542 0)
(10.0824 -0.0451256 0)
(10.0866 -0.0509794 0)
(10 0.000933698 0)
(10.0016 0.00296945 0)
(10.0049 0.00507933 0)
(10.0092 0.00725883 0)
(10.0139 0.00948616 0)
(10.0188 0.011785 0)
(10.0237 0.0141879 0)
(10.0284 0.0167245 0)
(10.0328 0.0194211 0)
(10.0369 0.0222975 0)
(10.0407 0.0253662 0)
(10.044 0.0286339 0)
(10.047 0.0320996 0)
(10.0496 0.0357564 0)
(10.0518 0.039578 0)
(10.0537 0.0435727 0)
(10.0553 0.0475698 0)
(10.0564 0.0520161 0)
(10.0003 -0.00194787 0)
(10.0031 -0.00598674 0)
(10.008 -0.0099933 0)
(10.0139 -0.0139471 0)
(10.0205 -0.0179098 0)
(10.0277 -0.0219568 0)
(10.035 -0.0261636 0)
(10.0425 -0.0305925 0)
(10.05 -0.0352868 0)
(10.0575 -0.0402725 0)
(10.0649 -0.0455617 0)
(10.0721 -0.0511551 0)
(10.0791 -0.0570455 0)
(10.086 -0.0632173 0)
(10.0926 -0.0696468 0)
(10.099 -0.0763105 0)
(10.1049 -0.0831124 0)
(10.1107 -0.0902202 0)
(9.99985 -0.00213752 0)
(10.0009 -0.00546163 0)
(10.0038 -0.00739933 0)
(10.0075 -0.00823991 0)
(10.0115 -0.00818114 0)
(10.0155 -0.0073776 0)
(10.0192 -0.00596919 0)
(10.0226 -0.00406655 0)
(10.0254 -0.00175241 0)
(10.0278 0.000911883 0)
(10.0297 0.00388392 0)
(10.0311 0.00713777 0)
(10.0321 0.0106679 0)
(10.0326 0.0144804 0)
(10.0328 0.0186099 0)
(10.0326 0.0230909 0)
(10.0325 0.0279501 0)
(10.0318 0.0334498 0)
(10.0006 -0.00473291 0)
(10.0049 -0.013753 0)
(10.0115 -0.0210556 0)
(10.0187 -0.0269543 0)
(10.0263 -0.03186 0)
(10.034 -0.0361297 0)
(10.0418 -0.0400673 0)
(10.0494 -0.0438823 0)
(10.0568 -0.0476955 0)
(10.0641 -0.051569 0)
(10.0712 -0.0555312 0)
(10.0781 -0.0595941 0)
(10.0849 -0.0637685 0)
(10.0917 -0.0680734 0)
(10.0983 -0.0725583 0)
(10.1051 -0.0772969 0)
(10.1117 -0.0823972 0)
(10.1187 -0.0882154 0)
(9.99993 -0.00476914 0)
(10.0025 -0.0120267 0)
(10.0076 -0.0161319 0)
(10.013 -0.0180027 0)
(10.0181 -0.018184 0)
(10.0226 -0.0170291 0)
(10.0264 -0.01488 0)
(10.0296 -0.0120217 0)
(10.0321 -0.00866453 0)
(10.0341 -0.00496843 0)
(10.0357 -0.0010573 0)
(10.0367 0.00297812 0)
(10.0373 0.00708055 0)
(10.0373 0.0112263 0)
(10.0369 0.0154456 0)
(10.0356 0.0198274 0)
(10.034 0.0245517 0)
(10.0307 0.0301699 0)
(10.0012 -0.00959404 0)
(10.0087 -0.0255007 0)
(10.0184 -0.0363082 0)
(10.0276 -0.0441011 0)
(10.0366 -0.0502865 0)
(10.0453 -0.0556183 0)
(10.0534 -0.0606063 0)
(10.0611 -0.0655208 0)
(10.0682 -0.0704369 0)
(10.075 -0.0753429 0)
(10.0814 -0.0802013 0)
(10.0875 -0.0849686 0)
(10.0934 -0.0896029 0)
(10.0992 -0.0940762 0)
(10.1051 -0.0983939 0)
(10.1115 -0.102624 0)
(10.1182 -0.106964 0)
(10.1272 -0.112086 0)
(10.0009 -0.00811693 0)
(10.0083 -0.0182946 0)
(10.0178 -0.0220934 0)
(10.0252 -0.0221741 0)
(10.0309 -0.0197344 0)
(10.0352 -0.015345 0)
(10.0383 -0.00969464 0)
(10.0406 -0.00337 0)
(10.0423 0.00325627 0)
(10.0436 0.00993658 0)
(10.0446 0.0164915 0)
(10.0452 0.0227965 0)
(10.0455 0.0287667 0)
(10.0455 0.0343418 0)
(10.045 0.0394869 0)
(10.0434 0.044216 0)
(10.0409 0.0486875 0)
(10.0345 0.0537008 0)
(10.0027 -0.0199783 0)
(10.0162 -0.044934 0)
(10.0301 -0.0585348 0)
(10.041 -0.068424 0)
(10.0507 -0.0774189 0)
(10.0592 -0.0860531 0)
(10.0665 -0.0945881 0)
(10.0727 -0.103055 0)
(10.0781 -0.111276 0)
(10.0829 -0.119089 0)
(10.087 -0.126407 0)
(10.0908 -0.133191 0)
(10.0942 -0.139415 0)
(10.0974 -0.145058 0)
(10.1005 -0.150079 0)
(10.1043 -0.15444 0)
(10.1087 -0.158136 0)
(10.118 -0.161729 0)
(10.0045 -0.0117482 0)
(10.0233 -0.0210335 0)
(10.037 -0.0181775 0)
(10.0429 -0.00995985 0)
(10.0455 0.00136595 0)
(10.0465 0.0146574 0)
(10.0464 0.0283901 0)
(10.0457 0.0415639 0)
(10.0449 0.0537993 0)
(10.0439 0.0649872 0)
(10.0428 0.0751064 0)
(10.0415 0.0841838 0)
(10.0402 0.0922715 0)
(10.0387 0.0994178 0)
(10.0371 0.105635 0)
(10.0347 0.110885 0)
(10.0316 0.115097 0)
(10.0224 0.118751 0)
(10.0057 -0.0439102 0)
(10.0279 -0.0818378 0)
(10.0434 -0.10132 0)
(10.0509 -0.120717 0)
(10.0556 -0.140599 0)
(10.0583 -0.15896 0)
(10.0588 -0.175373 0)
(10.0579 -0.189856 0)
(10.0562 -0.202382 0)
(10.054 -0.213068 0)
(10.0515 -0.222146 0)
(10.0487 -0.229841 0)
(10.0458 -0.236336 0)
(10.0429 -0.241787 0)
(10.0399 -0.246282 0)
(10.0375 -0.24985 0)
(10.0353 -0.252312 0)
(10.0401 -0.253405 0)
(10.0127 -0.00410486 0)
(10.0433 0.0072573 0)
(10.0436 0.0412861 0)
(10.0289 0.0774247 0)
(10.0137 0.110634 0)
(10.0002 0.139396 0)
(9.98742 0.163025 0)
(9.97539 0.181956 0)
(9.96423 0.197137 0)
(9.95373 0.209399 0)
(9.9437 0.219327 0)
(9.93406 0.227349 0)
(9.92477 0.233797 0)
(9.91576 0.238921 0)
(9.90712 0.242886 0)
(9.89839 0.245792 0)
(9.89017 0.247524 0)
(9.87497 0.248309 0)
(10.0321 -0.126628 0)
(10.0676 -0.225606 0)
(10.0594 -0.280278 0)
(10.0339 -0.322923 0)
(10.008 -0.353538 0)
(9.98305 -0.374063 0)
(9.95827 -0.388028 0)
(9.93433 -0.397677 0)
(9.91171 -0.404205 0)
(9.89024 -0.408374 0)
(9.86973 -0.410747 0)
(9.85007 -0.411738 0)
(9.83121 -0.411639 0)
(9.81312 -0.41068 0)
(9.79571 -0.409016 0)
(9.77933 -0.406895 0)
(9.76359 -0.40426 0)
(9.75712 -0.400648 0)
(9.86116 0.0769186 0)
(9.6624 0.274087 0)
(9.48801 0.393141 0)
(9.34003 0.44772 0)
(9.2171 0.470332 0)
(9.10905 0.479018 0)
(9.00989 0.48127 0)
(8.91818 0.480264 0)
(8.83338 0.477515 0)
(8.75482 0.47374 0)
(8.68187 0.46928 0)
(8.61408 0.464313 0)
(8.55106 0.458943 0)
(8.4924 0.453255 0)
(8.43768 0.447236 0)
(8.38632 0.441055 0)
(8.33799 0.433793 0)
(8.28666 0.426192 0)
(-0.0891977 -0.0773112 -2.12912e-19)
(0.0361511 -0.178729 1.0926e-19)
(0.100287 -0.230134 0)
(0.170172 -0.23134 0)
(0.238288 -0.224504 0)
(0.300054 -0.21416 -4.54696e-20)
(0.354634 -0.204911 0)
(0.403627 -0.195985 0)
(0.447575 -0.188383 0)
(0.487418 -0.181573 0)
(0.523547 -0.17568 3.44998e-20)
(0.556398 -0.170379 0)
(0.586141 -0.165642 0)
(0.61296 -0.161305 0)
(0.636962 -0.157322 0)
(0.658289 -0.153593 3.07455e-20)
(0.677058 -0.150059 0)
(0.693423 -0.14663 0)
(0.707446 -0.143234 0)
(0.719373 -0.139743 0)
(0.728871 -0.136164 0)
(0.736211 -0.13217 0)
(0.741401 -0.127708 0)
(0.743914 -0.12246 2.88159e-20)
(0.743424 -0.115692 -2.88044e-20)
(0.739946 -0.107342 2.88432e-20)
(0.733486 -0.0977293 2.89498e-20)
(0.723671 -0.0871572 0)
(0.710225 -0.076042 0)
(0.692572 -0.0644218 -2.97154e-20)
(0.669658 -0.0518968 -3.01817e-20)
(0.640333 -0.0383355 0)
(0.603442 -0.0237912 0)
(0.557532 -0.00821915 -3.27741e-20)
(0.501883 0.00876164 0)
(0.434907 0.027442 0)
(0.353962 0.0461034 3.96503e-20)
(0.260495 0.0599448 0)
(0.160588 0.0640931 5.10882e-20)
(0.0605473 0.0507653 1.20738e-19)
(-0.0227918 -0.00248482 0)
(-0.0484018 -0.0580995 0)
(-0.0539734 -0.0655257 0)
(-0.0679189 -0.0527156 0)
(-0.0861319 -0.0400647 0)
(-0.109526 -0.0356486 1.14246e-19)
(-0.132157 -0.0362081 1.08873e-19)
(-0.156489 -0.036811 1.03757e-19)
(-0.183553 -0.0383717 0)
(-0.212558 -0.0408607 -9.42037e-20)
(-0.243661 -0.0438124 0)
(-0.276871 -0.0467371 8.56188e-20)
(-0.312164 -0.0489671 8.16545e-20)
(-0.350022 -0.0500404 0)
(-0.391165 -0.0500925 0)
(-0.435925 -0.0491866 0)
(-0.484718 -0.0477119 6.70947e-20)
(-0.537674 -0.0459451 0)
(-0.59488 -0.0442 0)
(-0.656263 -0.04263 0)
(-0.721749 -0.041437 0)
(-0.791188 -0.040672 0)
(-0.864439 -0.0404412 0)
(-0.941317 -0.0407542 0)
(-1.02166 -0.0417075 0)
(-1.10524 -0.0433173 -4.26503e-20)
(-1.1919 -0.0456969 0)
(-1.28138 -0.0489228 0)
(-1.3734 -0.0531344 3.77731e-20)
(-1.46763 -0.0584117 3.64732e-20)
(-1.5637 -0.0648935 0)
(-1.66119 -0.0726505 -3.42933e-20)
(-1.75967 -0.0817991 3.33911e-20)
(-1.85868 -0.0923879 0)
(-1.95772 -0.104491 -3.19068e-20)
(-2.05632 -0.11813 0)
(-2.15396 -0.133334 0)
(-2.25014 -0.150095 3.03144e-20)
(-2.34433 -0.168396 0)
(-2.43602 -0.1882 -2.95585e-20)
(-2.52462 -0.209433 0)
(-2.60956 -0.232013 2.89658e-20)
(-2.69016 -0.255793 2.87121e-20)
(-2.76575 -0.280618 2.84779e-20)
(-2.83546 -0.306216 5.65127e-20)
(-2.89837 -0.332294 -5.60796e-20)
(-2.9534 -0.358331 0)
(-2.99941 -0.383639 0)
(-3.03499 -0.407127 0)
(-3.05835 -0.427654 -5.42152e-20)
(-3.06797 -0.444609 -5.35673e-20)
(-3.06283 -0.458174 5.25854e-20)
(-3.04555 -0.47144 0)
(-3.01412 -0.485855 -4.98706e-20)
(-2.96743 -0.502068 -4.80094e-20)
(-2.90377 -0.520233 -4.57168e-20)
(-2.82133 -0.540191 0)
(-2.71841 -0.561532 0)
(-2.59374 -0.583603 0)
(-2.44648 -0.605551 -3.06271e-20)
(-2.27676 -0.626879 0)
(-2.08719 -0.646129 0)
(-1.8805 -0.661185 1.05244e-20)
(-1.66047 -0.671134 0)
(-1.43556 -0.675881 0)
(-1.21325 -0.677535 -2.07595e-20)
(-1.0018 -0.674331 0)
(-0.811503 -0.665651 0)
(-0.650069 -0.651634 6.61338e-20)
(-0.524109 -0.632167 8.35953e-20)
(-0.436705 -0.606993 0)
(-0.386758 -0.576056 -1.1552e-19)
(-0.368535 -0.539884 0)
(-0.371961 -0.49969 1.33741e-19)
(-0.390038 -0.472903 0)
(-0.412478 -0.459216 1.40752e-19)
(-0.43233 -0.455095 1.43889e-19)
(-0.444179 -0.455786 0)
(-0.444625 -0.456282 0)
(-0.434819 -0.459535 0)
(-0.414484 -0.465861 0)
(-0.384106 -0.474678 0)
(-0.344226 -0.485542 0)
(-0.295459 -0.498325 0)
(-0.238586 -0.512829 2.21111e-19)
(-0.174732 -0.528843 -2.42453e-19)
(-0.10563 -0.545359 0)
(-0.0326377 -0.556428 0)
(0.0444628 -0.552628 0)
(0.126925 -0.540008 0)
(0.211479 -0.525327 -5.26513e-19)
(0.296147 -0.510647 0)
(0.379617 -0.497073 4.8283e-19)
(0.461218 -0.484733 -4.65596e-19)
(0.540625 -0.473441 0)
(0.617626 -0.463038 0)
(0.692074 -0.45341 0)
(0.763884 -0.444467 4.15859e-19)
(0.833018 -0.436148 4.06779e-19)
(0.899483 -0.428398 0)
(0.963331 -0.421176 3.91363e-19)
(1.02465 -0.414445 3.84779e-19)
(1.08354 -0.408172 -3.78807e-19)
(1.14012 -0.402324 0)
(1.19451 -0.396875 0)
(1.24684 -0.391794 -3.6383e-19)
(1.29724 -0.387058 0)
(1.34584 -0.382641 0)
(1.39276 -0.378521 0)
(1.43812 -0.374677 0)
(1.48202 -0.37109 3.45618e-19)
(1.52457 -0.36774 3.42678e-19)
(1.56587 -0.364612 0)
(1.60599 -0.361691 3.37321e-19)
(1.64501 -0.358961 0)
(1.683 -0.356409 0)
(1.72002 -0.354022 3.30382e-19)
(1.75614 -0.351787 0)
(1.7914 -0.349695 3.26352e-19)
(1.82586 -0.347735 0)
(1.85955 -0.345896 0)
(1.89251 -0.344168 3.21054e-19)
(1.92479 -0.342543 0)
(1.95644 -0.341015 3.17911e-19)
(1.9875 -0.339583 0)
(2.01802 -0.33824 0)
(2.04806 -0.336986 0)
(2.07764 -0.335815 -3.12263e-19)
(2.10681 -0.334728 0)
(2.13557 -0.333718 3.09683e-19)
(2.16394 -0.332794 0)
(2.19181 -0.331939 0)
(2.2192 -0.331192 0)
(2.24566 -0.330504 0)
(2.27127 -0.329979 0)
(2.29421 -0.329504 0)
(2.31506 -0.329041 0)
(2.32258 -0.328122 -6.11448e-19)
(2.32162 -0.315907 0)
(2.21032 -0.300887 0)
(-0.0395963 -0.0998845 2.8529e-19)
(0.124043 -0.126225 -1.17606e-19)
(0.1442 -0.1584 0)
(0.17136 -0.132294 3.94328e-20)
(0.192883 -0.117246 0)
(0.218562 -0.0899756 1.56106e-20)
(0.242729 -0.0727877 -3.03189e-20)
(0.269314 -0.0545211 -2.91081e-20)
(0.294081 -0.0415309 0)
(0.318436 -0.0286794 -2.74823e-20)
(0.340753 -0.0181139 -1.31139e-20)
(0.361138 -0.00760133 0)
(0.378792 0.00205468 0)
(0.393708 0.0115901 0)
(0.405714 0.0205677 0)
(0.415003 0.0291498 -1.21186e-20)
(0.421745 0.0370958 0)
(0.42625 0.0444487 2.39409e-20)
(0.428793 0.0511 0)
(0.429754 0.0572858 0)
(0.429407 0.0631504 -2.28067e-20)
(0.42815 0.068394 0)
(0.426413 0.0732003 2.22223e-20)
(0.424549 0.0774731 -1.08426e-20)
(0.423208 0.0805539 1.07527e-20)
(0.422322 0.0824854 -1.06765e-20)
(0.421357 0.0838753 -1.06066e-20)
(0.42003 0.085498 0)
(0.417783 0.0881857 0)
(0.413318 0.0927622 1.03516e-20)
(0.404484 0.0999158 -1.04934e-20)
(0.389069 0.11002 0)
(0.365561 0.123226 0)
(0.333314 0.139283 9.78291e-21)
(0.29211 0.157851 0)
(0.242335 0.178546 0)
(0.184782 0.198936 -9.18372e-21)
(0.122054 0.213448 0)
(0.0596488 0.213624 9.54285e-21)
(0.00620731 0.186682 -1.85762e-20)
(-0.0382742 0.133889 0)
(-0.0884469 0.0921085 0)
(-0.143296 0.0729917 -3.7646e-20)
(-0.190932 0.067432 -3.70779e-20)
(-0.234288 0.0680105 -3.64796e-20)
(-0.276971 0.0701764 1.81143e-20)
(-0.323374 0.0736542 -1.75414e-20)
(-0.373889 0.0795477 -5.22303e-20)
(-0.428468 0.0867025 3.45188e-20)
(-0.487238 0.0943396 1.68932e-20)
(-0.549789 0.102191 0)
(-0.61551 0.110053 -1.66245e-20)
(-0.683644 0.117868 1.69652e-20)
(-0.753181 0.125752 0)
(-0.823188 0.133617 0)
(-0.892802 0.141357 0)
(-0.961339 0.148865 -1.63898e-20)
(-1.02837 0.156151 0)
(-1.09368 0.163185 3.32741e-20)
(-1.15718 0.170025 0)
(-1.21893 0.176665 3.3347e-20)
(-1.27904 0.183172 0)
(-1.33763 0.189546 -3.34654e-20)
(-1.39481 0.195847 0)
(-1.45067 0.202058 3.3619e-20)
(-1.50525 0.208211 -1.71733e-20)
(-1.55853 0.214265 0)
(-1.61048 0.22024 -3.40598e-20)
(-1.66105 0.226103 -1.68114e-20)
(-1.71019 0.231897 -1.69309e-20)
(-1.75785 0.23762 0)
(-1.80403 0.243346 -1.79216e-20)
(-1.84875 0.249102 -1.73832e-20)
(-1.89206 0.254974 0)
(-1.93404 0.261 1.77444e-20)
(-1.97483 0.267256 -3.66559e-20)
(-2.01458 0.273772 0)
(-2.05346 0.280578 -1.83176e-20)
(-2.09168 0.287667 0)
(-2.12948 0.294988 5.69413e-20)
(-2.16708 0.302468 0)
(-2.20473 0.309943 -5.79221e-20)
(-2.24268 0.317226 -1.90856e-20)
(-2.28118 0.323994 2.02894e-20)
(-2.32042 0.32991 4.08145e-20)
(-2.36053 0.33442 -4.09925e-20)
(-2.40155 0.336927 0)
(-2.44331 0.336591 0)
(-2.48544 0.332698 0)
(-2.52752 0.324659 1.1649e-19)
(-2.56875 0.312124 3.71965e-20)
(-2.60695 0.295022 -3.64113e-20)
(-2.63655 0.274056 0)
(-2.6548 0.249712 -3.86739e-20)
(-2.65845 0.223104 3.20162e-20)
(-2.64504 0.194358 2.98639e-20)
(-2.61259 0.163617 0)
(-2.55936 0.131244 0)
(-2.48405 0.0976775 0)
(-2.38581 0.0636609 1.76114e-20)
(-2.26471 0.0313285 0)
(-2.12222 0.00316784 -2.71553e-20)
(-1.96088 -0.0201898 -2.3814e-20)
(-1.7841 -0.036858 9.58863e-21)
(-1.59802 -0.0449138 0)
(-1.40717 -0.0414878 -5.07406e-22)
(-1.21888 -0.0260154 0)
(-1.03923 0.00113125 -2.61692e-20)
(-0.873657 0.0378227 1.39606e-20)
(-0.726084 0.0804588 1.81438e-20)
(-0.599064 0.123779 0)
(-0.493895 0.161869 8.88529e-20)
(-0.410323 0.19022 -6.38031e-20)
(-0.346739 0.20734 -3.71205e-20)
(-0.300491 0.219277 0)
(-0.270574 0.22487 -4.10204e-20)
(-0.253699 0.223815 -1.23474e-19)
(-0.245668 0.216758 0)
(-0.2419 0.204738 -8.72549e-20)
(-0.237167 0.191634 -9.05655e-20)
(-0.228517 0.178487 -9.41691e-20)
(-0.213755 0.165726 0)
(-0.191457 0.15358 0)
(-0.16114 0.142404 0)
(-0.122808 0.132311 5.40077e-20)
(-0.0769959 0.123405 6.09835e-20)
(-0.0239479 0.115672 0)
(0.0360041 0.10946 1.27192e-19)
(0.0999713 0.10588 1.29344e-19)
(0.165461 0.104357 0)
(0.233011 0.103896 1.37001e-19)
(0.302639 0.104831 2.6889e-19)
(0.373476 0.106937 -1.40043e-19)
(0.444572 0.109789 -1.3346e-19)
(0.515242 0.113047 0)
(0.585001 0.116527 0)
(0.653496 0.120095 0)
(0.72048 0.123675 -1.45677e-19)
(0.785787 0.127199 1.39497e-19)
(0.849317 0.130628 2.87559e-19)
(0.911025 0.133928 -1.47774e-19)
(0.970911 0.13708 1.41925e-19)
(1.029 0.140065 1.4876e-19)
(1.08533 0.142875 0)
(1.13997 0.145508 0)
(1.19298 0.147968 -1.44092e-19)
(1.24444 0.150262 0)
(1.29444 0.1524 0)
(1.34304 0.154394 2.95437e-19)
(1.39034 0.156257 0)
(1.4364 0.158001 1.45591e-19)
(1.4813 0.159641 -1.50573e-19)
(1.52512 0.161187 0)
(1.5679 0.16265 1.46071e-19)
(1.60971 0.16404 0)
(1.6506 0.165366 0)
(1.69064 0.166632 -1.50608e-19)
(1.72986 0.167846 2.97039e-19)
(1.76831 0.169008 -1.50558e-19)
(1.80604 0.170125 0)
(1.84309 0.171194 0)
(1.87952 0.172213 1.46712e-19)
(1.91536 0.173178 0)
(1.95066 0.174087 1.46798e-19)
(1.98548 0.17494 0)
(2.01985 0.175744 0)
(2.05381 0.176498 0)
(2.0874 0.177222 1.50167e-19)
(2.12066 0.177914 0)
(2.15356 0.178625 -1.49984e-19)
(2.18615 0.179339 0)
(2.21828 0.180194 0)
(2.25 0.181124 2.96295e-19)
(2.28082 0.182526 -2.96208e-19)
(2.31098 0.184209 0)
(2.33855 0.187401 0)
(2.3656 0.192261 0)
(2.38425 0.203275 8.99215e-19)
(2.41771 0.223955 0)
(2.44338 0.245195 -6.14377e-19)
(-0.139051 -0.27816 1.12507e-21)
(0.110932 -0.243446 1.28827e-19)
(0.0480123 -0.263663 0)
(0.100336 -0.224379 -5.69905e-20)
(0.0895597 -0.235174 0)
(0.11929 -0.22125 0)
(0.132067 -0.22416 -2.75894e-22)
(0.161099 -0.210522 1.84866e-20)
(0.185756 -0.203575 1.79188e-20)
(0.216687 -0.190391 1.70793e-20)
(0.244708 -0.179405 0)
(0.273017 -0.165315 0)
(0.297777 -0.152051 -1.61016e-20)
(0.319999 -0.138111 -3.15532e-20)
(0.338553 -0.125299 3.09087e-20)
(0.354015 -0.113223 0)
(0.36617 -0.102482 2.9653e-20)
(0.375456 -0.0928238 -1.43173e-20)
(0.382187 -0.084375 0)
(0.386884 -0.0769486 2.78594e-20)
(0.389528 -0.0703483 1.34822e-20)
(0.388499 -0.0646356 -2.68635e-20)
(0.382432 -0.059197 -1.30419e-20)
(0.372358 -0.0538634 0)
(0.359414 -0.0476428 2.57381e-20)
(0.344337 -0.0395684 2.54708e-20)
(0.32762 -0.0294431 0)
(0.309675 -0.0174004 2.50367e-20)
(0.290583 -0.00208107 0)
(0.269813 0.019192 2.46649e-20)
(0.246236 0.0478769 1.20793e-20)
(0.218604 0.0826565 0)
(0.186071 0.12082 0)
(0.148556 0.160491 0)
(0.10655 0.20115 0)
(0.061674 0.241543 0)
(0.0171949 0.275542 0)
(-0.0228926 0.291363 2.36752e-20)
(-0.0556989 0.277352 -3.49402e-20)
(-0.0835194 0.234134 0)
(-0.118938 0.180257 0)
(-0.16895 0.141154 0)
(-0.227015 0.124097 -3.21207e-22)
(-0.289304 0.121727 2.24105e-20)
(-0.354341 0.12755 4.44286e-20)
(-0.421279 0.136162 -4.37252e-20)
(-0.490163 0.145719 -2.16641e-20)
(-0.559571 0.155759 2.10726e-20)
(-0.628263 0.16506 2.9442e-22)
(-0.695314 0.172847 2.0886e-20)
(-0.75983 0.17875 0)
(-0.821119 0.1827 2.06141e-20)
(-0.87868 0.184892 3.14419e-22)
(-0.932154 0.185651 0)
(-0.981371 0.185238 0)
(-1.02641 0.183914 -2.05444e-20)
(-1.06756 0.181966 0)
(-1.10529 0.179676 0)
(-1.14017 0.177247 2.10139e-20)
(-1.17285 0.174834 4.15661e-20)
(-1.20399 0.172494 -2.05646e-20)
(-1.23428 0.170244 0)
(-1.26437 0.168026 2.07698e-20)
(-1.29489 0.165775 0)
(-1.3264 0.163373 2.16639e-20)
(-1.35945 0.160714 2.12416e-20)
(-1.39451 0.157665 -4.35002e-20)
(-1.43202 0.154129 -2.22847e-20)
(-1.47238 0.150005 0)
(-1.51594 0.145242 4.49255e-20)
(-1.56299 0.139774 0)
(-1.61372 0.133584 6.86471e-20)
(-1.66827 0.126634 4.65383e-20)
(-1.72667 0.118917 4.7087e-20)
(-1.78885 0.11041 -4.76244e-20)
(-1.85462 0.101114 7.18461e-20)
(-1.92371 0.0910227 0)
(-1.99573 0.0801401 0)
(-2.07023 0.0684773 -4.96631e-20)
(-2.14667 0.0560516 -7.47399e-20)
(-2.22444 0.0428996 0)
(-2.30284 0.0290418 2.49862e-20)
(-2.38116 0.0145273 0)
(-2.4586 -0.000620082 -7.69185e-20)
(-2.5343 -0.0163376 1.15218e-21)
(-2.60733 -0.0326252 -1.21363e-21)
(-2.67672 -0.0494535 5.22504e-20)
(-2.74133 -0.0669121 0)
(-2.79974 -0.0851611 -5.22828e-20)
(-2.85033 -0.10466 1.59917e-21)
(-2.89158 -0.125814 0)
(-2.92207 -0.148489 0)
(-2.94002 -0.172377 0)
(-2.94432 -0.198704 4.63893e-20)
(-2.93401 -0.229582 0)
(-2.90762 -0.264731 0)
(-2.86341 -0.303708 0)
(-2.79962 -0.345683 0)
(-2.71496 -0.389457 0)
(-2.60879 -0.433315 2.82392e-20)
(-2.48104 -0.47513 0)
(-2.33222 -0.512168 1.58659e-20)
(-2.1654 -0.540306 1.06294e-20)
(-1.98495 -0.55755 -5.37497e-21)
(-1.79651 -0.562103 0)
(-1.60725 -0.551919 4.61543e-21)
(-1.42418 -0.526636 0)
(-1.25318 -0.488089 1.32947e-20)
(-1.09832 -0.43947 -1.70955e-20)
(-0.96172 -0.384808 -5.97632e-20)
(-0.844136 -0.328432 0)
(-0.745633 -0.274533 -7.87542e-20)
(-0.666111 -0.226861 -2.75488e-20)
(-0.604655 -0.188613 0)
(-0.558041 -0.161015 -6.67998e-20)
(-0.522663 -0.143393 -7.08068e-20)
(-0.495387 -0.134298 1.13e-19)
(-0.473324 -0.13214 0)
(-0.453585 -0.135434 4.19555e-20)
(-0.432998 -0.14285 4.36436e-20)
(-0.408826 -0.153034 1.33596e-19)
(-0.379253 -0.164795 0)
(-0.343377 -0.177128 0)
(-0.300967 -0.189162 0)
(-0.252196 -0.200242 5.05849e-20)
(-0.197792 -0.209948 0)
(-0.138548 -0.218041 0)
(-0.0748531 -0.224762 -5.97126e-20)
(-0.00731114 -0.230408 -6.17827e-20)
(0.0627796 -0.23446 0)
(0.134386 -0.236531 0)
(0.207035 -0.236908 -1.31932e-19)
(0.280323 -0.23605 0)
(0.353739 -0.234307 1.37009e-19)
(0.426779 -0.231947 1.37364e-19)
(0.499014 -0.229157 0)
(0.570111 -0.226087 0)
(0.639831 -0.222847 -1.43928e-19)
(0.708006 -0.219533 -1.87636e-21)
(0.774532 -0.216214 -1.83831e-21)
(0.839358 -0.21295 0)
(0.90247 -0.209781 -3.03537e-19)
(0.96388 -0.206743 0)
(1.02362 -0.203858 0)
(1.08173 -0.201141 0)
(1.13827 -0.198597 1.57659e-19)
(1.1933 -0.196227 0)
(1.24688 -0.194027 -3.16084e-19)
(1.29908 -0.191992 -1.60469e-19)
(1.34998 -0.190112 0)
(1.39962 -0.188379 -1.61988e-19)
(1.44808 -0.186782 0)
(1.49542 -0.185311 0)
(1.54169 -0.183957 -4.88782e-19)
(1.58694 -0.18271 3.26061e-19)
(1.63124 -0.181561 0)
(1.67462 -0.180501 3.28169e-19)
(1.71713 -0.179521 -1.6588e-19)
(1.75881 -0.178615 0)
(1.79971 -0.177773 0)
(1.83988 -0.176994 0)
(1.87935 -0.176271 -5.00338e-19)
(1.91818 -0.175607 0)
(1.95639 -0.174995 -1.68344e-19)
(1.99405 -0.174437 0)
(2.03118 -0.173925 0)
(2.06783 -0.173459 0)
(2.10402 -0.173021 0)
(2.1398 -0.172617 0)
(2.17516 -0.172202 0)
(2.21013 -0.171802 -3.38241e-19)
(2.24459 -0.171298 0)
(2.27862 -0.170772 -1.70596e-19)
(2.31176 -0.169891 5.10276e-19)
(2.34432 -0.168863 0)
(2.37471 -0.16677 0)
(2.40465 -0.163678 -3.41691e-19)
(2.42877 -0.158266 -3.46378e-19)
(2.45617 -0.145591 3.49141e-19)
(2.4708 -0.114448 3.5911e-19)
(-0.204226 -0.337952 -3.95417e-19)
(0.133552 -0.249357 -1.79063e-19)
(-0.00480118 -0.265792 -6.72581e-20)
(0.0909274 -0.206754 -2.55023e-20)
(0.0405573 -0.212574 0)
(0.0847226 -0.190585 3.6341e-20)
(0.0628339 -0.197712 -1.66978e-20)
(0.0896646 -0.188258 0)
(0.0910443 -0.189384 -1.44829e-20)
(0.116304 -0.175547 0)
(0.131429 -0.163922 2.74046e-20)
(0.15527 -0.143226 0)
(0.172174 -0.122872 1.28319e-20)
(0.190036 -0.0992425 2.50971e-20)
(0.203128 -0.077241 -2.45465e-20)
(0.214652 -0.0551926 0)
(0.222919 -0.035167 -2.35003e-20)
(0.229297 -0.0168685 0)
(0.23367 -0.00140763 0)
(0.236887 0.0126881 -2.20107e-20)
(0.23882 0.0289241 0)
(0.238695 0.0499932 -3.33097e-22)
(0.233268 0.0699328 0)
(0.221182 0.0852779 0)
(0.203342 0.0960598 3.32133e-22)
(0.181027 0.103679 -1.98311e-20)
(0.155515 0.10947 -2.00015e-20)
(0.127558 0.114958 -1.95351e-20)
(0.0974073 0.122576 0)
(0.0655362 0.135269 -3.90412e-20)
(0.0328398 0.154955 0)
(0.000258438 0.181535 -1.95057e-20)
(-0.0317131 0.213143 0)
(-0.0625845 0.247174 0)
(-0.0913061 0.280334 1.88267e-20)
(-0.115791 0.307876 0)
(-0.134037 0.323446 -1.84563e-20)
(-0.146685 0.321867 4.33836e-22)
(-0.159442 0.304197 3.60332e-20)
(-0.181906 0.279422 -3.62728e-20)
(-0.222003 0.258124 0)
(-0.278516 0.246488 0)
(-0.343919 0.243599 -1.7957e-20)
(-0.412338 0.24626 0)
(-0.479913 0.251763 -1.6735e-20)
(-0.544512 0.257881 1.65051e-20)
(-0.605125 0.263316 1.62986e-20)
(-0.660596 0.267309 0)
(-0.710192 0.269287 -1.59835e-20)
(-0.753698 0.269088 -1.58799e-20)
(-0.791236 0.26686 3.22594e-20)
(-0.82325 0.262965 -1.5773e-20)
(-0.850381 0.257908 -1.57608e-20)
(-0.873396 0.252258 0)
(-0.89316 0.246548 0)
(-0.91062 0.241273 1.58262e-20)
(-0.926748 0.23684 0)
(-0.942491 0.233566 0)
(-0.958749 0.231654 -3.1928e-20)
(-0.976363 0.231217 -3.20372e-20)
(-0.996103 0.232268 0)
(-1.01867 0.234762 0)
(-1.04469 0.238593 0)
(-1.07471 0.243623 0)
(-1.10917 0.249688 -3.28182e-20)
(-1.14845 0.256622 3.36306e-20)
(-1.19283 0.264249 3.32871e-20)
(-1.24247 0.272407 6.77362e-20)
(-1.29741 0.280927 0)
(-1.3576 0.289652 6.68143e-22)
(-1.4228 0.298414 0)
(-1.49267 0.307058 -3.48526e-20)
(-1.56676 0.315419 7.59042e-22)