/*--------------------------------*- C++ -*----------------------------------*\
| =========                 |                                                 |
| \\      /  F ield         | OpenFOAM: The Open Source CFD Toolbox           |
|  \\    /   O peration     | Version:  v1906                                 |
|   \\  /    A nd           | Web:      www.OpenFOAM.com                      |
|    \\/     M anipulation  |                                                 |
\*---------------------------------------------------------------------------*/
FoamFile
{
    version     2.0;
    format      ascii;
    class       volScalarField;
    location    "800";
    object      epsilon;
}
// * * * * * * * * * * * * * * * * * * * * * * * * * * * * * * * * * * * * * //

dimensions      [0 2 -3 0 0 0 0];


internalField   nonuniform List<scalar> 
12225
(
8534.02
8352.96
7991.41
7605.21
7244.48
6922.69
6639.45
6393.99
6175.61
5989.54
5816.5
5677.63
5566.27
5477.02
5395.33
5337.51
5267.45
5242.04
612.839
1496.61
1698.51
1689.04
1643.03
1564.94
1506.96
1460.94
1422.67
1390.14
1362.72
1338.59
1320.07
1303.72
1290.35
1279.11
1265.29
1256.34
136.092
458.852
618.69
686.909
717.291
720.651
717.548
710.2
700.239
689.68
679.663
669.657
660.606
652.079
644.098
637.453
629.268
625.466
58.4939
196.181
292.427
349.165
383.803
402.628
412.964
418.157
419.595
419.049
417.512
414.756
411.575
408.158
404.54
401.318
396.952
395.307
35.9829
104.797
162.953
203.26
231.264
250.086
262.82
271.453
277.076
280.612
282.786
283.866
284.072
283.851
283.245
282.434
280.899
280.856
26.8376
65.6335
102.216
130.423
151.685
167.442
179.137
187.866
194.346
199.131
202.675
205.254
207.054
208.297
209.1
209.589
209.703
210.26
22.3043
46.129
70.0861
90.0234
105.967
118.522
128.392
136.179
142.33
147.189
151.044
154.101
156.507
158.399
159.878
161.034
161.865
162.912
19.7657
35.3023
51.5619
65.8839
77.882
87.7542
95.84
102.471
107.917
112.399
116.1
119.163
121.699
123.8
125.542
126.989
128.174
129.43
18.225
28.7914
40.1554
50.6101
59.7067
67.4541
74.004
79.5355
84.2112
88.1702
91.5315
94.3928
96.8329
98.9176
100.703
102.235
103.558
104.855
17.2354
24.6377
32.7694
40.5138
47.4709
53.569
58.8609
63.4388
67.3976
70.8247
73.797
76.3807
78.6311
80.5951
82.3133
83.8209
85.1572
86.4227
16.5719
21.8683
27.7956
33.6055
38.9712
43.7931
48.0728
51.8519
55.1832
58.12
60.7119
63.0028
65.0313
66.8305
68.4301
69.8566
71.1411
72.3396
16.15
20.1179
24.6281
29.1492
33.418
37.3323
40.8705
44.0471
46.8905
49.4336
51.7085
53.7455
55.5717
57.2113
58.6861
60.0167
61.2266
62.3497
15.8382
18.8307
22.2845
25.8207
29.2305
32.4182
35.3503
38.0244
40.4528
42.6537
44.6471
46.4529
48.0898
49.5751
50.9248
52.1544
53.281
54.3262
15.58
17.773
20.348
23.0453
25.7064
28.2471
30.6288
32.8383
34.8759
36.7489
38.4674
40.0431
41.4875
42.812
44.0278
45.1456
46.1773
47.1361
15.3746
16.94
18.814
20.8269
22.8631
24.8527
26.757
28.5567
30.2442
31.8186
33.2829
34.6421
35.9023
37.0702
38.1527
39.1569
40.0901
40.9605
15.2202
16.3202
17.6661
19.1521
20.6972
22.2454
23.7611
25.2223
26.6167
27.938
29.184
30.3552
31.4533
32.4815
33.4435
34.3431
35.1847
35.9727
15.1154
15.9033
16.8898
18.0101
19.2075
20.4383
21.6704
22.8817
24.0572
25.1878
26.2678
27.2946
28.2673
29.1864
30.0533
30.8699
31.6384
32.3607
15.0629
15.6954
16.5005
17.433
18.4493
19.5123
20.5928
21.6693
22.726
23.7523
24.7413
25.6885
26.592
27.4507
28.2649
29.0355
29.7642
30.4528
15.079
15.7585
16.6173
17.6041
18.672
19.7825
20.9058
22.0206
23.1116
24.1687
25.1852
26.1574
27.0832
27.9623
28.7947
29.5813
30.3233
31.0213
15.1988
16.2331
17.5009
18.9061
20.3741
21.8527
23.3075
24.7171
26.0686
27.3552
28.5739
29.7241
30.8071
31.8248
32.7799
33.6749
34.5118
35.2918
15.4072
17.0668
19.0415
21.1515
23.2776
25.3492
27.3284
29.1971
30.9485
32.5828
34.1037
35.5168
36.8287
38.0462
39.1759
40.2233
41.193
42.0852
15.7671
18.525
21.7125
24.9937
28.1796
31.1799
33.9605
36.5155
38.853
40.987
42.9339
44.7105
46.3327
47.8154
49.1725
50.4151
51.5519
52.5817
16.3868
21.0661
26.3186
31.514
36.3625
40.7678
44.7223
48.2529
51.3992
54.2031
56.7044
58.9392
60.9398
62.7347
64.3494
65.8055
67.1204
68.2861
17.4988
25.6605
34.5311
42.8947
50.3483
56.8506
62.4818
67.3453
71.5471
75.184
78.3394
81.0842
83.4786
85.5731
87.413
89.0349
90.477
91.7172
19.6475
34.5757
50.1056
63.8337
75.3846
84.9743
92.9208
99.4928
104.941
109.472
113.252
116.414
119.067
121.294
123.177
124.77
126.159
127.29
24.2998
53.9039
82.4123
105.381
123.268
137.153
147.966
156.315
162.798
167.851
171.784
174.841
177.206
179.013
180.414
181.455
182.316
182.861
36.4922
103.326
158.514
197.276
224.161
242.911
255.968
264.571
270.362
274.17
276.487
277.757
278.24
278.142
277.794
277.05
276.301
275.262
81.6126
262.53
372.088
433.13
466.555
484.643
492.877
493.519
492.292
489.372
485.159
480.512
475.764
470.874
466.288
461.532
457.578
453.226
390.158
975.284
1160.2
1205.55
1197.69
1174.13
1134.79
1095
1063.6
1037.74
1015.73
996.641
980.029
965.249
952.408
940.678
930.798
921.399
6457.22
6260.43
5992.29
5735.71
5500.25
5289.43
5101.17
4933.64
4784.73
4652
4533.22
4426.37
4330.09
4242.58
4163.48
4090.61
4024.91
3963.06
8.71946
12.1066
21.096
26.9139
31.6444
35.1225
38.1361
40.5605
42.7036
44.5034
46.1076
47.4996
48.7518
49.8588
50.8486
51.7092
52.4449
53.037
53.4901
53.7805
53.895
53.8696
53.6683
53.1948
52.4867
51.5193
50.2877
48.3294
45.5659
41.8852
37.1005
30.9081
22.8254
15.8278
10.8675
9.80357
12.8397
18.7287
26.3378
35.227
43.4425
50.3502
56.2529
61.3419
65.7501
69.5755
72.8649
75.623
78.1222
80.5253
82.8067
84.9786
87.0401
88.9932
90.8351
92.5657
94.1779
95.6614
97.0131
98.2281
99.3037
100.233
101.014
101.635
102.058
102.296
102.435
102.269
101.572
100.909
100.476
100.313
100.344
100.652
101.338
102.512
104.263
106.661
109.784
113.684
118.412
123.999
130.476
137.854
146.146
155.35
165.462
176.475
188.376
201.152
214.787
229.273
244.593
260.73
277.665
295.373
313.825
332.979
352.78
373.149
393.989
415.171
436.531
457.867
478.95
499.592
519.851
540.451
561.47
582.818
604.303
625.568
646.132
665.204
681.157
690.631
694.836
689.452
667.59
641.941
612.98
580.066
542.34
500.727
454.238
405.313
347.227
298.875
267.239
249.732
240.482
237.465
240.781
250.921
264.852
280.512
295.915
309.584
322.77
335.632
347.797
358.559
367.707
375.873
383.376
391.086
396.391
395.002
391.507
386.974
381.729
376.043
370.138
364.184
358.317
352.634
347.208
342.089
337.306
332.872
328.789
325.04
321.603
318.443
315.539
312.873
310.445
308.237
306.257
304.466
302.893
301.437
300.213
298.954
297.983
296.729
295.563
294.208
289.926
264.025
18.3626
15.0023
15.6459
16.9722
18.1815
19.2887
20.2533
21.1271
21.9055
22.6154
23.2436
23.8017
24.2882
24.716
25.0942
25.4372
25.7563
26.0605
26.3564
26.6489
26.9487
27.274
27.6055
27.9284
28.2434
28.576
28.9327
29.3074
29.6901
30.0537
30.3493
30.52
30.5495
30.6733
31.0341
31.7746
32.8436
34.079
35.3939
36.7642
38.0667
39.2216
40.2816
41.2991
42.3064
43.3184
44.338
45.3634
46.3946
47.4296
48.4627
49.4888
50.504
51.5058
52.4933
53.4667
54.4268
55.3716
56.3023
57.2217
58.1336
59.0423
59.9536
60.8724
61.799
62.7372
63.6917
64.6696
65.6895
66.7791
67.955
69.2277
70.6083
72.1155
73.7694
75.5881
77.5884
79.7858
82.1933
84.8213
87.6766
90.7631
94.0806
97.6259
101.393
105.372
109.553
113.922
118.468
123.177
128.046
133.044
138.138
143.307
148.528
153.776
159.027
164.253
169.429
174.535
179.565
184.534
189.498
194.59
200.079
206.493
214.8
224.035
233.335
242.494
251.259
259.382
266.559
272.436
276.237
277.655
276.976
273.225
266.598
258.296
248.218
236.492
223.386
208.697
192.447
175.454
158.665
144.155
132.15
123.798
120.088
119.089
119.233
119.943
120.928
122.444
125.418
130.445
136.067
141.196
145.545
149.051
151.853
154.19
156.059
157.099
156.84
155.548
153.889
151.976
149.837
147.525
145.098
142.609
140.103
137.617
135.18
132.814
130.535
128.354
126.278
124.311
122.444
120.683
119.025
117.465
115.998
114.62
113.326
112.11
110.967
109.891
108.874
107.908
106.971
106.087
105.127
104.258
104.402
104.728
42.0982
22.3693
19.8085
19.0806
19.2245
19.5123
19.9573
20.4196
20.9272
21.4478
21.9487
22.4308
22.8805
23.3092
23.7251
24.1514
24.6048
25.085
25.5932
26.1279
26.6883
27.2726
27.8774
28.5003
29.1416
29.8046
30.4955
31.2225
31.9959
32.8227
33.7051
34.6442
35.6474
36.6438
37.6467
38.6917
39.7723
40.8296
41.8511
42.8805
43.9753
45.1486
46.3706
47.6112
48.8378
50.0232
51.1502
52.2114
53.2079
54.1464
55.0378
55.8954
56.7333
57.5655
58.4053
59.2641
60.1518
61.0758
62.0414
63.052
64.1091
65.2127
66.3618
67.5547
68.7901
70.0677
71.3889
72.7575
74.1789
75.6589
77.203
78.8171
80.5084
82.2852
84.1557
86.1274
88.2069
90.3988
92.7054
95.1262
97.6579
100.294
103.025
105.838
108.719
111.652
114.621
117.61
120.599
123.534
126.366
129.149
131.892
134.597
137.264
139.895
142.511
145.108
147.697
150.299
152.942
155.668
158.526
161.582
164.911
168.573
172.53
176.562
180.482
184.155
187.437
190.205
192.283
193.276
193.468
192.433
190.034
186.218
181.206
175.083
167.804
159.59
151.013
141.701
131.86
122.222
113.604
106.251
100.148
95.6516
92.9847
92.0114
91.8237
92.0775
92.7885
94.1542
96.3535
98.9004
101.249
103.202
104.732
105.871
106.673
107.179
107.373
107.152
106.492
105.548
104.452
103.227
101.888
100.461
98.9739
97.4526
95.9192
94.3918
92.8848
91.4083
89.9717
88.5828
87.2469
85.9708
84.7607
83.6163
82.5319
81.501
80.5183
79.5805
78.6842
77.8276
77.0073
76.222
75.4658
74.7394
74.0284
73.3446
72.6501
72.1558
72.1222
72.6325
53.5499
29.41
24.3577
22.7146
22.1708
22.1363
22.3122
22.6667
23.0765
23.5456
24.0178
24.5
24.9679
25.4347
25.8993
26.3767
26.8742
27.4038
27.9772
28.6198
29.3269
30.0949
30.9174
31.7786
32.6599
33.546
34.4256
35.2921
36.142
36.9764
37.7989
38.6126
39.4237
40.2519
41.1471
42.1814
43.4038
44.8046
46.3492
48.0145
49.7718
51.5691
53.3435
55.0399
56.6175
58.0524
59.3386
60.4856
61.5142
62.4517
63.3283
64.174
65.0166
65.8796
66.7819
67.7369
68.7535
69.8364
70.9872
72.2048
73.4865
74.8287
76.2273
77.6783
79.1783
80.7249
82.317
83.9547
85.6391
87.3721
89.1559
90.9927
92.8851
94.8348
96.8428
98.9082
101.028
103.197
105.407
107.647
109.905
112.167
114.418
116.643
118.828
120.963
123.037
125.046
126.99
128.898
130.805
132.702
134.578
136.422
138.231
140.005
141.747
143.486
145.235
147
148.792
150.623
152.507
154.457
156.483
158.594
160.81
163.18
165.3
167.049
168.307
168.951
169.122
168.609
167.381
165.377
162.608
159.092
154.958
150.231
144.78
138.566
131.617
123.997
116.103
108.455
101.496
95.4872
90.5941
86.9486
84.6069
83.344
82.7329
82.6028
82.9624
83.8575
85.1373
86.4706
87.6836
88.7127
89.5323
90.1274
90.481
90.591
90.4339
90.0036
89.3379
88.5017
87.5393
86.4731
85.3253
84.1198
82.879
81.6223
80.3656
79.1218
77.9007
76.7108
75.5574
74.4445
73.3776
72.3682
71.4271
70.5457
69.7115
68.9148
68.1495
67.412
66.6997
66.0115
65.345
64.7002
64.0728
63.4646
62.8662
62.2891
61.7263
61.2822
61.0814
61.3331
75.9532
36.8284
29.5218
26.877
25.8532
25.4645
25.4664
25.6612
26.0066
26.4223
26.8864
27.4017
27.9207
28.4573
28.9993
29.5689
30.174
30.8218
31.5169
32.2585
33.051
33.8953
34.7901
35.726
36.6903
37.6671
38.6398
39.5924
40.5121
41.3909
42.2282
43.0359
43.843
44.7022
45.6927
46.8599
48.1659
49.6216
51.3032
53.1509
55.0848
57.0306
58.9215
60.7053
62.3528
63.855
65.2201
66.4689
67.6298
68.7347
69.8144
70.8968
72.0049
73.1562
74.363
75.6325
76.9675
78.368
79.8312
81.3528
82.9275
84.5501
86.2156
87.9198
89.6595
91.4329
93.2392
95.0787
96.9523
98.8611
100.806
102.786
104.801
106.848
108.923
111.018
113.124
115.232
117.328
119.401
121.436
123.423
125.352
127.217
129.017
130.753
132.432
134.064
135.662
137.239
138.801
140.349
141.894
143.45
145.022
146.612
148.218
149.817
151.393
152.934
154.429
155.863
157.227
158.505
159.678
160.719
161.586
162.178
162.441
162.46
162.124
161.489
160.591
159.328
157.676
155.633
153.178
150.312
147.132
143.678
139.611
134.629
128.618
121.719
114.332
106.944
100.021
93.938
88.9535
85.1405
82.3945
80.4982
79.2678
78.6302
78.5009
78.8037
79.4068
80.1783
81.0205
81.847
82.5725
83.1228
83.4413
83.5008
83.2931
82.8342
82.1559
81.297
80.2915
79.1726
77.9739
76.7261
75.4554
74.1829
72.9247
71.6931
70.497
69.3427
68.2347
67.1775
66.1784
65.2551
64.4236
63.6548
62.9288
62.2344
61.5655
60.919
60.2926
59.6851
59.0949
58.5217
57.963
57.4203
56.8888
56.3795
55.8962
55.5114
55.3132
55.4691
91.0882
44.1847
34.7344
31.2784
29.7226
29.0578
28.8597
28.9625
29.2475
29.6682
30.1679
30.7395
31.3348
31.9559
32.5882
33.2416
33.9183
34.6336
35.4023
36.2226
37.0882
37.9875
38.913
39.8601
40.8253
41.801
42.7765
43.7392
44.6779
45.5861
46.4678
47.3428
48.2528
49.2664
50.4224
51.6839
53.0208
54.4449
56.0285
57.7921
59.6323
61.474
63.2646
64.9719
66.5846
68.1074
69.5562
70.9528
72.3208
73.6834
75.0604
76.468
77.9178
79.4175
80.9709
82.5788
84.2393
85.9491
87.7037
89.4979
91.327
93.1864
95.0725
96.9827
98.9153
100.87
102.846
104.843
106.864
108.907
110.971
113.055
115.154
117.264
119.375
121.481
123.57
125.631
127.653
129.626
131.541
133.394
135.182
136.908
138.577
140.199
141.787
143.356
144.919
146.49
148.077
149.687
151.324
152.984
154.656
156.324
157.965
159.553
161.064
162.472
163.753
164.88
165.829
166.569
167.075
167.327
167.364
167.075
166.477
165.592
164.444
163.112
161.753
160.122
158.183
155.995
153.506
150.729
147.877
145.337
142.299
138.176
132.679
125.908
118.297
110.433
102.889
96.1164
90.3775
85.7497
82.1602
79.4769
77.5871
76.4016
75.8431
75.7932
76.1575
76.8243
77.6674
78.5563
79.368
80.0008
80.3843
80.4826
80.3054
79.8672
79.1907
78.3134
77.2758
76.1199
74.8849
73.6052
72.3087
71.0173
69.7472
68.5103
67.315
66.1671
65.071
64.0315
63.0559
62.1546
61.3451
60.5963
59.8875
59.2093
58.5566
57.9265
57.3171
56.7271
56.1553
55.6017
55.0649
54.5463
54.0457
53.5729
53.14
52.7955
52.5925
52.6431
113.686
52.6227
40.3505
35.7954
33.721
32.7321
32.3757
32.3649
32.6184
33.0235
33.5607
34.164
34.8254
35.5226
36.2492
37.001
37.7699
38.5609
39.3778
40.23
41.1247
42.0523
43.0027
43.9674
44.9421
45.9218
46.9006
47.8715
48.8286
49.7706
50.7045
51.6507
52.6454
53.7398
54.9357
56.2003
57.5187
58.9137
60.4511
62.0962
63.7832
65.4697
67.1324
68.7628
70.3637
71.9454
73.5211
75.1046
76.7085
78.3429
80.0155
81.731
83.4919
85.2984
87.1489
89.0404
90.969
92.9301
94.9193
96.9321
98.9648
101.014
103.079
105.157
107.248
109.353
111.471
113.605
115.753
117.915
120.091
122.275
124.465
126.654
128.834
130.996
133.132
135.232
137.288
139.294
141.245
143.142
144.987
146.789
148.558
150.31
152.062
153.831
155.634
157.483
159.388
161.348
163.359
165.406
167.463
169.503
171.488
173.381
175.144
176.741
178.136
179.299
180.2
180.8
181.083
181.105
180.755
180.027
178.918
177.427
175.58
173.404
170.929
168.208
165.426
162.883
160.323
157.656
155.027
152.885
150.381
146.654
141.183
133.987
125.56
116.632
107.918
99.9616
93.0801
87.3918
82.8875
79.4844
77.0559
75.4999
74.7148
74.5678
74.9455
75.7066
76.6929
77.7426
78.708
79.4701
79.9492
80.1089
79.9693
79.5479
78.8606
77.9509
76.8686
75.6627
74.3774
73.05
71.7102
70.3805
69.0775
67.8131
66.5953
65.4297
64.3206
63.2718
62.288
61.3723
60.5221
59.7219
58.9614
58.2347
57.5379
56.868
56.2234
55.6026
55.0044
54.4295
53.8788
53.3526
52.8573
52.3978
51.9969
51.6735
51.4806
51.4233
129.75
60.5569
45.8171
40.283
37.6745
36.3834
35.8508
35.7462
35.956
36.3588
36.9236
37.5774
38.3057
39.0763
39.8858
40.7264
41.585
42.4612
43.3512
44.2544
45.1691
46.0951
47.0337
47.9906
48.9608
49.9398
50.9242
51.9113
52.9005
53.8959
54.9085
55.9587
57.0764
58.2553
59.483
60.7475
62.0489
63.4055
64.85
66.3678
67.9263
69.5079
71.106
72.7222
74.3623
76.0336
77.7424
79.4934
81.2895
83.132
85.0208
86.9543
88.93
90.9447
92.9945
95.0752
97.1824
99.3121
101.461
103.625
105.802
107.991
110.192
112.403
114.627
116.863
119.112
121.376
123.654
125.945
128.247
130.558
132.872
135.184
137.486
139.771
142.031
144.259
146.451
148.601
150.71
152.782
154.825
156.852
158.878
160.925
163.014
165.165
167.397
169.721
172.14
174.648
177.226
179.846
182.466
185.04
187.517
189.844
191.974
193.865
195.481
196.795
197.786
198.428
198.725
198.722
198.322
197.527
196.326
194.695
192.596
190.003
186.922
183.435
179.708
175.989
172.682
169.585
166.633
164.084
161.661
157.959
152.137
144.091
134.395
123.964
113.704
104.297
96.143
89.4012
84.0649
80.0371
77.2065
75.4255
74.5639
74.4734
75.0138
76.0083
77.2622
78.5798
79.7843
80.737
81.3486
81.5827
81.4717
81.0441
80.3103
79.3255
78.1524
76.8495
75.4672
74.0468
72.6205
71.2118
69.838
68.5107
67.2375
66.0233
64.8715
63.7838
62.7612
61.8014
60.8986
60.0436
59.2302
58.4536
57.7103
56.9976
56.3138
55.6572
55.0267
54.4241
53.85
53.3055
52.7982
52.3324
51.9296
51.5954
51.3672
51.1948
151.364
68.7296
51.1714
44.5519
41.4495
39.8599
39.193
39.0084
39.2089
39.6279
40.2304
40.9404
41.7377
42.5842
43.4696
44.3798
45.3147
46.2734
47.2397
48.212
49.1894
50.1709
51.1559
52.1459
53.1419
54.1456
55.1598
56.1883
57.2366
58.3115
59.4209
60.5712
61.7656
63.001
64.2724
65.5767
66.9151
68.2933
69.7161
71.1819
72.6859
74.2254
75.803
77.4296
79.1099
80.8458
82.6383
84.4881
86.3944
88.3552
90.3667
92.425
94.5257
96.6643
98.8361
101.037
103.262
105.509
107.774
110.056
112.351
114.661
116.984
119.321
121.674
124.043
126.429
128.834
131.256
133.695
136.149
138.616
141.09
143.567
146.039
148.502
150.948
153.373
155.773
158.147
160.5
162.839
165.176
167.531
169.926
172.385
174.933
177.592
180.378
183.295
186.336
189.479
192.686
195.907
199.081
202.142
205.024
207.668
210.026
212.062
213.759
215.11
216.124
216.811
217.18
217.291
217.113
216.622
215.807
214.625
212.995
210.814
207.961
204.351
199.994
195.092
190.021
185.289
181.543
178.412
175.607
171.537
165.021
155.781
144.47
132.228
120.188
109.184
99.6975
91.9144
85.8199
81.2898
78.1695
76.2972
75.504
75.6185
76.4587
77.8136
79.4464
81.1202
82.6242
83.7973
84.5419
84.8273
84.7095
84.2284
83.3912
82.271
80.9467
79.4878
77.9524
76.3864
74.8244
73.2916
71.8051
70.3763
69.0122
67.7164
66.4904
65.3338
64.2445
63.218
62.2482
61.3286
60.4538
59.6195
58.8222
58.0591
57.3282
56.6278
55.9575
55.317
54.7086
54.1336
53.5997
53.1103
52.6824
52.3128
52.0209
51.7447
165.116
75.8781
56.0355
48.5182
44.9429
43.0892
42.2832
42.0333
42.2206
42.66
43.3102
44.0886
44.9718
45.9175
46.9094
47.9244
48.9545
49.9916
51.0359
52.0926
53.1597
54.2291
55.2981
56.3676
57.4406
58.521
59.6138
60.7247
61.8594
63.024
64.2234
65.4613
66.7389
68.0555
69.4096
70.7997
72.2247
73.684
75.1761
76.6985
78.2492
79.8279
81.4374
83.0831
84.7713
86.51
88.3093
90.1843
92.1317
94.1439
96.2151
98.3401
100.513
102.73
104.985
107.274
109.594
111.94
114.311
116.704
119.117
121.55
124.003
126.475
128.969
131.484
134.022
136.582
139.165
141.769
144.394
147.034
149.688
152.348
155.011
157.67
160.32
162.958
165.583
168.197
170.807
173.425
176.067
178.758
181.521
184.384
187.368
190.49
193.753
197.146
200.641
204.191
207.735
211.199
214.506
217.577
220.344
222.757
224.785
226.422
227.685
228.609
229.243
229.642
229.863
229.965
229.995
229.974
229.916
229.8
229.538
228.954
227.771
225.636
222.22
217.409
211.501
205.282
199.76
195.41
191.664
186.85
179.361
168.657
155.457
141.16
127.163
114.479
103.663
94.8991
88.137
83.2105
79.9189
78.0633
77.456
77.9017
79.1881
81.0467
83.1836
85.3093
87.1711
88.5844
89.4478
89.7475
89.578
88.9817
87.9693
86.6402
85.0923
83.408
81.6538
79.8805
78.1257
76.4155
74.7672
73.1916
71.6943
70.2773
68.9403
67.6805
66.4939
65.3747
64.3167
63.314
62.3612
61.4537
60.5877
59.7601
58.9684
58.2107
57.4865
56.7953
56.1394
55.52
54.9441
54.4131
53.9401
53.5142
53.1463
52.7608
185.394
82.8894
60.4293
51.9807
48.0079
45.933
45.0446
44.7651
44.9578
45.4339
46.1438
47.0022
47.9813
49.0372
50.1511
51.2979
52.4652
53.6393
54.8145
55.9857
57.1507
58.3084
59.4611
60.6138
61.775
62.9522
64.1475
65.3658
66.6122
67.8915
69.2078
70.5638
71.9607
73.3982
74.8745
76.3871
77.9329
79.5083
81.1101
82.7355
84.3837
86.0555
87.7539
89.4836
91.2505
93.0613
94.9229
96.8419
98.8238
100.877
103.004
105.196
107.448
109.756
112.114
114.517
116.962
119.443
121.957
124.501
127.071
129.666
132.285
134.927
137.592
140.28
142.991
145.725
148.481
151.257
154.051
156.86
159.679
162.503
165.327
168.145
170.954
173.75
176.536
179.315
182.097
184.897
187.734
190.632
193.615
196.703
199.91
203.238
206.673
210.184
213.72
217.217
220.597
223.779
226.685
229.247
231.417
233.17
234.509
235.464
236.089
236.451
236.628
236.698
236.725
236.768
236.881
237.125
237.558
238.219
239.113
240.162
241.137
241.616
240.953
238.417
233.675
227.231
220.426
214.522
209.472
203.621
194.931
182.561
167.293
150.809
134.783
120.394
108.26
98.5566
91.1896
85.9421
82.5722
80.8529
80.5734
81.5039
83.3982
85.9085
88.672
91.3324
93.5897
95.2377
96.1807
96.4402
96.1618
95.3726
94.1023
92.4846
90.6378
88.6575
86.6186
84.5771
82.5727
80.6323
78.7731
77.0046
75.3309
73.7523
72.2663
70.8683
69.5524
68.3121
67.1406
66.0314
64.9788
63.9776
63.0234
62.1125
61.2421
60.4099
59.615
58.8569
58.1373
57.457
56.8219
56.2312
55.6939
55.1941
54.734
54.2375
194.946
88.0197
64.0242
54.9512
50.6414
48.3909
47.4287
47.132
47.3545
47.8906
48.6881
49.6547
50.7612
51.9595
53.2287
54.5403
55.8791
57.2284
58.5789
59.9215
61.2517
62.5665
63.8676
65.1602
66.4508
67.7479
69.0623
70.4088
71.7895
73.2085
74.6696
76.1751
77.7248
79.3172
80.9496
82.6183
84.3192
86.0486
87.8031
89.5809
91.3817
93.2067
95.0588
96.9421
98.8615
100.822
102.83
104.889
107.005
109.184
111.43
113.749
116.153
118.633
121.181
123.789
126.449
129.154
131.897
134.673
137.478
140.306
143.155
146.022
148.904
151.802
154.711
157.631
160.56
163.494
166.429
169.361
172.285
175.194
178.083
180.946
183.78
186.586
189.365
192.127
194.882
197.65
200.451
203.308
206.243
209.271
212.396
215.611
218.89
222.191
225.457
228.62
231.608
234.35
236.784
238.865
240.567
241.889
242.857
243.521
243.946
244.201
244.351
244.449
244.535
244.642
244.808
245.077
245.503
246.137
247.039
248.28
249.895
251.77
253.439
253.959
252.203
247.624
241.106
234.397
228.245
221.299
211.269
197.079
179.61
160.855
142.78
126.726
113.352
102.803
94.9275
89.4594
86.1239
84.6736
84.8746
86.4769
89.1599
92.4847
95.996
99.2579
101.921
103.768
104.724
104.875
104.42
103.346
101.734
99.7512
97.5363
95.1972
92.8163
90.4531
88.149
85.9312
83.8159
81.8114
79.9201
78.1403
76.4676
74.8958
73.4174
72.0249
70.7105
69.4672
68.2883
67.168
66.1012
65.0838
64.1122
63.1838
62.2973
61.4516
60.6481
59.8865
59.1714
58.5
57.8779
57.2848
56.72
56.1013
208.424
92.3158
66.9089
57.2872
52.7341
50.3748
49.3887
49.1143
49.4012
50.0322
50.9524
52.0646
53.3382
54.7224
56.1948
57.7242
59.2931
60.8808
62.4743
64.0606
65.6319
67.1835
68.7155
70.2292
71.7297
73.2258
74.7271
76.2453
77.7946
79.392
81.044
82.7481
84.5013
86.3005
88.1418
90.0217
91.9363
93.8826
95.858
97.8615
99.8935
101.956
104.052
106.185
108.361
110.585
112.862
115.198
117.599
120.072
122.627
125.274
128.024
130.864
133.782
136.767
139.807
142.892
146.012
149.158
152.321
155.495
158.671
161.844
165.008
168.158
171.288
174.394
177.47
180.512
183.513
186.466
189.365
192.203
194.975
197.678
200.312
202.882
205.397
207.872
210.327
212.789
215.283
217.839
220.48
223.222
226.069
229.011
232.019
235.052
238.055
240.964
243.716
246.252
248.523
250.497
252.161
253.529
254.634
255.53
256.275
256.926
257.527
258.103
258.663
259.213
259.759
260.305
260.841
261.338
261.774
262.179
262.683
263.512
264.788
266.135
266.413
264.396
259.652
253.478
246.958
239.138
227.734
211.635
191.929
170.959
150.955
133.378
118.903
107.636
99.3725
93.8072
90.6453
89.6303
90.4922
92.9794
96.6387
100.926
105.272
109.151
112.177
114.138
115.002
114.969
114.255
112.802
110.773
108.366
105.733
102.993
100.233
97.5138
94.878
92.3515
89.9494
87.6781
85.5385
83.527
81.6375
79.8621
78.1923
76.6193
75.1344
73.7298
72.3981
71.1327
69.928
68.779
67.682
66.6337
65.6323
64.6761
63.7658
62.9003
62.0827
61.308
60.5792
59.8732
59.1854
58.4329
214.264
94.9845
68.8788
58.9982
54.3066
51.9255
50.9651
50.7616
51.1676
51.9486
53.0493
54.3664
55.869
57.5027
59.2446
61.0607
62.932
64.835
66.7546
68.6748
70.5855
72.4783
74.3496
76.1989
78.0299
79.8473
81.6595
83.4805
85.3252
87.2069
89.1403
91.1304
93.1717
95.262
97.4003
99.5847
101.812
104.081
106.389
108.738
111.129
113.566
116.054
118.6
121.212
123.897
126.661
129.51
132.456
135.516
138.694
141.98
145.367
148.842
152.393
156.005
159.664
163.355
167.063
170.774
174.473
178.147
181.782
185.366
188.886
192.332
195.692
198.957
202.118
205.166
208.093
210.891
213.554
216.076
218.457
220.702
222.822
224.832
226.757
228.625
230.474
232.342
234.273
236.305
238.471
240.793
243.275
245.901
248.644
251.456
254.277
257.042
259.685
262.147
264.381
266.357
268.068
269.528
270.774
271.855
272.825
273.733
274.617
275.499
276.4
277.344
278.35
279.424
280.542
281.63
282.534
283.029
282.942
282.334
281.541
280.979
280.45
278.98
275.626
270.639
264.506
256.186
243.458
225.412
203.51
180.48
158.782
139.947
124.623
112.855
104.388
98.8959
96.0838
95.7006
97.4403
101.03
105.841
111.195
116.39
120.827
124.101
126.043
126.704
126.416
125.333
123.429
120.939
118.079
115.012
111.86
108.713
105.632
102.656
99.8117
97.1111
94.5595
92.1558
89.8951
87.7698
85.7708
83.8884
82.113
80.4352
78.8464
77.3386
75.9046
74.5383
73.2343
71.9883
70.7965
69.6566
68.5666
67.5262
66.5333
65.5897
64.6886
63.8311
62.9911
62.164
61.2604
219.352
96.4098
69.9992
60.0545
55.3764
53.0783
52.236
52.1817
52.7861
53.7983
55.165
56.7774
58.6058
60.5926
62.7144
64.9346
67.2329
69.583
71.9679
74.3691
76.7739
79.171
81.5536
83.9177
86.2631
88.5938
90.9167
93.2391
95.5711
97.9224
100.305
102.728
105.2
107.731
110.335
113.002
115.729
118.515
121.364
124.278
127.265
130.333
133.496
136.777
140.183
143.715
147.372
151.157
155.071
159.113
163.279
167.558
171.94
176.407
180.941
185.523
190.132
194.743
199.334
203.88
208.357
212.742
217.01
221.137
225.103
228.884
232.464
235.824
238.951
241.835
244.468
246.844
248.958
250.814
252.421
253.801
254.987
256.018
256.94
257.81
258.686
259.632
260.706
261.965
263.453
265.192
267.173
269.377
271.764
274.277
276.841
279.376
281.809
284.077
286.134
287.952
289.53
290.886
292.059
293.099
294.05
294.951
295.823
296.681
297.544
298.446
299.428
300.533
301.783
303.166
304.618
305.935
306.659
306.267
304.51
301.612
298.273
294.711
290.677
286.012
280.227
271.52
257.474
237.5
213.58
188.825
165.836
146.131
130.289
118.292
109.85
104.64
102.39
102.84
105.713
110.574
116.633
123.044
128.983
133.804
137.135
138.884
139.238
138.64
137.124
134.754
131.818
128.533
125.068
121.543
118.043
114.629
111.338
108.194
105.208
102.384
99.7199
97.2096
94.8447
92.6154
90.5114
88.5224
86.6386
84.851
83.1512
81.5318
79.9863
78.5088
77.0947
75.7399
74.4418
73.1975
72.0064
70.8652
69.7747
68.7263
67.7199
66.7271
65.7425
64.6725
218.728
96.3614
70.2657
60.5695
56.0583
53.9812
53.3538
53.5666
54.4969
55.874
57.6513
59.7131
62.0333
64.5496
67.2405
70.066
73.006
76.032
79.1261
82.2671
85.4408
88.6327
91.833
95.0339
98.2318
101.425
104.615
107.803
110.989
114.183
117.398
120.647
123.948
127.318
130.766
134.295
137.912
141.624
145.445
149.384
153.454
157.666
162.031
166.561
171.261
176.132
181.174
186.384
191.758
197.285
202.954
208.746
214.641
220.614
226.636
232.677
238.703
244.677
250.564
256.322
261.914
267.298
272.435
277.284
281.808
285.97
289.74
293.091
296.004
298.468
300.478
302.035
303.144
303.818
304.084
304.003
303.649
303.085
302.394
301.67
301.005
300.488
300.192
300.21
300.605
301.37
302.468
303.88
305.566
307.45
309.426
311.4
313.295
315.051
316.621
317.984
319.143
320.12
320.961
321.711
322.413
323.094
323.77
324.453
325.162
325.93
326.778
327.714
328.697
329.657
330.548
331.37
332.012
331.968
330.49
326.606
320.595
313.615
306.824
300.678
294.146
284.494
268.899
247.036
221.397
195.366
171.584
151.49
135.552
123.67
115.539
110.87
109.442
110.936
115.156
121.374
128.635
135.925
142.338
147.254
150.39
151.761
151.761
150.855
148.913
146.157
142.877
139.282
135.528
131.729
127.966
124.293
120.747
117.352
114.117
111.048
108.143
105.395
102.797
100.339
98.0111
95.8029
93.7051
91.7084
89.8047
87.9864
86.247
84.5805
82.982
81.4473
79.9732
78.5566
77.1961
75.8877
74.6312
73.4167
72.2432
71.0803
69.9234
68.6719
216.108
95.0106
69.7723
60.5649
56.4454
54.7755
54.5453
55.2137
56.6646
58.6143
61.028
63.7827
66.859
70.1894
73.7559
77.5163
81.4529
85.5354
89.7468
94.0641
98.4721
102.953
107.494
112.083
116.711
121.368
126.045
130.736
135.438
140.155
144.887
149.65
154.476
159.393
164.399
169.499
174.706
180.046
185.536
191.194
197.035
203.071
209.31
215.761
222.427
229.307
236.398
243.691
251.171
258.821
266.616
274.529
282.526
290.571
298.62
306.631
314.552
322.333
329.918
337.25
344.271
350.918
357.13
362.847
368.008
372.558
376.445
379.628
382.081
383.793
384.773
385.023
384.568
383.42
381.622
379.292
376.55
373.524
370.347
367.157
364.089
361.268
358.806
356.791
355.27
354.25
353.699
353.599
353.916
354.569
355.347
356.185
357.01
357.757
358.371
358.825
359.117
359.271
359.327
359.33
359.321
359.33
359.373
359.466
359.63
359.883
360.243
360.72
361.271
361.798
362.087
361.974
361.372
360.005
357.363
352.383
344.339
334.037
323.595
314.45
305.592
293.799
276.122
252.56
225.868
199.289
175.345
155.397
139.811
128.421
120.925
117.073
116.717
119.45
125.055
132.481
140.615
148.334
154.755
159.372
162.061
162.983
162.693
161.494
159.297
156.383
153.003
149.339
145.526
141.663
137.819
134.046
130.38
126.845
123.454
120.214
117.127
114.189
111.394
108.734
106.201
103.787
101.483
99.2819
97.1753
95.1566
93.2196
91.3586
89.5688
87.846
86.1868
84.5877
83.0469
81.5599
80.1255
78.733
77.3808
76.0368
74.6967
73.2564
208.817
92.2802
68.5918
60.2651
56.7594
55.7007
56.0774
57.4257
59.6373
62.4181
65.7514
69.502
73.6631
78.1618
82.9899
88.1024
93.4886
99.1168
104.974
111.036
117.288
123.709
130.285
136.999
143.833
150.769
157.79
164.875
172.009
179.18
186.391
193.657
200.993
208.397
215.853
223.38
231.018
238.797
246.75
254.892
263.237
271.793
280.568
289.569
298.796
308.247
317.91
327.767
337.796
347.966
358.243
368.586
378.952
389.291
399.551
409.674
419.598
429.258
438.585
447.508
455.951
463.835
471.081
477.607
483.331
488.174
492.061
494.932
496.748
497.505
497.261
496.001
493.598
490.12
485.704
480.507
474.699
468.465
461.995
455.477
449.101
443.039
437.44
432.418
428.039
424.323
421.257
418.808
416.896
415.401
414.205