/*--------------------------------*- C++ -*----------------------------------*\
| =========                 |                                                 |
| \\      /  F ield         | OpenFOAM: The Open Source CFD Toolbox           |
|  \\    /   O peration     | Version:  v1906                                 |
|   \\  /    A nd           | Web:      www.OpenFOAM.com                      |
|    \\/     M anipulation  |                                                 |
\*---------------------------------------------------------------------------*/
FoamFile
{
    version     2.0;
    format      ascii;
    class       volScalarField;
    location    "800";
    object      k;
}
// * * * * * * * * * * * * * * * * * * * * * * * * * * * * * * * * * * * * * //

dimensions      [0 2 -2 0 0 0 0];


internalField   nonuniform List<scalar> 
12225
(
2.25874
2.22668
2.16195
2.09173
2.02505
1.96463
1.91067
1.86328
1.82061
1.78386
1.74933
1.72138
1.69879
1.68058
1.66383
1.65193
1.63744
1.63217
2.25029
2.13779
1.98565
1.87244
1.78123
1.71369
1.66067
1.61698
1.58113
1.55032
1.52534
1.50229
1.48548
1.46768
1.45716
1.44244
1.43612
1.42199
2.25785
2.21888
2.14361
2.07156
2.00395
1.94415
1.89183
1.8456
1.80507
1.76896
1.73737
1.70857
1.68383
1.66054
1.6413
1.62196
1.60745
1.59149
2.25839
2.23538
2.18791
2.13578
2.08419
2.03589
1.99183
1.95174
1.91552
1.88263
1.85297
1.82582
1.80146
1.77892
1.75885
1.73987
1.72361
1.70657
2.25891
2.24457
2.21501
2.18006
2.14383
2.10824
2.07435
2.04244
2.01264
1.9849
1.95922
1.93533
1.91328
1.89274
1.87385
1.85614
1.84024
1.82442
2.25905
2.24839
2.22761
2.20199
2.17442
2.14647
2.1191
2.09277
2.0677
2.04397
2.02165
2.00065
1.98097
1.9625
1.94524
1.92903
1.91396
1.8992
2.25918
2.25077
2.23561
2.21657
2.1956
2.17389
2.1522
2.13092
2.11033
2.09055
2.07166
2.05368
2.03662
2.02044
2.00516
1.99072
1.97716
1.96402
2.25922
2.25211
2.24034
2.22547
2.20883
2.19132
2.17352
2.15582
2.13846
2.12159
2.10531
2.08966
2.07468
2.06037
2.04674
2.03376
2.0214
2.00948
2.25927
2.2531
2.24365
2.23178
2.2184
2.20416
2.18953
2.17482
2.16025
2.14595
2.13202
2.11853
2.10551
2.09298
2.08096
2.06946
2.05846
2.04784
2.25929
2.25376
2.24586
2.23607
2.22499
2.21312
2.20081
2.18832
2.17583
2.16349
2.15137
2.13955
2.12807
2.11696
2.10624
2.09591
2.08596
2.07636
2.25932
2.2543
2.24753
2.23929
2.22998
2.21996
2.20951
2.19884
2.1881
2.17742
2.16687
2.15652
2.14641
2.13657
2.12703
2.11781
2.1089
2.10027
2.25934
2.25466
2.24864
2.24143
2.23332
2.22458
2.21543
2.20605
2.19655
2.18706
2.17764
2.16835
2.15924
2.15034
2.14168
2.13326
2.1251
2.11719
2.25937
2.25498
2.24954
2.24315
2.23601
2.22832
2.22024
2.21192
2.20348
2.195
2.18656
2.1782
2.16996
2.1619
2.15401
2.14633
2.13887
2.1316
2.25939
2.25525
2.25032
2.24464
2.23834
2.23156
2.22443
2.21707
2.20957
2.20201
2.19445
2.18693
2.17951
2.1722
2.16504
2.15804
2.15121
2.14456
2.25943
2.25552
2.25102
2.24594
2.24036
2.23438
2.22809
2.22158
2.21492
2.20819
2.20143
2.19469
2.18801
2.18141
2.17493
2.16857
2.16235
2.15627
2.25946
2.25574
2.25157
2.24697
2.24196
2.23661
2.23099
2.22517
2.2192
2.21315
2.20706
2.20097
2.1949
2.1889
2.18299
2.17717
2.17147
2.16589
2.25949
2.25592
2.252
2.24774
2.24315
2.23826
2.23314
2.22783
2.22237
2.21683
2.21124
2.20563
2.20004
2.19448
2.189
2.18359
2.17828
2.17309
2.25951
2.25603
2.25225
2.24818
2.24381
2.23919
2.23434
2.22932
2.22417
2.21892
2.21362
2.2083
2.20298
2.1977
2.19248
2.18732
2.18225
2.17726
2.2595
2.25599
2.25218
2.24806
2.24363
2.23894
2.23402
2.22892
2.22369
2.21836
2.21297
2.20756
2.20217
2.1968
2.1915
2.18627
2.18114
2.17612
2.25949
2.25585
2.25179
2.24732
2.24248
2.23731
2.23189
2.22627
2.22051
2.21466
2.20877
2.20288
2.19701
2.19119
2.18545
2.17979
2.17423
2.16876
2.25943
2.25553
2.25102
2.24592
2.24031
2.23429
2.22796
2.2214
2.2147
2.20791
2.2011
2.1943
2.18755
2.18089
2.17433
2.16791
2.16163
2.15554
2.25941
2.25519
2.25002
2.24399
2.23727
2.23003
2.22243
2.2146
2.20664
2.19862
2.19062
2.18269
2.17486
2.16717
2.15965
2.1523
2.14514
2.13813
2.25935
2.25456
2.24826
2.24066
2.23209
2.22284
2.21317
2.20324
2.19322
2.1832
2.17327
2.16349
2.15389
2.14453
2.1354
2.12653
2.11793
2.1097
2.25935
2.25385
2.24584
2.23594
2.22475
2.21278
2.20039
2.18783
2.17527
2.16285
2.15065
2.13875
2.12718
2.11598
2.10517
2.09476
2.08479
2.07515
2.25927
2.25242
2.24124
2.22717
2.21139
2.1947
2.17766
2.16062
2.14384
2.12747
2.11162
2.09634
2.08167
2.06761
2.05414
2.04126
2.02887
2.01717
2.25924
2.25041
2.23397
2.21363
2.19147
2.16867
2.14591
2.12362
2.10205
2.08135
2.06159
2.0428
2.02496
2.00806
1.99207
1.97698
1.96285
1.94964
2.25889
2.24472
2.21618
2.18219
2.14678
2.11175
2.07806
2.04624
2.01648
1.98877
1.96301
1.9391
1.91688
1.89625
1.87702
1.85917
1.84217
1.82639
2.25872
2.23436
2.18569
2.13367
2.08299
2.03495
1.99028
1.94959
1.91261
1.87899
1.84838
1.82051
1.795
1.77171
1.75027
1.73067
1.71254
1.69702
2.25333
2.17274
2.05404
1.95318
1.87047
1.80143
1.74471
1.69878
1.66015
1.62709
1.59836
1.57341
1.55127
1.53197
1.5145
1.49934
1.48523
1.47201
2.25474
2.20869
2.14516
2.08348
2.02607
1.97396
1.92684
1.88442
1.8463
1.812
1.78102
1.75293
1.72741
1.70406
1.68281
1.66312
1.64526
1.62837
0.0320669
0.0661458
0.0957639
0.112608
0.125409
0.134401
0.141945
0.147857
0.152979
0.157203
0.160913
0.164088
0.16691
0.169376
0.171556
0.173429
0.17501
0.176262
0.177199
0.17777
0.177948
0.177823
0.177303
0.176174
0.174526
0.172287
0.169438
0.164862
0.158344
0.149485
0.137598
0.121407
0.0987974
0.0771103
0.0601517
0.0569552
0.0687492
0.0884424
0.110832
0.134347
0.154052
0.169684
0.182473
0.193129
0.202109
0.209725
0.216148
0.221441
0.226172
0.230668
0.234887
0.23886
0.242591
0.246091
0.24936
0.2524
0.255207
0.257768
0.260078
0.262135
0.263936
0.265475
0.266748
0.267746
0.268411
0.268735
0.268871
0.268571
0.267307
0.266047
0.265047
0.26453
0.264419
0.264794
0.265728
0.267501
0.270231
0.274025
0.278994
0.285193
0.292669
0.301421
0.311446
0.322701
0.335144
0.348708
0.363329
0.378935
0.395451
0.412809
0.430939
0.449787
0.469293
0.489401
0.510058
0.531207
0.552794
0.574751
0.597003
0.619457
0.642004
0.664511
0.68682
0.708743
0.730062
0.750587
0.77034
0.790069
0.80991
0.829795
0.849575
0.86893
0.887431
0.904417
0.919102
0.927833
0.931468
0.92748
0.909777
0.885533
0.858976
0.828281
0.79244
0.751993
0.705341
0.655462
0.591657
0.533024
0.491514
0.467202
0.453584
0.448878
0.451163
0.462713
0.479211
0.497792
0.516032
0.531955
0.546723
0.560944
0.57423
0.585944
0.595638
0.604107
0.611644
0.619193
0.625283
0.623829
0.619708
0.614391
0.608249
0.601575
0.59461
0.587545
0.580529
0.573675
0.56707
0.560773
0.554825
0.549244
0.544038
0.539194
0.534692
0.530494
0.526577
0.522924
0.519533
0.516389
0.513498
0.510818
0.508383
0.50608
0.504037
0.501956
0.500198
0.498119
0.496142
0.493954
0.488484
0.458303
0.0526912
0.134699
0.190496
0.224329
0.250879
0.27181
0.289664
0.304841
0.318432
0.330676
0.342135
0.352973
0.363443
0.373587
0.383445
0.392953
0.402043
0.410623
0.418614
0.425953
0.432587
0.438512
0.443806
0.44858
0.45302
0.457387
0.462021
0.467309
0.473661
0.481428
0.490781
0.501558
0.513183
0.524682
0.536346
0.548704
0.561028
0.571927
0.581045
0.588779
0.59612
0.603984
0.612947
0.623172
0.634535
0.646771
0.659577
0.672657
0.685757
0.698655
0.711163
0.723138
0.73448
0.745123
0.755038
0.764221
0.772695
0.780496
0.78766
0.794215
0.800176
0.805544
0.810314
0.814478
0.818049
0.821051
0.823518
0.825508
0.827108
0.828421
0.829534
0.830536
0.831544
0.832704
0.834184
0.836158
0.838807
0.842303
0.846811
0.852475
0.859415
0.867718
0.877444
0.888613
0.901221
0.915232
0.930589
0.947217
0.965031
0.983937
1.00382
1.02457
1.04605
1.06816
1.09077
1.11377
1.13703
1.16043
1.18384
1.20712
1.23012
1.25272
1.27479
1.2962
1.31689
1.33675
1.35558
1.37412
1.3933
1.41346
1.43476
1.45697
1.47966
1.50218
1.52349
1.54268
1.5566
1.56246
1.56192
1.5529
1.53364
1.50355
1.46296
1.41439
1.36094
1.30597
1.2592
1.22701
1.20959
1.20301
1.2024
1.20457
1.20844
1.21299
1.2173
1.22119
1.22502
1.23025
1.23772
1.2468
1.25591
1.26334
1.2676
1.26842
1.26598
1.26174
1.25545
1.24572
1.2331
1.21848
1.20265
1.18623
1.16966
1.15327
1.13728
1.12186
1.10711
1.0931
1.07986
1.06739
1.05566
1.04462
1.0342
1.02433
1.01497
1.00609
0.997668
0.989692
0.982142
0.974982
0.96821
0.961758
0.955688
0.949833
0.944489
0.939082
0.934675
0.929259
0.919963
0.896124
0.0915795
0.19596
0.260357
0.30007
0.332677
0.358573
0.381112
0.400528
0.418199
0.434319
0.449596
0.464174
0.478411
0.492373
0.506201
0.519905
0.533524
0.54703
0.560393
0.573561
0.586515
0.599255
0.611806
0.624221
0.636604
0.649114
0.661969
0.67542
0.6897
0.704959
0.721195
0.738188
0.755522
0.772737
0.789586
0.806102
0.822062
0.836922
0.850722
0.864144
0.877725
0.89169
0.906153
0.921072
0.936236
0.951376
0.966243
0.980634
0.994411
1.00749
1.01986
1.03152
1.04254
1.05299
1.06298
1.07258
1.08191
1.09104
1.10003
1.10892
1.11772
1.12644
1.13506
1.14354
1.15186
1.15999
1.16793
1.17568
1.18326
1.1907
1.19806
1.20538
1.21276
1.22029
1.22807
1.23623
1.24488
1.25413
1.26408
1.27479
1.28632
1.29869
1.31191
1.32593
1.34071
1.35617
1.37222
1.38876
1.4057
1.42294
1.44038
1.45794
1.47558
1.49323
1.51085
1.52841
1.5459
1.56329
1.5806
1.59784
1.61505
1.63228
1.64962
1.66715
1.68506
1.70359
1.72304
1.74359
1.76541
1.78839
1.81233
1.83692
1.8617
1.88616
1.90943
1.93031
1.94749
1.95796
1.96152
1.95654
1.9405
1.91281
1.87408
1.82638
1.77339
1.71917
1.66775
1.62455
1.59276
1.57143
1.55731
1.54712
1.5392
1.5335
1.53081
1.53183
1.53733
1.54712
1.55986
1.57354
1.58615
1.59604
1.60206
1.60399
1.60156
1.59508
1.58486
1.57117
1.55476
1.53644
1.51696
1.4969
1.47672
1.45675
1.43723
1.41834
1.40021
1.3829
1.36644
1.35085
1.33608
1.32208
1.30877
1.29609
1.28401
1.2725
1.26155
1.25112
1.24118
1.23171
1.22268
1.21404
1.20582
1.19795
1.19054
1.18341
1.17686
1.1699
1.16097
1.14449
0.107494
0.232532
0.309432
0.355755
0.393959
0.424906
0.452335
0.47609
0.497796
0.517563
0.536325
0.554206
0.5717
0.588858
0.60591
0.622877
0.639869
0.656916
0.674082
0.691386
0.708848
0.726471
0.744223
0.761983
0.77961
0.796999
0.814095
0.830889
0.847405
0.863679
0.879721
0.895509
0.91104
0.926449
0.942161
0.958866
0.977081
0.996738
1.01749
1.03914
1.06146
1.08403
1.10635
1.12795
1.1485
1.16775
1.1856
1.20205
1.21722
1.23126
1.24437
1.25676
1.26866
1.28026
1.29172
1.30317
1.31471
1.32641
1.33827
1.35032
1.36253
1.37486
1.38726
1.3997
1.41211
1.42447
1.43674
1.44891
1.46098
1.47297
1.48489
1.4968
1.50874
1.52075
1.5329
1.54522
1.55776
1.57055
1.58359
1.59688
1.61039
1.62409
1.63794
1.65189
1.66589
1.67991
1.69393
1.70794
1.72194
1.73595
1.74998
1.76407
1.77827
1.7926
1.80708
1.8217
1.83646
1.85136
1.86639
1.88156
1.89687
1.91239
1.92817
1.94428
1.96081
1.97786
1.99548
2.01367
2.03249
2.05189
2.07182
2.09217
2.11279
2.13346
2.15382
2.17312
2.19021
2.20362
2.21085
2.21082
2.20043
2.17828
2.14422
2.09967
2.04783
1.99313
1.94012
1.89271
1.85317
1.8216
1.79662
1.77684
1.76162
1.75137
1.74673
1.74773
1.75429
1.76526
1.77868
1.79239
1.80445
1.81334
1.81811
1.81848
1.81423
1.8056
1.79307
1.77729
1.75897
1.73887
1.71763
1.69584
1.67392
1.65221
1.63096
1.61035
1.59049
1.57147
1.55331
1.53601
1.51954
1.50385
1.48886
1.47453
1.46083
1.44774
1.43523
1.42327
1.41182
1.40086
1.39036
1.38029
1.37067
1.36144
1.35269
1.34431
1.33644
1.32836
1.31918
1.30564
0.135679
0.277015
0.361438
0.412203
0.454695
0.489404
0.520851
0.548577
0.574275
0.597689
0.619851
0.640819
0.661266
0.681238
0.701076
0.720775
0.740504
0.760242
0.780052
0.799926
0.819918
0.840045
0.8603
0.880586
0.900773
0.920699
0.940204
0.959133
0.977362
0.994804
1.01143
1.02732
1.04271
1.05802
1.07397
1.09144
1.11116
1.13332
1.15748
1.1829
1.20884
1.23466
1.25978
1.28376
1.30634
1.32743
1.34707
1.3654
1.38264
1.39902
1.41479
1.43017
1.44535
1.4605
1.47572
1.49109
1.50666
1.52242
1.53837
1.55446
1.57066
1.58689
1.60312
1.61928
1.63534
1.65127
1.66704
1.68266
1.69813
1.71346
1.72867
1.74379
1.75883
1.7738
1.78871
1.80355
1.81831
1.83296
1.84748
1.86181
1.87594
1.88982
1.90346
1.91684
1.93001
1.943
1.95589
1.96877
1.98171
1.99483
2.00819
2.02186
2.03589
2.05028
2.06501
2.08003
2.09528
2.11069
2.1262
2.14174
2.15726
2.17274
2.18817
2.20354
2.21889
2.23421
2.24952
2.26478
2.27992
2.29494
2.30994
2.32501
2.34029
2.35598
2.37219
2.38877
2.40522
2.42052
2.43244
2.43814
2.43486
2.41946
2.39055
2.34879
2.29701
2.23938
2.18051
2.12458
2.07454
2.0317
1.99624
1.96797
1.94687
1.93328
1.92725
1.92814
1.93507
1.94632
1.9598
1.97335
1.98502
1.99329
1.99723
1.99644
1.99087
1.98086
1.96697
1.94989
1.93036
1.90908
1.8867
1.86376
1.84069
1.81782
1.79541
1.77362
1.75257
1.73234
1.71295
1.69441
1.6767
1.65977
1.64357
1.62804
1.61316
1.59888
1.58519
1.57205
1.55941
1.54726
1.53557
1.52432
1.51353
1.50316
1.49329
1.4838
1.47479
1.4656
1.45569
1.44248
0.153122
0.313814
0.407859
0.464184
0.51113
0.549702
0.584728
0.61598
0.64517
0.672142
0.697682
0.721786
0.745031
0.767578
0.789806
0.811825
0.833805
0.855776
0.877801
0.899849
0.921889
0.943823
0.965581
0.987118
1.00839
1.02931
1.04976
1.06959
1.08867
1.1069
1.12429
1.14095
1.15718
1.17349
1.1906
1.2093
1.23023
1.25351
1.27864
1.30478
1.33112
1.35709
1.38229
1.40649
1.42962
1.45171
1.4729
1.49336
1.51327
1.53281
1.55215
1.57139
1.59065
1.60997
1.6294
1.64895
1.66859
1.6883
1.70804
1.72775
1.74739
1.7669
1.78625
1.8054
1.82433
1.84303
1.86149
1.87971
1.89771
1.91549
1.93306
1.95043
1.96758
1.98452
2.00121
2.01763
2.03375
2.04952
2.06491
2.0799
2.09448
2.10865
2.12246
2.13595
2.14921
2.16235
2.17549
2.18876
2.20228
2.21618
2.23052
2.24537
2.26074
2.2766
2.29289
2.30949
2.32628
2.34313
2.35988
2.37642
2.39263
2.40843
2.42375
2.43853
2.45271
2.46627
2.47917
2.49141
2.50302
2.51404
2.52453
2.5347
2.54489
2.55562
2.56751
2.58105
2.5965
2.61347
2.63033
2.64314
2.64791
2.64005
2.61616
2.57594
2.52206
2.45912
2.39239
2.3268
2.26611
2.21262
2.16755
2.13147
2.10473
2.08747
2.0794
2.07943
2.08631
2.09802
2.11217
2.12637
2.13852
2.14701
2.15083
2.1496
2.14338
2.1325
2.1176
2.09943
2.07877
2.05636
2.03284
2.00876
1.98457
1.96058
1.93706
1.91417
1.89203
1.8707
1.85022
1.83059
1.81181
1.79382
1.7766
1.76007
1.74419
1.72893
1.71423
1.70008
1.68643
1.67326
1.66056
1.64829
1.63649
1.62513
1.61426
1.60379
1.59373
1.5835
1.57256
1.55843
0.177489
0.353188
0.455437
0.516231
0.566946
0.608836
0.646964
0.681262
0.713455
0.743462
0.772023
0.799117
0.825124
0.850123
0.87447
0.898328
0.921929
0.945358
0.968696
0.991953
1.01514
1.03818
1.06098
1.08344
1.10551
1.1271
1.14815
1.16856
1.18826
1.2072
1.22542
1.24309
1.26052
1.27816
1.2966
1.3164
1.33792
1.36111
1.38551
1.41049
1.43556
1.46039
1.48484
1.50885
1.53246
1.55576
1.57885
1.6018
1.6247
1.64761
1.67056
1.69356
1.71661
1.73971
1.76282
1.78591
1.80893
1.83184
1.8546
1.87715
1.89946
1.9215
1.94325
1.96469
1.98581
2.00663
2.02715
2.04739
2.06734
2.08703
2.10646
2.12561
2.14449
2.16306
2.1813
2.19917
2.21665
2.23369
2.25028
2.26642
2.28212
2.29741
2.31237
2.3271
2.3417
2.35634
2.37117
2.38635
2.40202
2.41832
2.43532
2.45306
2.47152
2.49061
2.51019
2.53009
2.55008
2.56994
2.58946
2.60844
2.62671
2.64413
2.6606
2.67602
2.69032
2.70342
2.71525
2.72574
2.73483
2.74252
2.74891
2.75421
2.75887
2.76368
2.76963
2.77783
2.78947
2.80527
2.82426
2.84281
2.85441
2.85311
2.83298
2.79248
2.7342
2.66354
2.58691
2.51031
2.43846
2.37465
2.32084
2.27805
2.24664
2.22654
2.21716
2.21709
2.22467
2.23757
2.25315
2.26876
2.28206
2.2913
2.29537
2.294
2.28729
2.27558
2.25962
2.24025
2.21831
2.19461
2.16981
2.14449
2.11908
2.09393
2.06927
2.04528
2.02207
1.9997
1.97821
1.95758
1.93781
1.91886
1.90069
1.88323
1.86643
1.85024
1.83462
1.81953
1.80494
1.79083
1.77719
1.764
1.75127
1.739
1.72721
1.71581
1.70476
1.69344
1.6813
1.66615
0.193815
0.385713
0.497959
0.56385
0.618538
0.663687
0.704781
0.741861
0.776735
0.809384
0.840563
0.870252
0.8988
0.926248
0.952817
0.978603
1.00381
1.02854
1.05291
1.07699
1.10079
1.12432
1.14752
1.17033
1.19269
1.21455
1.23585
1.25656
1.27663
1.29609
1.31502
1.33358
1.35205
1.37078
1.39015
1.41047
1.43188
1.45428
1.47742
1.50102
1.5249
1.54897
1.57321
1.59764
1.6223
1.6472
1.67236
1.69774
1.72333
1.74907
1.77492
1.80082
1.82672
1.85256
1.87829
1.90386
1.92922
1.95433
1.97915
2.00366
2.02784
2.05167
2.07516
2.09831
2.12114
2.14366
2.16588
2.18783
2.20952
2.23095
2.25212
2.27302
2.29364
2.31395
2.33391
2.35349
2.37266
2.39139
2.40968
2.42754
2.44499
2.4621
2.47897
2.49573
2.51253
2.52956
2.54702
2.5651
2.58395
2.6037
2.6244
2.64605
2.66855
2.69173
2.71535
2.7391
2.76269
2.78579
2.80814
2.82949
2.84969
2.8686
2.88618
2.90239
2.91721
2.93064
2.94267
2.95326
2.96233
2.96974
2.97527
2.97876
2.98041
2.98089
2.981
2.98246
2.98757
2.99852
3.01581
3.03664
3.05312
3.05687
3.03918
2.99675
2.93217
2.85196
2.76408
2.67591
2.59327
2.52011
2.45875
2.41035
2.37522
2.35311
2.34318
2.34392
2.35333
2.3687
2.38696
2.40506
2.42036
2.43091
2.43555
2.43412
2.42682
2.41403
2.39664
2.37565
2.35202
2.32661
2.30016
2.27324
2.24632
2.21974
2.19373
2.16847
2.14405
2.12053
2.09793
2.07624
2.05544
2.03549
2.01633
1.99789
1.98013
1.96299
1.94642
1.93039
1.91487
1.89983
1.88526
1.87116
1.85754
1.84437
1.83169
1.81936
1.8073
1.79487
1.78155
1.76531
0.214787
0.419071
0.539128
0.609097
0.667033
0.714981
0.758635
0.798172
0.835408
0.870389
0.903848
0.935797
0.966548
0.996106
1.02464
1.05222
1.07899
1.10503
1.13048
1.15538
1.1798
1.20375
1.22724
1.25023
1.27271
1.29465
1.31603
1.33683
1.35707
1.37681
1.39615
1.41523
1.43428
1.45351
1.47317
1.49342
1.51435
1.53597
1.55823
1.58111
1.60458
1.62866
1.65336
1.67868
1.70458
1.73101
1.7579
1.78515
1.81267
1.84037
1.86815
1.89594
1.92366
1.95125
1.97865
2.0058
2.03268
2.05924
2.08547
2.11135
2.13689
2.16209
2.18697
2.21154
2.23584
2.25988
2.28369
2.30728
2.33067
2.35386
2.37684
2.39961
2.42212
2.44436
2.46628
2.48786
2.50904
2.52982
2.55019
2.57017
2.5898
2.60918
2.62843
2.64771
2.66723
2.68719
2.70783
2.72933
2.75184
2.77546
2.80016
2.82583
2.85226
2.87915
2.90611
2.93276
2.95868
2.98353
3.00704
3.02903
3.04946
3.06836
3.08583
3.10205
3.11719
3.13143
3.1449
3.15768
3.1697
3.18075
3.19038
3.19798
3.20269
3.20424
3.20247
3.1988
3.19646
3.1993
3.21042
3.22906
3.24752
3.25445
3.23794
3.19248
3.1205
3.02988
2.9303
2.83061
2.73761
2.65585
2.58795
2.53504
2.49735
2.47447
2.46535
2.46833
2.48098
2.50015
2.52225
2.54375
2.56163
2.57372
2.57888
2.57712
2.56876
2.55431
2.53486
2.51161
2.48566
2.45797
2.42931
2.40032
2.37146
2.34307
2.3154
2.28858
2.26272
2.23786
2.21399
2.1911
2.16915
2.14808
2.12784
2.10835
2.08956
2.07141
2.05386
2.03686
2.02038
2.00439
1.9889
1.97388
1.95934
1.94527
1.93167
1.91837
1.90527
1.89168
1.87714
1.85997
0.227606
0.444648
0.573745
0.648039
0.709287
0.759865
0.805919
0.847672
0.887056
0.924127
0.959654
0.993652
1.02645
1.05803
1.08853
1.11795
1.14638
1.17385
1.20046
1.22627
1.25138
1.27584
1.29967
1.32289
1.34549
1.36748
1.38888
1.4097
1.43001
1.44987
1.46939
1.4887
1.50797
1.52736
1.54704
1.56716
1.58785
1.60918
1.63125
1.6541
1.67779
1.70233
1.7277
1.75388
1.78077
1.80828
1.83629
1.86469
1.89336
1.92219
1.95109
1.97996
2.00874
2.03736
2.06575
2.0939
2.12175
2.1493
2.17653
2.20346
2.2301
2.25646
2.28257
2.30846
2.33415
2.35969
2.38508
2.41034
2.43549
2.46051
2.48539
2.51011
2.53462
2.5589
2.58288
2.60653
2.62981
2.65269
2.67516
2.69726
2.71904
2.74062
2.76215
2.78381
2.80582
2.82841
2.85178
2.87609
2.90141
2.92773
2.9549
2.98266
3.01065
3.03842
3.0655
3.09142
3.1158
3.13834
3.15891
3.17752
3.19435
3.20968
3.22392
3.2375
3.25088
3.26453
3.27888
3.29435
3.31118
3.32942
3.34866
3.36795
3.38565
3.39951
3.4073
3.4087
3.40512
3.40188
3.40552
3.41917
3.43718
3.44593
3.42992
3.38094
3.3009
3.19921
3.08758
2.97653
2.87389
2.78459
2.71129
2.65505
2.61599
2.5936
2.58676
2.59355
2.61117
2.63579
2.6631
2.68896
2.7099
2.7236
2.72898
2.72638
2.71628
2.69935
2.67702
2.6507
2.62166
2.59096
2.55944
2.52777
2.49642
2.46574
2.43594
2.40718
2.37951
2.35297
2.32754
2.30318
2.27984
2.25745
2.23593
2.21523
2.19526
2.17596
2.1573
2.13921
2.12167
2.10465
2.08814
2.07212
2.0566
2.04153
2.02691
2.01255
1.9983
1.98349
1.96775
1.94959
0.245908
0.471056
0.605644
0.682833
0.746368
0.798981
0.846906
0.890485
0.931632
0.970451
1.0077
1.04341
1.0779
1.11117
1.14336
1.17445
1.20451
1.23354
1.26158
1.28866
1.31482
1.3401
1.36456
1.38824
1.41117
1.43339
1.45494
1.47589
1.49631
1.5163
1.53596
1.55543
1.57486
1.5944
1.61422
1.63447
1.65529
1.67681
1.69914
1.72236
1.7465
1.77157
1.79754
1.82433
1.85186
1.88002
1.90868
1.93773
1.96706
1.99656
2.02614
2.0557
2.08518
2.11451
2.14366
2.17258
2.20126
2.22969
2.25787
2.28581
2.31354
2.34109
2.36848
2.39574
2.4229
2.44999
2.47701
2.50399
2.53091
2.55775
2.5845
2.6111
2.63752
2.66367
2.68952
2.71498
2.74002
2.7646
2.7887
2.81237
2.83567
2.85872
2.88168
2.90473
2.92809
2.95194
2.97644
3.00165
3.02754
3.05396
3.08064
3.10718
3.13316
3.15808
3.18149
3.203
3.22235
3.23943
3.2543
3.26722
3.27859
3.28893
3.2988
3.30879
3.31949
3.33146
3.34533
3.36172
3.38124
3.40443
3.4316
3.46255
3.49617
3.52997
3.55986
3.58115
3.59124
3.59307
3.59491
3.60509
3.62226
3.63235
3.61681
3.56442
3.47639
3.36383
3.2406
3.11883
3.00729
2.91133
2.83364
2.77519
2.73605
2.71567
2.71284
2.7253
2.74975
2.78142
2.81514
2.846
2.87011
2.88504
2.88998
2.88577
2.87296
2.85261
2.82648
2.79624
2.76333
2.72892
2.6939
2.65897
2.62461
2.59114
2.55879
2.52766
2.49781
2.46925
2.44193
2.4158
2.39079
2.36681
2.34379
2.32164
2.30028
2.27966
2.2597
2.24037
2.22162
2.20342
2.18575
2.1686
2.15195
2.13576
2.11999
2.10442
2.0889
2.07278
2.05574
2.03647
0.254293
0.4885
0.629187
0.709374
0.775341
0.829856
0.879558
0.924768
0.967518
1.0079
1.0467
1.08396
1.12001
1.15483
1.18856
1.22117
1.25272
1.28318
1.31259
1.34094
1.36826
1.39457
1.41991
1.44432
1.46788
1.49065
1.51269
1.53408
1.55492
1.57532
1.59541
1.61533
1.63522
1.65525
1.67557
1.69635
1.71773
1.73984
1.76277
1.7866
1.81136
1.83702
1.86357
1.89092
1.919
1.94769
1.9769
2.00651
2.03642
2.06653
2.09675
2.12699
2.1572
2.18731
2.21728
2.2471
2.27675
2.30621
2.33552
2.36467
2.39369
2.4226
2.45143
2.4802
2.50893
2.53764
2.56632
2.59496
2.62355
2.65205
2.68041
2.70858
2.73646
2.76399
2.79108
2.81763
2.8436
2.86894
2.89364
2.91772
2.94128
2.96442
2.98732
3.01015
3.0331
3.05631
3.07989
3.10382
3.12801
3.15223
3.17617
3.19944
3.22162
3.24232
3.26119
3.27798
3.29259
3.30507
3.31562
3.32463
3.33257
3.33998
3.34742
3.35538
3.36435
3.37483
3.38737
3.40263
3.42132
3.44422
3.47219
3.50611
3.54659
3.59313
3.64295
3.69018
3.7273
3.75032
3.7641
3.77924
3.79942
3.81247
3.79813
3.74276
3.64687
3.52365
3.38929
3.25769
3.13847
3.03718
2.95645
2.89718
2.85947
2.84284
2.84596
2.8663
2.8996
2.93996
2.98108
3.01723
3.04415
3.0595
3.06302
3.05623
3.03961
3.01482
2.98399
2.94907
2.91163
2.87293
2.8339
2.79524
2.75743
2.72078
2.68547
2.65161
2.61923
2.58829
2.55875
2.53053
2.50354
2.47769
2.45288
2.42901
2.40602
2.38382
2.36234
2.34153
2.32135
2.30176
2.28274
2.26425
2.24627
2.22875
2.21163
2.19467
2.17771
2.16013
2.14166
2.12103
0.265919
0.505413
0.648389
0.730021
0.797444
0.85325
0.904235
0.950694
0.994707
1.03636
1.07647
1.11506
1.15247
1.18869
1.22385
1.25792
1.29093
1.32286
1.35369
1.38342
1.41205
1.43959
1.46608
1.49157
1.51612
1.5398
1.56271
1.58494
1.60663
1.62789
1.64885
1.66967
1.69049
1.71148
1.73278
1.75456
1.77694
1.80005
1.82397
1.84875
1.87442
1.90097
1.92837
1.95656
1.98546
2.01498
2.04503
2.07551
2.10633
2.13739
2.16861
2.19992
2.23126
2.26257
2.29382
2.32499
2.35606
2.38703
2.41789
2.44865
2.47933
2.50992
2.54045
2.57091
2.6013
2.63161
2.66183
2.69192
2.72184
2.75153
2.78092
2.80993
2.83844
2.86636
2.89359
2.92004
2.94563
2.97034
2.99417
3.01717
3.03944
3.06114
3.08245
3.10357
3.12468
3.14592
3.16737
3.18899
3.21067
3.23217
3.2532
3.27342
3.29246
3.31002
3.32584
3.33979
3.35185
3.36214
3.37095
3.37867
3.38577
3.39274
3.40002
3.40801
3.41708
3.42761
3.4401
3.45509
3.47309
3.49461
3.52025
3.55092
3.58802
3.63332
3.68784
3.74924
3.81014
3.86135
3.9
3.93247
3.96366
3.9837
3.97213
3.91456
3.81134
3.67835
3.5342
3.39431
3.26897
3.16391
3.08166
3.02319
2.98874
2.97797
2.98932
3.01992
3.06399
3.11424
3.16311
3.20407
3.23272
3.24709
3.24795
3.23731
3.21569
3.18551
3.14929
3.10915
3.06678
3.02348
2.98019
2.9376
2.89615
2.85613
2.81769
2.78091
2.74578
2.71227
2.6803
2.64976
2.62057
2.59261
2.56578
2.53998
2.51511
2.4911
2.46787
2.44536
2.42352
2.40231
2.3817
2.36165
2.34213
2.32305
2.30435
2.28579
2.26719
2.24795
2.22783
2.20558
0.270893
0.514408
0.659613
0.742544
0.811278
0.868184
0.920303
0.967858
1.01302
1.05584
1.09718
1.13704
1.17577
1.21335
1.24991
1.28542
1.31989
1.3533
1.38564
1.41687
1.447
1.47602
1.50398
1.5309
1.55688
1.58196
1.60626
1.62989
1.65301
1.67573
1.69819
1.72052
1.7429
1.76546
1.78836
1.81175
1.83575
1.86046
1.88596
1.9123
1.93949
1.96755
1.99643
2.02609
2.05647
2.08748
2.11906
2.15112
2.18356
2.21631
2.24928
2.28243
2.31567
2.34897
2.38229
2.41557
2.4488
2.48195
2.515
2.54793
2.58073
2.61337
2.64584
2.6781
2.71012
2.74187
2.77329
2.80432
2.83491
2.86497
2.89442
2.92313
2.95102
2.97796
3.00386
3.02865
3.05228
3.07478
3.09618
3.11661
3.13622
3.15521
3.17384
3.19232
3.21087
3.22963
3.24865
3.2679
3.28722
3.30636
3.325
3.3428
3.35943
3.37458
3.38805
3.39972
3.40962
3.41791
3.42486
3.43087
3.43638
3.44182
3.44761
3.45417
3.46197
3.4716
3.48373
3.49904
3.51818
3.54167
3.56976
3.60233
3.6393
3.68172
3.73246
3.79404
3.86442
3.93591
4.00112
4.0591
4.10991
4.14232
4.13553
4.0766
3.96651
3.82469
3.67235
3.52625
3.39707
3.29041
3.20872
3.15308
3.12406
3.12162
3.1438
3.18694
3.24329
3.30391
3.3599
3.40424
3.43278
3.44443
3.44131
3.4253
3.39766
3.36147
3.31949
3.27398
3.22666
3.17882
3.13137
3.08495
3.03995
2.99663
2.95511
2.91542
2.87755
2.84143
2.80695
2.77403
2.74253
2.71234
2.68335
2.65545
2.62855
2.60255
2.57739
2.55299
2.5293
2.50627
2.48386
2.46203
2.44074
2.41989
2.39939
2.379
2.35855
2.33744
2.31547
2.29134
0.275203
0.519342
0.664872
0.74823
0.817715
0.875373
0.928381
0.976864
1.02307
1.06702
1.10958
1.15075
1.19089
1.22995
1.26807
1.3052
1.34136
1.37651
1.41065
1.44372
1.47573
1.50669
1.5366
1.56551
1.59349
1.62062
1.64702
1.67278
1.69805
1.72296
1.74764
1.77226
1.79696
1.8219
1.84722
1.87306
1.89953
1.92671
1.95467
1.98347
2.01313
2.04364
2.07499
2.10714
2.14004
2.17362
2.20783
2.24258
2.27779
2.3134
2.34932
2.38549
2.42182
2.45826
2.49474
2.5312
2.56757
2.60381
2.63983
2.6756
2.71104
2.7461
2.7807
2.81478
2.84826
2.88106
2.9131
2.9443
2.97457
3.00383
3.03199
3.05895
3.0846
3.10887
3.1317
3.15307
3.17304
3.19168
3.20915
3.22564
3.2414
3.25672
3.27187
3.28713
3.30271
3.31873
3.33522
3.35206
3.36903
3.38581
3.40205
3.41735
3.43135
3.44378
3.45444
3.46327
3.47033
3.47579
3.47994
3.48318
3.48588
3.48835
3.49092
3.494
3.49809
3.50391
3.51242
3.5246
3.54151
3.56431
3.59406
3.63132
3.67559
3.7254
3.78011
3.84219
3.91452
3.99531
4.0795
4.16235
4.23661
4.28514
4.28459
4.22494
4.10861
3.95951
3.80133
3.65173
3.52136
3.41557
3.33676
3.28636
3.26541
3.27373
3.30941
3.36663
3.43564
3.50561
3.56666
3.61181
3.63773
3.64476
3.63638
3.6139
3.57984
3.53765
3.49022
3.43981
3.38808
3.33625
3.28517
3.2354
3.18729
3.14105
3.09676
3.05444
3.01404
2.97548
2.93865
2.90343
2.86969
2.83731
2.80617
2.77617
2.74719
2.71915
2.69198
2.66559
2.63994
2.61498
2.59064
2.56689
2.54367
2.52088
2.49842
2.47604
2.45356
2.43042
2.4064
2.3802
0.274697
0.517167
0.662646
0.746139
0.816209
0.874511
0.928404
0.977879
1.02527
1.07052
1.11455
1.1573
1.19914
1.24002
1.28009
1.31927
1.3576
1.39502
1.43153
1.4671
1.50172
1.53539
1.56813
1.59997
1.63098
1.66124
1.69084
1.71988
1.74845
1.77669
1.80477
1.83285
1.86108
1.88965
1.91868
1.94829
1.97855
2.00955
2.04136
2.07403
2.10759
2.14204
2.17738
2.21358
2.25059
2.28837
2.32685
2.36596
2.40562
2.44574
2.48625
2.52704
2.56802
2.60909
2.65016
2.6911
2.73183
2.77221
2.81215
2.85152
2.8902
2.92808
2.96501
3.00089
3.03558
3.06895
3.1009
3.1313
3.16008
3.18714
3.21243
3.23588
3.25742
3.27705
3.2948
3.31078
3.32515
3.33811
3.34994
3.36093
3.37142
3.38178
3.39234
3.40337
3.41508
3.42753
3.44069
3.45436
3.4682
3.48182
3.49479
3.50669
3.51717
3.526
3.53301
3.53815
3.54158
3.54346
3.54399
3.54373
3.54295
3.54165
3.54017
3.53892
3.53837
3.5395
3.54334
3.55062
3.5623
3.57976
3.60471
3.63933
3.68556
3.74332
3.81033
3.88406
3.96425
4.0528
4.15005
4.25255
4.34796
4.41199
4.41721
4.35671
4.23458
4.07965
3.91804
3.76791
3.6394
3.53735
3.46416
3.42174
3.41173
3.43336
3.48454
3.55616
3.6364
3.71282
3.77529
3.81766
3.83807
3.83893
3.82436
3.79521
3.75528
3.70811
3.65646
3.60243
3.54755
3.4929
3.43921
3.38699
3.33654
3.28802
3.24151
3.197
3.15444
3.11373
3.07477
3.03743
3.00159
2.96712
2.93389
2.90181
2.87078
2.84069
2.81147
2.78306
2.75539
2.7284
2.70204
2.67626
2.65099
2.62613
2.60157
2.57705
2.55242
2.52709
2.50089
2.47248
0.272536
0.51096
0.65435
0.737275
0.807582
0.866417
0.921205
0.971746
1.02047
1.06725
1.11306
1.15779
1.20184
1.2451
1.28773
1.32964
1.3709
1.41145
1.45129
1.49039
1.52876
1.56638
1.60328
1.63949
1.67505
1.71001
1.74445
1.77841
1.81201
1.84536
1.87858
1.91182
1.94535
1.97936
2.01393
2.04908
2.08492
2.12154
2.15902
2.19741
2.23675
2.27704
2.31826
2.3604
2.40341
2.44724
2.49183
2.53708
2.58292
2.62923
2.6759
2.72281
2.76983
2.81681
2.8636
2.91006
2.95603
3.00133
3.0458
3.08925
3.1315
3.17236
3.21165
3.24918
3.28476
3.31822
3.34939
3.37814
3.40437
3.42802
3.44904
3.46741
3.48314
3.49632
3.50712
3.51579
3.52266
3.52807
3.53238
3.536
3.53939
3.543
3.5472
3.55227
3.55838
3.56561
3.57385
3.58279
3.59198
3.60097
3.60929
3.61649
3.62229
3.62655
3.62907
3.62967
3.6288
3.62651
3.6227
3.61771
3.61182
3.60529
3.59844
3.59166
3.58546
3.58052
3.57746
3.57779
3.5828
3.59413
3.61303
3.64206
3.68409
3.74216
3.81705
3.90568
4.00263
4.10564
4.21685
4.33474
4.44456
4.51748
4.52446
4.4617
4.33506
4.17696
4.0149
3.86713
3.74321
3.64753
3.58267
3.55104
3.55427
3.59132
3.65767
3.74127
3.82831
3.90578
3.96449
4.00013
4.0129
4.00731
3.98623
3.95186
3.90828
3.85869
3.8055
3.7505
3.69494
3.63971
3.58544
3.53253
3.48127
3.43179
3.38417
3.33842
3.2945
3.25232
3.2118
3.17282
3.13527
3.09903
3.06401
3.03009
2.99719
2.96522
2.9341
2.90376
2.87415
2.84521
2.81688
2.78911
2.76182
2.7349
2.70824
2.68159
2.65479
2.62726
2.59886
2.56824
0.266404
0.499207
0.63979
0.722175
0.792846
0.852425
0.908415
0.96042
1.01097
1.05979
1.10793
1.15518
1.20196
1.24814
1.29395
1.3393
1.38429
1.42885
1.47302
1.51676
1.5601