/*--------------------------------*- C++ -*----------------------------------*\
| =========                 |                                                 |
| \\      /  F ield         | OpenFOAM: The Open Source CFD Toolbox           |
|  \\    /   O peration     | Version:  v1906                                 |
|   \\  /    A nd           | Web:      www.OpenFOAM.com                      |
|    \\/     M anipulation  |                                                 |
\*---------------------------------------------------------------------------*/
FoamFile
{
    version     2.0;
    format      ascii;
    class       volScalarField;
    location    "800";
    object      nut;
}
// * * * * * * * * * * * * * * * * * * * * * * * * * * * * * * * * * * * * * //

dimensions      [0 2 -1 0 0 0 0];


internalField   nonuniform List<scalar> 
12225
(
5.38048e-05
5.34216e-05
5.26394e-05
5.17774e-05
5.09455e-05
5.01797e-05
4.94858e-05
4.88683e-05
4.83055e-05
4.78155e-05
4.73505e-05
4.69706e-05
4.66615e-05
4.64108e-05
4.61789e-05
4.60134e-05
4.58112e-05
4.57375e-05
0.00074366
0.00027483
0.00020892
0.000186818
0.000173795
0.000168892
0.000164704
0.000161072
0.000158151
0.000155607
0.000153664
0.000151741
0.000150446
0.000148703
0.000148098
0.000146397
0.000146701
0.000144855
0.00337131
0.000965695
0.000668434
0.00056226
0.000503873
0.000472039
0.000448908
0.000431657
0.00041878
0.000408349
0.000399699
0.000392333
0.000386275
0.000380576
0.000376415
0.00037143
0.00036956
0.000364457
0.00784749
0.00229239
0.00147327
0.00117577
0.00101861
0.0009265
0.000864639
0.000819875
0.000787021
0.000761212
0.000740135
0.000723379
0.000709645
0.000697793
0.000688237
0.000678872
0.000673569
0.000663068
0.0127628
0.00432674
0.00270977
0.00210439
0.0017886
0.00159953
0.00147349
0.00138307
0.00131576
0.00126361
0.00122166
0.00118751
0.00115976
0.00113588
0.0011157
0.00109786
0.00108502
0.00106662
0.0171139
0.00693202
0.0043692
0.00334594
0.00280533
0.00247643
0.00225612
0.00209814
0.00197988
0.00188822
0.00181491
0.00175507
0.00170575
0.0016641
0.00162867
0.0015979
0.00157219
0.00154393
0.0205947
0.00988399
0.00641803
0.00491192
0.00409432
0.00358858
0.0032469
0.00300101
0.0028161
0.00267231
0.00255726
0.00246322
0.00238521
0.00231944
0.00226335
0.00221485
0.00217357
0.00213099
0.0232407
0.0129306
0.00876072
0.00676563
0.00563809
0.00492476
0.00443632
0.00408196
0.00381377
0.00360415
0.00343592
0.00329803
0.00318318
0.00308614
0.00300316
0.0029314
0.00286911
0.00280786
0.0252064
0.0158687
0.0112825
0.00885748
0.00741821
0.00648218
0.00583028
0.00535216
0.00498746
0.00470066
0.00446946
0.00427929
0.00412034
0.00398565
0.00387017
0.00377012
0.0036825
0.00359952
0.0266542
0.018555
0.0138528
0.0111074
0.00938582
0.00822884
0.00740593
0.00679373
0.00632193
0.00594795
0.00564463
0.00539393
0.00518348
0.00500449
0.00485051
0.00471667
0.00459869
0.00448973
0.0277222
0.0209147
0.016356
0.0134292
0.0114842
0.0101281
0.00913974
0.00839198
0.00780856
0.00734176
0.0069604
0.00664337
0.00637594
0.00614756
0.00595038
0.00577841
0.00562643
0.00548802
0.0284468
0.0227417
0.0184778
0.0155119
0.0134327
0.0119304
0.0108081
0.00994385
0.00926064
0.00870847
0.00825377
0.00787336
0.00755078
0.00727406
0.00703423
0.00682432
0.00663837
0.00647033
0.0290075
0.0243031
0.0204374
0.0175385
0.0153941
0.013785
0.0125501
0.0115803
0.0108022
0.0101661
0.00963763
0.00919228
0.00881241
0.00848493
0.00819993
0.00794962
0.00772748
0.00752742
0.0294889
0.0257557
0.022398
0.0196767
0.0175409
0.0158666
0.0145396
0.0134717
0.0125989
0.0118751
0.0112668
0.0107495
0.0103049
0.0099192
0.00958179
0.0092842
0.00901942
0.00878143
0.0298838
0.0270286
0.0242393
0.0217979
0.019758
0.0180793
0.0166982
0.0155545
0.0145988
0.0137922
0.0131048
0.0125137
0.0120011
0.011553
0.0111585
0.0108089
0.0104968
0.0102161
0.0301877
0.0280604
0.025827
0.0237257
0.0218568
0.0202387
0.0188526
0.0176678
0.0166526
0.0157787
0.0150219
0.0143627
0.013785
0.0132758
0.0128243
0.0124219
0.0120613
0.0117366
0.0303978
0.0288005
0.0270244
0.0252476
0.0235769
0.0220607
0.0207112
0.0195217
0.018477
0.0175597
0.0167529
0.016041
0.0154105
0.01485
0.0143496
0.0139011
0.0134976
0.0131335
0.0305044
0.0291849
0.027668
0.0260934
0.0245604
0.0231268
0.0218186
0.0206416
0.0195909
0.0186561
0.0178249
0.0170851
0.0164254
0.0158354
0.0153061
0.0148299
0.0143999
0.01401
0.0304715
0.029067
0.0274718
0.025837
0.0242635
0.0228059
0.0214857
0.020305
0.0192557
0.0183254
0.0175004
0.0167678
0.0161154
0.0155329
0.0150111
0.0145423
0.0141199
0.0137388
0.030231
0.0282139
0.026076
0.0240421
0.0222137
0.0206153
0.0192349
0.0180468
0.0170227
0.0161368
0.0153665
0.0146931
0.0141012
0.013578
0.0131134
0.0126989
0.0123278
0.0119948
0.0298206
0.026828
0.0239496
0.0214629
0.0194053
0.0177238
0.0163472
0.015211
0.0142637
0.0134653
0.0127856
0.0122011
0.0116943
0.0112512
0.0108612
0.0105159
0.0102089
0.00993631
0.0291395
0.0247087
0.0209848
0.0181323
0.0159862
0.0143545
0.0130896
0.012088
0.0112792
0.0106145
0.0100595
0.00958997
0.00918795
0.00884019
0.00853663
0.00826967
0.0080336
0.00782487
0.028036
0.0217162
0.0172852
0.0143381
0.0123314
0.0109079
0.00985703
0.00905408
0.00842268
0.00791418
0.00749641
0.00714738
0.00685157
0.00659777
0.00637758
0.00618478
0.00601468
0.00586613
0.0262543
0.0178167
0.0131459
0.0104896
0.00884751
0.00775149
0.00697411
0.00639678
0.00595219
0.00559975
0.00531378
0.00507722
0.00487839
0.00470899
0.00456289
0.00443559
0.00432345
0.00422564
0.0233814
0.0132059
0.00902261
0.00699358
0.00583834
0.00510158
0.00459313
0.00422288
0.0039417
0.00372105
0.00354346
0.00339751
0.00327549
0.00317204
0.00308299
0.00300557
0.00293651
0.00287695
0.0189045
0.00845559
0.0054501
0.00418492
0.0035064
0.0030862
0.00280093
0.00259654
0.00244276
0.00232279
0.00222672
0.00214808
0.00208256
0.00202727
0.00197963
0.00193855
0.00190192
0.00187081
0.0125844
0.00438894
0.00278859
0.00217247
0.00185037
0.00165227
0.00151835
0.00142434
0.00135358
0.00129835
0.00125433
0.00121836
0.00118853
0.0011635
0.00114146
0.00112285
0.00110539
0.00109065
0.00562611
0.00171148
0.00115551
0.000945971
0.000836975
0.000769006
0.000723321
0.00069315
0.000668764
0.000649311
0.000633783
0.000620761
0.00060951
0.000599964
0.000591289
0.000584072
0.000576845
0.000571878
0.00117126
0.000435641
0.000327287
0.000284801
0.000262906
0.000248749
0.00024142
0.000237193
0.000233216
0.000229603
0.000226368
0.000223555
0.000220994
0.000218828
0.00021675
0.000215082
0.000213291
0.00021165
7.08579e-05
7.01306e-05
6.91147e-05
6.81138e-05
6.71687e-05
6.62993e-05
6.55032e-05
6.47782e-05
6.41198e-05
6.35213e-05
6.2976e-05
6.24772e-05
6.20209e-05
6.16002e-05
6.1215e-05
6.08557e-05
6.05282e-05
6.02165e-05
1.06137e-05
3.25256e-05
3.91242e-05
4.24036e-05
4.47306e-05
4.6287e-05
4.75492e-05
4.85093e-05
4.93219e-05
4.9977e-05
5.05418e-05
5.10158e-05
5.14299e-05
5.17848e-05
5.20924e-05
5.23502e-05
5.25613e-05
5.27207e-05
5.28311e-05
5.28853e-05
5.28789e-05
5.28295e-05
5.27179e-05
5.25118e-05
5.22293e-05
5.18535e-05
5.13812e-05
5.06142e-05
4.9523e-05
4.80149e-05
4.59287e-05
4.29195e-05
3.84872e-05
3.381e-05
2.99648e-05
2.97801e-05
3.31301e-05
3.75886e-05
4.19751e-05
4.61129e-05
4.91655e-05
5.14666e-05
5.32718e-05
5.47243e-05
5.59135e-05
5.68969e-05
5.77067e-05
5.83584e-05
5.89314e-05
5.94681e-05
5.99645e-05
6.04252e-05
6.08518e-05
6.12459e-05
6.16086e-05
6.19402e-05
6.22414e-05
6.25121e-05
6.27509e-05
6.29587e-05
6.31357e-05
6.32815e-05
6.33964e-05
6.34812e-05
6.35327e-05
6.35377e-05
6.35155e-05
6.34771e-05
6.33129e-05
6.31293e-05
6.29258e-05
6.27822e-05
6.27095e-05
6.26956e-05
6.27113e-05
6.28226e-05
6.30347e-05
6.33604e-05
6.38107e-05
6.43907e-05
6.51027e-05
6.59433e-05
6.69076e-05
6.79862e-05
6.91698e-05
7.04461e-05
7.18034e-05
7.323e-05
7.47143e-05
7.62458e-05
7.78155e-05
7.94151e-05
8.10375e-05
8.26763e-05
8.43258e-05
8.59805e-05
8.76357e-05
8.92862e-05
9.09269e-05
9.25514e-05
9.41529e-05
9.57238e-05
9.72552e-05
9.8737e-05
0.000100155
0.000101491
0.000102737
0.000103948
0.000105145
0.000106329
0.000107496
0.000108627
0.000109696
0.000110669
0.000111615
0.000112185
0.000112382
0.000112292
0.000111584
0.00010994
0.000108332
0.000106444
0.000104209
0.000101641
9.85726e-05
9.53999e-05
9.0734e-05
8.5555e-05
8.13607e-05
7.86642e-05
7.69971e-05
7.63657e-05
7.60828e-05
7.67943e-05
7.80355e-05
7.95039e-05
8.09896e-05
8.22646e-05
8.33458e-05
8.43758e-05
8.53273e-05
8.61775e-05
8.68371e-05
8.73836e-05
8.78242e-05
8.82311e-05
8.87714e-05
8.86694e-05
8.8283e-05
8.77911e-05
8.72269e-05
8.66132e-05
8.59694e-05
8.53106e-05
8.46491e-05
8.39944e-05
8.33538e-05
8.27328e-05
8.21353e-05
8.15634e-05
8.10185e-05
8.05001e-05
8.00073e-05
7.95374e-05
7.90886e-05
7.86595e-05
7.82502e-05
7.78593e-05
7.74878e-05
7.71323e-05
7.67956e-05
7.6469e-05
7.61622e-05
7.58524e-05
7.55673e-05
7.52573e-05
7.49554e-05
7.46382e-05
7.40724e-05
7.15983e-05
1.36077e-05
0.000108847
0.000208744
0.000266855
0.000311561
0.000344725
0.000372853
0.000395868
0.000416601
0.000435153
0.000453245
0.000471105
0.000489462
0.000508215
0.000527322
0.000546328
0.000564814
0.000582301
0.000598389
0.000612754
0.000624958
0.000634536
0.000642147
0.00064845
0.000653975
0.000658883
0.000664014
0.000670617
0.00068009
0.000694076
0.000714281
0.000741823
0.00077586
0.000807743
0.000834244
0.000852784
0.000862505
0.000863849
0.000858486
0.000848638
0.000840165
0.000837084
0.000839426
0.000846289
0.000856539
0.000869105
0.000883074
0.000897686
0.000912254
0.000926229
0.000939232
0.000950995
0.00096134
0.000970159
0.000977409
0.0009831
0.000987293
0.000990141
0.000991733
0.000992107
0.000991258
0.000989141
0.000985675
0.000980801
0.000974586
0.000967069
0.000958309
0.000948384
0.000937282
0.000924919
0.000911359
0.000896768
0.000881368
0.000865356
0.000848965
0.000832466
0.000816149
0.000800301
0.000785198
0.000771083
0.000758166
0.000746605
0.000736514
0.000727953
0.00072094
0.000715452
0.000711435
0.000708813
0.000707494
0.00070737
0.000708254
0.000710114
0.000712913
0.000716554
0.00072095
0.000726017
0.000731673
0.000737848
0.000744457
0.000751377
0.000758437
0.00076538
0.000771811
0.000777086
0.000780084
0.000778828
0.00076995
0.000758539
0.000748772
0.000741499
0.000737363
0.000736552
0.00073922
0.00074546
0.000756207
0.000771416
0.000787326
0.000804155
0.000823578
0.000840259
0.00085282
0.000860322
0.000862283
0.000862708
0.000866185
0.000874876
0.000899387
0.000939966
0.000996448
0.00105212
0.00108353
0.00109656
0.00110229
0.00110404
0.00110284
0.00109616
0.00107688
0.00104424
0.00101329
0.000990874
0.000975352
0.000963711
0.000952313
0.000939099
0.000924294
0.000912025
0.000904457
0.000897876
0.000889264
0.000879235
0.000868769
0.000858449
0.000848596
0.000839376
0.000830866
0.000823091
0.000816044
0.000809696
0.000803996
0.000798877
0.000794261
0.000790051
0.000786172
0.000782489
0.00077895
0.00077554
0.000772259
0.000769099
0.000766062
0.000763121
0.000760302
0.000757553
0.000755004
0.000752462
0.000750534
0.000748151
0.00074791
0.000745432
0.000729583
0.000690105
1.79298e-05
0.000154498
0.000307984
0.000424713
0.000518124
0.000593047
0.000655006
0.000707066
0.00075214
0.000791549
0.000828855
0.000864491
0.00090028
0.000936058
0.000972034
0.00100728
0.00104119
0.00107362
0.00110434
0.00113318
0.00116006
0.00118506
0.00120842
0.00123047
0.0012516
0.00127233
0.00129325
0.00131499
0.00133804
0.00136269
0.00138884
0.00141562
0.00144115
0.00146658
0.00149044
0.00151149
0.00152922
0.00154396
0.00155636
0.00156731
0.0015767
0.00158499
0.00159369
0.00160369
0.00161531
0.00162846
0.00164274
0.00165764
0.00167262
0.00168716
0.00170082
0.00171326
0.00172421
0.00173353
0.00174116
0.00174708
0.00175137
0.0017541
0.00175537
0.00175526
0.00175385
0.00175117
0.00174726
0.00174216
0.00173585
0.00172836
0.00171967
0.00170979
0.00169871
0.00168651
0.00167326
0.0016591
0.00164418
0.00162871
0.0016129
0.00159699
0.00158124
0.00156591
0.00155126
0.00153751
0.00152487
0.0015135
0.00150352
0.00149501
0.00148802
0.00148254
0.00147852
0.00147589
0.00147463
0.00147511
0.00147762
0.00148127
0.00148575
0.00149093
0.00149667
0.00150287
0.00150923
0.00151576
0.00152235
0.00152881
0.00153492
0.0015404
0.00154493
0.00154811
0.00154962
0.00154948
0.0015487
0.00154965
0.00155417
0.0015631
0.00157711
0.00159662
0.00162227
0.00165662
0.00169606
0.00174267
0.00179624
0.00185279
0.00191097
0.00196778
0.00201961
0.00206338
0.00209316
0.00211862
0.00214652
0.00217635
0.00220351
0.00223552
0.00227982
0.00232347
0.00234736
0.00234127
0.00232208
0.00229857
0.00227295
0.00224298
0.00220755
0.00217818
0.00216283
0.0021593
0.00216197
0.00216545
0.00216545
0.00216041
0.00214999
0.00213702
0.00212278
0.00210494
0.00208281
0.00205817
0.00203268
0.0020074
0.00198298
0.00195982
0.00193816
0.0019181
0.0018997
0.00188295
0.00186776
0.00185398
0.00184144
0.00182981
0.00181875
0.00180809
0.00179786
0.00178812
0.00177892
0.00177024
0.00176209
0.00175439
0.00174717
0.00174033
0.00173405
0.00172811
0.00172319
0.00171848
0.00171574
0.00170715
0.00168196
0.00162307
1.94201e-05
0.000165467
0.000353783
0.000501464
0.000630034
0.000734043
0.000825317
0.000899981
0.000966441
0.0010239
0.00107787
0.00112829
0.00117814
0.00122698
0.00127576
0.00132381
0.00137116
0.00141727
0.00146172
0.0015032
0.00154199
0.00157829
0.0016123
0.00164437
0.00167487
0.00170419
0.00173265
0.00176056
0.00178818
0.00181561
0.00184269
0.00186919
0.00189478
0.0019191
0.00194157
0.00196172
0.00197959
0.00199564
0.0020103
0.00202403
0.00203734
0.00205086
0.00206511
0.0020804
0.00209678
0.00211408
0.00213196
0.00214999
0.00216772
0.00218471
0.0022006
0.00221509
0.00222798
0.00223917
0.00224864
0.00225642
0.00226261
0.00226732
0.00227066
0.00227274
0.00227366
0.00227347
0.00227222
0.00226993
0.0022666
0.00226226
0.00225689
0.00225051
0.00224315
0.00223488
0.00222579
0.00221597
0.00220558
0.00219478
0.00218374
0.00217266
0.00216175
0.0021512
0.00214122
0.00213199
0.00212367
0.0021164
0.0021103
0.00210545
0.00210192
0.00209974
0.00209893
0.00209952
0.00210141
0.00210411
0.00210709
0.00211055
0.00211478
0.00211995
0.00212612
0.0021333
0.00214138
0.00214989
0.00215863
0.0021675
0.0021764
0.00218526
0.00219402
0.00220268
0.0022113
0.00221996
0.00222856
0.00223642
0.00224919
0.00226834
0.00229533
0.00233172
0.00237549
0.00242957
0.00249435
0.00257001
0.00265505
0.00274706
0.0028389
0.00292814
0.00300988
0.00308188
0.00314389
0.00319988
0.00325079
0.00329656
0.00333773
0.0033765
0.00341172
0.00343466
0.00343361
0.0034093
0.0033759
0.00334199
0.00330988
0.00327829
0.00325332
0.00324333
0.00324728
0.0032593
0.00327306
0.00328354
0.00328796
0.00328531
0.00327565
0.00326007
0.00323894
0.00321223
0.00318096
0.00314698
0.0031119
0.00307689
0.00304274
0.00300997
0.00297891
0.00294975
0.00292257
0.00289733
0.00287396
0.00285231
0.00283207
0.00281257
0.00279311
0.00277382
0.0027551
0.00273723
0.00272034
0.00270445
0.00268955
0.00267555
0.00266248
0.0026502
0.00263895
0.00262848
0.00261953
0.00261114
0.00260419
0.00259145
0.00256414
0.00250146
2.18134e-05
0.000187528
0.000398261
0.000568963
0.000719727
0.000846529
0.000958741
0.00105546
0.0011413
0.00121681
0.00128613
0.00134876
0.00140951
0.00146773
0.0015254
0.00158127
0.00163556
0.00168767
0.00173759
0.00178525
0.00183062
0.00187374
0.00191464
0.00195345
0.00199031
0.00202542
0.00205898
0.00209116
0.00212211
0.00215185
0.00218028
0.00220712
0.00223185
0.00225374
0.00227186
0.00228791
0.00230706
0.00232959
0.00235031
0.00236934
0.00238753
0.00240563
0.00242414
0.00244333
0.00246319
0.00248353
0.00250404
0.00252434
0.00254404
0.00256282
0.00258038
0.00259652
0.00261113
0.00262417
0.00263568
0.00264571
0.00265438
0.00266178
0.00266802
0.00267319
0.00267735
0.00268054
0.00268279
0.00268411
0.0026845
0.00268395
0.00268248
0.0026801
0.00267685
0.00267278
0.00266798
0.00266254
0.00265657
0.00265022
0.00264364
0.00263698
0.0026304
0.00262408
0.00261817
0.00261281
0.00260815
0.00260429
0.00260135
0.00259938
0.00259845
0.00259859
0.0025998
0.00260206
0.00260534
0.00260961
0.00261492
0.00262143
0.00262898
0.00263736
0.00264638
0.0026559
0.00266579
0.00267628
0.00268747
0.00269942
0.0027122
0.00272593
0.0027408
0.00275704
0.00277502
0.00279528
0.00281849
0.00284644
0.00287994
0.00291769
0.00296207
0.00301266
0.00306945
0.00313541
0.00321199
0.00329982
0.00339905
0.00350804
0.00361924
0.00372364
0.00382184
0.00391329
0.00399884
0.00407917
0.00415339
0.00422027
0.00427827
0.00432459
0.00435433
0.00436342
0.00435282
0.00433004
0.0043035
0.004278
0.00425838
0.00424593
0.00424402
0.00425219
0.0042665
0.00428202
0.00429474
0.00430191
0.00430247
0.00429601
0.00428274
0.00426323
0.00423836
0.00420909
0.00417684
0.004143
0.00410864
0.00407454
0.00404122
0.00400906
0.00397827
0.00394899
0.00392124
0.003895
0.00387014
0.00384642
0.00382329
0.0037995
0.00377375
0.0037475
0.00372174
0.00369698
0.00367341
0.00365107
0.00362995
0.00360997
0.00359115
0.00357339
0.00355691
0.0035415
0.00352778
0.00351459
0.00350202
0.00348252
0.00344789
0.00337605
2.31664e-05
0.000200592
0.000431026
0.000619982
0.000791075
0.00093591
0.00106625
0.00117907
0.00128086
0.00137049
0.00145215
0.00152532
0.00159428
0.00165934
0.00172275
0.00178437
0.00184475
0.00190311
0.00195886
0.00201188
0.00206236
0.00211049
0.00215638
0.0022001
0.00224166
0.00228112
0.00231853
0.00235398
0.00238748
0.00241896
0.00244819
0.00247468
0.00249759
0.00251566
0.00253017
0.00254656
0.00256902
0.0025974
0.00262621
0.00265122
0.00267419
0.00269629
0.0027182
0.00274027
0.00276254
0.00278489
0.00280707
0.0028288
0.00284979
0.0028698
0.00288866
0.00290624
0.00292249
0.0029374
0.00295101
0.00296339
0.0029746
0.0029847
0.00299378
0.00300186
0.00300899
0.00301519
0.00302045
0.0030248
0.00302822
0.00303073
0.00303234
0.00303308
0.00303298
0.00303212
0.00303056
0.00302839
0.00302572
0.00302267
0.00301935
0.00301591
0.00301248
0.00300919
0.00300618
0.00300357
0.00300146
0.00299997
0.00299917
0.00299914
0.00299993
0.00300159
0.00300414
0.00300763
0.00301206
0.00301748
0.0030239
0.00303133
0.00303973
0.00304909
0.00305943
0.00307078
0.00308324
0.0030969
0.00311188
0.0031283
0.00314635
0.00316625
0.0031883
0.00321294
0.00324059
0.00327158
0.00330517
0.00334366
0.00338701
0.00343516
0.00348808
0.00354494
0.00360352
0.00367099
0.00375066
0.00384346
0.0039527
0.0040783
0.00421078
0.00432619
0.00443452
0.00453979
0.00464268
0.00474308
0.00483926
0.00492836
0.00500656
0.00506948
0.00511379
0.00513837
0.00514657
0.00514472
0.00513863
0.0051331
0.005131
0.00513453
0.00514384
0.00515659
0.00516966
0.00518013
0.00518591
0.00518578
0.00517943
0.00516721
0.00514869
0.00512449
0.0050963
0.00506537
0.00503284
0.00499968
0.00496655
0.00493392
0.00490211
0.00487135
0.00484174
0.00481334
0.00478613
0.00476001
0.0047348
0.00471013
0.00468533
0.00465939
0.00463063
0.00460103
0.00457187
0.00454366
0.00451656
0.0044906
0.00446577
0.00444202
0.00441936
0.00439768
0.00437719
0.00435766
0.0043394
0.00432108
0.0043018
0.00427445
0.0042319
0.00415215
2.49389e-05
0.000213344
0.000462648
0.000670045
0.000857877
0.00101922
0.00116355
0.00129061
0.00140447
0.00150639
0.00159835
0.00168226
0.00175948
0.00183106
0.0018986
0.0019629
0.00202531
0.00208587
0.0021447
0.00220128
0.00225522
0.00230674
0.00235593
0.00240284
0.00244743
0.00248971
0.00252964
0.00256724
0.00260249
0.00263528
0.00266544
0.00269261
0.00271631
0.00273601
0.00275423
0.00277512
0.00280089
0.00283017
0.00285796
0.0028835
0.0029079
0.00293185
0.00295575
0.00297975
0.00300382
0.0030278
0.00305148
0.00307463
0.00309704
0.00311854
0.003139
0.00315832
0.00317646
0.00319342
0.0032092
0.00322385
0.00323738
0.00324985
0.00326128
0.0032717
0.00328113
0.00328959
0.00329708
0.00330364
0.00330926
0.00331398
0.00331782
0.00332082
0.00332304
0.00332453
0.00332536
0.00332561
0.00332538
0.00332476
0.00332386
0.00332279
0.00332164
0.00332054
0.00331959
0.00331889
0.00331853
0.0033186
0.00331917
0.00332031
0.00332208
0.00332454
0.00332772
0.0033317
0.00333651
0.00334222
0.00334889
0.00335656
0.00336532
0.00337523
0.00338638
0.00339889
0.00341284
0.00342838
0.00344561
0.00346472
0.0034859
0.00350939
0.00353546
0.00356471
0.00359728
0.00363195
0.00367089
0.00371427
0.00376226
0.00381523
0.00387335
0.0039371
0.00400766
0.00408669
0.00417332
0.00426362
0.00436807
0.00449241
0.00463066
0.00475745
0.00487621
0.00499557
0.00511618
0.00523794
0.0053586
0.00547447
0.00558099
0.00567366
0.00574933
0.00580725
0.00584852
0.00587607
0.00589527
0.0059096
0.00592147
0.00593279
0.00594331
0.00595199
0.00595756
0.00595882
0.00595496
0.00594567
0.0059311
0.00591218
0.00588791
0.00585866
0.0058271
0.00579446
0.00576155
0.00572894
0.00569699
0.00566591
0.00563582
0.00560678
0.0055788
0.00555183
0.00552577
0.00550046
0.00547565
0.00545093
0.00542575
0.00539954
0.00537217
0.0053446
0.00531737
0.00529073
0.00526478
0.00523953
0.00521498
0.00519109
0.00516789
0.00514522
0.00512309
0.00510133
0.00507961
0.00505671
0.00503025
0.00499476
0.00494187
0.0048586
2.60561e-05
0.00022111
0.000487083
0.000710311
0.000913962
0.0010896
0.00124696
0.00138566
0.00151014
0.0016216
0.00172218
0.00181387
0.00189804
0.00197598
0.00204854
0.00211631
0.00218078
0.00224231
0.00230159
0.00235888
0.00241441
0.00246812
0.00251972
0.00256862
0.00261485
0.00265842
0.00269929
0.00273744
0.00277276
0.00280515
0.00283442
0.0028603
0.00288251
0.00290298
0.00292397
0.00294741
0.00297385
0.003002
0.00302929
0.00305534
0.00308097
0.00310665
0.00313262
0.00315888
0.0031853
0.00321167
0.00323774
0.00326329
0.0032881
0.003312
0.00333485
0.00335655
0.00337705
0.00339632
0.00341436
0.00343119
0.00344681
0.00346127
0.00347459
0.00348681
0.00349796
0.00350808
0.0035172
0.00352536
0.00353261
0.00353897
0.0035445
0.00354926
0.00355328
0.00355664
0.0035594
0.00356161
0.00356336
0.00356471
0.00356576
0.00356657
0.00356722
0.0035678
0.00356839
0.00356906
0.00356988
0.00357093
0.00357226
0.00357394
0.00357602
0.00357858
0.00358166
0.00358535
0.00358974
0.00359491
0.00360099
0.00360808
0.00361631
0.00362582
0.00363673
0.00364917
0.00366325
0.00367912
0.00369689
0.00371673
0.0037388
0.00376331
0.00379048
0.00382076
0.00385412
0.00388977
0.00392966
0.00397392
0.00402283
0.00407686
0.00413664
0.00420293
0.00427694
0.00435965
0.0044504
0.00454889
0.00465191
0.00477167
0.00491237
0.00505782
0.00518949
0.00532417
0.00546412
0.00560926
0.00575753
0.00590516
0.00604736
0.00617896
0.00629538
0.00639349
0.0064723
0.00653298
0.00657651
0.00660704
0.00662712
0.00663938
0.00664459
0.00664359
0.00663692
0.00662498
0.00660825
0.00658728
0.00656278
0.00653626
0.00650595
0.0064715
0.0064369
0.00640317
0.00637064
0.00633944
0.00630957
0.00628097
0.00625356
0.00622721
0.00620181
0.00617719
0.00615321
0.00612963
0.0061062
0.00608259
0.00605847
0.00603368
0.00600839
0.00598301
0.0059578
0.00593288
0.00590828
0.00588403
0.0058601
0.00583647
0.00581317
0.00578994
0.00576676
0.00574337
0.00571911
0.00569258
0.00566095
0.0056195
0.00556103
0.00547845
2.74307e-05
0.000229971
0.000511209
0.000749461
0.000966089
0.00115424
0.0013216
0.00146986
0.00160197
0.00172056
0.00182759
0.0019251
0.00201447
0.00209703
0.00217371
0.00224529
0.00231226
0.00237497
0.00243477
0.00249195
0.00254676
0.00259935
0.00264974
0.00269776
0.00274326
0.00278602
0.00282585
0.00286251
0.00289584
0.00292574
0.00295233
0.00297599
0.00299751
0.00301809
0.00303894
0.00306094
0.00308441
0.00310907
0.00313455
0.00316079
0.00318797
0.00321626
0.00324558
0.00327544
0.00330555
0.00333567
0.00336548
0.00339466
0.00342291
0.00345001
0.00347584
0.00350029
0.00352331
0.00354489
0.00356504
0.00358376
0.00360111
0.00361713
0.00363189
0.00364545
0.00365787
0.00366923
0.0036796
0.00368905
0.00369764
0.00370544
0.00371251
0.00371889
0.00372465
0.00372982
0.00373446
0.0037386
0.0037423
0.00374559
0.00374851
0.00375112
0.00375345
0.00375556
0.00375748
0.00375927
0.00376097
0.00376264
0.00376432
0.00376606
0.00376793
0.00377
0.00377236
0.00377511
0.00377839
0.00378234
0.00378713
0.00379292
0.00379989
0.00380821
0.00381802
0.00382947
0.00384267
0.00385773
0.00387478
0.00389393
0.0039153
0.00393906
0.00396538
0.00399445
0.00402669
0.0040615
0.00409989
0.00414263
0.00418999
0.00424249
0.00430087
0.0043661
0.00443906
0.00452186
0.00461525
0.00472037
0.00483928
0.00497166
0.00510962
0.00525983
0.00540512
0.005557
0.00571796
0.00588822
0.00606616
0.00624838
0.00642992
0.00660456
0.00676551
0.00690665
0.00702368
0.007115
0.00718066
0.00722265
0.00724489
0.00725136
0.00724539
0.00722968
0.00720685
0.00717898
0.0071477
0.00711434
0.00707998
0.00704654
0.00701066
0.00697156
0.00693475
0.00690083
0.00686955
0.00684059
0.00681364
0.00678835
0.00676441
0.00674156
0.00671952
0.00669807
0.00667697
0.00665599
0.00663489
0.00661344
0.00659151
0.00656907
0.00654627
0.00652329
0.00650025
0.00647721
0.0064542
0.00643122
0.00640824
0.00638526
0.00636223
0.00633905
0.00631551
0.00629124
0.00626536
0.00623636
0.00620139
0.00615648
0.00609621
0.00601713
2.82371e-05
0.000234508
0.000528709
0.000779003
0.00100745
0.001206
0.00138247
0.00153853
0.00167733
0.00180171
0.00191374
0.00201551
0.0021085
0.0021941
0.00227333
0.0023471
0.00241604
0.00248069
0.00254134
0.00259801
0.00265117
0.00270148
0.00274917
0.00279421
0.00283651
0.00287589
0.0029122
0.00294532
0.00297519
0.00300189
0.00302567
0.003047
0.00306652
0.00308503
0.00310331
0.00312205
0.00314177
0.00316287
0.00318568
0.00321055
0.0032377
0.00326718
0.00329881
0.00333217
0.00336672
0.00340177
0.00343651
0.00346995
0.00350186
0.00353218
0.00356084
0.00358779
0.00361299
0.00363647
0.00365825
0.00367839
0.00369697
0.00371407
0.00372981
0.00374429
0.00375765
0.00377
0.00378145
0.00379209
0.00380203
0.00381134
0.00382008
0.00382831
0.00383605
0.00384334
0.0038502
0.00385662
0.00386263
0.00386821
0.00387338
0.00387811
0.00388242
0.00388631
0.00388978
0.00389286
0.00389556
0.0038979
0.00389994
0.00390172
0.00390333
0.00390485
0.00390641
0.00390818
0.00391033
0.00391307
0.00391661
0.00392117
0.00392694
0.0039341
0.00394281
0.00395318
0.00396533
0.00397934
0.0039953
0.0040133
0.00403342
0.00405578
0.00408052
0.00410781
0.00413786
0.00417081
0.00420704
0.00424719
0.00429181
0.00434139
0.00439673
0.00445889
0.00452926
0.00460963
0.00470198
0.00480996
0.00493396
0.00507376
0.00522517
0.00538439
0.00554762
0.00571955
0.00590313
0.00609976
0.0063081
0.00652556
0.00674711
0.00696526
0.00717064
0.00735365
0.00750647
0.00762447
0.00770666
0.00775538
0.00777499
0.00777112
0.00774912
0.00771485
0.00767327
0.00762807
0.0075819
0.00753653
0.00749328
0.00745409
0.00741292
0.00736988
0.00733188
0.0072987
0.00726952
0.00724361
0.00722032
0.00719907
0.00717934
0.00716069
0.00714276
0.00712521
0.00710779
0.00709023
0.00707236
0.007054
0.0070351
0.00701567
0.00699579
0.00697556
0.00695502
0.00693422
0.00691317
0.00689189
0.00687036
0.00684858
0.00682647
0.00680393
0.00678068
0.00675625
0.00672964
0.00669934
0.0066627
0.00661658
0.0065571
0.00648361
2.93556e-05
0.000240929
0.000546298
0.000807291
0.00104433
0.00125081
0.00143308
0.00159425
0.00173751
0.00186556
0.00198056
0.00208465
0.00217934
0.0022661
0.002346
0.00241999
0.00248882
0.00255308
0.00261321
0.00266956
0.0027224
0.00277196
0.00281836
0.00286153
0.00290127
0.00293737
0.00296999
0.00299918
0.00302506
0.00304787
0.00306794
0.00308576
0.00310192
0.00311712
0.00313209
0.00314756
0.00316423
0.00318271
0.00320351
0.00322699
0.00325328
0.00328233
0.00331385
0.00334739
0.00338239
0.00341819
0.00345412
0.00348954
0.00352386
0.00355646
0.00358696
0.00361544
0.00364191
0.00366637
0.00368889
0.00370957
0.00372856
0.00374601
0.00376211
0.00377705
0.00379099
0.00380411
0.00381655
0.00382845
0.0038399
0.003851
0.0038618
0.00387233
0.00388261
0.00389263
0.00390238
0.00391181
0.00392089
0.00392955
0.00393774
0.00394541
0.0039525
0.00395896
0.00396474
0.00396984
0.00397423
0.00397793
0.00398098
0.00398344
0.00398541
0.00398702
0.00398844
0.00398987
0.00399153
0.00399365
0.00399648
0.00400022
0.00400506
0.00401116
0.00401866
0.00402766
0.00403824
0.00405047
0.00406441
0.00408014
0.00409771
0.00411728
0.00413893
0.00416282
0.00418928
0.00421881
0.00425198
0.00428931
0.00433138
0.00437881
0.00443234
0.00449294
0.00456209
0.00464151
0.00473345
0.00484118
0.0049673
0.00511335
0.00527662
0.0054526
0.00563736
0.00583173
0.00603967
0.00626343
0.00650161
0.00675279
0.00701224
0.00727142
0.00751839
0.00773998
0.00792475
0.00806532
0.00815938
0.00820923
0.00822054
0.0082015
0.00815967
0.00810474
0.00804369
0.00798155
0.0079216
0.00786571
0.00781526
0.00777156
0.00772503
0.00767899
0.00764072
0.00760891
0.00758228
0.00755976
0.00754042
0.00752345
0.00750818
0.00749404
0.00748054
0.00746729
0.00745399
0.00744039
0.00742629
0.0074116
0.00739625
0.00738025
0.00736365
0.00734649
0.0073288
0.00731061
0.00729195
0.00727283
0.00725325
0.00723318
0.00721256
0.00719124
0.00716891
0.00714503
0.00711858
0.00708812
0.00705131
0.0070058
0.006949
0.00688177
2.98534e-05
0.000244001
0.00055649
0.000824168
0.00106837
0.00128081
0.00146801
0.00163302
0.0017791
0.00190908
0.00202519
0.00212966
0.00222409
0.00231001
0.00238858
0.00246082
0.00252755
0.00258945
0.00264702
0.00270071
0.00275082
0.00279758
0.00284106
0.00288129
0.00291826
0.00295186
0.00298194
0.00300822
0.00303107
0.00305083
0.00306791
0.00308283
0.00309624
0.00310886
0.00312143
0.00313471
0.00314939
0.00316604
0.00318512
0.00320689
0.0032314
0.00325856
0.00328807
0.00331953
0.00335245
0.0033863
0.00342052
0.00345457
0.00348796
0.0035202
0.00355086
0.00357952
0.0036057
0.00362957
0.00365132
0.00367118
0.00368941
0.00370625
0.00372197
0.00373681
0.00375098
0.0037647
0.00377813
0.0037914
0.00380464
0.00381791
0.00383126
0.00384469
0.0038582
0.00387173
0.00388524
0.00389862
0.00391178
0.00392462
0.00393699
0.00394879
0.00395988
0.00397015
0.00397952
0.00398789
0.00399523
0.00400153
0.00400679
0.00401109
0.00401454
0.00401726
0.00401944
0.00402129
0.00402303
0.00402488
0.00402705
0.00402973
0.0040331
0.00403729
0.00404242
0.00404858
0.00405586
0.00406431
0.004074
0.00408499
0.00409738
0.00411134
0.00412712
0.00414512
0.00416587
0.00419002
0.00421836
0.00425175
0.00429113
0.00433758
0.00439221
0.00445608
0.0045301
0.00461513
0.00471275
0.00482583
0.0049577
0.00511195
0.0052888
0.00548402
0.00569214
0.0059112
0.00614536
0.00639714
0.00666428