/*--------------------------------*- C++ -*----------------------------------*\
| =========                 |                                                 |
| \\      /  F ield         | OpenFOAM: The Open Source CFD Toolbox           |
|  \\    /   O peration     | Version:  v1906                                 |
|   \\  /    A nd           | Web:      www.OpenFOAM.com                      |
|    \\/     M anipulation  |                                                 |
\*---------------------------------------------------------------------------*/
FoamFile
{
    version     2.0;
    format      ascii;
    class       volScalarField;
    location    "800";
    object      p;
}
// * * * * * * * * * * * * * * * * * * * * * * * * * * * * * * * * * * * * * //

dimensions      [0 2 -2 0 0 0 0];


internalField   nonuniform List<scalar> 
12225
(
-1.78722
-2.98976
-3.04023
-3.04583
-3.18204
-3.3207
-3.42731
-3.52216
-3.61365
-3.70013
-3.78058
-3.85926
-3.93982
-4.02377
-4.11115
-4.20697
-4.32038
-4.46094
-3.54771
-4.06272
-4.22078
-4.20701
-4.26292
-4.3284
-4.3774
-4.42703
-4.48219
-4.53909
-4.5959
-4.65428
-4.71745
-4.78489
-4.85786
-4.93843
-5.02604
-5.15446
-2.96267
-3.74327
-3.88305
-3.85184
-3.88531
-3.93526
-3.97707
-4.02076
-4.06927
-4.11935
-4.16985
-4.2217
-4.27748
-4.3364
-4.40038
-4.46716
-4.53856
-4.5939
-3.61782
-4.08454
-4.30261
-4.37716
-4.47022
-4.55458
-4.61699
-4.67203
-4.72654
-4.78013
-4.83306
-4.88693
-4.94364
-5.00348
-5.06664
-5.13302
-5.20053
-5.27833
-3.42687
-3.88562
-4.10118
-4.16229
-4.22512
-4.28072
-4.32299
-4.36307
-4.4049
-4.44751
-4.4906
-4.53498
-4.58152
-4.63069
-4.68085
-4.73334
-4.77638
-4.81185
-3.80418
-4.10622
-4.31267
-4.41594
-4.5201
-4.61303
-4.68901
-4.75678
-4.82072
-4.88161
-4.94032
-4.99831
-5.05664
-5.11597
-5.17528
-5.23539
-5.29256
-5.35617
-3.73868
-3.98632
-4.18662
-4.28541
-4.37272
-4.44432
-4.50077
-4.55073
-4.59812
-4.6438
-4.68836
-4.73269
-4.77714
-4.82203
-4.8656
-4.90814
-4.94042
-4.96163
-3.97942
-4.16317
-4.33834
-4.44638
-4.55114
-4.644
-4.72431
-4.79744
-4.866
-4.93095
-4.99312
-5.0535
-5.11266
-5.17096
-5.22768
-5.28302
-5.3366
-5.39257
-3.96656
-4.0934
-4.25443
-4.35672
-4.45085
-4.53004
-4.59642
-4.65524
-4.70929
-4.75988
-4.80789
-4.85409
-4.89867
-4.94175
-4.98198
-5.01908
-5.04694
-5.06495
-4.12792
-4.23765
-4.3774
-4.47758
-4.5769
-4.66624
-4.74664
-4.821
-4.8908
-4.95689
-5.01993
-5.0805
-5.13891
-5.19528
-5.24945
-5.30127
-5.35238
-5.40292
-4.13763
-4.20242
-4.3229
-4.41438
-4.50438
-4.5838
-4.65413
-4.71778
-4.77625
-4.83057
-4.88146
-4.92945
-4.97466
-5.01711
-5.05593
-5.0908
-5.11817
-5.13848
-4.24019
-4.30679
-4.41503
-4.50251
-4.5924
-4.6754
-4.75235
-4.8244
-4.89223
-4.95643
-5.01741
-5.07551
-5.13089
-5.18357
-5.23365
-5.2808
-5.32694
-5.37013
-4.25708
-4.2943
-4.38446
-4.46305
-4.5447
-4.62047
-4.69044
-4.75527
-4.81547
-4.87161
-4.9241
-4.97324
-5.0191
-5.06167
-5.10053
-5.13542
-5.16504
-5.1897
-4.34143
-4.38523
-4.46742
-4.54231
-4.62159
-4.69804
-4.77102
-4.84055
-4.9066
-4.96932
-5.02885
-5.08531
-5.13881
-5.18932
-5.23707
-5.28171
-5.32438
-5.36289
-4.36346
-4.38578
-4.44888
-4.51329
-4.58325
-4.65244
-4.71905
-4.78253
-4.84256
-4.89909
-4.9522
-5.00194
-5.04837
-5.09145
-5.13123
-5.16754
-5.20097
-5.23095
-4.43021
-4.45752
-4.51534
-4.5757
-4.6411
-4.70726
-4.77206
-4.83472
-4.89462
-4.95144
-5.00505
-5.05535
-5.10231
-5.14592
-5.18602
-5.22271
-5.25517
-5.28429
-4.45475
-4.47416
-4.52157
-4.57649
-4.63789
-4.7023
-4.76708
-4.83098
-4.89316
-4.95313
-5.01064
-5.06552
-5.11779
-5.16729
-5.21452
-5.25874
-5.30221
-5.34103
-4.4643
-4.47869
-4.51698
-4.56241
-4.61227
-4.66392
-4.71473
-4.76338
-4.80899
-4.85103
-4.88918
-4.92338
-4.95347
-4.97979
-5.00183
-5.02109
-5.03503
-5.04969
-4.50344
-4.53149
-4.58586
-4.64822
-4.71737
-4.79125
-4.86724
-4.94407
-5.02089
-5.09705
-5.17216
-5.24584
-5.31795
-5.38793
-5.45596
-5.52041
-5.583
-5.638
-4.3675
-4.37452
-4.40927
-4.45049
-4.49355
-4.53577
-4.57447
-4.6086
-4.63773
-4.6617
-4.6805
-4.69432
-4.70325
-4.7079
-4.7081
-4.70596
-4.69955
-4.69696
-4.39508
-4.44069
-4.51605
-4.59181
-4.67122
-4.75245
-4.8329
-4.91193
-4.98925
-5.0647
-5.13834
-5.21035
-5.28123
-5.35118
-5.4213
-5.49069
-5.56255
-5.62933
-4.20979
-4.22878
-4.29333
-4.35251
-4.40684
-4.45499
-4.49499
-4.52758
-4.55382
-4.57439
-4.58976
-4.60024
-4.60575
-4.60628
-4.60056
-4.58922
-4.56738
-4.54299
-4.23728
-4.31902
-4.4337
-4.53081
-4.62593
-4.71879
-4.80607
-4.88811
-4.96574
-5.03934
-5.10934
-5.1764
-5.2415
-5.30563
-5.37116
-5.43945
-5.51805
-5.60321
-3.97392
-4.04843
-4.17143
-4.25113
-4.31246
-4.3615
-4.39762
-4.4247
-4.44623
-4.46362
-4.47745
-4.48814
-4.49561
-4.49957
-4.49812
-4.4897
-4.46456
-4.42225
-4.03777
-4.19647
-4.36686
-4.48358
-4.59119
-4.69296
-4.78166
-4.85961
-4.93033
-4.99507
-5.0546
-5.10993
-5.16213
-5.21217
-5.26218
-5.31459
-5.38099
-5.46924
-3.62393
-3.8662
-4.05326
-4.12262
-4.16589
-4.20159
-4.22525
-4.24276
-4.25945
-4.27566
-4.2907
-4.3045
-4.31701
-4.32805
-4.33656
-4.34121
-4.33131
-4.29427
-3.81568
-4.1168
-4.3472
-4.46211
-4.56624
-4.66154
-4.73306
-4.7895
-4.8395
-4.885
-4.92648
-4.96489
-5.00109
-5.03548
-5.06884
-5.10206
-5.14455
-5.21301
-3.07924
-3.68412
-3.84833
-3.82788
-3.83314
-3.86176
-3.88495
-3.90638
-3.93154
-3.95811
-3.98385
-4.00849
-4.03203
-4.05435
-4.07515
-4.09466
-4.10678
-4.09628
-3.70413
-4.09055
-4.31407
-4.32622
-4.36587
-4.41386
-4.44604
-4.47452
-4.50666
-4.54054
-4.57386
-4.60634
-4.63803
-4.66874
-4.69821
-4.72652
-4.75833
-4.80823
-1.83337
-2.954
-3.02416
-3.00366
-3.10235
-3.22028
-3.31126
-3.38785
-3.46033
-3.52794
-3.58942
-3.64551
-3.69719
-3.74478
-3.78836
-3.82765
-3.86114
-3.88726
-5.07414
-5.09714
-5.11276
-5.13255
-5.15536
-5.18147
-5.20866
-5.23703
-5.26532
-5.29351
-5.32086
-5.34729
-5.37236
-5.39596
-5.41781
-5.43784
-5.45588
-5.47185
-5.48556
-5.49699
-5.50588
-5.51206
-5.51614
-5.51839
-5.51838
-5.51555
-5.50933
-5.49869
-5.4828
-5.461
-5.4326
-5.39642
-5.35264
-5.30726
-5.2708
-5.25817
-5.27496
-5.312
-5.3586
-5.40765
-5.45255
-5.49023
-5.52065
-5.54451
-5.56246
-5.57519
-5.58316
-5.58692
-5.58721
-5.58465
-5.57951
-5.57202
-5.56239
-5.55084
-5.53752
-5.52248
-5.50585
-5.48778
-5.46849
-5.44812
-5.42695
-5.40512
-5.38285
-5.3601
-5.33718
-5.3143
-5.29156
-5.26866
-5.24601
-5.22417
-5.2039
-5.18524
-5.16864
-5.15426
-5.1428
-5.13446
-5.12989
-5.12928
-5.13325
-5.14188
-5.15567
-5.17463
-5.19909
-5.22891
-5.2642
-5.30472
-5.35023
-5.4004
-5.45474
-5.51264
-5.57346
-5.63638
-5.7006
-5.76511
-5.82889
-5.89064
-5.94905
-6.00252
-6.04932
-6.08722
-6.11352
-6.12508
-6.11902
-6.09271
-6.04249
-5.96098
-5.83625
-5.66
-5.42819
-5.13705
-4.78081
-4.35392
-3.85194
-3.274
-2.62401
-1.91215
-1.15451
-0.371521
0.411076
1.15819
1.83736
2.42688
2.91949
3.32568
3.66946
3.98577
4.28102
4.54139
4.75153
4.91132
5.03568
5.14404
5.25288
5.37684
5.53094
5.72953
5.98155
6.28473
6.63094
7.01209
7.41835
7.83819
8.25965
8.67168
9.06655
9.44444
9.80402
10.1381
10.4436
10.7211
10.9718
11.1979
11.4015
11.5853
11.7516
11.9026
12.0404
12.1667
12.2832
12.3913
12.4921
12.5867
12.6758
12.7602
12.8404
12.9169
12.99
13.0601
13.1275
13.1925
13.2553
13.3163
13.3763
13.4354
13.496
13.5584
13.6307
13.7158
13.8563
14.0201
-5.14097
-5.19645
-5.23494
-5.27874
-5.31398
-5.35047
-5.38181
-5.41454
-5.44329
-5.47187
-5.49754
-5.52215
-5.5443
-5.56491
-5.58338
-5.60016
-5.61508
-5.6284
-5.64018
-5.65043
-5.6591
-5.66545
-5.66848
-5.66822
-5.66451
-5.65702
-5.64538
-5.62891
-5.60672
-5.57817
-5.54311
-5.50198
-5.45596
-5.40931
-5.36921
-5.35493
-5.37564
-5.41591
-5.46493
-5.51507
-5.56065
-5.59978
-5.63198
-5.65763
-5.67727
-5.69164
-5.7014
-5.70722
-5.7097
-5.70917
-5.70586
-5.70002
-5.69184
-5.68149
-5.66917
-5.65511
-5.63952
-5.62252
-5.60423
-5.58476
-5.56426
-5.5428
-5.52054
-5.49768
-5.4745
-5.45121
-5.42801
-5.40502
-5.38281
-5.36185
-5.3426
-5.32536
-5.31059
-5.29865
-5.29016
-5.2855
-5.28527
-5.28984
-5.29974
-5.31526
-5.3368
-5.36453
-5.39867
-5.43924
-5.48622
-5.53944
-5.59866
-5.66348
-5.73344
-5.80799
-5.8864
-5.96792
-6.05171
-6.13689
-6.22239
-6.30707
-6.38954
-6.46827
-6.54141
-6.6067
-6.66138
-6.70212
-6.72496
-6.7246
-6.69457
-6.6293
-6.52881
-6.39219
-6.2132
-5.98207
-5.68953
-5.32767
-4.88999
-4.37274
-3.77619
-3.10476
-2.368
-1.58595
-0.788627
-0.00827421
0.72654
1.39223
1.97579
2.47692
2.90574
3.29332
3.68358
4.03266
4.30684
4.50786
4.65643
4.77465
4.88378
5.00358
5.15221
5.34074
5.5708
5.84328
6.15834
6.5115
6.8949
7.29862
7.71159
8.12322
8.52398
8.90066
9.25104
9.58021
9.886
10.1674
10.4249
10.6597
10.8735
11.0684
11.2463
11.4091
11.5586
11.6964
11.824
11.9427
12.0537
12.1578
12.2561
12.349
12.4373
12.5214
12.6016
12.6784
12.7521
12.8229
12.8912
12.9574
13.0223
13.0859
13.151
13.2166
13.2922
13.3699
13.4907
13.6234
-5.15175
-5.2269
-5.24874
-5.29787
-5.3213
-5.36128
-5.38464
-5.41573
-5.43785
-5.46502
-5.48637
-5.50978
-5.52915
-5.54851
-5.56467
-5.57965
-5.5918
-5.60208
-5.60949
-5.61484
-5.61818
-5.61983
-5.61957
-5.61757
-5.61375
-5.60812
-5.6006
-5.59107
-5.57931
-5.5653
-5.54928
-5.53204
-5.5151
-5.50102
-5.49253
-5.49292
-5.50243
-5.51721
-5.5355
-5.55473
-5.57281
-5.58919
-5.60359
-5.61599
-5.62645
-5.63495
-5.64136
-5.64559
-5.64757
-5.6473
-5.64482
-5.64017
-5.63346
-5.62479
-5.61426
-5.60199
-5.58812
-5.57274
-5.556
-5.53803
-5.51899
-5.49904
-5.47834
-5.45707
-5.43541
-5.41354
-5.39166
-5.36992
-5.34866
-5.32826
-5.30913
-5.29163
-5.27622
-5.26329
-5.25333
-5.24678
-5.24413
-5.24579
-5.25221
-5.26369
-5.28059
-5.30308
-5.33134
-5.36541
-5.40524
-5.4507
-5.50155
-5.55744
-5.61797
-5.68263
-5.75079
-5.8218
-5.89488
-5.96925
-6.04394
-6.11793
-6.19001
-6.25884
-6.32278
-6.37996
-6.42814
-6.465
-6.48801
-6.49341
-6.47576
-6.42933
-6.35058
-6.23324
-6.06834
-5.84825
-5.56682
-5.21684
-4.79205
-4.28856
-3.70734
-3.05266
-2.33059
-1.55845
-0.768591
0.00771806
0.74205
1.41064
2.00055
2.51154
2.94738
3.31072
3.63639
3.94693
4.22229
4.44816
4.63082
4.78426
4.92401
5.06606
5.22609
5.41454
5.63956
5.90725
6.21746
6.56511
6.94182
7.3375
7.74134
8.14236
8.53406
8.91057
9.26519
9.59711
9.9058
10.1908
10.4522
10.6911
10.909
11.1077
11.2892
11.4554
11.6079
11.7486
11.8788
12
12.1131
12.2193
12.3193
12.4139
12.5037
12.5891
12.6706
12.7484
12.8231
12.8947
12.9639
13.0307
13.0962
13.1601
13.2254
13.2904
13.3646
13.4387
13.5459
13.635
-5.18047
-5.28382
-5.30876
-5.37406
-5.39612
-5.44607
-5.47033
-5.51279
-5.53728
-5.57174
-5.59512
-5.62413
-5.64517
-5.6679
-5.68521
-5.70217
-5.71548
-5.72771
-5.73731
-5.7451
-5.75015
-5.75312
-5.75332
-5.75095
-5.74618
-5.73949
-5.73099
-5.72085
-5.70904
-5.69568
-5.68106
-5.66589
-5.65133
-5.63921
-5.63194
-5.63253
-5.64163
-5.65522
-5.66998
-5.6845
-5.6983
-5.71111
-5.72287
-5.73383
-5.74385
-5.75268
-5.76003
-5.76563
-5.76927
-5.7708
-5.77014
-5.76727
-5.76223
-5.75507
-5.74588
-5.7348
-5.72193
-5.70739
-5.69132
-5.67381
-5.65502
-5.63507
-5.61416
-5.59246
-5.57022
-5.54768
-5.52513
-5.50286
-5.48126
-5.46071
-5.44166
-5.42452
-5.40978
-5.39791
-5.38944
-5.38488
-5.38475
-5.38955
-5.39974
-5.41576
-5.43797
-5.46668
-5.50209
-5.54433
-5.59341
-5.64924
-5.71161
-5.78017
-5.85451
-5.93411
-6.01826
-6.10622
-6.19718
-6.29023
-6.38436
-6.47841
-6.57109
-6.66086
-6.74594
-6.82416
-6.8929
-6.94918
-6.98975
-7.01079
-7.00761
-6.97541
-6.9096
-6.8039
-6.65166
-6.44639
-6.17964
-5.84319
-5.42939
-4.93243
-4.35076
-3.68881
-2.9544
-2.15895
-1.33167
-0.507856
0.281733
1.00895
1.65494
2.21472
2.69513
3.10696
3.46494
3.77289
4.02017
4.21244
4.36197
4.48559
4.60037
4.72373
4.87287
5.05938
5.29011
5.56689
5.88648
6.24309
6.62809
7.03134
7.44239
7.85069
8.24779
8.62725
8.98495
9.3197
9.63044
9.91696
10.1798
10.4201
10.6394
10.8397
11.0229
11.1908
11.3452
11.4877
11.6198
11.7428
11.8578
11.9658
12.0677
12.1642
12.2558
12.3431
12.4264
12.506
12.5824
12.6557
12.7265
12.7946
12.8615
12.9262
12.9923
13.0564
13.1294
13.1976
13.2951
13.3713
-5.1738
-5.29371
-5.31111
-5.38643
-5.39632
-5.4531
-5.46754
-5.51198
-5.53031
-5.56734
-5.58665
-5.61558
-5.63331
-5.65622
-5.67115
-5.68804
-5.69972
-5.71126
-5.71907
-5.72592
-5.73024
-5.73363
-5.73504
-5.73516
-5.73383
-5.73169
-5.72884
-5.72562
-5.7221
-5.71845
-5.71475
-5.71126
-5.70834
-5.70658
-5.70665
-5.70921
-5.71405
-5.71935
-5.7238
-5.7275
-5.73098
-5.73459
-5.73845
-5.74269
-5.74708
-5.75131
-5.75497
-5.7577
-5.75919
-5.7592
-5.75757
-5.7542
-5.74906
-5.74213
-5.73345
-5.72306
-5.71105
-5.69749
-5.68247
-5.66609
-5.64849
-5.62977
-5.6101
-5.58962
-5.56854
-5.54704
-5.52537
-5.5038
-5.48265
-5.46228
-5.44311
-5.42555
-5.41006
-5.39711
-5.38723
-5.38089
-5.37863
-5.38093
-5.38826
-5.40104
-5.41967
-5.44442
-5.47553
-5.5131
-5.55717
-5.60763
-5.66424
-5.72668
-5.79452
-5.8672
-5.94407
-6.02438
-6.10738
-6.19222
-6.27801
-6.36373
-6.44832
-6.5305
-6.60881
-6.68153
-6.74657
-6.80149
-6.84328
-6.86841
-6.87246
-6.85105
-6.79955
-6.71233
-6.58213
-6.40041
-6.15837
-5.84745
-5.45898
-4.9857
-4.42242
-3.7701
-3.0357
-2.23082
-1.37876
-0.516428
0.319297
1.09574
1.78786
2.38235
2.87636
3.27693
3.60284
3.86835
4.08116
4.24934
4.3845
4.50148
4.61549
4.7417
4.89504
5.08561
5.31854
5.59703
5.9201
6.28145
6.67144
7.07897
7.49296
7.90358
8.30363
8.68674
9.04805
9.38576
9.69887
9.98733
10.2518
10.4935
10.7142
10.9157
11.1
11.2689
11.4243
11.5677
11.7007
11.8245
11.9403
12.049
12.1515
12.2485
12.3406
12.4282
12.5118
12.5917
12.6683
12.7417
12.8127
12.8808
12.9476
13.0119
13.0777
13.1403
13.2117
13.2742
13.3632
13.4086
-5.1712
-5.31366
-5.33703
-5.42479
-5.43799
-5.50114
-5.51966
-5.56887
-5.59134
-5.6314
-5.65656
-5.69144
-5.71596
-5.74319
-5.76363
-5.78418
-5.79965
-5.81426
-5.82539
-5.83518
-5.8422
-5.84792
-5.85145
-5.85328
-5.85313
-5.8515
-5.8485
-5.84456
-5.83987
-5.83474
-5.82939
-5.82419
-5.81953
-5.81594
-5.81398
-5.81412
-5.81634
-5.81982
-5.82373
-5.82798
-5.83276
-5.83814
-5.84399
-5.85016
-5.85632
-5.86208
-5.86703
-5.87083
-5.8732
-5.87392
-5.87288
-5.86998
-5.8652
-5.85853
-5.85001
-5.83968
-5.8276
-5.81383
-5.79845
-5.78156
-5.76327
-5.74371
-5.72305
-5.70148
-5.67921
-5.65649
-5.63363
-5.61092
-5.58874
-5.56748
-5.54759
-5.52954
-5.51382
-5.50098
-5.49156
-5.48615
-5.4853
-5.48958
-5.49954
-5.51568
-5.53843
-5.56817
-5.60516
-5.64954
-5.70135
-5.76045
-5.82658
-5.89934
-5.97819
-6.06253
-6.15154
-6.24445
-6.34038
-6.43846
-6.53769
-6.63706
-6.7354
-6.83141
-6.92356
-7.01004
-7.08874
-7.15717
-7.21247
-7.25111
-7.26892
-7.2611
-7.22218
-7.14547
-7.02408
-6.85149
-6.61953
-6.31931
-5.94143
-5.47699
-4.91781
-4.26103
-3.50978
-2.67427
-1.77516
-0.849457
0.057683
0.904887
1.66047
2.30609
2.83596
3.25406
3.5745
3.81328
3.98421
4.10404
4.19129
4.26537
4.34465
4.4462
4.58579
4.77462
5.0183
5.31474
5.65819
6.03987
6.44862
6.87266
7.30069
7.72249
8.1305
8.51894
8.88393
9.22379
9.53779
9.82623
10.0901
10.3309
10.5505
10.7509
10.934
11.1018
11.2561
11.3987
11.5308
11.654
11.7692
11.8774
11.9796
12.0764
12.1684
12.2561
12.3398
12.4199
12.4967
12.5703
12.6415
12.7096
12.7765
12.8401
12.9053
12.9654
13.0337
13.0892
13.1686
13.2048
-5.14052
-5.3056
-5.33021
-5.42596
-5.437
-5.50261
-5.51957
-5.56889
-5.59011
-5.62994
-5.65343
-5.6867
-5.71061
-5.73917
-5.76025
-5.78175
-5.79862
-5.81491
-5.82738
-5.83852
-5.84727
-5.85501
-5.86117
-5.86633
-5.87019
-5.87319
-5.87528
-5.87677
-5.87772
-5.87833
-5.87864
-5.8788
-5.87886
-5.87898
-5.87925
-5.87977
-5.88049
-5.88128
-5.88209
-5.88313
-5.88459
-5.88656
-5.88895
-5.89166
-5.8944
-5.89688
-5.8988
-5.89987
-5.89988
-5.89865
-5.89604
-5.89197
-5.88637
-5.87919
-5.87043
-5.86006
-5.84811
-5.83459
-5.81956
-5.80307
-5.78521
-5.76609
-5.74583
-5.72459
-5.70257
-5.67997
-5.65708
-5.63418
-5.61163
-5.58982
-5.56919
-5.55021
-5.53343
-5.51937
-5.50865
-5.50184
-5.49958
-5.50245
-5.51106
-5.52591
-5.5475
-5.57618
-5.61223
-5.65576
-5.70676
-5.76504
-5.83026
-5.90193
-5.97947
-6.06213
-6.14912
-6.23961
-6.33274
-6.4277
-6.52362
-6.61962
-6.71476
-6.80796
-6.89796
-6.98323
-7.06198
-7.13195
-7.19066
-7.23498
-7.26147
-7.26607
-7.24438
-7.19088
-7.09888
-6.95928
-6.76274
-6.49904
-6.15762
-5.72666
-5.19446
-4.55234
-3.79792
-2.93616
-1.98646
-0.987767
0.00444536
0.935294
1.76282
2.46125
3.02141
3.44755
3.75475
3.96194
4.09161
4.16793
4.21472
4.2548
4.30876
4.39435
4.5263
4.71358
4.95882
5.26175
5.61581
6.01018
6.43209
6.86852
7.30747
7.73872
8.15465
8.54947
8.91951
9.26318
9.58004
9.87062
10.1361
10.3783
10.599
10.8004
10.9845
11.1532
11.3085
11.4519
11.5849
11.7089
11.8249
11.934
12.0368
12.1343
12.2269
12.3151
12.3993
12.4799
12.5572
12.6312
12.7028
12.7711
12.8382
12.9016
12.9666
13.0256
13.0928
13.144
13.2188
13.2418
-5.11407
-5.30282
-5.33401
-5.44253
-5.45558
-5.52827
-5.54783
-5.60182
-5.62629
-5.66962
-5.69684
-5.73393
-5.76192
-5.79399
-5.82069
-5.84843
-5.87074
-5.89123
-5.90826
-5.92372
-5.93626
-5.94704
-5.95555
-5.96238
-5.96742
-5.97106
-5.9734
-5.97471
-5.97513
-5.97487
-5.97405
-5.97287
-5.97145
-5.97002
-5.96874
-5.96785
-5.9675
-5.96782
-5.96881
-5.97049
-5.97284
-5.97579
-5.97917
-5.98276
-5.98627
-5.98942
-5.99192
-5.99354
-5.99406
-5.99331
-5.99116
-5.98751
-5.98226
-5.97535
-5.96675
-5.95643
-5.94437
-5.93061
-5.91516
-5.89809
-5.87948
-5.85943
-5.83808
-5.81561
-5.79221
-5.76815
-5.74369
-5.71918
-5.695
-5.67158
-5.6494
-5.62899
-5.61093
-5.59585
-5.58439
-5.57726
-5.57513
-5.57871
-5.58865
-5.60557
-5.63
-5.66236
-5.70294
-5.75186
-5.80907
-5.87431
-5.94714
-6.02696
-6.11302
-6.20451
-6.30046
-6.39993
-6.50205
-6.60591
-6.7107
-6.81556
-6.91961
-7.02184
-7.12108
-7.2159
-7.30455
-7.38497
-7.45467
-7.51074
-7.54963
-7.56719
-7.5586
-7.51843
-7.44015
-7.31685
-7.14043
-6.90128
-6.58847
-6.18708
-5.6815
-5.05634
-4.30092
-3.41083
-2.40129
-1.31473
-0.2204
0.808479
1.71636
2.47124
3.06247
3.49497
3.78582
3.95916
4.0436
4.06745
4.06015
4.05
4.06253
4.11911
4.23668
4.42545
4.68597
5.01171
5.39176
5.81236
6.25858
6.7161
7.17216
7.61647
8.04176
8.4429
8.81683
9.16239
9.47963
9.76951
10.0336
10.2738
10.4924
10.6915
10.8733
11.0399
11.193
11.3345
11.4657
11.5881
11.7027
11.8105
11.9124
12.0089
12.1008
12.1885
12.2723
12.3525
12.4295
12.5032
12.5744
12.6422
12.7087
12.771
12.8347
12.8906
12.9545
12.9988
13.0675
13.0791
-5.07305
-5.28163
-5.31739
-5.43366
-5.44751
-5.52287
-5.54322
-5.59799
-5.62304
-5.66642
-5.69385
-5.73061
-5.75874
-5.79116
-5.81825
-5.84621
-5.87083
-5.89511
-5.91556
-5.93388
-5.94986
-5.96401
-5.9762
-5.98686
-5.99594
-6.00371
-6.01019
-6.01559
-6.01996
-6.02343
-6.02605
-6.02794
-6.02916
-6.02986
-6.03017
-6.03029
-6.0304
-6.03064
-6.03112
-6.03192
-6.03307
-6.03453
-6.03618
-6.03788
-6.03942
-6.0406
-6.04122
-6.0411
-6.04006
-6.03796
-6.03466
-6.03006
-6.02405
-6.01655
-6.0075
-5.99684
-5.98455
-5.9706
-5.95502
-5.93782
-5.91906
-5.89881
-5.8772
-5.85436
-5.83048
-5.80578
-5.78054
-5.75509
-5.72981
-5.70515
-5.68161
-5.65976
-5.64024
-5.62371
-5.61091
-5.6026
-5.59954
-5.60252
-5.61225
-5.62943
-5.65462
-5.68827
-5.73065
-5.78183
-5.84165
-5.90975
-5.98553
-6.06819
-6.15684
-6.25045
-6.34798
-6.44839
-6.55078
-6.65433
-6.75832
-6.86209
-6.96495
-7.06618
-7.1648
-7.25964
-7.34915
-7.43156
-7.50465
-7.56596
-7.61241
-7.64067
-7.64681
-7.62655
-7.57402
-7.48204
-7.34266
-7.14657
-6.88195
-6.53305
-6.08043
-5.4999
-4.76656
-3.86197
-2.78999
-1.59609
-0.370788
0.78299
1.79042
2.61492
3.24616
3.69165
3.97117
4.11186
4.14795
4.1163
4.05347
3.9934
3.96587
3.99498
4.09818
4.28368
4.55058
4.89124
5.29164
5.7348
6.20315
6.68047
7.15315
7.61074
8.04621
8.45485
8.83417
9.18343
9.50312
9.79457
10.0596
10.3005
10.5195
10.719
10.9011
11.068
11.2215
11.3634
11.4951
11.618
11.7332
11.8416
11.944
12.0412
12.1337
12.222
12.3064
12.3872
12.4648
12.5391
12.6108
12.679
12.7459
12.8081
12.8718
12.9268
12.99
13.0313
13.0975
13.1026
-5.04279
-5.26835
-5.31073
-5.43782
-5.45291
-5.53468
-5.55651
-5.61567
-5.64274
-5.68949
-5.7193
-5.75901
-5.78975
-5.82501
-5.85523
-5.88693
-5.91506
-5.94239
-5.96702
-5.99044
-6.01042
-6.02783
-6.04289
-6.0558
-6.06672
-6.07589
-6.08344
-6.08956
-6.09435
-6.098
-6.10063
-6.1024
-6.10348
-6.10405
-6.1043
-6.10445
-6.10467
-6.10511
-6.10586
-6.107
-6.1085
-6.11032
-6.11234
-6.1144
-6.11633
-6.11793
-6.119
-6.11936
-6.11883
-6.11724
-6.11445
-6.1103
-6.1047
-6.09752
-6.08869
-6.07814
-6.06582
-6.05169
-6.03576
-6.01803
-5.99854
-5.97738
-5.95465
-5.93049
-5.90509
-5.87868
-5.85156
-5.82407
-5.79664
-5.76973
-5.74391
-5.71982
-5.69814
-5.67967
-5.66521
-5.65564
-5.65184
-5.6547
-5.66505
-5.68367
-5.71121
-5.74814
-5.79472
-5.85099
-5.91667
-5.99121
-6.0738
-6.16341
-6.25889
-6.35898
-6.46245
-6.56816
-6.67518
-6.78273
-6.89023
-6.99717
-7.10306
-7.20732
-7.30913
-7.40735
-7.50054
-7.58689
-7.66434
-7.73046
-7.78246
-7.8172
-7.83065
-7.81746
-7.77285
-7.69269
-7.57168
-7.40277
-7.17643
-6.87908
-6.48979
-5.97837
-5.30353
-4.42216
-3.31219
-2.0143
-0.646597
0.646735
1.76563
2.66388
3.33095
3.78005
4.03732
4.1376
4.12237
4.03139
3.90679
3.78902
3.7142
3.71159
3.80192
3.99333
4.28082
4.65104
5.08487
5.56109
6.05922
6.56144
7.05357
7.5255
7.97088
8.38584
8.76866
9.11926
9.43871
9.72881
9.99181
10.2302
10.4464
10.6431
10.8224
10.9866
11.1376
11.2771
11.4067
11.5277
11.6411
11.7481
11.8493
11.9454
12.0371
12.1246
12.2084
12.2887
12.3658
12.4396
12.5109
12.5784
12.6446
12.7055
12.7677
12.8197
12.88
12.9152
12.9778
12.9731
-5.003
-5.24243
-5.28927
-5.42182
-5.43874
-5.52243
-5.54582
-5.60585
-5.63406
-5.68131
-5.71186
-5.75186
-5.78308
-5.8186
-5.84926
-5.88144
-5.91055
-5.93976
-5.96642
-5.99242
-6.01636
-6.03791
-6.05677
-6.07388
-6.08904
-6.10239
-6.11396
-6.12395
-6.13237
-6.13942
-6.14517
-6.14981
-6.15347
-6.15634
-6.15858
-6.1604
-6.16195
-6.16338
-6.16479
-6.16628
-6.16784
-6.16946
-6.17108
-6.17259
-6.17386
-6.17476
-6.17513
-6.17481
-6.17365
-6.17149
-6.16818
-6.1636
-6.15762
-6.15013
-6.14104
-6.13025
-6.1177
-6.10334
-6.08714
-6.06909
-6.0492
-6.02752
-6.00414
-5.97916
-5.95276
-5.92516
-5.89664
-5.86756
-5.83833
-5.80947
-5.78159
-5.75537
-5.73159
-5.71111
-5.69487
-5.68384
-5.67902
-5.68142
-5.692
-5.7116
-5.74094
-5.7805
-5.83047
-5.89073
-5.9608
-6.03984
-6.12672
-6.22008
-6.31847
-6.4204
-6.52454
-6.62976
-6.73523
-6.84039
-6.94493
-7.04864
-7.15131
-7.25258
-7.3518
-7.44789
-7.53951
-7.62493
-7.70215
-7.76893
-7.82251
-7.85967
-7.87619
-7.86755
-7.83077
-7.76163
-7.65499
-7.50599
-7.30898
-7.05505
-6.72928
-6.3045
-5.72809
-4.92352
-3.82276
-2.4401
-0.91797
0.546588
1.80741
2.79777
3.51108
3.97104
4.21137
4.27119
4.19796
4.04001
3.84698
3.66655
3.54141
3.50563
3.58201
3.77688
4.08286
4.48164
4.94868
5.45804
5.98599
6.51302
7.02453
7.51091
7.96655
8.38853
8.77589
9.12921
9.45012
9.74083
10.0039
10.2421
10.458
10.6542
10.8332
10.9971
11.1479
11.2874
11.417
11.5382
11.6519
11.7592
11.8609
11.9575
12.0497
12.1378
12.2223
12.3032
12.381
12.4554
12.5272
12.5952
12.6618
12.7227
12.785
12.8362
12.8961
12.9292
12.9905
12.9813
-4.9772
-5.23186
-5.28024
-5.42184
-5.43818
-5.52783
-5.55157
-5.61587
-5.64532
-5.69586
-5.72814
-5.77088
-5.80407
-5.84206
-5.87486
-5.9094
-5.94069
-5.97202
-6.00088
-6.02885
-6.05423
-6.07823
-6.10021
-6.11963
-6.1365
-6.15161
-6.16488
-6.17639
-6.18618
-6.19449
-6.20139
-6.20713
-6.21184
-6.21573
-6.21898
-6.22178
-6.22426
-6.22659
-6.22886
-6.23112
-6.23341
-6.23571
-6.23797
-6.24009
-6.24196
-6.24345
-6.24442
-6.2447
-6.24414
-6.24257
-6.23985
-6.23581
-6.23033
-6.22328
-6.21453
-6.20399
-6.19157
-6.1772
-6.16081
-6.14238
-6.12191
-6.09942
-6.07497
-6.04868
-6.0207
-5.99124
-5.96059
-5.92912
-5.89727
-5.8656
-5.83475
-5.8055
-5.77874
-5.75544
-5.73668
-5.72356
-5.71727
-5.71895
-5.72968
-5.75041
-5.78187
-5.82451
-5.87841
-5.94323
-6.01819
-6.10213
-6.19357
-6.29085
-6.39232
-6.4964
-6.60179
-6.7075
-6.81291
-6.91772
-7.02185
-7.12533
-7.22808
-7.32982
-7.42985
-7.52703
-7.61986
-7.70648
-7.78473
-7.8524
-7.90679
-7.94489
-7.96349
-7.95791
-7.92243
-7.85239
-7.74379
-7.59286
-7.39676
-7.15268
-6.85484
-6.48635
-6.00307
-5.31581
-4.30108
-2.90782
-1.26658
0.368096
1.77519
2.85621
3.60843
4.0691
4.28281
4.29858
4.1681
3.94298
3.67884
3.43179
3.25345
3.18554
3.25501
3.46597
3.80485
4.24538
4.756
5.3056
5.86748
6.42103
6.95192
7.45167
7.91585
8.34276
8.73235
9.08598
9.40584
9.69463
9.95523
10.1906
10.4036
10.5969
10.773
10.9342
11.0825
11.2197
11.3473
11.4666
11.5787
11.6847
11.7852
11.8808
11.9722
12.0597
12.1436
12.2241
12.3015
12.3755
12.4469
12.5143
12.5802
12.6399
12.7009
12.7495
12.8071
12.8353
12.8946
12.878
-4.94664
-5.21367
-5.25935
-5.40536
-5.42074
-5.51272
-5.53636
-5.60206
-5.63183
-5.68342
-5.71628
-5.76001
-5.79399
-5.83307
-5.86693
-5.90283
-5.93568
-5.96889
-5.99989
-6.03021
-6.05852
-6.08529
-6.10982
-6.13293
-6.15433
-6.17331
-6.19
-6.20508
-6.21813
-6.22957
-6.23943
-6.24798
-6.25532
-6.26166
-6.26714
-6.27196
-6.27626
-6.28017
-6.28379
-6.28721
-6.29045
-6.29353
-6.29641
-6.29904
-6.30132
-6.30315
-6.30441
-6.30495
-6.30464
-6.30333
-6.30087
-6.29711
-6.29191
-6.28513
-6.27665
-6.26634
-6.2541
-6.23983
-6.22344
-6.20488
-6.1841
-6.1611
-6.13592
-6.10863
-6.07936
-6.04832
-6.01578
-5.9821
-5.94775
-5.91331
-5.8795
-5.84721
-5.81742
-5.79125
-5.76992
-5.75468
-5.74686
-5.74774
-5.75849
-5.78012
-5.81335
-5.85851
-5.91549
-5.9837
-6.06206
-6.14905
-6.24292
-6.34185
-6.44409
-6.54813
-6.65281
-6.75737
-6.8614
-6.96479
-7.06767
-7.17024
-7.2726
-7.37455
-7.47545
-7.57414
-7.66913
-7.75851
-7.84014
-7.91189
-7.97116
-8.01462
-8.03828
-8.03665
-8.00401
-7.93497
-7.82431
-7.66743
-7.46108
-7.2041
-6.89735
-6.53954
-6.10954
-5.52824
-4.6346
-3.29425
-1.58053
0.212277
1.77349
2.95576
3.75462
4.22204
4.41268
4.38228
4.18727
3.887
3.54474
3.22623
2.99292
2.89488
2.96166
3.19316
3.56942
4.05545
4.61186
5.20223
5.79728
6.37584
6.92448
7.43624
7.90814
8.3397
8.73181
9.08652
9.40655
9.69496
9.95487
10.1894
10.4015
10.594
10.7695
10.9301
11.078
11.2149
11.3424
11.4617
11.5741
11.6803
11.7812
11.8774
11.9694
12.0575
12.1421
12.2233
12.3015
12.3761
12.4482
12.5161
12.5824
12.6423
12.7034
12.7515
12.8088
12.8353
12.8941
12.874
-4.93064
-5.2068
-5.25111
-5.4021
-5.41694
-5.51289
-5.53693
-5.60587
-5.63676
-5.69114
-5.72556
-5.77177
-5.80752
-5.84882
-5.8845
-5.92241
-5.95701
-5.99201
-6.02467
-6.05666
-6.08657
-6.11513
-6.14164
-6.16627
-6.18868
-6.2096
-6.22898
-6.24604
-6.26081
-6.27411
-6.28563
-6.29586
-6.30485
-6.3128
-6.31987
-6.32624
-6.33204
-6.33741
-6.34244
-6.34722
-6.35177
-6.35612
-6.36022
-6.36403
-6.36747
-6.37044
-6.37283
-6.3745
-6.3753
-6.3751
-6.37372
-6.37102
-6.36684
-6.36103
-6.35343
-6.3439
-6.3323
-6.31851
-6.30242
-6.28392
-6.26295
-6.23947
-6.21349
-6.18505
-6.15429
-6.12138
-6.0866
-6.05031
-6.01301
-5.9753
-5.93799
-5.90204
-5.86862
-5.83898
-5.8145
-5.7966
-5.78677
-5.78646
-5.7969
-5.81909
-5.85367
-5.90084
-5.96028
-6.03121
-6.11224
-6.20164
-6.29757
-6.39813
-6.50166
-6.60667
-6.71217
-6.81754
-6.9225
-7.02704
-7.1314
-7.23575
-7.34018
-7.44446
-7.54775
-7.64864
-7.74535
-7.83575
-7.91749
-7.98849
-8.04633
-8.08766
-8.10896
-8.10653
-8.07602
-8.0117
-7.90704
-7.75424
-7.54514
-7.27438
-6.94259
-6.55921
-6.13058
-5.60738
-4.82436
-3.57701
-1.85735
0.0376814
1.7206
2.98399
3.8151
4.2793
4.44329
4.37156
4.11891
3.7477
3.32851
2.9386
2.65222
2.53049
2.60601
2.87262
3.29983
3.84145
4.44946
5.08266
5.71018
6.31144
6.8748
7.39542
7.8721
8.30561
8.69777
9.05132
9.36945
9.65552
9.91288
10.1448
10.3543
10.5442
10.7172
10.8757
11.0215
11.1566
11.2825
11.4004
11.5116
11.6168
11.7169
11.8125
11.904
11.9918
12.0761
12.1571
12.2351
12.3096
12.3816
12.4492
12.5151
12.5741
12.6341
12.6803
12.7359
12.7588
12.8166
12.7909
-4.91628
-5.19509
-5.23557
-5.38747
-5.40072
-5.4978
-5.52117
-5.59125
-5.62208
-5.67764
-5.71258
-5.76016
-5.79696
-5.83989
-5.87706
-5.91687
-5.95338
-5.99058
-6.02552
-6.06002
-6.09256
-6.1239
-6.15328
-6.18102
-6.20685
-6.23064
-6.25298
-6.2737
-6.29181
-6.30778
-6.32229
-6.33546
-6.3472
-6.35773
-6.36727
-6.37594
-6.38396
-6.39142
-6.39843
-6.40508
-6.4114
-6.41742
-6.42313
-6.42848
-6.43342
-6.43786
-6.44168
-6.44478
-6.447
-6.4482
-6.44823
-6.44692
-6.4441
-6.43959
-6.43324
-6.42486
-6.4143
-6.40138
-6.38597
-6.36793
-6.34715
-6.32356
-6.29714
-6.2679
-6.23594
-6.20144
-6.16464
-6.12595
-6.08582
-6.04493
-6.00414
-5.96462
-5.92767
-5.89474
-5.8673
-5.84692
-5.83518
-5.83352
-5.84318
-5.86516
-5.90007
-5.94799
-6.00845
-6.08045
-6.16249
-6.2528
-6.34947
-6.4507
-6.55467
-6.66007
-6.76587
-6.87157
-6.97681
-7.08155
-7.18604
-7.29043
-7.39479
-7.49882
-7.60154
-7.70148
-7.79691
-7.8857
-7.96568
-8.03485
-8.09095
-8.13049
-8.14949
-8.14336
-8.10776
-8.03823
-7.93023
-7.77862
-7.57671
-7.3125
-6.97238
-6.55936
-6.10076
-5.58504
-4.86555
-3.70174
-2.01212
-0.0652859
1.70679
3.03874
3.89972
4.36093
4.49703
4.37827
4.06041
3.61014
3.10731
2.64312
2.30732
2.17259
2.2703
2.58466
3.07204
3.67369
4.33338
5.00649
5.66212
6.28153
6.85574
7.38225
7.86179
8.29619
8.68809
9.04077
9.35776
9.64261
9.89878
10.1296
10.3381
10.5273
10.6997
10.8577
11.0032
11.1382
11.2642
11.3823
11.4938
11.5996
11.7003
11.7965
11.8888
11.9774
12.0626
12.1445
12.2234
12.2988
12.3715
12.4398
12.5062
12.5656
12.6259
12.6718
12.7274
12.749
12.8069
12.778
-4.91141
-5.18868
-5.22723
-5.37995
-5.39296
-5.49213
-5.51596
-5.58846
-5.6204
-5.67855
-5.7151
-5.76518
-5.80379
-5.84908
-5.88829
-5.93042
-5.96904
-6.00852
-6.04562
-6.08237
-6.11713
-6.15077
-6.18248
-6.21259
-6.24074
-6.26705
-6.2915
-6.31375
-6.33454
-6.35393
-6.37097
-6.38612
-6.40024
-6.41281
-6.42446
-6.43538
-6.44558
-6.45526
-6.46447
-6.47332
-6.48184
-6.49008
-6.498
-6.50559
-6.51276
-6.51944
-6.52551
-6.53085
-6.53531
-6.53875
-6.54099
-6.54184
-6.54113
-6.53865
-6.5342
-6.5276
-6.51863
-6.50711
-6.49284
-6.47567
-6.45545
-6.43206
-6.40547
-6.37566
-6.34273
-6.30683
-6.26826
-6.22738
-6.18471
-6.14086
-6.09685
-6.05386
-6.01341
-5.97706
-5.94641
-5.92306
-5.90861
-5.90456
-5.9122
-5.93261
-5.9663
-6.0134
-6.07326
-6.14493
-6.22675
-6.31696
-6.4138
-6.51527
-6.61974
-6.72575
-6.83238
-6.93908
-7.04539
-7.15134
-7.25711
-7.36271
-7.46795
-7.57244
-7.6753
-7.77505
-7.8696
-7.95655
-8.03356
-8.09826
-8.14802
-8.18014
-8.19093
-8.17578
-8.13005
-8.04972
-7.93023
-7.7679
-7.5593
-7.29517
-6.9556
-6.52752
-6.03493
-5.49045
-4.77681
-3.65887
-2.02423
-0.105198
1.6679
3.00548
3.86362
4.31499
4.43435
4.28693
3.92122
3.40523
2.8296
2.30245
1.9317
1.80131
1.93738
2.3123
2.86544
3.52583
4.2313
4.93633