/*--------------------------------*- C++ -*----------------------------------*\
| =========                 |                                                 |
| \\      /  F ield         | OpenFOAM: The Open Source CFD Toolbox           |
|  \\    /   O peration     | Version:  v1906                                 |
|   \\  /    A nd           | Web:      www.OpenFOAM.com                      |
|    \\/     M anipulation  |                                                 |
\*---------------------------------------------------------------------------*/
FoamFile
{
    version     2.0;
    format      ascii;
    class       surfaceScalarField;
    location    "800";
    object      phi;
}
// * * * * * * * * * * * * * * * * * * * * * * * * * * * * * * * * * * * * * //

dimensions      [0 3 -1 0 0 0 0];
oriented        oriented;


internalField   nonuniform List<scalar> 
24170
(
3.08283e-06
1.05577e-07
2.98703e-06
9.58038e-08
2.92074e-06
6.62825e-08
2.86476e-06
5.5979e-08
2.81597e-06
4.87928e-08
2.77316e-06
4.28035e-08
2.73513e-06
3.80329e-08
2.70098e-06
3.41479e-08
2.67022e-06
3.07626e-08
2.64248e-06
2.7738e-08
2.61732e-06
2.51593e-08
2.59433e-06
2.29865e-08
2.57341e-06
2.09226e-08
2.55456e-06
1.88488e-08
2.53808e-06
1.6478e-08
2.52429e-06
1.37875e-08
2.51406e-06
1.0238e-08
-5.7295e-10
2.51463e-06
3.44276e-06
8.00687e-08
3.44404e-06
9.45166e-08
3.43233e-06
7.79915e-08
3.41874e-06
6.95729e-08
3.40402e-06
6.35101e-08
3.38924e-06
5.75827e-08
3.3749e-06
5.23786e-08
3.36109e-06
4.79521e-08
3.34785e-06
4.39987e-08
3.33522e-06
4.03722e-08
3.32325e-06
3.7131e-08
3.31198e-06
3.4251e-08
3.30135e-06
3.15581e-08
3.29135e-06
2.88452e-08
3.28185e-06
2.59764e-08
3.27295e-06
2.26867e-08
3.26517e-06
1.80153e-08
8.59918e-09
3.256e-06
3.67627e-06
6.63112e-08
3.67858e-06
9.22142e-08
3.67281e-06
8.37555e-08
3.66531e-06
7.70726e-08
3.65775e-06
7.1071e-08
3.65062e-06
6.4718e-08
3.64396e-06
5.90335e-08
3.63772e-06
5.41937e-08
3.63183e-06
4.98907e-08
3.62624e-06
4.59579e-08
3.62097e-06
4.23979e-08
3.61606e-06
3.91654e-08
3.6115e-06
3.6114e-08
3.60732e-06
3.30305e-08
3.60347e-06
2.98203e-08
3.60014e-06
2.60183e-08
3.59616e-06
2.19966e-08
1.58801e-08
3.58888e-06
3.93547e-06
5.62314e-08
3.94303e-06
8.46488e-08
3.94514e-06
8.16518e-08
3.94517e-06
7.70347e-08
3.94402e-06
7.22237e-08
3.94204e-06
6.66983e-08
3.93959e-06
6.14818e-08
3.93692e-06
5.68631e-08
3.93417e-06
5.26455e-08
3.93141e-06
4.87174e-08
3.92872e-06
4.50814e-08
3.92619e-06
4.16992e-08
3.92385e-06
3.8449e-08
3.92174e-06
3.51432e-08
3.91987e-06
3.16943e-08
3.91817e-06
2.77121e-08
3.91696e-06
2.32093e-08
1.60688e-08
3.91677e-06
4.21811e-06
4.52529e-08
4.2276e-06
7.51575e-08
4.23155e-06
7.77003e-08
4.23293e-06
7.56519e-08
4.23314e-06
7.20135e-08
4.2327e-06
6.71434e-08
4.23194e-06
6.22382e-08
4.23107e-06
5.77352e-08
4.23016e-06
5.35563e-08
4.22924e-06
4.96351e-08
4.22835e-06
4.59685e-08
4.22754e-06
4.25101e-08
4.22683e-06
3.91597e-08
4.22622e-06
3.5748e-08
4.22568e-06
3.22425e-08
4.22512e-06
2.82702e-08
4.22385e-06
2.44718e-08
1.99026e-08
4.22002e-06
4.5171e-06
3.72415e-08
4.52583e-06
6.64209e-08
4.53158e-06
7.1955e-08
4.53565e-06
7.15841e-08
4.53871e-06
6.89465e-08
4.54097e-06
6.48907e-08
4.54263e-06
6.05752e-08
4.54391e-06
5.64579e-08
4.54492e-06
5.25399e-08
4.54576e-06
4.87979e-08
4.54649e-06
4.52351e-08
4.54719e-06
4.18152e-08
4.54789e-06
3.84608e-08
4.54859e-06
3.50433e-08
4.54932e-06
3.15122e-08
4.54995e-06
2.76445e-08
4.55094e-06
2.34762e-08
1.84218e-08
4.55242e-06
4.83986e-06
3.00979e-08
4.8484e-06
5.78794e-08
4.85443e-06
6.59258e-08
4.85862e-06
6.74019e-08
4.86166e-06
6.59048e-08
4.86389e-06
6.26567e-08
4.86561e-06
5.88518e-08
4.86705e-06
5.50215e-08
4.86832e-06
5.12733e-08
4.86948e-06
4.76393e-08
4.87057e-06
4.41396e-08
4.87164e-06
4.07484e-08
4.87269e-06
3.74123e-08
4.8737e-06
3.40296e-08
4.87461e-06
3.06014e-08
4.87528e-06
2.69722e-08
4.87518e-06
2.35746e-08
2.00347e-08
4.87357e-06
5.18534e-06
2.43405e-08
5.19299e-06
5.02288e-08
5.19938e-06
5.95374e-08
5.20467e-06
6.21138e-08
5.20917e-06
6.13969e-08
5.21301e-06
5.88193e-08
5.21633e-06
5.55317e-08
5.21928e-06
5.20692e-08
5.22196e-06
4.85927e-08
5.22444e-06
4.51653e-08
5.22676e-06
4.18171e-08
5.22897e-06
3.85345e-08
5.2311e-06
3.52805e-08
5.23315e-06
3.19884e-08
5.23511e-06
2.86356e-08
5.23694e-06
2.51418e-08
5.23903e-06
2.14884e-08
1.76837e-08
5.24138e-06
5.55573e-06
1.99467e-08
5.56257e-06
4.33927e-08
5.56883e-06
5.32744e-08
5.57409e-06
5.68552e-08
5.57848e-06
5.70012e-08
5.58215e-06
5.51517e-08
5.58528e-06
5.24023e-08
5.58805e-06
4.9305e-08
5.59055e-06
4.60827e-08
5.59288e-06
4.28408e-08
5.59506e-06
3.96319e-08
5.59714e-06
3.64608e-08
5.5991e-06
3.33162e-08
5.60093e-06
3.01559e-08
5.60256e-06
2.70084e-08
5.60387e-06
2.38306e-08
5.60447e-06
2.08942e-08
1.79711e-08
5.60418e-06
5.95382e-06
1.59007e-08
5.96022e-06
3.69967e-08
5.96649e-06
4.70053e-08
5.97223e-06
5.11152e-08
5.97744e-06
5.17887e-08
5.98213e-06
5.04564e-08
5.9864e-06
4.81415e-08
5.99032e-06
4.53829e-08
5.99397e-06
4.24304e-08
5.9974e-06
3.94093e-08
6.00065e-06
3.63824e-08
6.00374e-06
3.33675e-08
6.0067e-06
3.03627e-08
6.0095e-06
2.73484e-08
6.01219e-06
2.43237e-08
6.01474e-06
2.12756e-08
6.01745e-06
1.81895e-08
1.52529e-08
6.02017e-06
6.37949e-06
1.32263e-08
6.38482e-06
3.16671e-08
6.39067e-06
4.11497e-08
6.39625e-06
4.55374e-08
6.40134e-06
4.6701e-08
6.40589e-06
4.59056e-08
6.40997e-06
4.40591e-08
6.41368e-06
4.16741e-08
6.41709e-06
3.90197e-08
6.42026e-06
3.62423e-08
6.42322e-06
3.34221e-08
6.42599e-06
3.05935e-08
6.42858e-06
2.7776e-08
6.43096e-06
2.49678e-08
6.43307e-06
2.22081e-08
6.43485e-06
1.94935e-08
6.43606e-06
1.69809e-08
1.45687e-08
6.43675e-06
5.74324e-06
1.08165e-08
5.74771e-06
2.7201e-08
5.75267e-06
3.61916e-08
5.75757e-06
4.06387e-08
5.76224e-06
4.20241e-08
5.76662e-06
4.15325e-08
5.77069e-06
3.99817e-08
5.77451e-06
3.78566e-08
5.7781e-06
3.54292e-08
5.78149e-06
3.28522e-08
5.7847e-06
3.02114e-08
5.78775e-06
2.75496e-08
5.79063e-06
2.489e-08
5.79336e-06
2.22429e-08
5.79594e-06
1.96229e-08
5.79839e-06
1.705e-08
5.80085e-06
1.4517e-08
1.22189e-08
5.8032e-06
6.99987e-06
9.10664e-09
7.00402e-06
2.30431e-08
7.00919e-06
3.10218e-08
7.01458e-06
3.52559e-08
7.01981e-06
3.67922e-08
7.02473e-06
3.66146e-08
7.0293e-06
3.54082e-08
7.03355e-06
3.36066e-08
7.03751e-06
3.14711e-08
7.0412e-06
2.91571e-08
7.04466e-06
2.67576e-08
7.04788e-06
2.43253e-08
7.05087e-06
2.1896e-08
7.05363e-06
1.94906e-08
7.05611e-06
1.71423e-08
7.05829e-06
1.48691e-08
7.06008e-06
1.27243e-08
1.06074e-08
7.06169e-06
8.53319e-06
6.75878e-09
8.53811e-06
1.81319e-08
8.54406e-06
2.50709e-08
8.55037e-06
2.89449e-08
8.55668e-06
3.0481e-08
8.56281e-06
3.04877e-08
8.56867e-06
2.95395e-08
8.57426e-06
2.80158e-08
8.57958e-06
2.61579e-08
8.58462e-06
2.41143e-08
8.5894e-06
2.19761e-08
8.59393e-06
1.97984e-08
8.59821e-06
1.76167e-08
8.60224e-06
1.54558e-08
8.60605e-06
1.33375e-08
8.60963e-06
1.12906e-08
8.61302e-06
9.32944e-09
7.61627e-09
8.61601e-06
1.04007e-05
5.29567e-09
1.04049e-05
1.38666e-08
1.04108e-05
1.92001e-08
1.04175e-05
2.22786e-08
1.04244e-05
2.35829e-08
1.04312e-05
2.36707e-08
1.04378e-05
2.29622e-08
1.0444e-05
2.17483e-08
1.045e-05
2.02261e-08
1.04556e-05
1.85238e-08
1.04608e-05
1.67248e-08
1.04657e-05
1.48842e-08
1.04703e-05
1.30378e-08
1.04746e-05
1.1214e-08
1.04785e-05
9.42754e-09
1.04821e-05
7.69961e-09
1.04854e-05
6.0208e-09
4.37511e-09
1.04886e-05
1.26789e-05
3.18011e-09
1.2684e-05
8.80652e-09
1.26907e-05
1.24916e-08
1.26983e-05
1.46769e-08
1.27062e-05
1.56199e-08
1.27142e-05
1.56737e-08
1.27221e-05
1.51278e-08
1.27296e-05
1.41901e-08
1.27368e-05
1.3008e-08
1.27437e-05
1.16811e-08
1.27501e-05
1.02767e-08
1.27562e-05
8.83992e-09
1.27618e-05
7.4047e-09
1.2767e-05
5.99624e-09
1.27718e-05
4.64165e-09
1.27762e-05
3.35917e-09
1.278e-05
2.17459e-09
1.12606e-09
1.27833e-05
1.5455e-05
1.39512e-09
1.54599e-05
3.83814e-09
1.54671e-05
5.34173e-09
1.54756e-05
6.12543e-09
1.5485e-05
6.30325e-09
1.54946e-05
6.03579e-09
1.55043e-05
5.46087e-09
1.55138e-05
4.67859e-09
1.5523e-05
3.76347e-09
1.55319e-05
2.76934e-09
1.55405e-05
1.73318e-09
1.55486e-05
6.83785e-10
1.55564e-05
-3.62427e-10
1.55638e-05
-1.38425e-09
1.55708e-05
-2.38364e-09
1.55775e-05
-3.33112e-09
1.55839e-05
-4.25692e-09
-5.04436e-09
1.55901e-05
1.88392e-05
-1.3593e-10
1.8844e-05
-9.48429e-10
1.8851e-05
-1.70693e-09
1.88594e-05
-2.30434e-09
1.88685e-05
-2.79142e-09
1.88778e-05
-3.2072e-09
1.88868e-05
-3.58098e-09
1.88954e-05
-3.93359e-09
1.89035e-05
-4.27582e-09
1.89108e-05
-4.61292e-09
1.89175e-05
-4.94619e-09
1.89235e-05
-5.27615e-09
1.89287e-05
-5.6012e-09
1.89333e-05
-5.92419e-09
1.89371e-05
-6.24397e-09
1.89404e-05
-6.56317e-09
1.8943e-05
-6.89957e-09
-7.31887e-09
1.89453e-05
2.29673e-05
-4.06379e-09
2.29763e-05
-9.94306e-09
2.29885e-05
-1.39804e-08
2.3003e-05
-1.67571e-08
2.30188e-05
-1.86361e-08
2.30355e-05
-1.98692e-08
2.30526e-05
-2.06584e-08
2.30698e-05
-2.11516e-08
2.3087e-05
-2.14475e-08
2.3104e-05
-2.16092e-08
2.31207e-05
-2.16747e-08
2.31371e-05
-2.16618e-08
2.3153e-05
-2.15748e-08
2.31685e-05
-2.14028e-08
2.31834e-05
-2.11309e-08
2.31976e-05
-2.07231e-08
2.32108e-05
-2.01726e-08
-1.91243e-08
2.32226e-05
1.68112e-05
-4.59632e-09
1.68147e-05
-1.34365e-08
1.68202e-05
-1.94994e-08
1.68268e-05
-2.32789e-08
1.68335e-05
-2.53835e-08
1.684e-05
-2.63362e-08
1.68459e-05
-2.65549e-08
1.68511e-05
-2.63273e-08
1.68554e-05
-2.58345e-08
1.6859e-05
-2.51872e-08
1.68618e-05
-2.44496e-08
1.68638e-05
-2.366e-08
1.68651e-05
-2.28367e-08
1.68657e-05
-2.20001e-08
1.68657e-05
-2.11555e-08
1.68653e-05
-2.035e-08
1.68647e-05
-1.9581e-08
-1.93185e-08
1.68649e-05
1.46387e-05
-8.69511e-09
1.46468e-05
-2.15425e-08
1.46567e-05
-2.94485e-08
1.46676e-05
-3.41159e-08
1.46788e-05
-3.66245e-08
1.46901e-05
-3.76626e-08
1.47013e-05
-3.77744e-08
1.47124e-05
-3.734e-08
1.47231e-05
-3.65941e-08
1.47336e-05
-3.56822e-08
1.47439e-05
-3.46985e-08
1.47539e-05
-3.37013e-08
1.47638e-05
-3.27318e-08
1.47736e-05
-3.18076e-08
1.47834e-05
-3.09535e-08
1.47932e-05
-3.01352e-08
1.4803e-05
-2.93863e-08
-2.80697e-08
1.48117e-05
1.27416e-05
-1.01633e-08
1.27467e-05
-2.66718e-08
1.27533e-05
-3.60352e-08
1.276e-05
-4.0796e-08
1.27661e-05
-4.27419e-08
1.27714e-05
-4.29486e-08
1.27758e-05
-4.21889e-08
1.27794e-05
-4.09485e-08
1.27823e-05
-3.94803e-08
1.27845e-05
-3.79142e-08
1.27862e-05
-3.63178e-08
1.27872e-05
-3.47233e-08
1.27876e-05
-3.31306e-08
1.27873e-05
-3.15327e-08
1.27862e-05
-2.98822e-08
1.27843e-05
-2.81822e-08
1.27812e-05
-2.63184e-08
-2.50156e-08
1.27782e-05
1.10965e-05
-1.57766e-08
1.11062e-05
-3.63087e-08
1.11165e-05
-4.6347e-08
1.11266e-05
-5.09427e-08
1.11364e-05
-5.25376e-08
1.11457e-05
-5.22426e-08
1.11545e-05
-5.09249e-08
1.11627e-05
-4.91507e-08
1.11704e-05
-4.71935e-08
1.11777e-05
-4.51897e-08
1.11846e-05
-4.32234e-08
1.11912e-05
-4.13453e-08
1.11976e-05
-3.95945e-08
1.12041e-05
-3.80005e-08
1.12109e-05
-3.66383e-08
1.12182e-05
-3.55455e-08
1.12269e-05
-3.49611e-08
-3.41222e-08
1.1236e-05
9.65973e-06
-2.0293e-08
9.66814e-06
-4.47178e-08
9.67602e-06
-5.42257e-08
9.68232e-06
-5.72467e-08
9.68714e-06
-5.73544e-08
9.69069e-06
-5.5797e-08
9.69329e-06
-5.35176e-08
9.69521e-06
-5.10719e-08
9.69665e-06
-4.86367e-08
9.69772e-06
-4.62623e-08
9.69848e-06
-4.3979e-08
9.69893e-06
-4.18015e-08
9.69906e-06
-3.97174e-08
9.69876e-06
-3.77048e-08
9.69779e-06
-3.56654e-08
9.69575e-06
-3.35088e-08
9.69156e-06
-3.07726e-08
-2.7954e-08
9.68539e-06
8.41351e-06
-2.84527e-08
8.42507e-06
-5.62714e-08
8.43521e-06
-6.43735e-08
8.44394e-06
-6.59779e-08
8.45161e-06
-6.50242e-08
8.45822e-06
-6.2405e-08
8.46387e-06
-5.91667e-08
8.46874e-06
-5.59443e-08
8.47299e-06
-5.2881e-08
8.47671e-06
-4.99909e-08
8.48003e-06
-4.72904e-08
8.48301e-06
-4.47854e-08
8.48577e-06
-4.24748e-08
8.48842e-06
-4.03554e-08
8.49124e-06
-3.84931e-08
8.4947e-06
-3.6964e-08
8.50028e-06
-3.6355e-08
-3.64177e-08
8.50874e-06
7.32785e-06
-3.90161e-08
7.33965e-06
-6.80753e-08
7.34634e-06
-7.10624e-08
7.34958e-06
-6.92183e-08
7.35097e-06
-6.64166e-08
7.35126e-06
-6.26878e-08
7.35095e-06
-5.88573e-08
7.35038e-06
-5.5376e-08
7.34968e-06
-5.21888e-08
7.3489e-06
-4.92108e-08
7.34804e-06
-4.64289e-08
7.3471e-06
-4.38429e-08
7.34606e-06
-4.14361e-08
7.34491e-06
-3.92014e-08
7.34348e-06
-3.70625e-08
7.34147e-06
-3.49622e-08
7.33725e-06
-3.21294e-08
-2.80497e-08
7.32888e-06
6.38126e-06
-5.02131e-08
6.3931e-06
-7.99094e-08
6.39984e-06
-7.78089e-08
6.40401e-06
-7.33814e-08
6.40641e-06
-6.88168e-08
6.4073e-06
-6.35841e-08
6.40716e-06
-5.87134e-08
6.40635e-06
-5.45654e-08
6.40511e-06
-5.09513e-08
6.40359e-06
-4.76946e-08
6.4019e-06
-4.47324e-08
6.40009e-06
-4.20333e-08
6.39822e-06
-3.95672e-08
6.39632e-06
-3.73022e-08
6.39452e-06
-3.52616e-08
6.39298e-06
-3.34289e-08
6.3934e-06
-3.25506e-08
-3.32107e-08
6.39856e-06
5.56299e-06
-6.77433e-08
5.56907e-06
-8.5989e-08
5.56465e-06
-7.33843e-08
5.55719e-06
-6.59233e-08
5.54938e-06
-6.10052e-08
5.54192e-06
-5.61269e-08
5.53502e-06
-5.18158e-08
5.52863e-06
-4.81768e-08
5.52263e-06
-4.49447e-08
5.51692e-06
-4.19871e-08
5.51145e-06
-3.92686e-08
5.5062e-06
-3.67757e-08
5.50111e-06
-3.44859e-08
5.49621e-06
-3.23973e-08
5.49142e-06
-3.04773e-08
5.48678e-06
-2.8788e-08
5.48083e-06
-2.65959e-08
-2.24387e-08
5.47006e-06
4.85296e-06
-9.31009e-08
4.85866e-06
-9.1687e-08
4.84879e-06
-6.35079e-08
4.83768e-06
-5.4819e-08
4.82546e-06
-4.87853e-08
4.81324e-06
-4.39081e-08
4.8015e-06
-4.00802e-08
4.79032e-06
-3.69962e-08
4.77968e-06
-3.43075e-08
4.76954e-06
-3.18421e-08
4.75984e-06
-2.95673e-08
4.75054e-06
-2.74763e-08
4.74161e-06
-2.55636e-08
4.73304e-06
-2.38212e-08
4.72484e-06
-2.22833e-08
4.71701e-06
-2.09524e-08
4.7111e-06
-2.06884e-08
-2.18914e-08
4.71055e-06
4.10958e-06
4.01789e-06
3.95438e-06
3.89956e-06
3.85078e-06
3.80687e-06
3.76679e-06
3.72979e-06
3.69548e-06
3.66364e-06
3.63407e-06
3.6066e-06
3.58103e-06
3.55721e-06
3.53493e-06
3.51398e-06
3.49329e-06
3.4714e-06
2.58193e-09
-2.60829e-09
4.50674e-08
-4.2493e-08
1.14756e-07
-6.97142e-08
1.81446e-07
-6.66977e-08
2.46738e-07
-6.53142e-08
3.04763e-07
-5.80343e-08
3.58259e-07
-5.35174e-08
4.05621e-07
-4.7372e-08
4.48562e-07
-4.29618e-08
4.86594e-07
-3.80443e-08
5.20615e-07
-3.40398e-08
5.50474e-07
-2.9872e-08
5.76636e-07
-2.61804e-08
5.99114e-07
-2.24912e-08
6.18202e-07
-1.91064e-08
6.33991e-07
-1.58023e-08
6.46667e-07
-1.26974e-08
6.56306e-07
-9.652e-09
6.62924e-07
-6.6391e-09
6.66484e-07
-3.57155e-09
6.66867e-07
-4.0528e-10
6.63807e-07
3.05309e-09
6.57067e-07
6.71026e-09
6.46505e-07
1.05562e-08
6.31782e-07
1.46884e-08
6.12434e-07
1.93376e-08
5.87771e-07
2.462e-08
5.56965e-07
3.07958e-08
5.1864e-07
3.83011e-08
4.7103e-07
4.75775e-08
4.11867e-07
5.91619e-08
3.37571e-07
7.41892e-08
2.43111e-07
9.44486e-08
1.22223e-07
1.20733e-07
-2.48816e-08
1.47087e-07
-1.78812e-07
1.53848e-07
-3.16495e-07
1.37694e-07
-4.32103e-07
1.15593e-07
-5.27063e-07
9.49757e-08
-6.03355e-07
7.62968e-08
-6.63776e-07
6.043e-08
-7.11589e-07
4.78137e-08
-7.49266e-07
3.76792e-08
-7.78863e-07
2.95909e-08
-8.022e-07
2.33349e-08
-8.20787e-07
1.8575e-08
-8.35736e-07
1.49456e-08
-8.47816e-07
1.20652e-08
-8.57467e-07
9.64594e-09
-8.65056e-07
7.57539e-09
-8.70858e-07
5.79551e-09
-8.75111e-07
4.24349e-09
-8.78014e-07
2.89346e-09
-8.7976e-07
1.74013e-09
-8.80565e-07
7.92324e-10
-8.8063e-07
6.37942e-11
-8.80192e-07
-4.52082e-10
-8.79407e-07
-7.78966e-10
-8.78483e-07
-9.44385e-10
-8.77527e-07
-9.44454e-10
-8.76776e-07
-7.74932e-10
-8.76371e-07
-3.89176e-10
-8.76688e-07
2.77059e-10
-8.78005e-07
1.33123e-09
-8.80844e-07
2.78541e-09
-8.855e-07
4.67087e-09
-8.92558e-07
6.99295e-09
-9.0232e-07
9.78207e-09
-9.15269e-07
1.28684e-08
-9.31415e-07
1.61679e-08
-9.51195e-07
1.96861e-08
-9.74662e-07
2.34935e-08
-1.00231e-06
2.75439e-08
-1.0341e-06
3.18246e-08
-1.07042e-06
3.62329e-08
-1.11114e-06
4.07724e-08
-1.15657e-06
4.53493e-08
-1.20648e-06
4.99537e-08
-1.26107e-06
5.44844e-08
-1.31999e-06
5.89306e-08
-1.38328e-06
6.31836e-08
-1.45053e-06
6.72252e-08
-1.5216e-06
7.09569e-08
-1.59603e-06
7.43648e-08
-1.67351e-06
7.73718e-08
-1.75357e-06
7.99634e-08
-1.83578e-06
8.21077e-08
-1.91965e-06
8.37884e-08
-2.00473e-06
8.50014e-08
-2.09051e-06
8.57498e-08
-2.17653e-06
8.60189e-08
-2.2623e-06
8.58226e-08
-2.34738e-06
8.51499e-08
-2.43129e-06
8.40082e-08
-2.51357e-06
8.23717e-08
-2.59369e-06
8.0225e-08
-2.6711e-06
7.75078e-08
-2.74517e-06
7.41619e-08
-2.81518e-06
7.00834e-08
-2.88029e-06
6.51717e-08
-2.93953e-06
5.92835e-08
-2.99178e-06
5.22549e-08
-3.03569e-06
4.38639e-08
-3.0696e-06
3.38105e-08
-3.09158e-06
2.18766e-08
-3.10009e-06
8.36575e-09
-3.09484e-06
-5.33259e-09
-3.076e-06
-1.89322e-08
-3.04218e-06
-3.38194e-08
-2.99192e-06
-5.02594e-08
-2.92287e-06
-6.89519e-08
-2.83255e-06
-9.02125e-08
-2.71835e-06
-1.1401e-07
-2.57802e-06
-1.40149e-07
-2.40972e-06
-1.68086e-07
-2.21276e-06
-1.96757e-07
-1.98836e-06
-2.24177e-07
-1.73987e-06
-2.48273e-07
-1.47134e-06
-2.68281e-07
-1.18977e-06
-2.81363e-07
-9.05275e-07
-2.84287e-07
-6.30766e-07
-2.74428e-07
-3.8132e-07
-2.49454e-07
-1.74135e-07
-2.07221e-07
-2.8755e-08
-1.45392e-07
3.82896e-08
-6.69461e-08
3.08884e-09
3.5257e-08
-1.13782e-07
1.16825e-07
-2.69998e-07
1.5605e-07
-4.34417e-07
1.64232e-07
-5.88748e-07
1.54172e-07
-7.20954e-07
1.32087e-07
-8.23685e-07
1.02649e-07
-8.93501e-07
6.97511e-08
-9.29254e-07
3.57332e-08
-9.32103e-07
2.86065e-09
-9.06521e-07
-2.55276e-08
-8.56671e-07
-4.97912e-08
-7.85069e-07
-7.1535e-08
-6.93862e-07
-9.11528e-08
-5.85721e-07
-1.08073e-07
-4.63751e-07
-1.21944e-07
-3.31204e-07
-1.32553e-07
-1.91503e-07
-1.39748e-07
-4.85405e-08
-1.43008e-07
9.75947e-08
-1.46162e-07
2.47007e-07
-1.4943e-07
3.93911e-07
-1.4692e-07
5.34543e-07
-1.40657e-07
6.67505e-07
-1.32972e-07
7.92336e-07
-1.24848e-07
9.09025e-07
-1.16692e-07
1.01771e-06
-1.08697e-07
1.11866e-06
-1.00959e-07
1.2122e-06
-9.35615e-08
1.29874e-06
-8.65534e-08
1.3787e-06
-7.99817e-08
1.45255e-06
-7.38644e-08
1.52074e-06
-6.82181e-08
1.58375e-06
-6.30364e-08
1.64204e-06
-5.83137e-08
1.69605e-06
-5.40318e-08
1.74619e-06
-5.01751e-08
1.79288e-06
-4.67115e-08
1.83647e-06
-4.36152e-08
1.87729e-06
-4.08487e-08
1.91566e-06
-3.83914e-08
1.95184e-06
-3.61951e-08
1.98606e-06
-3.42492e-08
2.01851e-06
-3.24678e-08
2.04936e-06
-3.08716e-08
2.07861e-06
-2.9264e-08
2.10636e-06
-2.77738e-08
2.1322e-06
-2.58488e-08
2.15613e-06
-2.395e-08
2.17634e-06
-2.02183e-08
2.19151e-06
-1.51876e-08
2.19126e-06
2.42567e-10
2.14872e-06
4.25372e-08
9.24147e-08
2.05629e-06
7.42327e-08
-7.68548e-08
1.06459e-07
-7.47282e-08
1.32494e-07
-9.57569e-08
1.50615e-07
-8.48252e-08
1.74104e-07
-8.88112e-08
1.95624e-07
-7.95616e-08
2.19708e-07
-7.76091e-08
2.40998e-07
-6.86688e-08
2.61396e-07
-6.33686e-08
2.78369e-07
-5.50231e-08
2.92788e-07
-4.84673e-08
3.03431e-07
-4.05214e-08
3.10866e-07
-3.36232e-08
3.14849e-07
-2.64803e-08
3.16035e-07
-2.03001e-08
3.14777e-07
-1.45512e-08
3.1185e-07
-9.77811e-09
3.07893e-07
-5.70245e-09
3.03528e-07
-2.28147e-09
2.99057e-07
8.92812e-10
2.94761e-07
3.88258e-09
2.90854e-07
6.95371e-09
2.87164e-07
1.03921e-08
2.8317e-07
1.45447e-08
2.78025e-07
1.9824e-08
2.70498e-07
2.6858e-08
2.58801e-07
3.63059e-08
2.40644e-07
4.89453e-08
2.13507e-07
6.54302e-08
1.74983e-07
8.60931e-08
1.23169e-07
1.10966e-07
5.72684e-08
1.40073e-07
-2.18056e-08
1.73507e-07
-1.10929e-07
2.09842e-07
-2.05446e-07
2.41593e-07
-3.03293e-07
2.51688e-07
-3.98134e-07
2.32533e-07
-4.81576e-07
1.99034e-07
-5.51555e-07
1.64955e-07
-6.08481e-07
1.33223e-07
-6.52809e-07
1.04759e-07
-6.85762e-07
8.07651e-08
-7.09719e-07
6.16348e-08
-7.27105e-07
4.69746e-08
-7.39859e-07
3.60867e-08
-7.49561e-07
2.82735e-08
-7.5744e-07
2.28222e-08
-7.64462e-07
1.90841e-08
-7.7139e-07
1.65708e-08
-7.78777e-07
1.49584e-08
-7.87006e-07
1.40229e-08
-7.96357e-07
1.35914e-08
-8.07009e-07
1.35434e-08
-8.19063e-07
1.37916e-08
-8.32552e-07
1.42782e-08
-8.47462e-07
1.49732e-08
-8.63775e-07
1.58583e-08
-8.81486e-07
1.69305e-08
-9.00623e-07
1.81906e-08
-9.21219e-07
1.96508e-08
-9.43322e-07
2.13253e-08
-9.66959e-07
2.32475e-08
-9.92132e-07
2.54437e-08
-1.01876e-06
2.79577e-08
-1.04681e-06
3.08223e-08
-1.07621e-06
3.40704e-08
-1.10693e-06
3.77074e-08
-1.13888e-06
4.17228e-08
-1.17206e-06
4.60301e-08
-1.20648e-06
5.05818e-08
-1.24216e-06
5.53543e-08
-1.27902e-06
6.03457e-08
-1.317e-06
6.54985e-08
-1.35594e-06
7.07623e-08
-1.39577e-06
7.60456e-08
-1.43629e-06
8.1293e-08
-1.47737e-06
8.64095e-08
-1.51876e-06
9.1339e-08
-1.5603e-06
9.59941e-08
-1.60171e-06
1.00328e-07
-1.64283e-06
1.04265e-07
-1.68341e-06
1.07772e-07
-1.72329e-06
1.10798e-07
-1.76231e-06
1.13333e-07
-1.80034e-06
1.15352e-07
-1.8373e-06
1.16871e-07
-1.87314e-06
1.17897e-07
-1.90787e-06
1.18461e-07
-1.94151e-06
1.18602e-07
-1.97416e-06
1.18351e-07
-2.00592e-06
1.17757e-07
-2.03696e-06
1.16855e-07
-2.06747e-06
1.1568e-07
-2.09771e-06
1.14257e-07
-2.12791e-06
1.12593e-07
-2.15834e-06
1.1068e-07
-2.18929e-06
1.08477e-07
-2.22105e-06
1.05923e-07
-2.25388e-06
1.02915e-07
-2.28803e-06
9.9319e-08
-2.32371e-06
9.49262e-08
-2.36097e-06
8.94753e-08
-2.39982e-06
8.26276e-08
-2.44013e-06
7.40206e-08
-2.48164e-06
6.32482e-08
-2.52314e-06
4.97562e-08
-2.56099e-06
3.23968e-08
-2.59078e-06
1.07873e-08
-2.60906e-06
-1.56111e-08
-2.61189e-06
-4.74507e-08
-2.59628e-06
-8.45536e-08
-2.55966e-06
-1.26788e-07
-2.49964e-06
-1.73955e-07
-2.41406e-06
-2.25632e-07
-2.3014e-06
-2.8063e-07
-2.16121e-06
-3.36835e-07
-1.99403e-06
-3.91231e-07
-1.80221e-06
-4.3997e-07
-1.58985e-06
-4.80505e-07
-1.36309e-06
-5.07989e-07
-1.13093e-06
-5.16317e-07
-9.04521e-07
-5.00732e-07
-6.96297e-07
-4.5761e-07
-5.18217e-07
-3.85238e-07
-3.77482e-07
-2.86079e-07
-2.77131e-07
-1.67234e-07
-2.04366e-07
-3.74852e-08
-1.6823e-07
8.06859e-08
-1.686e-07
1.56371e-07
-1.94198e-07
1.89772e-07
-2.35119e-07
1.95041e-07
-2.86024e-07
1.82949e-07
-3.43404e-07
1.60004e-07
-4.03277e-07
1.29605e-07
-4.6055e-07
9.30066e-08
-5.08029e-07
5.03433e-08
-5.3637e-07
2.83226e-09
-5.3942e-07
-4.67277e-08
-5.15367e-07
-9.55717e-08
-4.65912e-07
-1.406e-07
-3.94226e-07
-1.79747e-07
-3.04096e-07
-2.1208e-07
-1.99334e-07
-2.37328e-07
-8.32983e-08
-2.55814e-07
4.13975e-08
-2.67725e-07
1.69321e-07
-2.74104e-07
2.95969e-07
-2.76087e-07
4.21497e-07
-2.72458e-07
5.44675e-07
-2.63839e-07
6.63957e-07
-2.52256e-07
7.78316e-07
-2.39205e-07
8.87166e-07
-2.25536e-07
9.90205e-07
-2.1173e-07
1.08734e-06
-1.98088e-07
1.17862e-06
-1.84834e-07
1.26419e-06
-1.72124e-07
1.34429e-06
-1.60082e-07
1.41921e-06
-1.48782e-07
1.48926e-06
-1.38274e-07
1.55479e-06
-1.28573e-07
1.61616e-06
-1.19681e-07
1.6737e-06
-1.11581e-07
1.72777e-06
-1.0425e-07
1.77869e-06
-9.76422e-08
1.82678e-06
-9.17139e-08
1.87233e-06
-8.64031e-08
1.91559e-06
-8.1669e-08
1.95682e-06
-7.74275e-08
1.99621e-06
-7.36481e-08
2.03391e-06
-7.01838e-08
2.07008e-06
-6.70421e-08
2.10471e-06
-6.39066e-08
2.13783e-06
-6.09047e-08
2.16921e-06
-5.72321e-08
2.19853e-06
-5.32789e-08
2.22513e-06
-4.68265e-08
2.24774e-06
-3.78025e-08
2.26882e-06
-2.08479e-08
2.29723e-06
1.41272e-08
7.27527e-08
2.31689e-06
3.06419e-08
-1.07507e-07
4.96869e-08
-9.37778e-08
6.57216e-08
-1.11798e-07
7.37365e-08
-9.28442e-08
8.66286e-08
-1.01709e-07
1.00004e-07
-9.29403e-08
1.19308e-07
-9.69194e-08
1.39338e-07
-8.8702e-08
1.62534e-07
-8.65698e-08
1.84229e-07
-7.67219e-08
2.0525e-07
-6.94924e-08
2.22894e-07
-5.81697e-08
2.37621e-07
-4.83543e-08
2.48243e-07
-3.71067e-08
2.55308e-07
-2.73697e-08
2.58359e-07
-1.76057e-08
2.57644e-07
-9.06783e-09
2.52823e-07
-8.85592e-10
2.44469e-07
6.06787e-09
2.33085e-07
1.22736e-08
2.19183e-07
1.77791e-08
2.0296e-07
2.31738e-08
1.84554e-07
2.8793e-08
1.6396e-07
3.51362e-08
1.41148e-07
4.26309e-08
1.15985e-07
5.20183e-08
8.81688e-08
6.41169e-08
5.72076e-08
7.99025e-08
2.25074e-08
1.00126e-07
-1.65743e-08
1.25167e-07
-6.05439e-08
1.54931e-07
-1.09315e-07
1.88833e-07
-1.6141e-07
2.25598e-07
-2.13989e-07
2.62412e-07
-2.64698e-07
2.92299e-07
-3.15463e-07
3.02449e-07
-3.67182e-07
2.8425e-07
-4.14235e-07
2.46086e-07
-4.53097e-07
2.03816e-07
-4.86285e-07
1.66411e-07
-5.16669e-07
1.35141e-07
-5.45025e-07
1.09119e-07
-5.72089e-07
8.86971e-08
-5.98641e-07
7.35245e-08
-6.24803e-07
6.22464e-08
-6.50467e-07
5.39344e-08
-6.75534e-07
4.78875e-08
-6.99967e-07
4.35143e-08
-7.23795e-07
4.03971e-08
-7.47084e-07
3.8245e-08
-7.69901e-07
3.68385e-08
-7.92316e-07
3.6004e-08
-8.14387e-07
3.56131e-08
-8.36161e-07
3.5564e-08
-8.57678e-07
3.57928e-08
-8.78983e-07
3.6277e-08
-9.00135e-07
3.70086e-08
-9.21195e-07
3.79886e-08
-9.42235e-07
3.92288e-08
-9.63333e-07
4.07481e-08
-9.84575e-07
4.25655e-08
-1.00603e-06
4.47038e-08
-1.02777e-06
4.71758e-08
-1.04981e-06
5e-08
-1.07218e-06
5.3189e-08
-1.09487e-06
5.67542e-08
-1.11786e-06
6.06885e-08
-1.14111e-06
6.49726e-08
-1.16464e-06
6.9558e-08
-1.18849e-06
7.44187e-08
-1.21267e-06
7.95266e-08
-1.2372e-06
8.48644e-08
-1.2621e-06
9.03891e-08
-1.2874e-06
9.60624e-08
-1.31319e-06
1.01825e-07
-1.33955e-06
1.07639e-07
-1.3666e-06
1.1345e-07
-1.3945e-06
1.19226e-07
-1.42344e-06
1.24919e-07
-1.45363e-06
1.30506e-07
-1.48533e-06
1.35943e-07
-1.5188e-06
1.41211e-07
-1.5543e-06
1.46271e-07
-1.5921e-06
1.51102e-07
-1.63245e-06
1.55667e-07
-1.67555e-06
1.59939e-07
-1.72158e-06
1.63887e-07
-1.77063e-06
1.67481e-07
-1.82276e-06
1.7069e-07
-1.87794e-06
1.73483e-07
-1.93606e-06
1.75836e-07
-1.99695e-06
1.77715e-07
-2.06039e-06
1.79097e-07
-2.1261e-06
1.79932e-07
-2.19371e-06
1.80174e-07
-2.2628e-06
1.79736e-07
-2.33287e-06
1.78519e-07
-2.40336e-06
1.76365e-07
-2.47359e-06
1.73093e-07
-2.54277e-06
1.68449e-07
-2.61004e-06
1.62124e-07
-2.67435e-06
1.53715e-07
-2.73456e-06
1.42731e-07
-2.78925e-06
1.28601e-07
-2.83677e-06
1.10644e-07
-2.87518e-06
8.80655e-08
-2.90274e-06
5.98454e-08
-2.91753e-06
2.55126e-08
-2.91816e-06
-1.5052e-08
-2.90322e-06
-6.24266e-08
-2.87083e-06
-1.16968e-07
-2.81872e-06
-1.7888e-07
-2.74462e-06
-2.48038e-07
-2.6465e-06
-3.23691e-07
-2.52286e-06
-4.04204e-07
-2.37302e-06
-4.86598e-07
-2.19763e-06
-5.66549e-07
-1.99923e-06
-6.38273e-07
-1.78369e-06
-6.95927e-07
-1.55854e-06
-7.33006e-07
-1.33276e-06
-7.41955e-07
-1.11586e-06
-7.17487e-07
-9.16836e-07
-6.56502e-07
-7.43235e-07
-5.58739e-07
-6.01149e-07
-4.28063e-07
-4.94438e-07
-2.73877e-07
-4.19758e-07
-1.12111e-07
-3.71996e-07
3.29295e-08
-3.54876e-07
1.39218e-07
-3.70696e-07
2.05529e-07
-4.14215e-07
2.38478e-07
-4.75981e-07
2.44641e-07
-5.44654e-07
2.28602e-07
-6.08789e-07
1.93684e-07
-6.58711e-07
1.42881e-07
-6.87552e-07
7.91624e-08
-6.91675e-07
6.94226e-09
-6.70407e-07
-6.79908e-08
-6.25124e-07
-1.4085e-07
-5.58206e-07
-2.07502e-07
-4.72827e-07
-2.65108e-07
-3.7265e-07
-3.12232e-07
-2.61477e-07
-3.48482e-07
-1.42899e-07
-3.74374e-07
-1.97042e-08
-3.90905e-07
1.057e-07
-3.9949e-07
2.30533e-07
-4.00906e-07
3.53353e-07
-3.95266e-07
4.73553e-07
-3.84031e-07
5.90343e-07
-3.69037e-07
7.02926e-07
-3.5178e-07
8.1071e-07
-3.3331e-07
9.13341e-07
-3.14353e-07
1.01067e-06
-2.95413e-07
1.10271e-06
-2.76867e-07
1.18958e-06
-2.58981e-07
1.27145e-06
-2.41951e-07
1.34858e-06
-2.25905e-07
1.42123e-06
-2.10926e-07
1.4897e-06
-1.97048e-07
1.5543e-06
-1.84283e-07
1.61533e-06
-1.72613e-07
1.67309e-06
-1.62006e-07
1.72785e-06
-1.52407e-07
1.77989e-06
-1.43758e-07
1.82946e-06
-1.35979e-07
1.8768e-06
-1.29009e-07
1.9221e-06
-1.22733e-07
1.96555e-06
-1.17101e-07
2.00728e-06
-1.11915e-07
2.0474e-06
-1.07168e-07
2.08594e-06
-1.02447e-07
2.12291e-06
-9.78786e-08
2.15812e-06
-9.24519e-08
2.19141e-06
-8.65707e-08
2.2222e-06
-7.76243e-08
2.25011e-06
-6.57131e-08
2.27446e-06
-4.5201e-08
2.29763e-06
-9.03698e-09
5.54819e-08
2.31489e-06
3.55842e-08
-1.43099e-07
4.53377e-08
-1.03534e-07
5.6562e-08
-1.23028e-07
6.09085e-08
-9.71941e-08
6.4521e-08
-1.05326e-07
6.4981e-08
-9.34035e-08
6.68737e-08
-9.88163e-08
7.23844e-08
-9.42156e-08
8.17924e-08
-9.59817e-08
9.43555e-08
-8.92879e-08
1.08157e-07
-8.32975e-08
1.2067e-07
-7.06854e-08
1.30711e-07
-5.83984e-08
1.37574e-07
-4.39733e-08
1.41339e-07
-3.11379e-08
1.42158e-07
-1.8428e-08
1.40478e-07
-7.39031e-09
1.36051e-07
3.53853e-09
1.28238e-07
1.38779e-08
1.16435e-07
2.40731e-08
1.00746e-07
3.34651e-08
8.0518e-08
4.33995e-08
5.48892e-08
5.44191e-08
2.42418e-08
6.57815e-08
-9.97612e-09
7.68461e-08
-4.61787e-08
8.82195e-08
-8.28518e-08
1.00787e-07
-1.18636e-07
1.15685e-07
-1.52435e-07
1.33922e-07
-1.836e-07
1.56328e-07
-2.11824e-07
1.83151e-07
-2.36685e-07
2.13688e-07
-2.57137e-07
2.46045e-07
-2.71638e-07
2.76909e-07
-2.79825e-07
3.00483e-07
-2.85524e-07
3.08146e-07
-2.94576e-07
2.933e-07
-3.08146e-07
2.59654e-07
-3.24353e-07
2.20022e-07
-3.43703e-07
1.8576e-07
-3.68037e-07
1.59473e-07
-3.9756e-07
1.38641e-07
-4.31105e-07
1.2224e-07
-4.67338e-07
1.09756e-07
-5.05032e-07
9.9938e-08
-5.43048e-07
9.19482e-08
-5.80487e-07
8.5324e-08
-6.16748e-07
7.97729e-08
-6.51442e-07
7.50895e-08
-6.8433e-07
7.1131e-08
-7.15288e-07
6.77945e-08
-7.44285e-07
6.49988e-08
-7.71359e-07
6.26849e-08
-7.96606e-07
6.08094e-08
-8.20161e-07
5.93459e-08
-8.42165e-07
5.82782e-08
-8.62754e-07
5.75957e-08
-8.82065e-07
5.72977e-08
-9.00232e-07
5.73933e-08
-9.17383e-07
5.78978e-08
-9.3365e-07
5.88302e-08
-9.4916e-07
6.02125e-08
-9.64051e-07
6.20643e-08
-9.78459e-07
6.44062e-08
-9.92525e-07
6.72526e-08
-1.00639e-06
7.06141e-08
-1.02019e-06
7.44918e-08
-1.0341e-06
7.88782e-08
-1.0483e-06
8.37535e-08
-1.063e-06
8.91054e-08
-1.0784e-06
9.49218e-08
-1.09474e-06
1.01195e-07
-1.11227e-06
1.0791e-07
-1.13126e-06
1.15049e-07
-1.15203e-06
1.22586e-07
-1.17489e-06
1.30495e-07
-1.20019e-06
1.38739e-07
-1.22826e-06
1.4728e-07
-1.25942e-06
1.56063e-07
-1.29396e-06
1.6503e-07
-1.33213e-06
1.74098e-07
-1.37412e-06
1.83181e-07
-1.42004e-06
1.9217e-07
-1.46992e-06
2.00953e-07
-1.52368e-06
2.09404e-07
-1.58117e-06
2.17399e-07
-1.64213e-06
2.24817e-07
-1.70622e-06
2.3155e-07
-1.77308e-06
2.37501e-07
-1.84224e-06
2.42591e-07
-1.91322e-06
2.46763e-07
-1.98552e-06
2.49974e-07
-2.05866e-06
2.52186e-07
-2.13214e-06
2.53362e-07
-2.20547e-06
2.53453e-07
-2.27818e-06
2.52381e-07
-2.34976e-06
2.5003e-07
-2.4197e-06
2.46233e-07
-2.48744e-06
2.40764e-07
-2.5524e-06
2.33328e-07
-2.61392e-06
2.23549e-07
-2.67128e-06
2.10971e-07
-2.7237e-06
1.95044e-07
-2.77035e-06
1.75134e-07
-2.8103e-06
1.50479e-07
-2.84252e-06
1.20172e-07
-2.86594e-06
8.31764e-08
-2.8792e-06
3.86931e-08
-2.8803e-06
-1.40113e-08
-2.86725e-06
-7.55191e-08
-2.83772e-06
-1.46532e-07
-2.78926e-06
-2.27337e-07
-2.71949e-06
-3.17786e-07
-2.62629e-06
-4.16848e-07
-2.50806e-06