/*--------------------------------*- C++ -*----------------------------------*\
| =========                 |                                                 |
| \\      /  F ield         | OpenFOAM: The Open Source CFD Toolbox           |
|  \\    /   O peration     | Version:  v1906                                 |
|   \\  /    A nd           | Web:      www.OpenFOAM.com                      |
|    \\/     M anipulation  |                                                 |
\*---------------------------------------------------------------------------*/
FoamFile
{
    version     2.0;
    format      ascii;
    class       volSymmTensorField;
    location    "800";
    object      R;
}
// * * * * * * * * * * * * * * * * * * * * * * * * * * * * * * * * * * * * * //

dimensions      [0 2 -2 0 0 0 0];


internalField   nonuniform List<symmTensor> 
12225
(
(1.62918 -0.333428 0 1.36079 0 1.52752)
(1.99604 -0.597712 0 0.915074 0 1.54224)
(2.14976 -0.586216 0 0.685675 0 1.48847)
(2.16282 -0.548296 0 0.594803 0 1.42583)
(2.13003 -0.521071 0 0.549811 0 1.37025)
(2.08416 -0.501344 0 0.521829 0 1.32326)
(2.03693 -0.485886 0 0.501274 0 1.28313)
(1.99286 -0.47316 0 0.484954 0 1.24874)
(1.95171 -0.462119 0 0.471162 0 1.21835)
(1.9158 -0.452735 0 0.459649 0 1.19226)
(1.88118 -0.444017 0 0.449263 0 1.16822)
(1.85383 -0.437414 0 0.440677 0 1.14824)
(1.83183 -0.432223 0 0.433704 0 1.13206)
(1.81451 -0.427964 0 0.428 0 1.11866)
(1.79816 -0.424003 0 0.422833 0 1.10667)
(1.78681 -0.421557 0 0.41936 0 1.09768)
(1.77297 -0.417425 0 0.414367 0 1.08754)
(1.76761 -0.418282 0 0.41387 0 1.08286)
(1.52372 -0.0379484 0 1.4601 0 1.51677)
(1.5765 -0.140428 0 1.18695 0 1.51213)
(1.58669 -0.190028 0 0.927642 0 1.45696)
(1.57201 -0.209333 0 0.773798 0 1.39907)
(1.54341 -0.218141 0 0.676225 0 1.34283)
(1.51871 -0.225213 0 0.611098 0 1.29757)
(1.497 -0.2314 0 0.564414 0 1.25992)
(1.47753 -0.236818 0 0.529052 0 1.22738)
(1.46095 -0.241789 0 0.501451 0 1.19986)
(1.44627 -0.246055 0 0.479086 0 1.1753)
(1.43456 -0.25029 0 0.461008 0 1.15512)
(1.42359 -0.253569 0 0.445338 0 1.13566)
(1.41632 -0.257683 0 0.433231 0 1.12141)
(1.4088 -0.260011 0 0.421269 0 1.1053)
(1.40445 -0.264187 0 0.413821 0 1.09605)
(1.39978 -0.265321 0 0.403264 0 1.08184)
(1.39623 -0.269195 0 0.399683 0 1.07633)
(1.39198 -0.269173 0 0.389733 0 1.06228)
(1.51161 -0.00809806 0 1.49388 0 1.51021)
(1.5345 -0.0358564 0 1.38469 0 1.51858)
(1.5464 -0.0615039 0 1.23521 0 1.5056)
(1.54332 -0.0798319 0 1.11806 0 1.48174)
(1.52915 -0.0934311 0 1.02648 0 1.45228)
(1.51226 -0.10531 0 0.953058 0 1.42298)
(1.49495 -0.115971 0 0.89325 0 1.39547)
(1.47789 -0.12559 0 0.843581 0 1.36973)
(1.46198 -0.13441 0 0.801812 0 1.34636)
(1.44712 -0.142361 0 0.766099 0 1.3247)
(1.43382 -0.149832 0 0.735455 0 1.30547)
(1.4215 -0.156422 0 0.708432 0 1.28721)
(1.41061 -0.162885 0 0.68537 0 1.27169)
(1.40117 -0.168285 0 0.663848 0 1.25607)
(1.39142 -0.173885 0 0.647055 0 1.24413)
(1.38673 -0.178238 0 0.627397 0 1.2298)
(1.37235 -0.182687 0 0.619889 0 1.22267)
(1.38659 -0.185851 0 0.59005 0 1.20634)
(1.51151 -0.00606405 0 1.49419 0 1.51108)
(1.52717 -0.0162692 0 1.42188 0 1.52171)
(1.53966 -0.0294617 0 1.31304 0 1.52312)
(1.54279 -0.0418912 0 1.21369 0 1.51507)
(1.53765 -0.052178 0 1.12994 0 1.50079)
(1.52857 -0.0612486 0 1.05935 0 1.48385)
(1.51766 -0.0694926 0 0.999824 0 1.46618)
(1.50583 -0.077056 0 0.949192 0 1.44846)
(1.49391 -0.0840899 0 0.905752 0 1.43139)
(1.48219 -0.0905723 0 0.868093 0 1.41497)
(1.47101 -0.096675 0 0.835281 0 1.39965)
(1.46037 -0.102257 0 0.806281 0 1.38499)
(1.45036 -0.107593 0 0.780895 0 1.37166)
(1.44127 -0.112329 0 0.757853 0 1.35871)
(1.43216 -0.116919 0 0.738135 0 1.3474)
(1.4253 -0.120801 0 0.718648 0 1.33579)
(1.41581 -0.124409 0 0.704606 0 1.32681)
(1.41252 -0.127574 0 0.684791 0 1.31584)
(1.50985 -0.00453469 0 1.49823 0 1.50974)
(1.52086 -0.00881174 0 1.44955 0 1.51872)
(1.53211 -0.0148925 0 1.37345 0 1.52446)
(1.53777 -0.0219411 0 1.29859 0 1.52376)
(1.53763 -0.0285608 0 1.23206 0 1.51796)
(1.53392 -0.0348528 0 1.17339 0 1.50916)
(1.52807 -0.0409436 0 1.12186 0 1.49878)
(1.52086 -0.0468035 0 1.07648 0 1.48753)
(1.51294 -0.0524252 0 1.03634 0 1.47601)
(1.50468 -0.0577581 0 1.00065 0 1.46447)
(1.49639 -0.0628443 0 0.968823 0 1.45323)
(1.4882 -0.0676177 0 0.940223 0 1.44224)
(1.4802 -0.0721548 0 0.914559 0 1.43179)
(1.4726 -0.0763107 0 0.89122 0 1.42166)
(1.46512 -0.0802015 0 0.870311 0 1.41226)
(1.45851 -0.0836633 0 0.850727 0 1.40304)
(1.45167 -0.086714 0 0.833833 0 1.39498)
(1.44664 -0.0896351 0 0.815578 0 1.38662)
(1.50977 -0.00410775 0 1.49856 0 1.50978)
(1.51842 -0.00583351 0 1.46078 0 1.51758)
(1.5282 -0.00836265 0 1.40253 0 1.52449)
(1.53466 -0.0121595 0 1.34208 0 1.52724)
(1.53709 -0.01621 0 1.28564 0 1.5261)
(1.53657 -0.0203166 0 1.23413 0 1.52222)
(1.53401 -0.0244768 0 1.18763 0 1.51657)
(1.52998 -0.0286153 0 1.14582 0 1.50973)
(1.525 -0.0326784 0 1.1082 0 1.50219)
(1.5194 -0.0366173 0 1.07427 0 1.49426)
(1.51347 -0.040425 0 1.04363 0 1.4862)
(1.50736 -0.0440575 0 1.01584 0 1.4781)
(1.5012 -0.0475175 0 0.990599 0 1.47014)
(1.49513 -0.0507364 0 0.967542 0 1.46232)
(1.48913 -0.0537194 0 0.94652 0 1.45482)
(1.48349 -0.0564239 0 0.927035 0 1.44753)
(1.47788 -0.0588161 0 0.909338 0 1.44071)
(1.47286 -0.0611789 0 0.891653 0 1.43389)
(1.50945 -0.00338192 0 1.49937 0 1.50953)
(1.5163 -0.00432038 0 1.46918 0 1.51607)
(1.52444 -0.00507059 0 1.42407 0 1.5227)
(1.53068 -0.00674389 0 1.37572 0 1.52675)
(1.53415 -0.0088612 0 1.32913 0 1.52793)
(1.53531 -0.0112457 0 1.28561 0 1.52687)
(1.53472 -0.0138617 0 1.24551 0 1.52417)
(1.53278 -0.0166188 0 1.2088 0 1.52027)
(1.52986 -0.0194364 0 1.17525 0 1.51555)
(1.52626 -0.0222533 0 1.14456 0 1.51027)
(1.52218 -0.0250331 0 1.11647 0 1.50467)
(1.5178 -0.0277302 0 1.0907 0 1.49886)
(1.51323 -0.0303165 0 1.06703 0 1.49297)
(1.50859 -0.0327478 0 1.04521 0 1.48709)
(1.50395 -0.0350002 0 1.02507 0 1.48131)
(1.49944 -0.0370664 0 1.00634 0 1.47566)
(1.49509 -0.0389195 0 0.988956 0 1.47027)
(1.49086 -0.0407815 0 0.972227 0 1.46495)
(1.50951 -0.00298411 0 1.49932 0 1.50962)
(1.51528 -0.00358912 0 1.47359 0 1.51536)
(1.52208 -0.00347305 0 1.43718 0 1.52141)
(1.52782 -0.0039484 0 1.39724 0 1.52589)
(1.53167 -0.00488056 0 1.35768 0 1.52832)
(1.53378 -0.00615159 0 1.31987 0 1.52898)
(1.53444 -0.00771135 0 1.28439 0 1.52821)
(1.53392 -0.00947038 0 1.25139 0 1.52634)
(1.53247 -0.0113461 0 1.22081 0 1.52363)
(1.53034 -0.0132778 0 1.19253 0 1.52032)
(1.52769 -0.0152214 0 1.16637 0 1.51657)
(1.52466 -0.0171339 0 1.14215 0 1.51252)
(1.52137 -0.0189804 0 1.11972 0 1.50828)
(1.51792 -0.0207278 0 1.09888 0 1.50394)
(1.51439 -0.0223523 0 1.0795 0 1.49958)
(1.51087 -0.0238543 0 1.06139 0 1.49526)
(1.50731 -0.0252488 0 1.04448 0 1.49101)
(1.5036 -0.026657 0 1.02854 0 1.48681)
(1.50947 -0.00244255 0 1.49949 0 1.50959)
(1.51436 -0.00303172 0 1.47723 0 1.51461)
(1.52002 -0.00257021 0 1.44731 0 1.51996)
(1.52509 -0.00233744 0 1.41411 0 1.52436)
(1.52889 -0.00244848 0 1.3806 0 1.52731)
(1.53138 -0.0028842 0 1.34805 0 1.52889)
(1.53271 -0.0036183 0 1.31707 0 1.52928)
(1.53304 -0.00458066 0 1.2879 0 1.52871)
(1.53256 -0.0056985 0 1.26058 0 1.52736)
(1.53143 -0.00691368 0 1.23505 0 1.52541)
(1.52981 -0.00817938 0 1.21122 0 1.52302)
(1.52779 -0.00945345 0 1.18898 0 1.52029)
(1.5255 -0.0106998 0 1.1682 0 1.51732)
(1.523 -0.0118909 0 1.14877 0 1.51419)
(1.52038 -0.0130074 0 1.13057 0 1.51097)
(1.51769 -0.0140545 0 1.11349 0 1.50773)
(1.51493 -0.0150417 0 1.09746 0 1.50452)
(1.51184 -0.016073 0 1.08254 0 1.50131)
(1.5095 -0.00208669 0 1.49945 0 1.50964)
(1.51383 -0.00269469 0 1.4795 0 1.5142)
(1.51862 -0.00211621 0 1.45415 0 1.51895)
(1.52307 -0.00151943 0 1.42598 0 1.5231)
(1.52665 -0.0011541 0 1.39711 0 1.52623)
(1.52927 -0.00107211 0 1.36865 0 1.52832)
(1.53097 -0.00126818 0 1.34119 0 1.52945)
(1.53185 -0.00168954 0 1.31503 0 1.52975)
(1.53204 -0.00227514 0 1.29026 0 1.52937)
(1.53164 -0.00297254 0 1.2669 0 1.52844)
(1.53078 -0.00373762 0 1.24491 0 1.52706)
(1.52955 -0.00453206 0 1.22422 0 1.52534)
(1.52803 -0.00532377 0 1.20477 0 1.52336)
(1.52629 -0.00609038 0 1.18645 0 1.52118)
(1.52438 -0.00681887 0 1.16921 0 1.51888)
(1.52234 -0.00751649 0 1.15297 0 1.51651)
(1.5201 -0.00821 0 1.13773 0 1.51409)
(1.51747 -0.00894538 0 1.12361 0 1.51164)
(1.50947 -0.00167452 0 1.49957 0 1.50961)
(1.51333 -0.00230605 0 1.4815 0 1.51377)
(1.5174 -0.00175349 0 1.45968 0 1.51797)
(1.52126 -0.000994103 0 1.43553 0 1.52178)
(1.52453 -0.000338662 0 1.41055 0 1.52487)
(1.52709 0.000104456 0 1.38565 0 1.52717)
(1.52893 0.000312335 0 1.36138 0 1.52871)
(1.5301 0.00031443 0 1.33802 0 1.52955)
(1.53069 0.000155641 0 1.31571 0 1.5298)
(1.53078 -0.000120653 0 1.29449 0 1.52956)
(1.53045 -0.000475627 0 1.27438 0 1.52891)
(1.52978 -0.000875613 0 1.25532 0 1.52793)
(1.52883 -0.00129297 0 1.23729 0 1.52669)
(1.52767 -0.00170931 0 1.22023 0 1.52525)
(1.52632 -0.00211495 0 1.20409 0 1.52366)
(1.52481 -0.00251618 0 1.18883 0 1.52198)
(1.52307 -0.0029257 0 1.1745 0 1.52023)
(1.52088 -0.00340285 0 1.16124 0 1.51841)
(1.50943 -0.00140955 0 1.49967 0 1.50958)
(1.51301 -0.00204223 0 1.48283 0 1.51349)
(1.51659 -0.0015534 0 1.46338 0 1.51731)
(1.51999 -0.000759215 0 1.44205 0 1.52081)
(1.52296 1.80276e-05 0 1.4199 0 1.52379)
(1.52539 0.000641595 0 1.39764 0 1.52614)
(1.52725 0.00107078 0 1.37573 0 1.52788)
(1.52857 0.00131835 0 1.35448 0 1.52904)
(1.5294 0.00141667 0 1.33401 0 1.5297)
(1.5298 0.00140105 0 1.31441 0 1.52991)
(1.52982 0.00130462 0 1.2957 0 1.52975)
(1.52954 0.00115606 0 1.27788 0 1.52929)
(1.52899 0.000978374 0 1.26093 0 1.52857)
(1.52823 0.000786153 0 1.24481 0 1.52765)
(1.52727 0.000585703 0 1.22951 0 1.52658)
(1.52612 0.000370862 0 1.21502 0 1.52539)
(1.5247 0.000123579 0 1.2014 0 1.52411)
(1.52285 -0.000173842 0 1.18877 0 1.52275)
(1.50937 -0.00113586 0 1.49984 0 1.50953)
(1.51268 -0.00173036 0 1.48408 0 1.5132)
(1.51585 -0.00131815 0 1.46655 0 1.51667)
(1.51886 -0.000545399 0 1.44756 0 1.51989)
(1.52153 0.000283572 0 1.4278 0 1.5227)
(1.52379 0.00101846 0 1.40781 0 1.52503)
(1.52561 0.00160425 0 1.38801 0 1.52686)
(1.52699 0.00203818 0 1.36865 0 1.52821)
(1.52795 0.00234005 0 1.34988 0 1.52913)
(1.52855 0.00253635 0 1.33179 0 1.52967)
(1.52882 0.00265374 0 1.31442 0 1.52987)
(1.52882 0.00271575 0 1.29779 0 1.52979)
(1.52857 0.002741 0 1.28189 0 1.52947)
(1.52812 0.00274146 0 1.26671 0 1.52896)
(1.52747 0.002722 0 1.25226 0 1.52829)
(1.52661 0.00268033 0 1.23855 0 1.5275)
(1.52549 0.0026089 0 1.22563 0 1.52661)
(1.52394 0.00247807 0 1.21364 0 1.52562)
(1.50928 -0.000907011 0 1.50006 0 1.50944)
(1.51237 -0.00144628 0 1.48523 0 1.51291)
(1.51519 -0.00111806 0 1.46935 0 1.51609)
(1.51783 -0.0004121 0 1.45242 0 1.51903)
(1.5202 0.000401911 0 1.43482 0 1.52165)
(1.52227 0.00117423 0 1.41695 0 1.5239)
(1.524 0.00184145 0 1.39911 0 1.52576)
(1.52538 0.00238875 0 1.38153 0 1.52724)
(1.52643 0.00282486 0 1.36437 0 1.52835)
(1.52717 0.00316767 0 1.34771 0 1.52914)
(1.52764 0.003437 0 1.33161 0 1.52964)
(1.52787 0.00365077 0 1.31611 0 1.52989)
(1.52787 0.00382301 0 1.30123 0 1.52992)
(1.52768 0.0039621 0 1.28696 0 1.52976)
(1.5273 0.00407067 0 1.27333 0 1.52945)
(1.5267 0.0041451 0 1.26036 0 1.52901)
(1.52583 0.00417528 0 1.24811 0 1.52847)
(1.52461 0.00417112 0 1.23669 0 1.52783)
(1.50917 -0.000633415 0 1.50036 0 1.50933)
(1.51202 -0.00103787 0 1.48645 0 1.51258)
(1.51453 -0.000767447 0 1.47203 0 1.51549)
(1.51682 -0.000148784 0 1.45691 0 1.51815)
(1.51891 0.000607858 0 1.44125 0 1.52056)
(1.52076 0.00137123 0 1.42531 0 1.52269)
(1.52236 0.0020773 0 1.4093 0 1.52451)
(1.52369 0.0027028 0 1.39342 0 1.52604)
(1.52477 0.00324644 0 1.37779 0 1.52728)
(1.5256 0.0037171 0 1.36253 0 1.52824)
(1.52621 0.00412707 0 1.34769 0 1.52896)
(1.5266 0.00448842 0 1.33333 0 1.52946)
(1.52681 0.00481072 0 1.31946 0 1.52976)
(1.52683 0.00510047 0 1.30611 0 1.52989)
(1.52666 0.0053601 0 1.29331 0 1.52988)
(1.5263 0.00558851 0 1.2811 0 1.52974)
(1.52568 0.00578037 0 1.26953 0 1.52948)
(1.52473 0.00590452 0 1.25869 0 1.52913)
(1.50903 -0.000429178 0 1.50069 0 1.50919)
(1.51166 -0.000705445 0 1.48757 0 1.51224)
(1.51393 -0.000492113 0 1.4743 0 1.51493)
(1.51596 8.893e-06 0 1.46061 0 1.51737)
(1.5178 0.000646996 0 1.44653 0 1.51959)
(1.51945 0.00131881 0 1.43218 0 1.52159)
(1.52091 0.00196761 0 1.41772 0 1.52335)
(1.52217 0.00256776 0 1.40329 0 1.52488)
(1.52324 0.00311178 0 1.389 0 1.52617)
(1.5241 0.00360162 0 1.37496 0 1.52724)
(1.52479 0.00404306 0 1.36123 0 1.52811)
(1.52529 0.00444241 0 1.34786 0 1.52878)
(1.52564 0.00480477 0 1.33489 0 1.52928)
(1.52581 0.00513299 0 1.32237 0 1.52963)
(1.52582 0.0054279 0 1.31031 0 1.52984)
(1.52565 0.00568954 0 1.29876 0 1.52993)
(1.52526 0.00591698 0 1.28776 0 1.52991)
(1.52461 0.0061345 0 1.27738 0 1.5298)
(1.50889 -0.00016041 0 1.50104 0 1.50905)
(1.51133 -0.000198263 0 1.4886 0 1.5119)
(1.51339 4.62788e-05 0 1.4762 0 1.51441)
(1.51522 0.000479025 0 1.46358 0 1.51668)
(1.51687 0.00101869 0 1.45068 0 1.51874)
(1.51836 0.00160343 0 1.43754 0 1.52062)
(1.5197 0.00219551 0 1.42427 0 1.52231)
(1.52089 0.00277507 0 1.41096 0 1.52381)
(1.52191 0.00333335 0 1.39772 0 1.52512)
(1.52278 0.00386794 0 1.38464 0 1.52624)
(1.5235 0.00437931 0 1.37178 0 1.52719)
(1.52407 0.00486873 0 1.35922 0 1.52797)
(1.5245 0.00533686 0 1.34698 0 1.52859)
(1.52478 0.00578328 0 1.33512 0 1.52908)
(1.5249 0.00620549 0 1.32366 0 1.52943)
(1.52486 0.00659813 0 1.31265 0 1.52967)
(1.52464 0.00695269 0 1.30213 0 1.5298)
(1.52422 0.00723886 0 1.29213 0 1.52983)
(1.50877 2.37434e-06 0 1.50131 0 1.50894)
(1.51109 0.000140697 0 1.48931 0 1.51166)
(1.51305 0.000378453 0 1.47738 0 1.51407)
(1.51479 0.000688583 0 1.46532 0 1.51624)
(1.51635 0.00104779 0 1.45305 0 1.51822)
(1.51777 0.00143598 0 1.44057 0 1.52004)
(1.51905 0.00183902 0 1.42796 0 1.52168)
(1.52019 0.00224767 0 1.4153 0 1.52315)
(1.5212 0.00265596 0 1.40267 0 1.52446)
(1.52208 0.00306008 0 1.39016 0 1.5256)
(1.52283 0.00345737 0 1.37783 0 1.52658)
(1.52344 0.00384577 0 1.36574 0 1.52741)
(1.52393 0.00422352 0 1.35394 0 1.5281)
(1.52429 0.00458931 0 1.34247 0 1.52866)
(1.52451 0.00494224 0 1.33135 0 1.52909)
(1.5246 0.00528412 0 1.32063 0 1.52941)
(1.52454 0.00561698 0 1.31033 0 1.52963)
(1.52431 0.00596332 0 1.30048 0 1.52974)
(1.50879 0.000350226 0 1.50124 0 1.50896)
(1.51114 0.000875072 0 1.48913 0 1.51171)
(1.51314 0.00126839 0 1.47707 0 1.51414)
(1.51491 0.00159388 0 1.46486 0 1.51634)
(1.5165 0.00190255 0 1.45243 0 1.51834)
(1.51793 0.00222737 0 1.43979 0 1.52016)
(1.51922 0.00258651 0 1.42702 0 1.5218)
(1.52037 0.00298706 0 1.41421 0 1.52327)
(1.52137 0.00342895 0 1.40145 0 1.52455)
(1.52223 0.00390793 0 1.38882 0 1.52567)
(1.52294 0.00441747 0 1.37637 0 1.52662)
(1.52353 0.00494982 0 1.36418 0 1.52742)
(1.52398 0.00549647 0 1.35228 0 1.52807)
(1.52432 0.00604819 0 1.34071 0 1.52858)
(1.52453 0.00659476 0 1.32948 0 1.52898)
(1.52465 0.0071239 0 1.31862 0 1.52927)
(1.52466 0.00762085 0 1.30814 0 1.52947)
(1.5246 0.00805823 0 1.29805 0 1.5296)
(1.50904 0.00053227 0 1.50076 0 1.50918)
(1.51172 0.00120423 0 1.48777 0 1.51221)
(1.51402 0.00152799 0 1.47468 0 1.51489)
(1.51609 0.00166215 0 1.46124 0 1.51732)
(1.51798 0.0017243 0 1.44745 0 1.51952)
(1.51968 0.0017893 0 1.43342 0 1.52151)
(1.52121 0.0018981 0 1.41928 0 1.52328)
(1.52255 0.0020672 0 1.40516 0 1.52482)
(1.5237 0.00229811 0 1.39117 0 1.52615)
(1.52467 0.0025842 0 1.3774 0 1.52725)
(1.52546 0.00291474 0 1.36392 0 1.52816)
(1.52609 0.00327718 0 1.35078 0 1.52888)
(1.52657 0.0036587 0 1.33802 0 1.52943)
(1.52689 0.00404708 0 1.32567 0 1.52982)
(1.52708 0.00443263 0 1.31376 0 1.53006)
(1.52712 0.00480943 0 1.30229 0 1.53017)
(1.52702 0.00518039 0 1.29129 0 1.53015)
(1.52675 0.00557057 0 1.28078 0 1.53)
(1.50921 0.000898073 0 1.5003 0 1.50935)
(1.51222 0.00185596 0 1.48615 0 1.51269)
(1.51491 0.00220446 0 1.47143 0 1.51569)
(1.51739 0.00227377 0 1.456 0 1.51844)
(1.51965 0.00226726 0 1.44006 0 1.52092)
(1.52165 0.00229588 0 1.42384 0 1.52309)
(1.52339 0.0024125 0 1.40757 0 1.52496)
(1.52485 0.00263234 0 1.39144 0 1.52651)
(1.52605 0.0029504 0 1.37558 0 1.52776)
(1.52699 0.00335318 0 1.36009 0 1.52874)
(1.5277 0.00382487 0 1.34504 0 1.52946)
(1.52819 0.00435045 0 1.33047 0 1.52994)
(1.52848 0.0049173 0 1.3164 0 1.53022)
(1.5286 0.0055163 0 1.30287 0 1.53031)
(1.52855 0.0061415 0 1.28987 0 1.53025)
(1.52838 0.00679001 0 1.27739 0 1.53004)
(1.52809 0.00745607 0 1.26543 0 1.52973)
(1.52777 0.00811381 0 1.25396 0 1.52935)
(1.50941 0.00116385 0 1.49988 0 1.50953)
(1.51281 0.00223146 0 1.48438 0 1.51319)
(1.51602 0.00249 0 1.46742 0 1.5166)
(1.51905 0.00245461 0 1.44918 0 1.51974)
(1.52179 0.00237784 0 1.43024 0 1.52251)
(1.52415 0.00237723 0 1.41108 0 1.52482)
(1.52611 0.00250433 0 1.39207 0 1.52669)
(1.52766 0.00276837 0 1.37343 0 1.52811)
(1.52884 0.00315665 0 1.35531 0 1.52913)
(1.52967 0.00364901 0 1.33779 0 1.52978)
(1.53019 0.00422404 0 1.32093 0 1.53012)
(1.53046 0.00486086 0 1.30473 0 1.53019)
(1.5305 0.00553977 0 1.28921 0 1.53002)
(1.53034 0.00624133 0 1.27435 0 1.52966)
(1.53003 0.0069462 0 1.26014 0 1.52913)
(1.52957 0.00763336 0 1.24658 0 1.52846)
(1.52898 0.00828668 0 1.23364 0 1.52767)
(1.52818 0.00891894 0 1.22136 0 1.52673)
(1.50955 0.00173128 0 1.49949 0 1.50966)
(1.5135 0.00300781 0 1.48184 0 1.51379)
(1.51753 0.00327246 0 1.46115 0 1.51784)
(1.52136 0.00334598 0 1.43844 0 1.52153)
(1.52468 0.00350511 0 1.41491 0 1.52459)
(1.52739 0.0038287 0 1.39134 0 1.52695)
(1.52947 0.00433636 0 1.36822 0 1.52864)
(1.53095 0.00500986 0 1.34582 0 1.52971)
(1.5319 0.00581415 0 1.3243 0 1.53024)
(1.53239 0.00671524 0 1.30371 0 1.5303)
(1.53248 0.00768478 0 1.28409 0 1.52997)
(1.53223 0.00869957 0 1.26543 0 1.52931)
(1.5317 0.00974134 0 1.24771 0 1.52838)
(1.53092 0.0107975 0 1.23091 0 1.52723)
(1.52993 0.0118623 0 1.21499 0 1.52588)
(1.52876 0.0129417 0 1.19991 0 1.52439)
(1.52744 0.0140511 0 1.18565 0 1.52277)
(1.52615 0.015197 0 1.17211 0 1.52113)
(1.50959 0.00210038 0 1.49945 0 1.50966)
(1.51416 0.00348057 0 1.47927 0 1.51427)
(1.51924 0.00389849 0 1.45341 0 1.51903)
(1.52399 0.00432375 0 1.42474 0 1.52314)
(1.52783 0.00493579 0 1.3955 0 1.52618)
(1.53063 0.00574188 0 1.36682 0 1.52811)
(1.53248 0.00674715 0 1.33924 0 1.52906)
(1.53347 0.00792817 0 1.313 0 1.52918)
(1.53375 0.00924124 0 1.28818 0 1.52861)
(1.53345 0.0106469 0 1.26476 0 1.52748)
(1.53268 0.0121148 0 1.2427 0 1.52593)
(1.53154 0.0136207 0 1.22192 0 1.52404)
(1.53012 0.0151457 0 1.20235 0 1.5219)
(1.52848 0.016674 0 1.18392 0 1.51956)
(1.5267 0.0181903 0 1.16653 0 1.51711)
(1.52483 0.0196686 0 1.15012 0 1.51457)
(1.52296 0.0210661 0 1.13461 0 1.51202)
(1.52092 0.0223316 0 1.12 0 1.50939)
(1.50975 0.00300084 0 1.49898 0 1.5098)
(1.51563 0.00469172 0 1.47376 0 1.51544)
(1.52245 0.00582085 0 1.43877 0 1.52125)
(1.52836 0.00741289 0 1.40034 0 1.52565)
(1.53257 0.00933725 0 1.36201 0 1.52819)
(1.53513 0.0114191 0 1.3252 0 1.52906)
(1.53628 0.0136157 0 1.29046 0 1.52858)
(1.53626 0.0158929 0 1.25796 0 1.52701)
(1.53533 0.0181986 0 1.22772 0 1.52462)
(1.53369 0.020497 0 1.19963 0 1.52162)
(1.53152 0.0227682 0 1.17355 0 1.51817)
(1.52897 0.024998 0 1.14931 0 1.51441)
(1.52612 0.0271748 0 1.12678 0 1.51044)
(1.52308 0.0292883 0 1.1058 0 1.50633)
(1.51987 0.0313282 0 1.08627 0 1.50214)
(1.51654 0.0332932 0 1.06807 0 1.4979)
(1.51301 0.0351984 0 1.05113 0 1.4936)
(1.50956 0.037132 0 1.03538 0 1.48939)
(1.50956 0.00335063 0 1.4994 0 1.50954)
(1.51697 0.00627077 0 1.46775 0 1.51609)
(1.5259 0.00944822 0 1.41957 0 1.52246)
(1.53255 0.0131776 0 1.3689 0 1.52581)
(1.53614 0.0170032 0 1.32072 0 1.52608)
(1.53715 0.0207339 0 1.27618 0 1.524)
(1.53623 0.0244208 0 1.23537 0 1.52023)
(1.5339 0.0280973 0 1.19805 0 1.51528)
(1.53057 0.0317141 0 1.16396 0 1.50957)
(1.52655 0.0352361 0 1.13278 0 1.50337)
(1.5221 0.0386496 0 1.10419 0 1.49691)
(1.51738 0.0419471 0 1.07791 0 1.49031)
(1.51251 0.0451246 0 1.05371 0 1.4837)
(1.50759 0.0481842 0 1.03138 0 1.47715)
(1.50271 0.0511311 0 1.01072 0 1.47072)
(1.49793 0.0539745 0 0.991565 0 1.46446)
(1.4935 0.0567055 0 0.973726 0 1.45848)
(1.4893 0.059159 0 0.957183 0 1.4528)
(1.51072 0.00497996 0 1.49653 0 1.51053)
(1.52208 0.011357 0 1.44804 0 1.51932)
(1.53421 0.0199502 0 1.37292 0 1.52522)
(1.54101 0.0285987 0 1.29827 0 1.5251)
(1.54248 0.0362845 0 1.2308 0 1.52028)
(1.54007 0.0429089 0 1.17107 0 1.51238)
(1.53511 0.0488097 0 1.11841 0 1.5026)
(1.52867 0.0542701 0 1.07196 0 1.49185)
(1.52134 0.0593292 0 1.03093 0 1.48069)
(1.51356 0.064035 0 0.994514 0 1.46946)
(1.5056 0.0684378 0 0.962016 0 1.4584)
(1.49769 0.072571 0 0.932876 0 1.44763)
(1.48991 0.0764553 0 0.906619 0 1.43722)
(1.48239 0.0801141 0 0.882864 0 1.42725)
(1.47509 0.0835516 0 0.86127 0 1.41769)
(1.46814 0.0867812 0 0.841596 0 1.4086)
(1.46108 0.0897507 0 0.82354 0 1.39972)
(1.45418 0.0925438 0 0.807295 0 1.39132)
(1.50986 0.00579443 0 1.49843 0 1.50915)
(1.52696 0.0254857 0 1.42426 0 1.51751)
(1.54206 0.0456358 0 1.31346 0 1.51587)
(1.5457 0.0606047 0 1.21733 0 1.5043)
(1.54107 0.0722166 0 1.13748 0 1.48741)
(1.53138 0.081629 0 1.07055 0 1.46798)
(1.51926 0.0898555 0 1.0135 0 1.44779)
(1.50659 0.0974357 0 0.964472 0 1.42813)
(1.49385 0.104353 0 0.922028 0 1.40934)
(1.48143 0.110673 0 0.884952 0 1.3916)
(1.46952 0.116475 0 0.85231 0 1.37493)
(1.45829 0.121827 0 0.823369 0 1.35936)
(1.44769 0.126767 0 0.797525 0 1.34479)
(1.43782 0.131349 0 0.774344 0 1.33126)
(1.4286 0.135618 0 0.75337 0 1.31857)
(1.42003 0.13958 0 0.734468 0 1.30683)
(1.41228 0.143434 0 0.71703 0 1.29577)
(1.40596 0.146747 0 0.701845 0 1.28625)
(1.5189 0.0284589 0 1.47294 0 1.51483)
(1.5634 0.112018 0 1.26338 0 1.51871)
(1.58323 0.161048 0 1.0377 0 1.48715)
(1.57568 0.181988 0 0.887039 0 1.44364)
(1.55685 0.192601 0 0.784364 0 1.39974)
(1.53315 0.198896 0 0.711445 0 1.35826)
(1.51045 0.204133 0 0.657275 0 1.32169)
(1.49095 0.209218 0 0.615884 0 1.29073)
(1.47359 0.214016 0 0.582983 0 1.26373)
(1.45815 0.21848 0 0.556115 0 1.23992)
(1.44429 0.222582 0 0.533747 0 1.21869)
(1.43213 0.226385 0 0.514845 0 1.19984)
(1.42117 0.229879 0 0.498609 0 1.18277)
(1.41174 0.233119 0 0.484581 0 1.16761)
(1.40308 0.236122 0 0.472275 0 1.15365)
(1.39588 0.238889 0 0.46148 0 1.14133)
(1.38887 0.241523 0 0.451894 0 1.12969)
(1.38201 0.243736 0 0.443134 0 1.11888)
(1.59274 0.291964 0 1.39581 0 1.52093)
(1.91623 0.578694 0 0.96806 0 1.53309)
(2.06903 0.585624 0 0.7323 0 1.48899)
(2.10352 0.552946 0 0.628157 0 1.43529)
(2.09254 0.525577 0 0.573894 0 1.3857)
(2.06465 0.505432 0 0.540719 0 1.34254)
(2.03078 0.489932 0 0.517653 0 1.30524)
(1.99586 0.477389 0 0.500066 0 1.27291)
(1.96225 0.466862 0 0.485775 0 1.24459)
(1.93074 0.457761 0 0.473714 0 1.21954)
(1.90156 0.449736 0 0.463296 0 1.19719)
(1.8746 0.442565 0 0.45415 0 1.1771)
(1.84983 0.43611 0 0.446037 0 1.15896)
(1.8269 0.430251 0 0.438767 0 1.14246)
(1.80595 0.424905 0 0.432213 0 1.12747)
(1.78631 0.420034 0 0.426285 0 1.11364)
(1.76858 0.415467 0 0.420831 0 1.10112)
(1.75147 0.411234 0 0.415958 0 1.0893)
(0.0115787 0.00400723 0 0.0260437 0 0.0265114)
(0.0268144 0.0015674 0 0.0444553 0 0.0610218)
(0.0467649 -0.000171441 0 0.0572445 0 0.0875183)
(0.0594159 -0.0035796 0 0.0640091 0 0.101791)
(0.0709138 -0.00575683 0 0.0673839 0 0.112521)
(0.080716 -0.00747807 0 0.068116 0 0.119969)
(0.0896502 -0.00878598 0 0.0683335 0 0.125905)
(0.0975577 -0.00994681 0 0.0677705 0 0.130387)
(0.104874 -0.010933 0 0.0670149 0 0.134069)
(0.111548 -0.0118282 0 0.0658969 0 0.13696)
(0.117813 -0.0126027 0 0.064648 0 0.139364)
(0.123661 -0.0132668 0 0.06321 0 0.141304)
(0.129195 -0.0137938 0 0.0616997 0 0.142925)
(0.13439 -0.0141837 0 0.060119 0 0.144243)
(0.139263 -0.0144342 0 0.0585361 0 0.145312)
(0.14377 -0.0145621 0 0.0569639 0 0.146124)
(0.147895 -0.0145888 0 0.0554364 0 0.146689)
(0.151584 -0.0145475 0 0.053957 0 0.146983)
(0.154857 -0.0144748 0 0.0525352 0 0.147005)
(0.157621 -0.0144074 0 0.0511765 0 0.146742)
(0.160433 -0.0143924 0 0.0495686 0 0.145895)
(0.161925 -0.0144736 0 0.0485449 0 0.145177)
(0.163208 -0.0145835 0 0.04734 0 0.144059)
(0.164123 -0.0146749 0 0.0458899 0 0.142335)
(0.1645 -0.0147313 0 0.044366 0 0.140186)
(0.164267 -0.0147257 0 0.0427372 0 0.13757)
(0.163435 -0.0146418 0 0.0409761 0 0.134466)
(0.160595 -0.0137693 0 0.0389091 0 0.130221)
(0.155565 -0.0124728 0 0.0365216 0 0.124601)
(0.147903 -0.0108816 0 0.0338001 0 0.117267)
(0.136836 -0.00913792 0 0.0306876 0 0.107672)
(0.120954 -0.00733164 0 0.0270417 0 0.0948175)
(0.0979365 -0.00540495 0 0.0225445 0 0.0771137)
(0.076138 -0.00358742 0 0.0178257 0 0.0602568)
(0.0595654 -0.00135275 0 0.013801 0 0.046937)
(0.0573032 0.00164414 0 0.0127533 0 0.0438539)
(0.0696387 0.00492563 0 0.0156092 0 0.0522505)
(0.0896146 0.00747229 0 0.0202978 0 0.0669725)
(0.112706 0.00978402 0 0.0251044 0 0.0838534)
(0.137454 0.0121511 0 0.0296082 0 0.101632)
(0.158139 0.0143897 0 0.0334681 0 0.116496)
(0.174366 0.0164078 0 0.0367376 0 0.128265)
(0.187452 0.0181093 0 0.0395713 0 0.137924)
(0.198223 0.0194963 0 0.0420311 0 0.146004)
(0.207209 0.0205939 0 0.044154 0 0.152854)
(0.214758 0.0214382 0 0.0459728 0 0.15872)
(0.221029 0.0220047 0 0.0475129 0 0.163753)
(0.22604 0.0221078 0 0.0487908 0 0.16805)
(0.230463 0.0219825 0 0.0499241 0 0.171958)
(0.234703 0.0218848 0 0.0509849 0 0.175648)
(0.238703 0.021802 0 0.0519717 0 0.179098)
(0.242492 0.0217412 0 0.0528967 0 0.182331)
(0.24607 0.0216993 0 0.0537632 0 0.185349)
(0.249449 0.0216784 0 0.0545748 0 0.188158)
(0.252631 0.0216828 0 0.0553326 0 0.190756)
(0.255622 0.0217199 0 0.0560384 0 0.193141)
(0.258415 0.0217922 0 0.0566909 0 0.195309)
(0.260999 0.0218944 0 0.0572851 0 0.197252)
(0.263372 0.0220207 0 0.0578172 0 0.198967)
(0.265536 0.0221684 0 0.0582834 0 0.20045)
(0.267495 0.0223352 0 0.0586795 0 0.201698)
(0.269248 0.0225226 0 0.0589995 0 0.202702)
(0.270802 0.0227422 0 0.0592395 0 0.203454)
(0.272156 0.0230132 0 0.0593943 0 0.203942)
(0.273229 0.0233329 0 0.0594525 0 0.204141)
(0.273977 0.0236891 0 0.0594195 0 0.204073)
(0.27443 0.0239847 0 0.0593691 0 0.203942)
(0.274636 0.0243758 0 0.0591647 0 0.203341)
(0.273606 0.024309 0 0.0587858 0 0.202223)
(0.272547 0.0241789 0 0.0584445 0 0.201103)
(0.271715 0.0241841 0 0.0582068 0 0.200173)
(0.27133 0.0242969 0 0.0581152 0 0.199616)
(0.27135 0.0245134 0 0.0581429 0 0.199344)
(0.271894 0.0249727 0 0.0583508 0 0.199342)
(0.272946 0.0255328 0 0.0587158 0 0.199794)
(0.274834 0.0262796 0 0.059318 0 0.20085)
(0.277675 0.0272159 0 0.0601816 0 0.202605)
(0.281585 0.0283526 0 0.0613287 0 0.205137)
(0.286679 0.0296987 0 0.0627823 0 0.208527)
(0.293018 0.0312566 0 0.0645507 0 0.212818)
(0.300651 0.0330268 0 0.0666421 0 0.218044)
(0.30958 0.0350078 0 0.069055 0 0.224207)
(0.3198 0.0371957 0 0.0717881 0 0.231303)
(0.331263 0.0395846 0 0.0748326 0 0.239306)
(0.34392 0.0421658 0 0.0781818 0 0.248185)
(0.357697 0.0449303 0 0.0818239 0 0.257896)
(0.372515 0.0478676 0 0.0857498 0 0.268395)
(0.388288 0.0509659 0 0.0899495 0 0.279632)
(0.404928 0.054214 0 0.0944149 0 0.29156)
(0.422344 0.0575998 0 0.0991403 0 0.304133)
(0.440449 0.0611117 0 0.104123 0 0.317306)
(0.459164 0.0647373 0 0.109363 0 0.331046)
(0.478403 0.0684651 0 0.114866 0 0.345317)
(0.498076 0.0722853 0 0.120641 0 0.360084)
(0.518096 0.0761877 0 0.126703 0 0.375316)
(0.538362 0.0801622 0 0.133073 0 0.390979)
(0.558768 0.0841976 0 0.139782 0 0.407038)
(0.579187 0.0882816 0 0.146865 0 0.42345)
(0.599475 0.0923998 0 0.154371 0 0.440161)
(0.619454 0.096534 0 0.162359 0 0.457101)
(0.638922 0.100658 0 0.170903 0 0.474184)
(0.657636 0.104738 0 0.180088 0 0.491299)
(0.675319 0.108735 0 0.190016 0 0.508305)
(0.691654 0.112614 0 0.200799 0 0.525032)
(0.706291 0.116361 0 0.212557 0 0.541278)
(0.7189 0.11997 0 0.225427 0 0.556845)
(0.729364 0.12339 0 0.239623 0 0.571693)
(0.738275 0.126587 0 0.255552 0 0.586311)
(0.745601 0.129435 0 0.273495 0 0.600725)
(0.751177 0.131773 0 0.293612 0 0.614803)
(0.754714 0.13339 0 0.316091 0 0.628345)
(0.755785 0.134005 0 0.34105 0 0.641026)
(0.753876 0.133247 0 0.36855 0 0.652435)
(0.748257 0.130575 0 0.398614 0 0.661963)
(0.737815 0.124938 0 0.431607 0 0.668781)
(0.725359 0.115975 0 0.458951 0 0.671357)
(0.711495 0.105983 0 0.480342 0 0.6711)
(0.68136 0.0894163 0 0.508639 0 0.664962)
(0.645603 0.0609983 0 0.522995 0 0.650956)
(0.613378 0.0211927 0 0.522558 0 0.635131)
(0.588723 -0.0159424 0 0.510736 0 0.618492)
(0.570395 -0.0487278 0 0.485973 0 0.600195)
(0.556494 -0.0743882 0 0.449054 0 0.579333)
(0.545612 -0.0916067 0 0.402736 0 0.555639)
(0.532935 -0.100412 0 0.350403 0 0.527343)
(0.520354 -0.105683 0 0.295293 0 0.495278)
(0.502052 -0.0940265 0 0.224375 0 0.456887)
(0.471983 -0.0736439 0 0.175677 0 0.418387)
(0.448634 -0.0561077 0 0.145048 0 0.389347)
(0.437603 -0.0391935 0 0.125281 0 0.37152)
(0.432007 -0.0219506 0 0.113678 0 0.361482)
(0.429357 -0.0103674 0 0.109619 0 0.35878)
(0.428966 -0.00294178 0 0.110481 0 0.362878)
(0.434907 -0.000403027 0 0.116148 0 0.374371)
(0.443811 -0.000953448 0 0.124971 0 0.389639)
(0.453178 -0.00404091 0 0.136431 0 0.405975)
(0.461171 -0.00881733 0 0.149871 0 0.421022)
(0.466226 -0.0149615 0 0.164422 0 0.433261)
(0.470094 -0.0230193 0 0.179432 0 0.44392)
(0.474171 -0.0327925 0 0.194171 0 0.453546)
(0.478662 -0.0437685 0 0.207826 0 0.461972)
(0.483415 -0.0552804 0 0.219634 0 0.468839)
(0.488282 -0.066553 0 0.228997 0 0.473996)
(0.493764 -0.07774 0 0.236468 0 0.477983)
(0.499856 -0.0893608 0 0.242382 0 0.481049)
(0.507708 -0.101573 0 0.246366 0 0.484311)
(0.51695 -0.112434 0 0.246718 0 0.486899)
(0.522898 -0.115329 0 0.238505 0 0.486255)
(0.525475 -0.116207 0 0.23068 0 0.483261)
(0.525669 -0.116241 0 0.224042 0 0.479072)
(0.524543 -0.115853 0 0.217827 0 0.474128)
(0.522642 -0.115165 0 0.21178 0 0.468727)
(0.520277 -0.114256 0 0.205866 0 0.463077)
(0.517639 -0.113195 0 0.200122 0 0.457329)
(0.514859 -0.112042 0 0.1946 0 0.451598)
(0.512034 -0.110848 0 0.189347 0 0.44597)
(0.509233 -0.109652 0 0.184395 0 0.440511)
(0.506512 -0.108487 0 0.179763 0 0.43527)
(0.503909 -0.107376 0 0.17546 0 0.43028)
(0.501446 -0.106333 0 0.171483 0 0.425559)
(0.499139 -0.10537 0 0.167821 0 0.421116)
(0.496987 -0.10449 0 0.164457 0 0.416945)
(0.494982 -0.103692 0 0.16137 0 0.413032)
(0.493101 -0.102972 0 0.158535 0 0.409352)
(0.491337 -0.102328 0 0.155929 0 0.405889)