/*--------------------------------*- C++ -*----------------------------------*\
| =========                 |                                                 |
| \\      /  F ield         | OpenFOAM: The Open Source CFD Toolbox           |
|  \\    /   O peration     | Version:  v1906                                 |
|   \\  /    A nd           | Web:      www.OpenFOAM.com                      |
|    \\/     M anipulation  |                                                 |
\*---------------------------------------------------------------------------*/
FoamFile
{
    version     2.0;
    format      ascii;
    class       volVectorField;
    location    "800";
    object      U;
}
// * * * * * * * * * * * * * * * * * * * * * * * * * * * * * * * * * * * * * //

dimensions      [0 1 -1 0 0 0 0];


internalField   nonuniform List<vector> 
12225
(
(9.79727 -0.108752 0)
(9.50673 -0.356761 0)
(9.26446 -0.488279 0)
(9.06612 -0.540834 0)
(8.90326 -0.55947 0)
(8.76226 -0.565153 0)
(8.63622 -0.565597 0)
(8.52308 -0.563582 0)
(8.42145 -0.560187 0)
(8.32992 -0.555987 0)
(8.24746 -0.551079 0)
(8.17195 -0.545468 0)
(8.10307 -0.539631 0)
(8.04053 -0.533819 0)
(7.98489 -0.528229 0)
(7.93719 -0.524188 0)
(7.89827 -0.516496 0)
(7.87509 -0.536478 0)
(10.0492 0.150439 0)
(10.0911 0.259739 0)
(10.0684 0.319234 0)
(10.0256 0.363308 0)
(9.98281 0.392918 0)
(9.94006 0.411558 0)
(9.89729 0.423504 0)
(9.85581 0.431303 0)
(9.81624 0.436148 0)
(9.77835 0.4389 0)
(9.74235 0.440156 0)
(9.70829 0.440362 0)
(9.67628 0.439583 0)
(9.64605 0.438085 0)
(9.61776 0.435392 0)
(9.59037 0.432779 0)
(9.5666 0.42538 0)
(9.54104 0.421899 0)
(10.0166 0.00775481 0)
(10.0499 -0.0105929 0)
(10.0415 -0.0528903 0)
(10.0183 -0.0930812 0)
(9.9968 -0.127502 0)
(9.97718 -0.155886 0)
(9.95838 -0.178217 0)
(9.94071 -0.195614 0)
(9.92416 -0.209414 0)
(9.90854 -0.22062 0)
(9.89368 -0.229745 0)
(9.8798 -0.237253 0)
(9.86676 -0.243531 0)
(9.85495 -0.249218 0)
(9.8438 -0.254401 0)
(9.83402 -0.260433 0)
(9.82507 -0.266324 0)
(9.80926 -0.280783 0)
(10.0096 0.0582873 0)
(10.039 0.0976181 0)
(10.0507 0.114992 0)
(10.0512 0.134052 0)
(10.0494 0.152918 0)
(10.0455 0.169338 0)
(10.0397 0.183319 0)
(10.0329 0.195093 0)
(10.026 0.204845 0)
(10.0189 0.212878 0)
(10.0119 0.219548 0)
(10.0052 0.225103 0)
(9.99898 0.229634 0)
(9.99333 0.233144 0)
(9.9882 0.235667 0)
(9.98373 0.23688 0)
(9.97977 0.236858 0)
(9.97755 0.234139 0)
(10.0094 0.019919 0)
(10.0407 0.0291015 0)
(10.0563 0.0219538 0)
(10.0606 0.0108906 0)
(10.062 -0.00232311 0)
(10.0616 -0.0167589 0)
(10.06 -0.0307509 0)
(10.058 -0.0435354 0)
(10.0558 -0.0550898 0)
(10.0537 -0.0655279 0)
(10.0515 -0.0749513 0)
(10.0495 -0.0835149 0)
(10.0476 -0.0914422 0)
(10.046 -0.0990375 0)
(10.0448 -0.106512 0)
(10.0432 -0.114486 0)
(10.0423 -0.122571 0)
(10.0356 -0.13339 0)
(10.0058 0.0332763 0)
(10.0287 0.0619759 0)
(10.0451 0.0730557 0)
(10.0549 0.0811104 0)
(10.0627 0.0886373 0)
(10.0686 0.0956601 0)
(10.0728 0.102507 0)
(10.076 0.109128 0)
(10.0784 0.115294 0)
(10.0805 0.120895 0)
(10.0822 0.125934 0)
(10.0837 0.130412 0)
(10.0853 0.134294 0)
(10.0868 0.137478 0)
(10.0884 0.139942 0)
(10.09 0.141431 0)
(10.0913 0.142099 0)
(10.0945 0.141933 0)
(10.0046 0.0159888 0)
(10.0242 0.0297222 0)
(10.0401 0.0319791 0)
(10.0499 0.0301195 0)
(10.0571 0.0257964 0)
(10.0625 0.0196094 0)
(10.0665 0.0125757 0)
(10.0696 0.0053176 0)
(10.0724 -0.0019247 0)
(10.0749 -0.00902795 0)
(10.0772 -0.0159203 0)
(10.0794 -0.0226107 0)
(10.0816 -0.0291715 0)
(10.0837 -0.0357531 0)
(10.0858 -0.0424217 0)
(10.0874 -0.0494899 0)
(10.0887 -0.0565556 0)
(10.0865 -0.0650574 0)
(10.0032 0.0203127 0)
(10.0185 0.0433077 0)
(10.0328 0.0542162 0)
(10.0436 0.0606598 0)
(10.053 0.0651917 0)
(10.0611 0.0687177 0)
(10.0679 0.0719547 0)
(10.0739 0.0751478 0)
(10.0793 0.0782652 0)
(10.0843 0.0812456 0)
(10.0889 0.0840439 0)
(10.0932 0.0866032 0)
(10.0974 0.0888579 0)
(10.1014 0.0907112 0)
(10.1053 0.0921251 0)
(10.109 0.0929953 0)
(10.1124 0.093354 0)
(10.1172 0.0938073 0)
(10.0019 0.0115191 0)
(10.0136 0.0247278 0)
(10.0264 0.030004 0)
(10.0365 0.0314832 0)
(10.0452 0.0305873 0)
(10.0524 0.027993 0)
(10.0585 0.0244078 0)
(10.0637 0.0202575 0)
(10.0684 0.0157526 0)
(10.0728 0.0110229 0)
(10.0768 0.00615147 0)
(10.0806 0.00116494 0)
(10.0843 -0.00394496 0)
(10.0877 -0.00923618 0)
(10.0909 -0.0147081 0)
(10.0935 -0.0204788 0)
(10.0957 -0.0262779 0)
(10.0955 -0.0330102 0)
(10.0017 0.0127088 0)
(10.0117 0.0306521 0)
(10.0231 0.0408894 0)
(10.033 0.0470932 0)
(10.0422 0.0509989 0)
(10.0506 0.0535743 0)
(10.0581 0.055538 0)
(10.0649 0.0572425 0)
(10.0712 0.058812 0)
(10.0772 0.0602837 0)
(10.0828 0.0616579 0)
(10.0881 0.062905 0)
(10.0932 0.0639871 0)
(10.098 0.0648493 0)
(10.1026 0.0654771 0)
(10.1071 0.0658549 0)
(10.1112 0.0659965 0)
(10.1163 0.0666006 0)
(10.0007 0.00800773 0)
(10.0076 0.0191046 0)
(10.0172 0.0248772 0)
(10.0262 0.0275466 0)
(10.0346 0.028078 0)
(10.0422 0.0271057 0)
(10.0489 0.025167 0)
(10.055 0.022587 0)
(10.0605 0.01955 0)
(10.0657 0.0161703 0)
(10.0705 0.0125204 0)
(10.075 0.00863439 0)
(10.0792 0.00452803 0)
(10.0831 0.000191162 0)
(10.0867 -0.00435544 0)
(10.0897 -0.00915748 0)
(10.0923 -0.0140439 0)
(10.0934 -0.0196518 0)
(10.0008 0.00815644 0)
(10.0074 0.0214155 0)
(10.0163 0.0299418 0)
(10.0248 0.0354539 0)
(10.0333 0.0388867 0)
(10.0412 0.0409933 0)
(10.0485 0.0423368 0)
(10.0554 0.0432495 0)
(10.0618 0.0439083 0)
(10.0679 0.0444044 0)
(10.0736 0.044781 0)
(10.0791 0.0450481 0)
(10.0842 0.0452059 0)
(10.0891 0.0452407 0)
(10.0937 0.0451695 0)
(10.0982 0.0450152 0)
(10.1022 0.0448063 0)
(10.1068 0.0451727 0)
(10.0002 0.00570387 0)
(10.0046 0.0145265 0)
(10.0119 0.0197144 0)
(10.0195 0.0225684 0)
(10.0272 0.0236094 0)
(10.0345 0.0233703 0)
(10.0413 0.022246 0)
(10.0476 0.0204947 0)
(10.0534 0.0182773 0)
(10.0589 0.0156948 0)
(10.064 0.012811 0)
(10.0688 0.00966284 0)
(10.0732 0.00627323 0)
(10.0773 0.002656 0)
(10.0811 -0.00117475 0)
(10.0844 -0.00522138 0)
(10.0874 -0.00942337 0)
(10.0896 -0.0142944 0)
(10.0005 0.0053524 0)
(10.005 0.0150683 0)
(10.0118 0.0220498 0)
(10.0191 0.0270435 0)
(10.0265 0.0304292 0)
(10.0339 0.0327201 0)
(10.0409 0.0343085 0)
(10.0476 0.035462 0)
(10.054 0.0363522 0)
(10.0601 0.0370827 0)
(10.0659 0.0377153 0)
(10.0713 0.0382825 0)
(10.0765 0.0388075 0)
(10.0814 0.0393022 0)
(10.0859 0.0397987 0)
(10.0903 0.0403437 0)
(10.0943 0.0409329 0)
(10.0983 0.0421732 0)
(10.0001 0.00336997 0)
(10.0028 0.00888054 0)
(10.008 0.0122253 0)
(10.0142 0.0140202 0)
(10.0208 0.0144898 0)
(10.0275 0.0139572 0)
(10.0339 0.0126671 0)
(10.0401 0.0107908 0)
(10.046 0.00844617 0)
(10.0515 0.00571145 0)
(10.0567 0.00263801 0)
(10.0616 -0.000738413 0)
(10.0662 -0.00439667 0)
(10.0704 -0.00831493 0)
(10.0744 -0.0124893 0)
(10.078 -0.0169156 0)
(10.0813 -0.0215309 0)
(10.0844 -0.0267866 0)
(10.0002 0.00298944 0)
(10.0031 0.00882474 0)
(10.008 0.0135614 0)
(10.0138 0.017375 0)
(10.02 0.020351 0)
(10.0263 0.0227087 0)
(10.0326 0.0246496 0)
(10.0387 0.0263306 0)
(10.0445 0.0278695 0)
(10.0501 0.0293481 0)
(10.0553 0.0308231 0)
(10.0603 0.0323316 0)
(10.0649 0.033903 0)
(10.0692 0.0355558 0)
(10.0731 0.037313 0)
(10.0767 0.0392095 0)
(10.08 0.0411642 0)
(10.0828 0.0437078 0)
(10.0001 0.000967809 0)
(10.0022 0.00237202 0)
(10.0064 0.00278313 0)
(10.0115 0.00239264 0)
(10.0174 0.00126728 0)
(10.0236 -0.000483587 0)
(10.0299 -0.00276492 0)
(10.0361 -0.00550901 0)
(10.0422 -0.00866565 0)
(10.0481 -0.0121979 0)
(10.0537 -0.0160788 0)
(10.0591 -0.0202845 0)
(10.0643 -0.0247961 0)
(10.0692 -0.0295848 0)
(10.0738 -0.0346286 0)
(10.0783 -0.0399034 0)
(10.0825 -0.0452837 0)
(10.0867 -0.051149 0)
(10 0.000926201 0)
(10.0016 0.00294816 0)
(10.0049 0.00504608 0)
(10.0092 0.0072148 0)
(10.0139 0.00943203 0)
(10.0188 0.011721 0)
(10.0237 0.014114 0)
(10.0284 0.0166405 0)
(10.0328 0.0193265 0)
(10.037 0.0221917 0)
(10.0407 0.0252486 0)
(10.0441 0.0285037 0)
(10.047 0.0319554 0)
(10.0496 0.0355973 0)
(10.0519 0.0394032 0)
(10.0537 0.0433812 0)
(10.0554 0.0473613 0)
(10.0564 0.0517876 0)
(10.0003 -0.00195506 0)
(10.0031 -0.00600737 0)
(10.008 -0.0100257 0)
(10.0139 -0.0139902 0)
(10.0205 -0.017963 0)
(10.0277 -0.0220198 0)
(10.035 -0.0262363 0)
(10.0425 -0.030675 0)
(10.05 -0.0353793 0)
(10.0575 -0.0403754 0)
(10.0648 -0.0456752 0)
(10.0721 -0.0512797 0)
(10.0791 -0.0571817 0)
(10.086 -0.0633654 0)
(10.0926 -0.0698073 0)
(10.099 -0.076484 0)
(10.1049 -0.083299 0)
(10.1106 -0.0904224 0)
(9.99985 -0.00214421 0)
(10.0009 -0.00548062 0)
(10.0038 -0.0074292 0)
(10.0075 -0.00827977 0)
(10.0115 -0.00823056 0)
(10.0155 -0.00743644 0)
(10.0192 -0.00603757 0)
(10.0225 -0.00414471 0)
(10.0254 -0.00184074 0)
(10.0278 0.000812963 0)
(10.0297 0.00377389 0)
(10.0311 0.00701612 0)
(10.0321 0.010534 0)
(10.0326 0.0143338 0)
(10.0328 0.0184499 0)
(10.0326 0.022917 0)
(10.0324 0.0277619 0)
(10.0318 0.033245 0)
(10.0006 -0.0047389 0)
(10.0049 -0.0137699 0)
(10.0115 -0.0210822 0)
(10.0187 -0.0269898 0)
(10.0263 -0.0319043 0)
(10.034 -0.0361826 0)
(10.0417 -0.040129 0)
(10.0494 -0.043953 0)
(10.0568 -0.0477755 0)
(10.0641 -0.0516587 0)
(10.0711 -0.0556311 0)
(10.0781 -0.0597046 0)
(10.0849 -0.0638902 0)
(10.0916 -0.0682067 0)
(10.0983 -0.0727036 0)
(10.105 -0.0774549 0)
(10.1115 -0.0825681 0)
(10.1186 -0.0884011 0)
(9.99993 -0.00477433 0)
(10.0025 -0.0120413 0)
(10.0076 -0.0161549 0)
(10.013 -0.0180338 0)
(10.0181 -0.0182229 0)
(10.0226 -0.0170759 0)
(10.0264 -0.0149348 0)
(10.0295 -0.0120848 0)
(10.0321 -0.00873627 0)
(10.0341 -0.00504917 0)
(10.0356 -0.00114735 0)
(10.0366 0.00287837 0)
(10.0372 0.00697085 0)
(10.0373 0.0111062 0)
(10.0368 0.0153151 0)
(10.0355 0.0196859 0)
(10.0339 0.0243992 0)
(10.0306 0.0300047 0)
(10.0012 -0.00959836 0)
(10.0087 -0.0255129 0)
(10.0184 -0.0363276 0)
(10.0276 -0.0441273 0)
(10.0366 -0.0503194 0)
(10.0453 -0.055658 0)
(10.0534 -0.0606529 0)
(10.061 -0.0655746 0)
(10.0682 -0.0704981 0)
(10.0749 -0.0754119 0)
(10.0813 -0.0802783 0)
(10.0874 -0.085054 0)
(10.0933 -0.0896971 0)
(10.0991 -0.0941796 0)
(10.1049 -0.0985068 0)
(10.1113 -0.102747 0)
(10.1181 -0.107097 0)
(10.1271 -0.112231 0)
(10.0009 -0.00812042 0)
(10.0083 -0.0183046 0)
(10.0178 -0.0221094 0)
(10.0252 -0.022196 0)
(10.0309 -0.0197622 0)
(10.0352 -0.0153788 0)
(10.0383 -0.00973472 0)
(10.0406 -0.00341661 0)
(10.0423 0.00320281 0)
(10.0435 0.00987596 0)
(10.0445 0.0164234 0)
(10.0451 0.0227206 0)
(10.0454 0.0286828 0)
(10.0454 0.0342497 0)
(10.0448 0.0393864 0)
(10.0433 0.0441068 0)
(10.0407 0.0485698 0)
(10.0343 0.0535736 0)
(10.0027 -0.019981 0)
(10.0162 -0.0449419 0)
(10.0301 -0.0585475 0)
(10.041 -0.0684413 0)
(10.0506 -0.0774408 0)
(10.0592 -0.0860796 0)
(10.0665 -0.0946193 0)
(10.0727 -0.103091 0)
(10.0781 -0.111317 0)
(10.0828 -0.119135 0)
(10.0869 -0.126458 0)
(10.0907 -0.133248 0)
(10.0941 -0.139478 0)
(10.0973 -0.145127 0)
(10.1004 -0.150154 0)
(10.1041 -0.154522 0)
(10.1085 -0.158225 0)
(10.1178 -0.161826 0)
(10.0045 -0.0117502 0)
(10.0233 -0.0210396 0)
(10.037 -0.0181875 0)
(10.0429 -0.00997376 0)
(10.0455 0.00134797 0)
(10.0465 0.014635 0)
(10.0464 0.0283631 0)
(10.0457 0.0415321 0)
(10.0448 0.0537623 0)
(10.0438 0.0649448 0)
(10.0427 0.0750583 0)
(10.0414 0.0841298 0)
(10.0401 0.0922111 0)
(10.0386 0.099351 0)
(10.0369 0.105561 0)
(10.0345 0.110805 0)
(10.0314 0.11501 0)
(10.0222 0.118656 0)
(10.0057 -0.0439117 0)
(10.0279 -0.0818422 0)
(10.0434 -0.101327 0)
(10.0509 -0.120726 0)
(10.0556 -0.140611 0)
(10.0582 -0.158974 0)
(10.0588 -0.17539 0)
(10.0578 -0.189876 0)
(10.0561 -0.202403 0)
(10.0539 -0.213093 0)
(10.0514 -0.222173 0)
(10.0486 -0.22987 0)
(10.0457 -0.236368 0)
(10.0428 -0.241822 0)
(10.0397 -0.246321 0)
(10.0373 -0.249892 0)
(10.0351 -0.252357 0)
(10.0399 -0.253455 0)
(10.0127 -0.00410571 0)
(10.0433 0.00725432 0)
(10.0436 0.041281 0)
(10.0289 0.0774174 0)
(10.0137 0.110624 0)
(10.0002 0.139384 0)
(9.98737 0.163009 0)
(9.97533 0.181937 0)
(9.96416 0.197114 0)
(9.95365 0.209372 0)
(9.9436 0.219297 0)
(9.93394 0.227315 0)
(9.92463 0.233758 0)
(9.9156 0.238878 0)
(9.90694 0.242838 0)
(9.89819 0.245739 0)
(9.88995 0.247466 0)
(9.87472 0.248247 0)
(10.0321 -0.126629 0)
(10.0676 -0.225609 0)
(10.0594 -0.280282 0)
(10.0339 -0.322927 0)
(10.008 -0.353543 0)
(9.98303 -0.374069 0)
(9.95824 -0.388034 0)
(9.9343 -0.397684 0)
(9.91166 -0.404213 0)
(9.89019 -0.408383 0)
(9.86966 -0.410756 0)
(9.84998 -0.411748 0)
(9.83111 -0.41165 0)
(9.813 -0.410691 0)
(9.79557 -0.409027 0)
(9.77917 -0.406908 0)
(9.7634 -0.404274 0)
(9.75692 -0.400663 0)
(9.86116 0.076918 0)
(9.66239 0.274086 0)
(9.488 0.393138 0)
(9.34 0.447716 0)
(9.21705 0.470327 0)
(9.10898 0.479011 0)
(9.0098 0.481261 0)
(8.91806 0.480254 0)
(8.83324 0.477503 0)
(8.75464 0.473727 0)
(8.68166 0.469265 0)
(8.61384 0.464296 0)
(8.55078 0.458924 0)
(8.49209 0.453234 0)
(8.43733 0.447213 0)
(8.38593 0.441029 0)
(8.33755 0.433766 0)
(8.28618 0.426162 0)
(-0.100249 -0.0872242 -3.5043e-19)
(0.0251251 -0.17029 1.82619e-19)
(0.0706655 -0.214908 0)
(0.131393 -0.214993 0)
(0.190735 -0.209634 0)
(0.245996 -0.200536 -7.42291e-20)
(0.295593 -0.192564 0)
(0.340583 -0.184455 0)
(0.380774 -0.177607 0)
(0.416939 -0.171279 0)
(0.449121 -0.165849 5.4502e-20)
(0.477744 -0.160907 0)
(0.502872 -0.156547 0)
(0.524754 -0.152555 0)
(0.543493 -0.148912 0)
(0.559271 -0.145459 4.80373e-20)
(0.572222 -0.142081 0)
(0.582406 -0.138591 0)
(0.590049 -0.134703 0)
(0.59472 -0.130162 0)
(0.597037 -0.124505 0)
(0.596266 -0.116968 0)
(0.592014 -0.107707 0)
(0.584534 -0.0971708 4.64591e-20)
(0.573658 -0.0858088 -4.68725e-20)
(0.558697 -0.0738577 4.74684e-20)
(0.53935 -0.0619164 4.82759e-20)
(0.515078 -0.0502542 0)
(0.484609 -0.0384007 0)
(0.446705 -0.0258653 -5.26024e-20)
(0.399159 -0.0119676 -5.51092e-20)
(0.341435 0.00484861 0)
(0.268991 0.0276633 0)
(0.174809 0.058945 -7.2801e-20)
(0.055961 0.092118 0)
(-0.0997944 0.102175 0)
(-0.232833 0.0841199 6.48014e-20)
(-0.344553 0.0576797 0)
(-0.439262 0.0319004 4.97154e-20)
(-0.515599 0.0101615 9.21033e-20)
(-0.576048 -0.00695259 0)
(-0.62455 -0.020522 0)
(-0.663161 -0.0316326 0)
(-0.693564 -0.0407929 0)
(-0.717627 -0.0484006 0)
(-0.736804 -0.0547807 7.5878e-20)
(-0.752229 -0.0603076 7.46806e-20)
(-0.764828 -0.0654634 7.36354e-20)
(-0.775163 -0.0704678 0)
(-0.783444 -0.0751834 -7.19003e-20)
(-0.789978 -0.0795465 0)
(-0.795023 -0.083585 7.05372e-20)
(-0.798755 -0.0872791 6.99703e-20)
(-0.801365 -0.0906007 0)
(-0.803026 -0.0935128 0)
(-0.803908 -0.0959988 0)
(-0.804215 -0.0980974 6.82209e-20)
(-0.804172 -0.0998833 0)
(-0.803909 -0.101378 0)
(-0.803564 -0.10257 0)
(-0.803303 -0.103431 0)
(-0.803307 -0.103879 0)
(-0.803771 -0.103802 0)
(-0.804959 -0.103125 0)
(-0.807365 -0.101929 0)
(-0.81136 -0.100225 -6.50685e-20)
(-0.817273 -0.0980705 0)
(-0.825426 -0.0955496 0)
(-0.836399 -0.0930895 6.32006e-20)
(-0.850493 -0.0908435 6.24017e-20)
(-0.86768 -0.0886625 0)
(-0.888243 -0.0864989 -6.05171e-20)
(-0.912481 -0.0844207 5.94272e-20)
(-0.94065 -0.0824931 0)
(-0.972899 -0.080822 -5.69884e-20)
(-1.00934 -0.0794273 0)
(-1.05009 -0.0783968 0)
(-1.09518 -0.0777616 5.28416e-20)
(-1.14463 -0.0776127 0)
(-1.19836 -0.07799 -4.99191e-20)
(-1.25625 -0.0789996 0)
(-1.31813 -0.0806942 4.70303e-20)
(-1.38377 -0.0831785 4.5638e-20)
(-1.45288 -0.0865071 4.42991e-20)
(-1.52512 -0.0907753 8.60452e-20)
(-1.60014 -0.0960341 -8.36327e-20)
(-1.6775 -0.102348 0)
(-1.7568 -0.109766 0)
(-1.83759 -0.118324 0)
(-1.91943 -0.128053 -7.55057e-20)
(-2.00188 -0.138987 -7.38502e-20)
(-2.08448 -0.151133 7.23308e-20)
(-2.1668 -0.164508 0)
(-2.24842 -0.179109 -6.966e-20)
(-2.3289 -0.194944 -6.84875e-20)
(-2.40776 -0.211998 -6.74091e-20)
(-2.48451 -0.230261 0)
(-2.55859 -0.249686 0)
(-2.62936 -0.27021 0)
(-2.6961 -0.291711 -6.38178e-20)
(-2.7579 -0.314013 0)
(-2.81376 -0.33683 0)
(-2.86251 -0.359712 6.15638e-20)
(-2.90285 -0.381951 0)
(-2.9331 -0.402496 0)
(-2.95116 -0.4201 5.93555e-20)
(-2.9552 -0.434221 0)
(-2.94684 -0.447067 0)
(-2.92518 -0.460387 -5.57595e-20)
(-2.88866 -0.475594 -5.39711e-20)
(-2.83526 -0.49313 0)
(-2.76254 -0.513067 4.90793e-20)
(-2.66791 -0.535172 0)
(-2.54884 -0.558958 -4.18026e-20)
(-2.40329 -0.583844 0)
(-2.22997 -0.608611 -3.12051e-20)
(-2.02848 -0.631753 -2.43172e-20)
(-1.8011 -0.653334 0)
(-1.55132 -0.673464 0)
(-1.28497 -0.69224 0)
(-1.00961 -0.708291 0)
(-0.737657 -0.720304 0)
(-0.48218 -0.727381 0)
(-0.258672 -0.727184 0)
(-0.0889318 -0.712185 1.1269e-19)
(0.0293426 -0.658751 -1.38558e-19)
(0.0493618 -0.491393 0)
(-0.0382055 -0.321555 0)
(-0.185394 -0.223266 0)
(-0.348767 -0.183289 0)
(-0.508403 -0.178602 -2.16132e-19)
(-0.650862 -0.197967 0)
(-0.768265 -0.231691 1.95739e-19)
(-0.854353 -0.270587 -1.92401e-19)
(-0.907565 -0.307642 0)
(-0.926876 -0.337626 0)
(-0.91337 -0.359002 0)
(-0.877019 -0.380174 2.23756e-19)
(-0.817375 -0.402438 2.44157e-19)
(-0.736911 -0.425737 0)
(-0.637926 -0.449679 3.0223e-19)
(-0.523365 -0.473982 3.4239e-19)
(-0.396466 -0.498744 -3.92754e-19)
(-0.260296 -0.524116 0)
(-0.120361 -0.548064 0)
(0.0237831 -0.553689 -5.72902e-19)
(0.173676 -0.537538 0)
(0.32284 -0.516325 0)
(0.468288 -0.49597 0)
(0.606892 -0.477998 0)
(0.737815 -0.462028 4.27167e-19)
(0.86091 -0.447635 4.11255e-19)
(0.976216 -0.434554 0)
(1.08391 -0.422621 3.8622e-19)
(1.18426 -0.411731 0)
(1.27761 -0.401801 0)
(1.36435 -0.392763 3.59858e-19)
(1.44492 -0.384551 0)
(1.51975 -0.377102 3.47125e-19)
(1.58932 -0.370355 0)
(1.65407 -0.364253 0)
(1.71445 -0.358739 3.32742e-19)
(1.77087 -0.35376 0)
(1.82375 -0.349261 3.25396e-19)
(1.87347 -0.345193 0)
(1.92036 -0.341505 0)
(1.96475 -0.338159 0)
(2.00692 -0.335116 -3.14225e-19)
(2.04714 -0.332351 0)
(2.08559 -0.32983 3.09798e-19)
(2.12249 -0.327546 0)
(2.15787 -0.325457 0)
(2.19188 -0.32359 0)
(2.22418 -0.321868 0)
(2.25489 -0.320394 0)
(2.28249 -0.319026 0)
(2.30702 -0.317687 0)
(2.31965 -0.316793 -6.02324e-19)
(2.32339 -0.304634 0)
(2.21566 -0.289951 0)
(-0.046076 -0.0512501 4.76956e-19)
(0.0945667 -0.0782316 -1.86245e-19)
(0.104807 -0.119572 0)
(0.126564 -0.103381 5.99288e-20)
(0.143188 -0.0984744 0)
(0.164742 -0.0761898 2.3539e-20)
(0.184068 -0.063292 -4.47293e-20)
(0.205513 -0.0457116 -4.2551e-20)
(0.223676 -0.0332576 0)
(0.240898 -0.0189704 -3.94435e-20)
(0.254813 -0.00729662 -1.88406e-20)
(0.26629 0.00509956 0)
(0.274344 0.0161163 0)
(0.279564 0.027172 0)
(0.281848 0.0371785 0)
(0.281847 0.0467296 -1.66817e-20)
(0.279929 0.0552534 0)
(0.276863 0.0630107 3.25063e-20)
(0.273118 0.0696847 0)
(0.269335 0.0753754 0)
(0.265302 0.0796932 -3.11975e-20)
(0.2619 0.0828008 0)
(0.2587 0.0849441 3.06793e-20)
(0.255533 0.0865897 -1.5114e-20)
(0.251786 0.0884254 1.50375e-20)
(0.246564 0.0913742 -1.49646e-20)
(0.238502 0.096334 -1.48844e-20)
(0.225792 0.104267 0)
(0.206163 0.116049 0)
(0.177302 0.132431 1.44297e-20)
(0.137153 0.154003 -1.44558e-20)
(0.0843109 0.181645 0)
(0.0190287 0.216621 0)
(-0.0577953 0.258105 1.26635e-20)
(-0.140476 0.295752 0)
(-0.229794 0.305048 0)
(-0.319138 0.279065 -1.11674e-20)
(-0.400524 0.24203 0)
(-0.469977 0.207853 1.14886e-20)
(-0.527183 0.175328 -2.24765e-20)
(-0.573113 0.146345 0)
(-0.607866 0.123104 0)
(-0.633358 0.104702 -4.61916e-20)
(-0.65196 0.0904433 -4.60849e-20)
(-0.665618 0.0800626 -4.58428e-20)
(-0.675893 0.0728376 2.28694e-20)
(-0.684044 0.0680042 -2.24312e-20)
(-0.691055 0.0648994 -6.68541e-20)
(-0.69769 0.0629479 4.41863e-20)
(-0.704541 0.061745 2.17449e-20)
(-0.712029 0.0610521 0)
(-0.720444 0.060704 -2.1307e-20)
(-0.73 0.0605989 2.13726e-20)
(-0.740819 0.0606904 0)
(-0.752962 0.0609549 0)
(-0.766438 0.0613681 0)
(-0.781229 0.0619073 -2.04417e-20)
(-0.797308 0.062566 0)
(-0.814705 0.0633211 4.06716e-20)
(-0.833446 0.0641744 0)
(-0.853579 0.0651312 4.02271e-20)
(-0.875137 0.0662381 0)
(-0.898156 0.0675532 -3.98506e-20)
(-0.922599 0.0691923 0)
(-0.948383 0.0712442 3.95391e-20)
(-0.975502 0.0737865 -1.98848e-20)
(-1.0039 0.0768669 0)
(-1.03349 0.0805219 -3.92065e-20)
(-1.06426 0.0846873 -1.93816e-20)
(-1.09623 0.0893178 -1.93557e-20)
(-1.12941 0.0943831 0)
(-1.1638 0.0999179 -1.97327e-20)
(-1.1993 0.105875 -1.93554e-20)
(-1.23584 0.112228 0)
(-1.2733 0.118892 1.94083e-20)
(-1.31157 0.125833 -3.93102e-20)
(-1.35049 0.132962 0)
(-1.38989 0.140241 -1.95456e-20)
(-1.42958 0.147581 0)
(-1.46936 0.154955 5.94351e-20)
(-1.50901 0.162284 0)
(-1.54835 0.169552 -5.98388e-20)
(-1.58718 0.176709 -1.98551e-20)
(-1.62536 0.183765 2.04273e-20)
(-1.66273 0.190702 4.10304e-20)
(-1.69921 0.197554 -4.12149e-20)
(-1.73474 0.204346 0)
(-1.76929 0.211126 0)
(-1.80286 0.217945 0)
(-1.83553 0.224853 1.23694e-19)
(-1.86738 0.231895 4.10057e-20)
(-1.89852 0.239119 -4.11792e-20)
(-1.92915 0.246548 0)
(-1.95947 0.254203 -4.28958e-20)
(-1.9897 0.262065 4.16325e-20)
(-2.02011 0.270099 4.17413e-20)
(-2.05093 0.278211 0)
(-2.08246 0.286272 0)
(-2.11496 0.29408 0)
(-2.14869 0.301374 4.17633e-20)
(-2.18386 0.307774 0)
(-2.22062 0.312774 -8.49213e-20)
(-2.25904 0.31571 -1.25559e-19)
(-2.29904 0.31584 8.38589e-20)
(-2.34034 0.312461 0)
(-2.38239 0.30503 4.25133e-20)
(-2.42424 0.293346 0)
(-2.45984 0.277973 7.96473e-20)
(-2.48656 0.257882 -4.06475e-20)
(-2.5 0.235049 -3.94171e-20)
(-2.49716 0.20967 0)
(-2.47538 0.181691 -9.75273e-20)
(-2.43218 0.151089 6.15872e-20)
(-2.36525 0.117851 2.47569e-20)
(-2.27274 0.082491 0)
(-2.15347 0.0461133 1.6993e-20)
(-2.00705 0.0110257 4.48773e-20)
(-1.8351 -0.0202206 0)
(-1.64091 -0.0475417 1.33206e-20)
(-1.42872 -0.0671861 3.39101e-21)
(-1.20597 -0.0755146 -6.54024e-21)
(-0.98263 -0.0696785 0)
(-0.770344 -0.0474095 0)
(-0.581242 -0.00797844 0)
(-0.426954 0.0450712 1.88892e-20)
(-0.313053 0.101522 2.84052e-20)
(-0.224147 0.146279 0)
(-0.17067 0.18924 6.097e-20)
(-0.157742 0.221592 6.24673e-20)
(-0.173878 0.236297 0)
(-0.208389 0.239928 6.67453e-20)
(-0.254542 0.238188 1.29652e-19)
(-0.308792 0.233597 -6.81787e-20)
(-0.368015 0.226271 -6.50839e-20)
(-0.42726 0.214589 0)
(-0.481328 0.196554 0)
(-0.521781 0.172606 0)
(-0.538871 0.146962 -8.1458e-20)
(-0.528842 0.122946 8.11874e-20)
(-0.492294 0.101524 1.79192e-19)
(-0.431841 0.0833273 -9.92438e-20)
(-0.350918 0.06845 9.9521e-20)
(-0.253395 0.0568315 1.14905e-19)
(-0.143063 0.0479716 0)
(-0.021863 0.0412804 0)
(0.105524 0.0387703 -1.29068e-19)
(0.233455 0.0401659 0)
(0.360593 0.0441189 0)
(0.486503 0.0507626 2.78953e-19)
(0.609573 0.0589959 0)
(0.72846 0.0677578 1.39475e-19)
(0.842385 0.076493 -1.48045e-19)
(0.950901 0.0849533 0)
(1.0538 0.0930279 1.43586e-19)
(1.15105 0.100651 0)
(1.24273 0.107791 0)
(1.32902 0.114424 -1.51494e-19)
(1.41017 0.120547 2.98015e-19)
(1.48647 0.126163 -1.51789e-19)
(1.55824 0.131286 0)
(1.62582 0.135936 0)
(1.68956 0.140139 1.47053e-19)
(1.74979 0.143922 0)
(1.80684 0.147315 1.47054e-19)
(1.86104 0.150346 0)
(1.91269 0.15305 0)
(1.96206 0.15545 0)
(2.00939 0.157593 1.50359e-19)
(2.05493 0.159497 0)
(2.09883 0.161242 -1.49801e-19)
(2.14128 0.16283 0)
(2.18229 0.164428 0)
(2.22201 0.165977 2.94594e-19)
(2.26003 0.167907 -2.94088e-19)
(2.29677 0.169985 0)
(2.33013 0.173531 0)
(2.36287 0.178297 0)
(2.38476 0.189491 8.85491e-19)
(2.42077 0.211215 0)
(2.44941 0.234062 -6.04196e-19)
(-0.128211 -0.195336 9.35262e-22)
(0.0839838 -0.180943 1.9363e-19)
(0.0315542 -0.216584 0)
(0.0747329 -0.191158 -8.25825e-20)
(0.0627421 -0.207734 0)
(0.0868127 -0.19466 0)
(0.0937805 -0.198067 -2.26587e-22)
(0.116527 -0.181321 2.61205e-20)
(0.13271 -0.172876 2.49722e-20)
(0.155435 -0.156139 2.37395e-20)
(0.17322 -0.143485 0)
(0.191735 -0.127252 0)
(0.205697 -0.113701 -2.1638e-20)
(0.217542 -0.0997913 -4.20445e-20)
(0.225252 -0.0884393 4.08909e-20)
(0.230052 -0.0783727 0)
(0.231105 -0.0707092 3.89333e-20)
(0.228839 -0.0646946 -1.88965e-20)
(0.222843 -0.0597159 0)
(0.214056 -0.0545852 3.67127e-20)
(0.202721 -0.0487106 1.79244e-20)
(0.189346 -0.0415331 -3.56377e-20)
(0.173903 -0.0325888 -1.74727e-20)
(0.156542 -0.0213072 0)
(0.137177 -0.0071147 3.44597e-20)
(0.115782 0.0109238 3.41162e-20)
(0.0921664 0.0338069 0)
(0.0659582 0.0627554 3.33963e-20)
(0.0366594 0.098585 0)
(0.00367711 0.141225 3.24736e-20)
(-0.0335476 0.189901 1.56604e-20)
(-0.0753988 0.243667 0)
(-0.121327 0.301301 0)
(-0.16932 0.359281 0)
(-0.216191 0.406372 0)
(-0.261145 0.419974 0)
(-0.308191 0.387226 0)
(-0.354682 0.326653 2.74956e-20)
(-0.393568 0.263353 -4.09514e-20)
(-0.42525 0.206356 0)
(-0.453959 0.155995 0)
(-0.480716 0.113082 0)
(-0.505816 0.0792358 -2.15503e-22)
(-0.530322 0.0537848 2.72507e-20)
(-0.554566 0.0348557 5.44888e-20)
(-0.578432 0.0211359 -5.42081e-20)
(-0.601827 0.011393 -2.69986e-20)
(-0.624676 0.00451852 2.66665e-20)
(-0.646981 -0.000240461 1.37242e-22)
(-0.668796 -0.00337697 2.63876e-20)
(-0.690182 -0.00526365 0)
(-0.711203 -0.00619896 2.59898e-20)
(-0.731919 -0.00640738 1.58015e-22)
(-0.752377 -0.00608174 0)
(-0.772612 -0.00535536 0)
(-0.792663 -0.00427655 -2.53464e-20)
(-0.812576 -0.00286337 0)
(-0.832407 -0.0011252 0)
(-0.852216 0.000944108 2.51926e-20)
(-0.872073 0.00335688 4.98092e-20)
(-0.892056 0.00612138 -2.46165e-20)
(-0.912239 0.00924648 0)
(-0.932687 0.0127155 2.44582e-20)
(-0.953445 0.0165153 0)
(-0.974534 0.0206247 2.47586e-20)
(-0.99596 0.0250249 2.42836e-20)
(-1.01771 0.029671 -4.89236e-20)
(-1.03975 0.0345031 -2.46549e-20)
(-1.06208 0.0394172 0)
(-1.08471 0.0443566 4.88431e-20)
(-1.10769 0.0492686 0)
(-1.13103 0.0541173 7.31681e-20)
(-1.15474 0.0588235 4.9017e-20)
(-1.17885 0.0633121 4.91345e-20)
(-1.20341 0.0674739 -4.92812e-20)
(-1.22849 0.0712414 7.39532e-20)
(-1.2542 0.0745153 0)
(-1.28067 0.0772386 0)
(-1.30806 0.0793332 -5.01225e-20)
(-1.33656 0.0807616 -7.53395e-20)
(-1.3664 0.0814653 0)
(-1.39782 0.0814283 2.52319e-20)
(-1.43107 0.0806184 0)
(-1.46641 0.0790396 -7.70504e-20)
(-1.50409 0.0766828 4.998e-22)
(-1.54433 0.0735668 -5.09716e-22)
(-1.58732 0.069705 5.24111e-20)
(-1.63318 0.0651238 0)
(-1.68202 0.0598514 -5.29597e-20)
(-1.73385 0.0539146 5.68882e-22)
(-1.78861 0.0473525 0)
(-1.84617 0.0401935 0)
(-1.90637 0.0324746 0)
(-1.96897 0.0242213 5.33068e-20)
(-2.03368 0.0154631 0)
(-2.10014 0.00621466 0)
(-2.16793 -0.00350903 0)
(-2.23654 -0.0137062 0)
(-2.3054 -0.0243731 0)
(-2.37381 -0.0355131 5.43572e-20)
(-2.44099 -0.0471371 0)
(-2.50605 -0.0592665 5.32042e-20)
(-2.56799 -0.0719664 5.29761e-20)
(-2.62557 -0.0853819 -5.26752e-20)
(-2.67727 -0.0997884 0)
(-2.72131 -0.115535 -5.17437e-20)
(-2.75605 -0.133168 0)
(-2.77968 -0.152582 -5.01752e-20)
(-2.79009 -0.173205 4.87531e-20)
(-2.78663 -0.198153 1.43821e-19)
(-2.76748 -0.227895 0)
(-2.73053 -0.262337 1.27827e-19)
(-2.67344 -0.301189 4.18089e-20)
(-2.59399 -0.343812 0)
(-2.49049 -0.38903 6.25161e-20)
(-2.36177 -0.435093 5.2498e-20)
(-2.20717 -0.479723 -6.04645e-20)
(-2.02799 -0.518987 0)
(-1.82901 -0.549758 -7.40756e-21)
(-1.61607 -0.568681 -1.83965e-21)
(-1.39754 -0.570713 7.0869e-21)
(-1.18263 -0.552429 0)
(-0.980532 -0.511277 0)
(-0.799145 -0.445734 0)
(-0.645025 -0.356005 1.88026e-20)
(-0.525587 -0.244967 0)
(-0.439235 -0.124757 0)
(-0.379026 -0.0221572 -2.86575e-20)
(-0.34681 0.0410453 -3.00399e-20)
(-0.347546 0.0697392 0)
(-0.379157 0.0744024 0)
(-0.433974 0.0630236 -6.50973e-20)
(-0.501552 0.0407515 0)
(-0.570266 0.0110333 6.86102e-20)
(-0.629092 -0.0234627 6.90169e-20)
(-0.670064 -0.0606186 0)
(-0.687713 -0.0979136 0)
(-0.679764 -0.134363 -7.98973e-20)
(-0.64718 -0.17023 -1.9397e-21)
(-0.59163 -0.203134 -1.90877e-21)
(-0.515918 -0.231367 0)
(-0.423386 -0.254134 -2.02015e-19)
(-0.317715 -0.27122 0)
(-0.202906 -0.282899 0)
(-0.0818418 -0.290091 0)
(0.043186 -0.294363 1.28432e-19)
(0.169072 -0.295451 0)
(0.293742 -0.292634 -2.68919e-19)
(0.416496 -0.286999 -1.40171e-19)
(0.536618 -0.279705 0)
(0.653241 -0.271541 -1.47233e-19)
(0.765628 -0.263002 0)
(0.87329 -0.254406 0)
(0.97597 -0.245964 -4.63767e-19)
(1.07359 -0.237831 3.12622e-19)
(1.16619 -0.230112 0)
(1.25392 -0.22288 3.20061e-19)
(1.33699 -0.216177 -1.62988e-19)
(1.41563 -0.210023 0)
(1.49012 -0.204418 0)
(1.56076 -0.199352 0)
(1.62785 -0.194806 -4.98265e-19)
(1.69167 -0.190756 0)
(1.7525 -0.187163 -1.68269e-19)
(1.81064 -0.183991 0)
(1.86632 -0.181194 0)
(1.91981 -0.178742 0)
(1.9713 -0.17658 0)
(2.02101 -0.174688 0)
(2.06906 -0.172984 0)
(2.11562 -0.171473 -3.38774e-19)
(2.16068 -0.169997 0)
(2.20442 -0.168626 -1.70562e-19)
(2.24645 -0.166986 5.09608e-19)
(2.28715 -0.165271 0)
(2.32502 -0.162555 0)
(2.36176 -0.158748 -3.39202e-19)
(2.39206 -0.1525 -3.42665e-19)
(2.42537 -0.13973 3.45222e-19)
(2.44706 -0.109612 3.54615e-19)
(-0.16926 -0.234632 -6.54162e-19)
(0.110678 -0.184797 -2.63737e-19)
(0.00562993 -0.210552 -9.67898e-20)
(0.0808994 -0.161598 -3.58811e-20)
(0.0364488 -0.174499 0)
(0.0724388 -0.152448 5.07073e-20)
(0.0471195 -0.160995 -2.30319e-20)
(0.0686582 -0.146206 0)
(0.0622944 -0.144944 -1.98582e-20)
(0.081656 -0.124862 0)
(0.0874988 -0.110341 3.66797e-20)
(0.104177 -0.0856417 0)
(0.111443 -0.0639215 1.69762e-20)
(0.121066 -0.0381565 3.29458e-20)
(0.124549 -0.0155136 -3.20058e-20)
(0.127373 0.00801289 0)
(0.126476 0.0293029 -3.03688e-20)
(0.12424 0.0505688 0)
(0.118822 0.0683185 0)
(0.110286 0.0831108 -2.83264e-20)
(0.0979043 0.0946113 0)
(0.0822378 0.104258 -2.70361e-22)
(0.0618189 0.112721 0)
(0.0363924 0.121019 0)
(0.00695386 0.129847 2.74618e-22)
(-0.024955 0.140511 -2.58297e-20)
(-0.0579917 0.154405 -2.56141e-20)
(-0.09082 0.173109 -2.48403e-20)
(-0.122313 0.197857 0)
(-0.151637 0.229583 -4.80871e-20)
(-0.178453 0.268472 0)
(-0.20255 0.313388 -2.33336e-20)
(-0.223358 0.361494 0)
(-0.239573 0.407803 0)
(-0.2497 0.443053 2.23269e-20)
(-0.254716 0.452742 0)
(-0.26045 0.426194 -2.20978e-20)
(-0.271306 0.371136 3.88482e-22)
(-0.2852 0.308869 4.38709e-20)
(-0.300881 0.25582 -4.42475e-20)
(-0.320534 0.214923 0)
(-0.345278 0.182561 0)
(-0.374372 0.15772 -2.22458e-20)
(-0.406491 0.139731 0)
(-0.440517 0.126475 -2.15373e-20)
(-0.475364 0.116517 2.14032e-20)
(-0.510058 0.109016 2.1255e-20)
(-0.543944 0.103359 0)
(-0.576588 0.0990827 -2.09407e-20)
(-0.607715 0.0958408 -2.07847e-20)
(-0.637161 0.0933763 4.16715e-20)
(-0.66486 0.091494 -2.0493e-20)
(-0.690815 0.0900576 -2.03612e-20)
(-0.715087 0.0889762 0)
(-0.737785 0.0882014 0)
(-0.75904 0.0877056 2.00274e-20)
(-0.778973 0.0874688 0)
(-0.797707 0.0874886 0)
(-0.815364 0.0877754 -3.95413e-20)
(-0.832062 0.0883498 -3.9395e-20)
(-0.847919 0.0892375 0)
(-0.863049 0.0904716 0)
(-0.877573 0.092084 0)
(-0.891618 0.0941114 0)
(-0.905309 0.09658 -3.87999e-20)