/*--------------------------------*- C++ -*----------------------------------*\
| =========                 |                                                 |
| \\      /  F ield         | OpenFOAM: The Open Source CFD Toolbox           |
|  \\    /   O peration     | Version:  2112                                  |
|   \\  /    A nd           | Website:  www.openfoam.com                      |
|    \\/     M anipulation  |                                                 |
\*---------------------------------------------------------------------------*/
FoamFile
{
    version     2.0;
    format      ascii;
    arch        "LSB;label=32;scalar=64";
    class       volScalarField;
    location    "0";
    object      aspectRatio;
}
// * * * * * * * * * * * * * * * * * * * * * * * * * * * * * * * * * * * * * //

dimensions      [0 0 0 0 0 0 0];

internalField   nonuniform List<scalar> 
52617
(
1.64858346792
1.60525016808
1.80914649974
1.85342851135
2.1239911114
2.07303402593
2.08585373682
2.1182268078
2.25292005868
2.21651612919
2.17184849035
2.17912730373
2.20404937353
2.18710982679
2.16271090497
2.16268136389
2.16846670276
2.16485973911
2.1643863842
2.16494572467
2.17117873648
2.17096655898
2.17686865246
2.1770150409
2.18284129502
2.18287107038
2.18820047301
2.18816506536
2.19293572802
2.19295283862
2.19707807051
2.19705599098
2.2008062799
2.20083429741
2.20408635713
2.20404644214
2.20710212841
2.20713946282
2.20975981433
2.20971454356
2.21223426536
2.21223160979
2.21448951184
2.2145324573
2.21649688948
2.21646021183
2.2184188955
2.21845455151
2.22012412946
2.22008395414
2.22176534483
2.22179413191
2.22324106566
2.22324064247
2.22462662227
2.22459403451
2.22595895621
2.22598993805
2.22714515277
2.2271183492
2.22832300653
2.22835852411
2.22935947981
2.22930999651
2.23039556354
2.23039213007
2.23136550395
2.23141335855
2.23221591086
2.23217808926
2.23309374375
2.23312061446
2.23387175003
2.23383955693
2.23466706371
2.23469868023
2.23536031446
2.23532948374
2.23607080347
2.23606998379
2.23672822887
2.2367280934
2.23735440017
2.23735504432
2.23795161933
2.23795210024
2.23852267847
2.2385223607
2.23906976717
2.23906908199
2.23959393911
2.23959313192
2.24010513585
2.24013471903
2.24055599447
2.24052295312
2.2410511059
2.24108394316
2.2414622195
2.24143222588
2.24191973561
2.24194897321
2.24230126543
2.24227003448
2.24272604773
2.24275488764
2.24307842469
2.24304593566
2.2434776034
2.24350944556
2.24380879554
2.24380818962
2.24414122612
2.24410895756
2.25914739707
2.25910758707
2.25920450807
2.25924341546
2.25918175065
2.25915004234
2.25922977549
2.25925954148
2.25923753211
2.25923723649
2.25925465801
2.25925439711
2.25927201472
2.25927190684
2.25928943241
2.25928936946
2.2593066639
2.25930670683
2.25932349284
2.25932348034
2.25934027595
2.25934029015
2.25935666002
2.25935628039
2.25937262898
2.25937204171
2.2593890342
2.25938913798
2.25940628726
2.25940736913
2.2594219655
2.25942097263
2.25943688528
2.25943485018
2.25945247874
2.25945184926
2.25946919882
2.2594702127
2.25948581325
2.25948666984
2.25947900132
2.25944868182
2.2595254065
2.25955473238
2.25951045466
2.25946834045
2.2595632786
2.25960096907
2.25954048684
2.25950279431
2.25959229491
2.25962919835
2.25956955354
2.2595325707
2.25962526244
2.25966625794
2.25959818557
2.25956425451
2.2596308068
2.25964697792
2.25962628197
2.25960249629
2.25967727218
2.25971388706
2.24451219137
2.24455158267
2.24479209539
2.24475399838
2.24513718276
2.24517304712
2.24539986348
2.24536239693
2.24572955719
2.24576948446
2.24596935848
2.2459369502
2.24625238092
2.24625167501
2.24653659113
2.24656517658
2.24676284358
2.24672037589
2.24704878713
2.247086344
2.24725220357
2.24720661724
2.24751300171
2.24751139528
2.24775858736
2.24780254825
2.24793594034
2.24789766817
2.24818727018
2.24822328055
2.2483599862
2.24832256732
2.24860405851
2.24864419783
2.2487617027
2.24872855668
2.24898617192
2.24901554204
2.24914419515
2.24911365254
2.24936138572
2.24939403577
2.24950775589
2.24947293399
2.24970328603
2.24972380468
2.24985196166
2.24983050936
2.2500418013
2.25006500801
2.2501797974
2.25015715026
2.25037193828
2.25040489779
2.25049373701
2.25045837436
2.25067511788
2.2507042209
2.2508126104
2.25081268137
2.25093716071
2.25090712958
2.25111225291
2.2511449845
2.25965481701
2.25962703574
2.25969588494
2.25972050286
2.25968405646
2.25964093684
2.25973566391
2.25977338521
2.25971143441
2.2596694948
2.25975608271
2.25978599767
2.25973843548
2.25970749694
2.25977312905
2.25977335638
2.2597960807
2.25982606722
2.25977813915
2.2597448335
2.25983201202
2.25987199835
2.25980481289
2.2597676029
2.25985675679
2.25989549305
2.25983096809
2.25979290919
2.2598834301
2.25992248252
2.25985646753
2.25982305924
2.2599004426
2.25993055509
2.2599044367
2.25990536952
2.25991649654
2.25991584178
2.25992790836
2.25992660721
2.25994010793
2.25993986058
2.25993180724
2.25990234741
2.25997842875
2.26001191129
2.25995705101
2.25992238092
2.25999017181
2.26001088779
2.25997983849
2.25996125867
2.26003237397
2.26007257914
2.26003664657
2.26003184248
2.26001673963
2.25996607976
2.26005522601
2.26008205963
2.26003913442
2.2600066741
2.26008312749
2.26011524804
2.25121763612
2.25118508632
2.25138025195
2.25140672551
2.25148540535
2.25144581163
2.25165403724
2.251692988
2.25174188058
2.25169499592
2.25189128863
2.25188817392
2.25203138835
2.25207595595
2.25210550412
2.25206732888
2.25225886623
2.25229558069
2.25233633244
2.25229885918
2.25248892456
2.25252939983
2.25255745015
2.25252533061
2.25269691732
2.25272713652
2.2527933056
2.25279334994
2.25289624801
2.25289554614
2.25299665007
2.25299536763
2.2530959142
2.25309539045
2.25319397912
2.25319399928
2.25329038399
2.25329041088
2.25338511909
2.25338526991
2.25347828368
2.25347861887
2.25357006905
2.25357057958
2.25366021103
2.25366049153
2.253726931
2.25369666268
2.25384405119
2.25387319324
2.25389841053
2.2538560781
2.25402003646
2.25405826818
2.25406343181
2.25402228244
2.25417538789
2.2542058166
2.25423411028
2.25423300324
2.2543023109
2.25426692545
2.2544086051
2.25443825511
2.26006177945
2.26003890521
2.26009772535
2.26012140977
2.26008520437
2.26006040861
2.26012055579
2.26014468713
2.26010751872
2.26008273355
2.26014120078
2.26016308641
2.260128912
2.26010605057
2.26017539266
2.26021091145
2.26015069942
2.26012274575
2.26018819744
2.26021296766
2.2601731094
2.26012972249
2.26022068436
2.26025758327
2.2601940317
2.26015271164
2.26023703106
2.26026865173
2.26021472082
2.26018382792
2.26024546507
2.26024449663
2.26025634376
2.26025498145
2.2602673725
2.2602665165
2.26027802718
2.2602779796
2.26028804226
2.2602886314
2.26029752059
2.26029804013
2.26030705594
2.26030741079
2.26031669679
2.26031665917
2.26032666686
2.26032636264
2.26033678179
2.26033628067
2.26034694939
2.26034651559
2.2603655786
2.26039494458
2.26034531304
2.26030968015
2.26038922171
2.26042351812
2.26036382634
2.26034232289
2.26039764755
2.26042040295
2.26038429303
2.26036001463
2.26041643083
2.26043879964
2.26040264549
2.26037296134
2.2604517241
2.26048984296
2.26042288028
2.26037810703
2.26046055286
2.26048855502
2.26043942655
2.26041950149
2.26047409112
2.26049869426
2.26045854224
2.26043279766
2.26048678116
2.26050564192
2.2604746934
2.26044187334
2.26052611518
2.26056800711
2.26049307552
2.26045681089
2.26054151086
2.26058046832
2.2605113087
2.2604705881
2.26054848607
2.26057596516
2.26052856117
2.26049714616
2.26056805438
2.2605989419
2.26054467091
2.26051582185
2.26059315415
2.26063219724
2.26056242304
2.26052321751
2.26061102579
2.26065119957
2.26057822351
2.26055042658
2.26061375738
2.26063839829
2.26059625558
2.2605546167
2.26065069679
2.2606968817
2.26064079728
2.26063690003
2.26062100095
2.26057176807
2.26066644367
2.26070377156
2.26063699
2.26059559041
2.26067505335
2.2607039305
2.26065268956
2.26063101146
2.26068573994
2.26071002672
2.26066934623
2.26064551736
2.26069998397
2.26072209437
2.26068502876
2.26065209293
2.26072494934
2.26075695663
2.26070005176
2.26066963841
2.26074584526
2.26078336583
2.26071570606
2.26067432873
2.26075952616
2.26079572097
2.26073092665
2.26068255663
2.26076923687
2.26076517078
2.26078342446
2.26082164452
2.26075267229
2.26072268268
2.26078951469
2.26081866659
2.26076719756
2.26073687825
2.2608068093
2.26083910195
2.26078079078
2.26075562123
2.2608395334
2.2608906934
2.2608274033
2.26082064437
2.26080562196
2.26075360437
2.26084707237
2.26088136397
2.2608188851
2.26077789246
2.26085256765
2.26087871675
2.25445326588
2.25442390683
2.25456800276
2.25460794752
2.25460108601
2.25456368932
2.25471015259
2.25474715863
2.25474307844
2.25470518805
2.25484921629
2.25488573918
2.25488046301
2.25484228764
2.25498828695
2.25502862108
2.25501336069
2.25498117966
2.25511081581
2.25514112856
2.25516539459
2.25516480375
2.25522841909
2.2552277339
2.25529047463
2.25528996548
2.25535155372
2.2553508196
2.25541233249
2.25541185174
2.25545366867
2.25542372026
2.25554507031
2.25557612391
2.25557112475
2.25553062685
2.25566715498
2.25570571055
2.25568511448
2.25564797921
2.25577733554
2.25581380766
2.2557953966
2.25574803319
2.25587388722
2.25587057142
2.25594603064
2.25598933599
2.25595545122
2.25591685425
2.25604789629
2.25608831933
2.25605755171
2.25602618902
2.25614046318
2.25617117713
2.25618120932
2.25618041176
2.25622940102
2.25622791865
2.25625765194
2.25622526654
2.25633551559
2.25636434132
2.25635250055
2.25631017217
2.25643856552
2.25647784321
2.25644546258
2.25640905884
2.2565323637
2.25657322904
2.25653570721
2.25650873424
2.25660993516
2.25663774945
2.25662601317
2.25659041141
2.25669071948
2.25671130506
2.2567121785
2.25668921245
2.25677559066
2.25679578094
2.25679612095
2.25676038388
2.25687142367
2.25690545246
2.25688720338
2.25688634354
2.25691704488
2.25688391182
2.25699842609
2.25703923458
2.25699686472
2.25696039525
2.25707351422
2.25711104258
2.25707445627
2.25703556067
2.25715634888
2.25719999501
2.25717628187
2.25717356249
2.25718770453
2.25714132122
2.25726214387
2.25729927008
2.25726116364
2.25722436186
2.25734267628
2.25738823076
2.25736499487
2.25736675036
2.25736723445
2.25732791076
2.25742964718
2.25745726919
2.25743555881
2.25740382828
2.25750185395
2.25753411997
2.25750282307
2.25746914589
2.25756759392
2.25759827947
2.25756945337
2.25753922434
2.25763392304
2.25766421431
2.25763528411
2.25759379576
2.25770391534
2.25774021291
2.25769882784
2.25766175074
2.2577760164
2.25782198203
2.25779026605
2.25778697201
2.25779168814
2.25774055556
2.25785780735
2.25789370155
2.25785061223
2.25782049367
2.25790907246
2.25793693274
2.25790942477
2.25786993618
2.25797754251
2.25801582485
2.25796801763
2.25791942195
2.25802420491
2.25802136993
2.25807098733
2.2581174998
2.25805234552
2.25801570907
2.25811809504
2.25815595923
2.25810740958
2.25806481427
2.25816298719
2.25819044344
2.25816006428
2.25814041926
2.25822225783
2.25825773944
2.25821301989
2.25817947827
2.25827003188
2.25830022411
2.25828781207
2.25828772573
2.25831345162
2.25831347584
2.25833884328
2.25833874686
2.25836400981
2.25836388399
2.2583889641
2.25838897991
2.25839037567
2.25835983292
2.25844628019
2.25847642344
2.25843927649
2.25839723211
2.2585021563
2.25854104676
2.25848696419
2.25844869752
2.25854764554
2.25858360698
2.25853459535
2.25849383517
2.25859635507
2.25863503729
2.25857922489
2.25855066382
2.25863073795
2.25865806144
2.25862486386
2.2585832354
2.25868578894
2.25872438903
2.25866926026
2.25862740998
2.2587231429
2.25875406156
2.25871279878
2.25868240959
2.25875428914
2.25875406357
2.25878591984
2.2588160955
2.25877575531
2.25874108704
2.25882923411
2.25886164384
2.25881760747
2.25878738731
2.25886940524
2.2588995691
2.2588596585
2.25882792734
2.25891053404
2.25894077208
2.25889969356
2.25886837556
2.25895029632
2.25898103065
2.25893862335
2.25890691012
2.25899113543
2.25902410486
2.25897674143
2.2589539957
2.25902023702
2.25904287669
2.25901666897
2.25899088614
2.25905533501
2.25907445699
2.25905389763
2.25901797414
2.25910758346
2.2591426762
2.2591011694
2.25910218315
2.25910906371
2.25907803887
2.2591673634
2.25920536344
2.26083210854
2.26080419659
2.26087237222
2.26090511563
2.2608466353
2.26081635722
2.26088496853
2.26091573354
2.26086024612
2.26083086879
2.26090523165
2.26094234004
2.26087499566
2.26082455007
2.26090930473
2.26090597771
2.26093434183
2.26098082693
2.26089460602
2.26085808094
2.26094084371
2.26097980824
2.2609083454
2.2608706404
2.26095221674
2.26098857022
2.26092192139
2.26088200659
2.26096872687
2.2610089314
2.26093412137
2.26090115231
2.26096113665
2.26097956618
2.26094751473
2.2609237001
2.26098771045
2.26102108176
2.26096066999
2.26093137409
2.26099989247
2.26103267091
2.26097346898
2.2609395376
2.26101025389
2.2610401554
2.2609852113
2.26095381755
2.2610216367
2.26105047096
2.26099808976
2.26095555204
2.26104271864
2.26108084691
2.26101077633
2.2609749305
2.26106297307
2.26110892777
2.26105118128
2.26104696262
2.2610294479
2.2609798478
2.26107257337
2.26110962054
2.26104130232
2.26100225272
2.26108623921
2.26112449521
2.26105318069
2.26102176769
2.26108238172
2.26110504422
2.26106449657
2.261043507
2.2610913559
2.26111052534
2.26107751312
2.2610413104
2.26111146549
2.26113958879
2.26108873205
2.26105926076
2.2611291501
2.26116363958
2.26110030288
2.26107837643
2.26113152859
2.26115609088
2.26111238159
2.26108859581
2.26114064169
2.26116305197
2.26112274762
2.26109934179
2.26116232419
2.26119584098
2.26113442731
2.26109910344
2.2611707472
2.26120051561
2.26116686548
2.26116704335
2.26115117112
2.2611210242
2.2611876224
2.26121721764
2.26116190921
2.26111859543
2.26120668019
2.26124597227
2.26117211011
2.26113533207
2.26121564184
2.26125213134
2.26118455279
2.26114353182
2.26122801768
2.26126602159
2.26119429687
2.26116251871
2.26122254646
2.26124443116
2.26120525757
2.26118071872
2.26122837161
2.26124424223
2.26121661964
2.26117281046
2.26125613115
2.26125792901
2.26127361655
2.26132187707
2.26123055078
2.26119262774
2.26127563831
2.26131445257
2.26124118274
2.2612089171
2.26127934915
2.26131141213
2.2612750885
2.26127634388
2.26128076845
2.26128072846
2.26128591416
2.26128557341
2.26126757559
2.2612363006
2.26130345395
2.26133317178
2.26127718714
2.261234607
2.26132003623
2.26135790307
2.26128693865
2.26124880016
2.26133133373
2.26137068946
2.26129588895
2.26126285485
2.26131073946
2.26131050063
2.26133851571
2.26136918514
2.26131197446
2.26127041298
2.2613545408
2.26139195368
2.26132194709
2.26128396657
2.26136650235
2.26140591567
2.26133679516
2.26131977455
2.26150890088
2.26171051161
2.26347766378
2.26309534325
2.26432843885
2.26551789392
2.28293447776
2.27798513004
2.28394876201
2.28619789813
2.36002536241
2.33747807541
2.33184414921
2.34500111963
2.48929931566
2.43850637467
2.31662477602
2.36315309513
2.48786781457
2.41124306055
2.17081733381
2.24134173492
2.23105945444
2.15402360564
1.1110739589
1.12891349107
1.23807187572
1.1948668526
1.24815849232
1.18456925699
1.18138044751
1.14849818164
1.14319069173
1.13561550328
1.13420215251
1.13342310656
1.13320869
1.13317427854
1.1332010907
1.1331741478
1.13320731091
1.13318306891
1.13317358124
1.13320861814
1.13317361456
1.13319643961
1.13317385298
1.13319662402
1.13317333256
1.13320540433
1.1331735556
1.13319303859
1.13317342229
1.13320458171
1.13317327873
1.13320605
1.13317333769
1.13320335899
1.13317356585
1.13320184562
1.13321910198
1.13317388887
1.13320456068
1.1331729352
1.13319853288
1.13317375044
1.13319428559
1.1331740068
1.1331986589
1.13317369404
1.13319839212
1.13317392989
1.13319221339
1.13317436827
1.13320864169
1.13322222594
1.13317362995
1.13321372003
1.13317347356
1.13320439224
1.13317379145
1.13320823849
1.13317444261
1.13319566445
1.1331742888
1.13319668141
1.13317339153
1.1332084112
1.13317352996
1.13320002313
1.13317350945
1.13321084035
1.13317361713
1.13321506504
1.13317325822
1.13320445307
1.13319427551
1.13319343827
1.13319262058
1.13319261749
1.13319349709
1.13319431347
1.13317345049
1.1332054792
1.13317376069
1.13321201567
1.13317402474
1.13321257239
1.1331741478
1.13320297936
1.133173612
1.13321315811
1.13317376582
1.13321140807
1.13317389144
1.13321395299
1.13317359149
1.13318445773
1.13320780449
1.1331741478
1.133195421
1.13317380171
1.13319465478
1.13317313773
1.13321445567
1.13317324027
1.13321350217
1.1331726609
1.13320275003
1.13317964756
1.13337482317
1.13424529098
1.13535836227
1.14399934172
1.14608400758
1.18279299274
1.17962710489
1.25123521206
1.19369788158
1.24671752337
1.12936611549
1.11791941288
2.21685884877
2.14394987955
2.17514499129
2.24056452831
2.46995470189
2.40080645898
2.32526173722
2.36512183963
2.4789722529
2.43435077897
2.34263390304
2.35090486651
2.35498247946
2.33554481608
2.28883349154
2.28878476357
2.28085635344
2.27686115357
2.26489210104
2.26550602666
2.26290685236
2.26267361984
2.26121703091
2.26136142056
2.26094142865
2.26093499133
2.26097212609
2.26101744613
2.26093337092
2.26089433694
2.2609698891
2.26099848891
2.26094661366
2.26091733565
2.26099277037
2.26103174778
2.26096004395
2.26092099837
2.26101127101
2.26105609155
2.26099892997
2.26099608916
2.26097894033
2.26093187328
2.26102483621
2.26106420066
2.2609917584
2.26094842122
2.26102764332
2.26105555064
2.26100461462
2.26097290314
2.2610329039
2.26103298309
2.26103858671
2.2610386349
2.26105248546
2.26108196714
2.26102810512
2.26099239322
2.26106849375
2.26110280789
2.26103961784
2.26102094169
2.2610784905
2.26110960126
2.26105336125
2.26102061442
2.26108794281
2.26111587514
2.26106502802
2.26102527774
2.26111102994
2.26115074601
2.26107719963
2.26103482572
2.26111341036
2.26114272048
2.26109738288
2.26109680766
2.26109342527
2.26106063046
2.26114065796
2.2611812019
2.26110563248
2.26106847979
2.26115025846
2.26118912178
2.26111709817
2.2610747646
2.26115345692
2.26118279709
2.2611285344
2.26109686959
2.26115495197
2.26115422586
2.26116099549
2.26116088045
2.2611666238
2.2611667782
2.26117194678
2.26117211536
2.26117716845
2.26117736772
2.26118229845
2.26118230369
2.2611974663
2.26122761138
2.26117189845
2.2611374063
2.26120996578
2.261242366
2.26118298334
2.26115172958
2.26122175644
2.26125467316
2.2611935239
2.26117081987
2.26122371704
2.26124718968
2.26120547511
2.26118160861
2.26123101367
2.26125048969
2.2612159325
2.26118041587
2.26125061017
2.26128005027
2.2612251742
2.2611998373
2.26126947074
2.26130654596
2.26123760007
2.26118583356
2.26126992895
2.26126619136
2.26130464149
2.26136473219
2.26128335248
2.2612825938
2.2612584492
2.26120721737
2.26128912987
2.26131474558
2.26126745919
2.26123681512
2.26130260293
2.26133239532
2.26127783747
2.2612449292
2.26131492136
2.26134695277
2.26128675451
2.26125614019
2.26132254082
2.26135313202
2.26129556218
2.26126333178
2.26134173239
2.26138190455
2.26130616551
2.26126938248
2.26135828256
2.26140552774
2.26134632776
2.26134212375
2.26132276217
2.26127007055
2.26135662028
2.26138567959
2.26134442762
2.26134783314
2.26163852375
2.26178981971
2.26334127291
2.26310924118
2.26533965012
2.26595380402
2.28132054874
2.27732341584
2.28930828988
2.28925909774
2.35551939431
2.33607381054
2.34314557208
2.35142208614
2.47961983216
2.4349822289
2.32577552612
2.36565467734
2.47063128044
2.40143585573
2.17564590012
2.24105491905
2.21740657849
2.14449997531
2.5502191321
2.10886542365
2.20755778053
2.21771206347
2.05914492882
2.11349723451
2.12042688415
2.12180959375
2.09740738988
2.1207823578
2.18770085981
2.17773432774
2.19266662594
2.20201611838
2.24129154094
2.23719276456
2.24850669224
2.25090323301
2.26231471479
2.26117229056
2.26374833849
2.26379707793
2.26548656512
2.26528748662
2.26560945868
2.26559258448
2.26559529359
2.26555001132
2.26562345814
2.26561953015
2.26563178714
2.26566787364
2.26559431687
2.26556301495
2.26562512164
2.26565446062
2.26559320916
2.2655615151
2.26563546391
2.26567633461
2.26559294261
2.26556137972
2.26562191845
2.26564862799
2.26559317271
2.26555115485
2.26563193509
2.26566872327
2.26559373774
2.26555359698
2.26563055842
2.26566555933
2.26559385055
2.26555372681
2.26563391118
2.26567257288
2.26559248021
2.26555918601
2.26562429656
2.26565372402
2.26561355057
2.26561200841
2.26561380793
2.26561243182
2.26561404824
2.26561291063
2.26559291184
2.26556132357
2.26562467131
2.26565346808
2.26559361276
2.26554997311
2.26563184166
2.26566863944
2.2655936362
2.26555531468
2.26563172392
2.26566806511
2.26559399187
2.26554978941
2.2656195286
2.26564284293
2.26559212339
2.26556261485
2.26563343845
2.26567266315
2.26559258953
2.26555297262
2.26563017284
2.26566636827
2.26559252716
2.26555140849
2.2656299636
2.26566558016
2.26559239488
2.2655531295
2.26563157085
2.26566888739
2.26559285624
2.26555342605
2.26563032148
2.26566612159
2.2655928053
2.26555398113
2.26563124086
2.26566821627
2.26559286718
2.26555466033
2.26563072926
2.26566708027
2.26559298394
2.26554338707
2.26561804893
2.26561342583
2.26563703062
2.2656803294
2.26559234292
2.26555182508
2.26563267113
2.26567119092
2.26559190549
2.26555775545
2.26562438188
2.26565395528
2.26561443627
2.26561333684
2.2655931885
2.26556121714
2.26562445832
2.26565268274
2.26559374589
2.26554980317
2.26563232631
2.26566950617
2.26559358953
2.26554502789
2.26561870434
2.26561469499
2.26563867007
2.26568249057
2.26559344081
2.26555413163
2.26563080968
2.26566678012
2.26559334855
2.26555407934
2.26563070998
2.26566617097
2.2655937073
2.26555415944
2.26563110915
2.26566710263
2.26559354106
2.2655500561
2.26562489594
2.26565397843
2.2655932087
2.26556068019
2.26561531374
2.26561396061
2.26561529972
2.26561401171
2.26561512783
2.26561385406
2.26561472662
2.2656131065
2.26562447985
2.26565369912
2.26559245914
2.26555816561
2.26563221307
2.26566893056
2.26559410201
2.26554508517
2.2656153701
2.265630607
2.26576685906
2.26598026409
2.26773718035
2.26735473249
2.26858463847
2.26977601702
2.28723608935
2.28227044762
2.2882558687
2.29050879898
2.36451572587
2.3418966375
2.33626932937
2.34946459175
2.49410717294
2.44316082108
2.32094249852
2.36761250375
2.49258336586
2.41574083131
2.17459691803
2.24527708916
2.23516849854
2.15797118343
2.25914488082
2.25911342454
2.25919440456
2.25922508778
2.25920252903
2.25920212118
2.25921976404
2.2592187728
2.25923681044
2.25923616788
2.25925418486
2.25925422118
2.25927179076
2.25927197962
2.25926826898
2.25923706228
2.25931514971
2.25934321815
2.25930260508
2.25926020113
2.25935895036
2.25939862835
2.25933578126
2.25929464839
2.25938326792
2.25941316045
2.25936780183
2.25933752091
2.2594151917
2.25944641235
2.25939893263
2.25936723357
2.25945544226
2.25949418407
2.25943251008
2.25939241092
2.25948778403
2.25952689995
2.25946313065
2.25943075621
2.25951017435
2.25954048253
2.25951609059
2.25951635092
2.2595094108
2.25947859349
2.25955531383
2.25958461315
2.25953994875
2.25949698224
2.25959251471
2.25963017313
2.25956912949
2.25953272585
2.25962058123
2.25965676547
2.25959901793
2.25954868022
2.25964170749
2.25963681005
2.25967398917
2.25972137613
2.25964089682
2.25960100782
2.25968700588
2.25971784769
2.25966888162
2.25963831572
2.25971360909
2.25974345417
2.25969650435
2.25966351701
2.25975047222
2.25978919409
2.25972545116
2.25968625629
2.25977927397
2.25981936765
2.25975141448
2.25971958433
2.25977522922
2.25977507914
2.25981227607
2.25984454136
2.2597927222
2.25975959705
2.2598323942
2.25985829628
2.25981957274
2.25976838159
2.25986245888
2.25985968691
2.25989139305
2.25993904748
2.25985653767
2.25981661537
2.25990094391
2.25993149062
2.25988159262
2.25985098428
2.25991483338
2.25991505015
2.25992706833
2.25992668539
2.25995055248
2.25998009736
2.25993201997
2.25989836102
2.25998415526
2.26002323497
2.25995681272
2.25991766053
2.26000944863
2.26005003241
2.25997956772
2.25994741769
2.260023834
2.26005446616
2.26002608543
2.26002546328
2.26001651601
2.25998535978
2.26006101652
2.26009287286
2.26004074167
2.26000547236
2.26007014059
2.26008791582
2.26006266577
2.26003024476
2.26010923794
2.26014446035
2.26008511384
2.2600536612
2.26011777321
2.26011672865
2.26012959055
2.26012929813
2.26014071237
2.2601413568
2.26015104819
2.26015185488
2.26016118739
2.26016100235
2.26018252379
2.26021202606
2.26016268307
2.26012730283
2.2602051877
2.26023696862
2.26018387579
2.26015222242
2.26022601905
2.26025730191
2.26020467689
2.2601859776
2.26025402307
2.2602922167
2.26025095358
2.2602448013
2.26023674373
2.26018824503
2.26028853025
2.26033002056
2.26025654335
2.26022270384
2.26028479843
2.26030045394
2.26027666547
2.26024368564
2.26032823715
2.26036846109
2.26029804001
2.26024834001
2.26033826987
2.26033422607
2.26036487011
2.26041269783
2.26032687758
2.26028692702
2.26036787295
2.26039810806
2.26034583044
2.26031533884
2.26037680596
2.2603768924
2.26038614486
2.26038642457
2.26039524329
2.2603952881
2.260404531
2.26040412432
2.26041419619
2.26041348976
2.26042419287
2.26042371368
2.26043399209
2.26043337607
2.26044387006
2.26044346712
2.26045349492
2.2604536397
2.26046251002
2.26046313854
2.26048059652
2.26051087322
2.26045833494
2.26042524063
2.2605073181
2.26054645637
2.26047675081
2.26043848852
2.26052430437
2.26056295517
2.26049425064
2.26045771222
2.26054094086
2.26057795599
2.26051256889
2.26047406662
2.26055763602
2.26059399941
2.26052917441
2.26049098487
2.26057820192
2.26061860983
2.26054532437
2.26051777561
2.26058133656
2.26060640275
2.26056397246
2.26052187028
2.26061028608
2.26064817508
2.26058052633
2.26054315797
2.26062761708
2.26066636662
2.26059658779
2.26055923351
2.26064222048
2.2606791244
2.26061318188
2.26057218242
2.26065932754
2.26069732368
2.2606282677
2.26059868701
2.26066517172
2.26069305627
2.26064433971
2.26060410577
2.2606950655
2.26073780562
2.26066012804
2.26062672919
2.26069013692
2.26071000973
2.26067622798
2.26065517896
2.26071539025
2.26074511748
2.26069235827
2.26064982558
2.26073969329
2.26077928027
2.26070651184
2.26067334171
2.26074473453
2.26077386721
2.26072226149
2.26069070778
2.26076245173
2.26079413038
2.26073830576
2.26069894466
2.26076362085
2.26074769356
2.26064945188
2.26045257761
2.25892432238
2.25897450888
2.25750475761
2.25636763914
2.24375258393
2.24613804337
2.23658147163
2.2324551212
2.18821245092
2.19737880298
2.18346375012
2.17328180674
2.09373614165
2.11692019578
2.11683304673
2.11850442271
2.055603002
2.11043888171
2.20337331856
2.2133865781
2.54672913571
2.10584291016
2.38543004022
2.07825553233
2.29444357184
2.20997531004
2.26752383619
2.24124051551
2.26019821482
2.25290841433
2.25852293774
2.25682692831
2.2582083869
2.25786793254
2.25821424378
2.25819359923
2.25821471506
2.25816931168
2.25828014161
2.25831952766
2.25826626313
2.25822470673
2.25832252065
2.25835237186
2.25831638391
2.2582857184
2.25837204066
2.25840203855
2.25836567544
2.25833304906
2.25843138533
2.25847125119
2.25841587009
2.25837810235
2.25847732365
2.25851458466
2.25846378547
2.25842143294
2.25851730604
2.25854640931
2.25851012654
2.25847901055
2.25856438625
2.25859491232
2.25855626787
2.25852355041
2.25861350475
2.2586471713
2.25860250381
2.25857197483
2.25865414333
2.25868221983
2.25864781413
2.25861357801
2.25870199865
2.25873415837
2.25869017209
2.25866016316
2.25873159182
2.25873029173
2.25875438147
2.25875207607
2.25877769345
2.25877663844
2.25880801954
2.25883952769
2.25879651112
2.25876589465
2.2588590903
2.25889927379
2.2588394908
2.25879734488
2.25889000595
2.25891912579
2.25887948347
2.25885626106
2.25891947637
2.25893752893
2.25891873662
2.2588850855
2.25898159772
2.25902446301
2.25895830238
2.25891701124
2.25900381067
2.25902878896
2.2589970866
2.25896810876
2.25905102952
2.25908590599
2.25903494396
2.25901204274
2.25907391531
2.25909236427
2.25907233498
2.25903949261
2.25913134668
2.25917084065
2.25911016985
2.25907196868
2.25916817542
2.25920800548
1.02544052136
1.36298275713
1.26820443101
1.62771041902
1.02506793148
1.36257246661
1.26878912809
1.62855928806
1.0690983258
1.47769060226
1.26830703222
1.63452466422
1.10558604122
1.36709548907
1.05606086026
1.4257036553
1.08731292394
1.40928584393
1.02991586903
1.37630983437
1.27959698224
1.66607916928
1.02516158286
1.36267613487
1.26864242419
1.62834578934
1.10547047383
1.3669704627
1.06919359839
1.47782958087
1.26819690061
1.63431282391
1.02997211124
1.37638448333
1.27949978408
1.66595030158
1.02513765949
1.36266274151
1.26868160766
1.62841653617
1.06920185418
1.47780622066
1.26814706205
1.63429064723
1.10541826842
1.36685718857
1.05613652271
1.4257528549
1.08723891731
1.40919772111
1.03001173082
1.37641612569
1.27944097008
1.66584746838
1.02989778
1.37624428707
1.27958816087
1.66608611494
1.0250920455
1.36262845929
1.26875435715
1.62851681122
1.069147079
1.47774512934
1.2682316228
1.63441405577
1.02511204912
1.36262106902
1.26871995838
1.62845871524
1.02996099946
1.37635988552
1.27952343183
1.66597000038
1.10550788979
1.3669861785
1.0560932531
1.42570764006
1.08728380369
1.40926455122
1.10555480038
1.36710894252
1.0691473656
1.47777495282
1.26825902229
1.63433809587
1.05607054426
1.4256915694
1.08731288849
1.40931617021
1.05611119916
1.42573522614
1.08727061419
1.40924998323
1.06926302605
1.47787400601
1.26805186366
1.63415102324
1.02521730916
1.36273688865
1.26855460478
1.62821854208
1.03006852406
1.37647845955
1.27934785153
1.66570925221
1.02528156119
1.36280812465
1.2684543038
1.62807291419
1.06933377555
1.47795357566
1.2679428048
1.63399218585
1.10519984186
1.36653782361
1.05624635149
1.4259018322
1.08711974333
1.4089973136
1.03013413981
1.37655098859
1.27924130399
1.66555172254
1.10526743569
1.36667799483
1.06931729014
1.47796692999
1.26800540279
1.63403343774
1.03008693484
1.37651099111
1.27931240654
1.66567904624
1.02525325143
1.36277894205
1.26851106851
1.62818011976
1.05620847338
1.42583884386
1.08716873501
1.40909791308
1.03012981817
1.37650041368
1.27920943676
1.66552420966
1.02531938168
1.36287870618
1.26839752997
1.6279987556
1.06941429344
1.4780427192
1.26781788547
1.63380971871
1.02535522478
1.36288930588
1.26833874628
1.62790509605
1.03020911948
1.37663369593
1.27911893229
1.66537042758
1.10506944255
1.36635354435
1.05630338302
1.42593186236
1.08706420454
1.40893649808
1.10500181777
1.36629279934
1.06947917667
1.47814873801
1.26775459812
1.63366543715
1.03023716857
1.37667722933
1.27906711642
1.66530826998
1.02539756956
1.36294897605
1.26827356869
1.6278238136
1.0695076686