/*--------------------------------*- C++ -*----------------------------------*\
| =========                 |                                                 |
| \\      /  F ield         | OpenFOAM: The Open Source CFD Toolbox           |
|  \\    /   O peration     | Version:  2112                                  |
|   \\  /    A nd           | Website:  www.openfoam.com                      |
|    \\/     M anipulation  |                                                 |
\*---------------------------------------------------------------------------*/
FoamFile
{
    version     2.0;
    format      ascii;
    arch        "LSB;label=32;scalar=64";
    class       volScalarField;
    location    "0";
    object      cellAspectRatio;
}
// * * * * * * * * * * * * * * * * * * * * * * * * * * * * * * * * * * * * * //

dimensions      [0 0 0 0 0 0 0];

internalField   nonuniform List<scalar> 
52617
(
8.76872200343
8.61488761396
5.2536906681
5.45239468459
4.52463675986
4.45049976761
3.47753398461
3.55615653643
3.18554500383
3.13535907981
2.7124229423
2.72077332817
2.5009269055
2.4822238856
2.28025839646
2.28066446003
2.14578461041
2.14292649315
2.03209822262
2.03274802855
1.94755191936
1.94745031848
1.87671083066
1.8768388628
1.81745104594
1.81747787857
1.76655388718
1.76653079373
1.72232921868
1.72234097552
1.68348832415
1.68347471482
1.64915412745
1.64917213774
1.61852961262
1.61850626794
1.59111254233
1.59113456156
1.56634762388
1.56632237162
1.54393799705
1.54393820214
1.52353433838
1.52355897738
1.5048466603
1.50482675649
1.48773414754
1.48775345138
1.47193406607
1.4719131631
1.45737077313
1.45738662435
1.4438475168
1.44384765132
1.43127834741
1.43126207911
1.45376056309
1.45375547307
1.49174133666
1.49174558462
1.5297126648
1.52970650904
1.5676968514
1.56770509993
1.60566868231
1.60566812948
1.64364083157
1.64363179963
1.68162635213
1.6816332117
1.7195977012
1.71959240128
1.75758075077
1.75758698591
1.79555155425
1.79554486949
1.83353540816
1.83354167227
1.87150973227
1.87150949371
1.90948710821
1.90948669565
1.94746455308
1.94746400225
1.98544223342
1.9854417705
2.02342007836
2.02341981748
2.06139792722
2.06139774692
2.0993757749
2.09937561172
2.13735000957
2.13734248664
2.17533548845
2.17534354052
2.21330486823
2.21329611537
2.25129141236
2.25129902155
2.28926199868
2.2892538719
2.32724856513
2.32725698715
2.365218437
2.3652101895
2.40320525796
2.40321440369
2.44117355878
2.44116388344
2.47915640604
2.47915653981
2.51713885521
2.51714809061
9.84695566346
9.84700675969
9.88488020975
9.88482768871
9.92290359364
9.92294421099
9.96084110215
9.96080110142
9.99883796289
9.99883844978
10.0368160325
10.0368166632
10.0747944197
10.0747946475
10.1127732341
10.1127733943
10.1507518545
10.1507521121
10.188730034
10.1887303166
10.2267082328
10.2267084587
10.2646870112
10.2646876949
10.3026650433
10.3026658183
10.3406412989
10.3406407598
10.3786183173
10.3786171833
10.4165984458
10.4165993485
10.454579086
10.454581689
10.4925567776
10.4925577062
10.5305331755
10.53053181
10.5685114782
10.5685104046
10.6065117296
10.6065541622
10.6444497709
10.6444064495
10.6824799857
10.6825380239
10.7204010323
10.7203477397
10.7584323788
10.7584857317
10.7963569391
10.7963040651
10.8343867085
10.834439012
10.8723074071
10.8722478529
10.9103405684
10.910386657
10.9482854105
10.9482609639
10.9862871811
10.9863187604
11.024219941
11.0241667574
2.55510601853
2.55509368702
2.59309627687
2.5931079911
2.63106243288
2.63105092356
2.66905198987
2.66906392996
2.70701704087
2.7070037215
2.74500719317
2.74501754136
2.78298047244
2.78298037796
2.82095396963
2.82094371765
2.85894461716
2.85895895766
2.89690831858
2.8968949335
2.93490138704
2.93491714008
2.97287075748
2.97286997184
3.01084053486
3.01082368632
3.04883489342
3.04884911835
3.08679876763
3.08678494655
3.12479058255
3.12480477813
3.16275326948
3.16273741732
3.20074599249
3.20075847116
3.23871259724
3.23870081893
3.27670227419
3.27671441946
3.31466765927
3.31465409608
3.35266032588
3.35267467671
3.39062636498
3.3906172405
3.42861309654
3.4286221205
3.46658189798
3.46657186213
3.50456932263
3.5045786978
3.54253522701
3.54252061073
3.58052918197
3.58054459751
3.61849327229
3.61848003414
3.65647781778
3.65647802175
3.6944624014
3.69447609158
3.73242622649
3.73241065741
11.0622459978
11.0622853948
11.1001894068
11.1001514367
11.1382178318
11.1382793998
11.1761347688
11.1760787701
11.2141724444
11.2142328342
11.2520967602
11.2520502955
11.2901192358
11.2901646701
11.3280748395
11.3280740655
11.3660312583
11.3659855456
11.4040549214
11.4041029599
11.4419773575
11.4419159938
11.4800146732
11.4800704741
11.5179350981
11.5178760443
11.5559726245
11.5560298559
11.5938915948
11.5938308829
11.6319257626
11.6319753981
11.6698564187
11.669809187
11.7078565577
11.7078554446
11.7458361559
11.7458372556
11.7838153977
11.7838176507
11.8217929102
11.8217935833
11.8597929473
11.8598386209
11.8977223949
11.8976685271
11.9357568866
11.935811105
11.9736896878
11.973655392
12.0116965562
12.0117251885
12.0496279542
12.0495636305
12.0876451522
12.0876502246
12.125662583
12.1257423178
12.1635753668
12.1635308125
12.2016007727
12.2016523839
12.2395261002
12.2394730018
3.77042047777
3.77043584456
3.80838503334
3.80837217229
3.84637905201
3.84639774642
3.88433813404
3.88431908875
3.92233784364
3.9223601651
3.96030379079
3.9603034287
3.99826961312
3.99824670565
4.03626916565
4.03628829482
4.07422803976
4.07420916386
4.11222525944
4.11224457266
4.15018257802
4.15016104806
4.18818003912
4.18819629669
4.22614271778
4.22612657319
4.26412888832
4.26412918026
4.30210713438
4.30210780033
4.34008529326
4.34008625262
4.37806314542
4.37806372209
4.41604119139
4.41604145045
4.4540195186
4.4540197601
4.4919978168
4.49199803025
4.52997603996
4.52997614391
4.56795431289
4.56795427335
4.60593282957
4.60593286436
4.6439201219
4.64393802504
4.6818813434
4.68186321085
4.71988108905
4.71990567134
4.75783420046
4.75781089052
4.79583670914
4.79586117332
4.83379271443
4.83377316653
4.87178076864
4.87178081191
4.90977089826
4.90979288678
4.94772872417
4.94770986459
12.2775489448
12.2775848287
12.3154914594
12.315452737
12.3535091882
12.353549474
12.3914470941
12.3914074868
12.4294657023
12.4295058508
12.4674068309
12.467370177
12.5054191001
12.5054545276
12.5433474664
12.5432886449
12.5813788788
12.5814247063
12.619316007
12.6192725676
12.6573519656
12.6574228302
12.6952607305
12.6951981484
12.7333051647
12.7333732611
12.7712209252
12.7711654175
12.809251484
12.809302555
12.8472058926
12.847207034
12.8851833428
12.8851846996
12.923159953
12.9231605762
12.9611367202
12.9611361546
12.9991140721
12.9991126121
13.0370923599
13.0370909925
13.0750710481
13.0750698466
13.1130501234
13.1130496214
13.1510289694
13.1510291291
13.1890071755
13.1890075751
13.2269850028
13.2269852637
13.2649376088
13.2648851051
13.3029725127
13.303034001
13.3408863456
13.3408243907
13.3789142809
13.3789504891
13.4168567878
13.416815498
13.4548780163
13.4549211101
13.492814926
13.4927743236
13.5308383737
13.5308900567
13.5687567496
13.5686853392
13.6068148942
13.6068946841
13.6447220733
13.6446671885
13.6827417505
13.682776699
13.720681769
13.7206364339
13.7587069694
13.7587536012
13.7966451904
13.7966102238
13.8346647659
13.8347207078
13.8725726089
13.8724943997
13.9106251
13.9106911924
13.9485354282
13.94846296
13.9865893694
13.9866629939
14.0245048822
14.0244522531
14.0625359625
14.0625938125
14.1004547318
14.1003963505
14.1384861634
14.1385387212
14.1764008893
14.1763258408
14.2144550231
14.214528619
14.2523551294
14.2522774255
14.2903978903
14.2904484819
14.3283316547
14.3282824622
14.3663734812
14.36645066
14.4042623619
14.4041716826
14.44229077
14.4422926805
14.4803169963
14.4804084319
14.5182093277
14.5181370893
14.5562646055
14.5563422273
14.5941739426
14.5941150956
14.6322002004
14.6322408972
14.6701361234
14.670088643
14.7081616789
14.7082080844
14.7460959698
14.7460515336
14.7841278653
14.7841910606
14.8220416482
14.8219783558
14.8600797628
14.860138426
14.8979908777
14.8979156012
14.9360481002
14.9361295409
14.9739489943
14.9738770006
15.0120129941
15.0121065756
15.0499435299
15.0499463895
15.087876943
15.0877995632
15.1259249123
15.1259843731
15.1638441375
15.1637850099
15.2018806747
15.2019408117
15.2397942184
15.2397282056
15.2778276871
15.2778770478
15.3157278182
15.3156233668
15.3537714762
15.3537772104
15.3918051742
15.3919087531
15.4296898287
15.4296174423
15.4677445085
15.4678276668
15.5056515466
15.5055952619
4.98572442667
4.98574217131
5.02368034524
5.0236543538
5.06168412673
5.0617081086
5.09963821295
5.09961398547
5.13764016707
5.13766461632
5.17559321121
5.17556880006
5.21359559297
5.21362073161
5.25154629578
5.25151856388
5.2895491791
5.28956995089
5.32750796275
5.32748737872
5.3654969582
5.36549757185
5.40347533342
5.40347609386
5.44145336547
5.44145400752
5.47943168964
5.47943240941
5.51741014777
5.51741056182
5.55539891368
5.55542017658
5.59335584515
5.59333272752
5.63136009984
5.63138862646
5.66930924063
5.66928112069
5.70731523641
5.70734247309
5.74526584526
5.74523863583
5.78327522771
5.78330974967
5.82123447914
5.82123441621
5.85919476611
5.85916082508
5.89720596602
5.89723520223
5.93515260626
5.93512083272
5.97315847234
5.97318152165
6.01111456696
6.01109087044
6.04910515317
6.04910599755
6.08708394975
6.08708532597
6.12507403673
6.12509941526
6.1630283414
6.16300472162
6.20103404304
6.20106654928
6.23897863666
6.23894694765
6.27698756649
6.27701669297
6.31493389266
6.31489997855
6.35294000903
6.35296140198
6.39089753825
6.39087412643
6.42890340978
6.42893249423
6.46685806781
6.46684020186
6.50485424283
6.50487331439
6.54281496861
6.54279736849
6.58081611935
6.58084541691
6.61876262906
6.61873256718
6.65675584251
6.65675604602
6.69474703794
6.69477440427
6.73269275321
6.73265655803
6.77070555515
6.7707374267
6.80865125414
6.80861805479
6.84666359352
6.84669795137
6.88460330893
6.88456319325
6.92260306245
6.92260359011
6.96060325123
6.96064430717
6.99854342749
6.99850924928
7.03655584546
7.03658928854
7.07449332575
7.07444981023
7.11249181718
7.11248891608
7.15049123321
7.15052755203
7.18843758511
7.18841172076
7.22644260585
7.22647202796
7.26438988906
7.2643592799
7.30239954867
7.30243087528
7.34034815218
7.34031887693
7.37835514057
7.37838409804
7.41630512497
7.41627454323
7.45431968423
7.45435945371
7.49226006724
7.49222428397
7.53027439092
7.53031044242
7.56820890499
7.56816207355
7.60621244617
7.60621310468
7.64421747972
7.64426728617
7.68214957158
7.68211247578
7.72016051928
7.72019022555
7.75811075748
7.75808230737
7.79612179271
7.79616072231
7.83406023778
7.83402029982
7.87208540491
7.87213330877
7.9100376341
7.91003678364
7.94798923957
7.94793964708
7.98601300036
7.98605087313
8.02395254673
8.02391280705
8.06197358327
8.06201720025
8.09991442614
8.0998838844
8.13791509911
8.13793495348
8.17586348103
8.17582561382
8.2138793345
8.21391462563
8.25182400981
8.25179124849
8.28981841851
8.28981887427
8.32779662255
8.32779691719
8.36577507917
8.36577542116
8.40375361841
8.40375402694
8.44173188185
8.44173222131
8.47972599117
8.47975941352
8.51767110686
8.51763620294
8.55569021304
8.55573618164
8.59362239846
8.59357870237
8.63164469371
8.63168704481
8.66958269466
8.66954148379
8.70760460561
8.70765060936
8.74553484931
8.74548914988
8.7835511866
8.78358335861
8.82149905979
8.82146666546
8.85951683639
8.85956395185
8.89744775403
8.89740272281
8.93547386593
8.9355214618
8.9734094112
8.97337167151
9.01142323978
9.01145844091
9.04938386829
9.0493834337
9.08734371646
9.0873076304
9.12535848158
9.12539855954
9.16329583087
9.16325662431
9.20131246379
9.20134811343
9.23925569081
9.23921850319
9.27727272777
9.27731070914
9.31521365336
9.31517642284
9.35322837916
9.3532660541
9.39116714158
9.39112863112
9.42918303294
9.42922185763
9.46711931545
9.46707727559
9.50513235006
9.50515944435
9.54308474373
9.54305573328
9.58109457577
9.58112683749
9.61904514266
9.61902036027
9.65705679699
9.65710072874
9.69498702035
9.69494100171
9.7329872126
9.73298461394
9.77098730042
9.77102645537
9.80892253566
9.80887089245
15.5436830421
15.543739863
15.5815988979
15.5815299385
15.6196449902
15.619706385
15.6575617533
15.6574975537
15.6955997092
15.695659184
15.7335088095
15.7334292003
15.7715832402
15.7716868667
15.8095036176
15.8095030478
15.8474273804
15.8473258635
15.8854996642
15.8855755651
15.9233993392
15.923316502
15.961459061
15.9615381249
15.9993607607
15.9992826639
16.0374196277
16.0375035111
16.075308357
16.0752205162
16.1133663516
16.1134326692
16.1512952271
16.1512548219
16.1893137972
16.1893622677
16.2272292063
16.2271565638
16.265276013
16.2653392712
16.3031869902
16.3031160655
16.3412383516
16.3413110661
16.3791461186
16.3790793812
16.4171878578
16.4172551556
16.4551011896
16.4550354234
16.493158717
16.4932499075
16.531047427
16.5309630314
16.5691081049
16.569186952
16.606991895
16.6068878084
16.6450282764
16.6450312671
16.6830618518
16.6831683002
16.7209404914
16.7208575152
16.7590039347
16.7590894904
16.7968954201
16.7968082017
16.8349512178
16.8350203474
16.8728666535
16.8728132129
16.9108926748
16.910939258
16.9488288239
16.9487822969
16.9868728442
16.986953265
17.0247757442
17.0247108406
17.0628187593
17.0628851522
17.1007243466
17.1006454576
17.1387679059
17.1388158583
17.1766954566
17.176638778
17.214728459
17.2147828823
17.2526538628
17.2526021277
17.2906809228
17.2907321379
17.3285925036
17.3285144615
17.3666530099
17.3667325905
17.4045580605
17.4044883336
17.4425695432
17.4425691352
17.4805811942
17.4806505117
17.5184912028
17.5184192597
17.5565532843
17.5566507033
17.5944296986
17.59433599
17.6324970095
17.6325817236
17.6703931551
17.670305246
17.7084661918
17.7085627343
17.7463473463
17.7462550635
17.7844080352
17.7844809012
17.8223238402
17.8222702353
17.8603570533
17.8604139187
17.8982915379
17.8982504919
17.9363414945
17.936443026
17.9742497738
17.9742365708
18.0121698546
18.0120497917
18.0502600638
18.05034854
18.0881471976
18.0880518295
18.1262113682
18.1262870117
18.1641138307
18.1640352585
18.2021292446
18.2021257376
18.2401108295
18.240110628
18.278090752
18.2780916442
18.3161057945
18.3161814079
18.3540107566
18.3539355168
18.3920757084
18.392176293
18.4299520956
18.4298586934
18.4680235194
18.4681171322
18.5059026511
18.5058032127
18.5439706481
18.5440491298
18.581910735
18.5819094808
18.6198520855
18.6197723254
18.6579232462
18.658024806
18.6958025384
18.6957086185
18.7338765298
18.7339705165
18.7717566044
18.7716563503
18.8097832683
18.8098132312
18.847484038
18.8469296727
18.88014163
18.8809067994
18.916149931
18.9127012574
18.9084526615
18.9195163482
18.9381692884
18.9310156799
18.8115846433
18.8633204742
18.928732834
18.8932751303
18.6721665638
18.7678784113
19.2107607892
19.0516107283
19.0079993257
19.1105485988
20.103097834
19.8652261577
19.8680670771
20.0268283626
13.2542720613
13.2756527384
12.4907603488
12.6271124724
12.3294234431
12.5407590617
12.5331222998
12.652880999
12.6803084301
12.7146559701
12.7211255202
12.7254008896
12.72616597
12.7263910359
12.726209907
12.7263619682
12.7261886339
12.7262723781
12.7263586072
12.7261840039
12.7263318431
12.7262195603
12.7263391639
12.7262167654
12.7263332201
12.7261907267
12.7263607981
12.7262247972
12.7263569633
12.7261928038
12.7263444187
12.7261881385
12.726349584
12.7261965036
12.7263724364
12.7262684203
12.7261550281
12.7263836488
12.7261924331
12.7263168316
12.7262082887
12.7263420388
12.7262271451
12.7263428028
12.7262113526
12.7263317657
12.7262124183
12.7263406511
12.7262316255
12.7263874023
12.726263415
12.7261452505
12.7263690386
12.7261711561
12.7263589362
12.726198088
12.7263515481
12.7261885419
12.7263688431
12.7262246343
12.7263379089
12.7262199695
12.7263300447
12.7261832496
12.726348469
12.7262082549
12.7263818275
12.7261779083
12.7263716856
12.7261660276
12.7263533469
12.7261965637
12.7262759459
12.7262775408
12.726277609
12.7262749657
12.7262723905
12.7262724652
12.7263510929
12.7261928225
12.7263803629
12.7261774519
12.726374265
12.7261788147
12.7263803789
12.7262029913
12.7263495053
12.7261734182
12.7263754467
12.7261786531
12.7263751435
12.7261715844
12.7263578156
12.7262761506
12.7261888128
12.7263661839
12.7262210531
12.726335245
12.7262246182
12.7263539891
12.7261657165
12.7263699796
12.7261653217
12.7263371709
12.7261957524
12.7263046578
12.7257443974
12.7211065282
12.7172913014
12.6790010172
12.6626840828
12.5266697266
12.5605818595
12.3153034505
12.6526183961
12.4717275804
13.2977377016
13.2398272642
16.066639341
16.1846060475
16.28333338
16.1049399868
15.5138497501
15.5858574915
15.7021093259
15.5874792506
15.3784218185
15.4473882943
15.6236999273
15.6050053372
15.6275556444
15.664628462
15.7846585896
15.7833894691
15.8425014179
15.8497399813
15.9141649678
15.9124155525
15.9568273777
15.9571403933
15.9988337542
15.9984756004
16.037354119
16.0373572205
16.0752949397
16.0751962545
16.1133681965
16.1134487613
16.1512774102
16.1512150791
16.1893145309
16.1893757445
16.2272191626
16.227133577
16.2652834899
16.2653675217
16.3031663653
16.3030666429
16.3411984408
16.341199117
16.3792282405
16.3793270468
16.4171101816
16.4170238333
16.4551819101
16.4552729114
16.4930837044
16.4930196007
16.531125295
16.5311947233
16.5690670692
16.5690657273
16.6070446039
16.6070440075
16.6449907405
16.6449246685
16.6830386487
16.6831154487
16.7209354708
16.7208576834
16.7589728068
16.7590129206
16.796899404
16.7968276653
16.8349529957
16.8350261931
16.8728643959
16.8728004874
16.9109173029
16.9110045851
16.9488052469
16.9487148668
16.9868789648
16.9869722694
17.0247741139
17.0247040123
17.0627848313
17.0627849217
17.1007968372
17.1008682686
17.1386909502
17.1385964043
17.1767603554
17.1768447303
17.2146513309
17.2145622814
17.2527246947
17.2528187595
17.2906209477
17.290550494
17.3286678274
17.328740328
17.3666100684
17.3666108622
17.4045870208
17.4045867845
17.4425647948
17.4425640431
17.4805427677
17.4805418793
17.5185205431
17.5185195419
17.5564985064
17.5564979213
17.5944417975
17.5943704853
17.6324933735
17.6325721047
17.6703920432
17.6703151261
17.7084468604
17.708519263
17.7463486378
17.7462691962
17.7843931054
17.7844444921
17.822321042
17.8222644973
17.8603566409
17.8604132436
17.8982843035
17.898236069
17.9363276115
17.9364101815
17.9742240537
17.9741517502
18.0122648242
18.0123242415
18.0501704488
18.0500765088
18.0882652362
18.0883870022
18.1261723063
18.126169929
18.1640663232
18.1639207934
18.2021245021
18.2021169563
18.2401788084
18.2403026484
18.2780586524
18.2779935239
18.3161037209
18.3161783175
18.3540087443
18.3539350423
18.3920650864
18.3921453729
18.4299595643
18.4298780982
18.468013172
18.4680881442
18.5059166344
18.505840737
18.543967685
18.5440439518
18.5818560724
18.5817539108
18.6199329441
18.6200235356
18.6578017571
18.6576815973
18.6958484542
18.6958496624
18.7339000994
18.7340299325
18.7717623069
18.7716817684
18.8097411169
18.8097164917
18.8470870165
18.8466526425
18.8803310005
18.8807046777
18.9128098777
18.9107409443
18.9108139389
18.9194533104
18.9255146566
18.9239039474
18.8212338121
18.865628678
18.902482639
18.8791838747
18.691477548
18.7745206977
19.1748726808
19.0336177792
19.0314558601
19.1198093932
20.0677064266
19.8473900491
19.8822448377
20.0297921387
20.4639290739
18.4764328507
17.5625495106
17.1145401257
17.0547340409
16.7869817221
16.4471457414
16.3894072444
16.2431854379
16.1507670624
15.8545416525
15.863247362
15.7562535449
15.7369706645
15.6046718677
15.6240263569
15.5779522389
15.5876866842
15.5431902375
15.5617465656
15.5384357048
15.5549223768
15.5345052913
15.5516381064
15.5339811163
15.5507759002
15.5340013628
15.5508671042
15.5339533053
15.5507311432
15.5339109552
15.5506084456
15.5339822458
15.5508194777
15.5339189496
15.5506307286
15.5339784253
15.5508151015
15.5339020265
15.5505903911
15.5339764772
15.5508137688
15.533918505
15.5506354234
15.5339886579
15.5508467917
15.5339076793
15.5506037209
15.5339889927
15.5508438744
15.5339131066
15.5506138606
15.533989423
15.5508443539
15.5339035753
15.5505941132
15.5339769494
15.5508164095
15.5339149227
15.5506267365
15.533946642
15.5507223413
15.5339473212
15.5507231615
15.5339465597
15.5507215679
15.5339763762
15.5508136325
15.5339159576
15.5506264492
15.5339926673
15.5508536995
15.5339090153
15.5506061329
15.5339863979
15.5508379179
15.5339105899
15.5506083772
15.5339949704
15.5508571991
15.5339238004
15.5506459562
15.5339717936
15.5508028493
15.533900448
15.5505912464
15.5339829408
15.5508369791
15.5339046503
15.5506030158
15.5339844569
15.5508412968
15.5339061918
15.5506052804
15.5339817639
15.5508349741
15.5339033886
15.5505986011
15.5339840535
15.5508376667
15.5339072166
15.5506061831
15.5339830597
15.5508356371
15.5339051266
15.5506018398
15.5339825552
15.5508340728
15.5339063161
15.5506043622
15.5339959622
15.5508691784
15.533942247
15.5507182706
15.5338910221
15.5505716009
15.5339829575
15.5508385613
15.5339003465
15.5505922804
15.5339758117
15.5508159338
15.533914864
15.5506266087
15.5339462796
15.5507212989
15.5339778178
15.5508162665
15.5339179394
15.5506294152
15.5339939129
15.5508551704
15.5339087115
15.5506048605
15.5339983009
15.5508684548
15.5339477587
15.5507232314
15.5338966951
15.5505768068
15.5339863158
15.5508402069
15.5339087272
15.550607469
15.5339861518
15.5508394518
15.533910585
15.5506100373
15.5339879612
15.5508421143
15.5339096934
15.5506081948
15.5339921879
15.5508528563
15.5339165812
15.5506271992
15.533979098
15.5508177225
15.5339495382
15.5507249911
15.5339500982
15.5507256464
15.5339499465
15.5507253814
15.5339494733
15.5507253465
15.5339176459
15.5506303288
15.5339784099
15.5508191712
15.5339058456
15.5505998603
15.5340006236
15.5508724689
15.5339096054
15.5506337749
15.5337044018
15.5500001911
15.5293456916
15.546739906
15.5277182691
15.5416581863
15.4903048621
15.5160853095
15.4833860922
15.4943081426
15.3489950387
15.4078133887
15.4126021563
15.4006803008
15.1727315134
15.2670005362
15.576280702
15.4646091194
15.3807307917
15.4798613588
16.2311357193
16.0566524509
16.0127603795
16.1569318582
9.84694349907
9.84698308515
9.88488273245
9.88484260876
9.92288132822
9.92288170585
9.960860924
9.96086228348
9.99883901667
9.99883998164
10.0368161596
10.0368161647
10.0747942576
10.0747940758
10.1127938089
10.1128351391
10.150734346
10.1506947451
10.188760495
10.188815543
10.2266824291
10.2266289926
10.2647160225
10.2647699078
10.3026450691
10.3026021785
10.3406622433
10.3407030593
10.3785983736
10.3785556627
10.4166171579
10.416659007
10.4545476758
10.4544919011
10.4925847042
10.4926394273
10.5305067146
10.5304510183
10.5685346744
10.5685780749
10.6064709296
10.6064280443
10.6444695026
10.6444692957
10.6824683954
10.6825112764
10.7204052077
10.7203619284
10.7584353179
10.7584946491
10.7963544679
10.7963003796
10.8343847423
10.8344364716
10.8723114723
10.8722588578
10.9103544682
10.9104244395
10.948294946
10.9482962145
10.9862329301
10.9861630471
11.0242773658
11.0243336373
11.0622034647
11.0621564079
11.1002256992
11.1002695804
11.138161234
11.138116755
11.1761838172
11.1762305989
11.2141094139
11.2140500093
11.252148959
11.252206867
11.2900655706
11.2900040344
11.3280975476
11.3281430745
11.3660543095
11.3660536966
11.4040087066
11.403958982
11.442037149
11.4420865123
11.4799708507
11.4799307894
11.5180096009
11.5180862535
11.5559441069
11.5559426541
11.5938817409
11.5938070875
11.6319308852
11.6319903093
11.6698542542
11.6698049149
11.7078787369
11.7079251337
11.7458346422
11.7458334363
11.7838146879
11.7838141831
11.8217716425
11.8217243617
11.8597977593
11.8598483432
11.8977185545
11.897655805
11.9357594751
11.9358205119
11.9736711776
11.9736050702
12.0117074547
12.0117558561
12.0496401908
12.0495915246
12.0876435595
12.0876447399
12.1256455401
12.1256950187
12.1635739009
12.1635212903
12.2016087686
12.2016655094
12.2395425926
12.2395126698
12.2775594768
12.2776111504
12.3154817081
12.315423921
12.3535147189
12.3535649043
12.3914692971
12.3914703932
12.4294461366
12.4294458873
12.4674232313
12.4674217417
12.505401635
12.5053993742
12.5433821539
12.5433812803
12.581337719
12.5812877242
12.6193682065
12.6194251752
12.6572884356
12.6572347313
12.6953198317
12.6953724005
12.7332441744
12.7331903546
12.7712639185
12.7712954776
12.8091947636
12.8091291511
12.8472147433
12.8472220072
12.8852292633
12.8853085369
12.9231264952
12.9230543271
12.961171069
12.9612249864
12.9991130622
12.9990857518
13.0371260738
13.0371785927
13.0750398849
13.0749679581
13.113101883
13.1131844849
13.1510359731
13.151036301
13.1889660501
13.1888811336
13.2270242736
13.2270923653
13.2649394993
13.2648836203
13.3029697833
13.3030227638
13.3409217061
13.340921058
13.3788994111
13.3788984228
13.4168775341
13.4168769809
13.4548557983
13.4548560189
13.4928339502
13.492834713
13.5308119039
13.5308123374
13.5687905455
13.5687909334
13.6067694244
13.6067693458
13.6447480196
13.6447471068
13.6827264541
13.6827246693
13.7206790689
13.7206227587
13.7587137558
13.7587720262
13.7966258379
13.796552731
13.834676252
13.8347456498
13.8725826848
13.8725111627
13.9106303185
13.9106968396
13.9485425319
13.9484733765
13.9865915542
13.9866627145
14.024499158
14.0244309704
14.0625450427
14.0626153975
14.1004463462
14.1003689767
14.1384883645
14.1385379634
14.176422248
14.1763729644
14.2144650595
14.2145429445
14.252366807
14.252295161
14.2904154911
14.2904858539
14.3283195226
14.3282448645
14.3663696473
14.3664405024
14.4042779247
14.404206898
14.4423305788
14.4424084819
14.4802290021
14.4801538045
14.5182713647
14.518327462
14.556196252
14.5561416271
14.5942386157
14.5943145863
14.6321348129
14.6320516343
14.6701896036
14.6702503516
14.7081204695
14.7080801595
14.746134186
14.7461732382
14.7840633103
14.7840020053
14.8221141261
14.8221956884
14.8600060928
14.8599255718
14.8980563163
14.8981191794
14.9359762728
14.9359179185
14.9740123923
14.9740740212
15.0119281281
15.011863286
15.0499814512
15.0500580769
15.0879478032
15.0879660631
15.1264355559
15.1267793781
15.1682328852
15.1679435953
15.2108271214
15.2125508412
15.2827370221
15.2758091554
15.3468310114
15.3493301798
15.5339240141
15.4983718568
15.6689575035
15.6611085165
16.0905996089
15.9828851315
16.3279405073
16.2550627899
16.9641668137
16.6831641868
17.5030629202
17.0436255006
20.43819343
18.4467164818
8.65514518396
8.7168714003
8.16968147759
8.17664168037
8.07568867355
8.07703884291
8.07461309377
8.07498455804
8.10248799329
8.10274655446
8.13835924859
8.13846526141
8.17593771018
8.17591826537
8.21389298823
8.21393559699
8.25182133482
8.25177862185
8.28984365291
8.28988767015
8.32778183012
8.32774754796
8.36579210802
8.36582523176
8.40373781042
8.40370443857
8.44174890603
8.44178346239
8.47968708999
8.47964155506
8.51771067331
8.51775268489
8.55564673602
8.55560486692
8.59366993132
8.59371665496
8.63160633743
8.6315715959
8.66961762333
8.6696525249
8.70756143538
8.7075262973
8.74557489183
8.74561140787
8.78351505757
8.78347545246
8.82153225083
8.8215663847
8.85947842378
8.85944555463
8.89749223219
8.89753136066
8.93542834953
8.93538880328
8.97344207327
8.97347686539
9.01140419636
9.0114049306
9.04938385065
9.04938604352
9.08736102171
9.08736153529
9.12531983558
9.12528180078
9.16333377523
9.16336926066
9.20126994015
9.20121952381
9.23930188442
9.23935167431
9.27723560451
9.27719810981
9.31524537811
9.3152722449
9.3532012754
9.35317827724
9.3912073473
9.39124542187
9.42913655406
9.42908318577
9.46716835075
9.46721816786
9.5051060382
9.50507378099
9.54311681846
9.54315261926
9.58105451478
9.58101038963
9.61907009896
9.61909731046
9.65702525566
9.65700134225
9.69503314365
9.6950725365
9.73296467764
9.73291284335
9.77099477598
9.77104373195
9.80891973896
9.80886655092
7.10330541616
7.22650092785
7.24047132305
7.4126098878
10.4232559583
10.612583396
10.6439321851
10.9064534253
9.45952660157
9.69454977371
9.84979707454
10.0931585931
8.76480332587
8.35106560901
11.3208208287
11.8067688777
11.6597851219
11.9325489152
10.0996273827
10.2919183667
10.2279387969
10.5024442456
9.31659966327
9.48388316848
9.50944304499
9.74183660186
8.08130111942
7.700413417
8.71752973741
8.9324187897
9.07390340508
9.29644258583
9.30128113581
9.47687271208
9.41652884001
9.66760848537
9.59347454623
9.76629781733
9.79328708691
10.0332247877
8.47053815875
8.67877122833
8.81521342833
9.0308249113
7.85373427331
7.48374930391
10.141219186
10.5737385187
10.4399855804
10.6825897734
9.03490803559
9.20493612647
9.14576298527
9.38896769729
9.83372060864
10.0203552938
9.95751439939
10.2242746628
10.1467175394
10.3305775721
10.3605254361
10.6155297711
8.96503322027
9.18666126724
9.33250755637
9.56199401988
9.86993044046
10.0482359899
10.0766889371
10.3241461314
9.56727098695
9.7484307221
9.68685418909
9.94570937426
8.30927495695
7.91741379811
10.7311511939
11.190347984
11.0499517406
11.3076494103
8.5367621994
8.1340088669
9.21187655892
9.44012895032
9.59126164642
9.82762143521
11.0259271462
11.4984481583
11.3547409464
11.6200218625
10.4360085963
10.8818542831
10.7448050903
10.994987828
7.97606300125
8.17090092443
8.2979425238
8.49967930961
8.76328883474
8.91955030433
8.94221155637
9.15954147522
8.50256915267
8.66146563598
8.60469476723
8.83224960788
8.20994699968
8.35518642481
8.37495183137
8.5772178291
7.48156385114
7.66300770617
7.78064409097
7.96850596648
6.94265349602
6.61642003981
8.96114184243
9.34036950492
9.2199565137
9.43235315924
7.97020062608
8.11796575028
8.06359469955
8.27549902893
7.17025503764
6.83311447483
7.72858192416
7.91668573997
8.03932194726
8.23411266687
8.23654250512
8.38987129523
8.33431314327
8.55409305218
8.4867221443
8.63752259979
8.65853159132
8.86829926624
9.2561769266
9.64867265438
9.5249115576
9.74490304423
7.70424615245
7.84637514318
7.79315747137
7.99729887476
7.93339366033
8.07315582291
8.09150782931
8.28625384304
6.987076533
7.15512493345
7.263357456
7.43734457547
7.65661880385
7.79083631359
7.80770493486
7.99490697532
7.43784469418
7.57447831229
7.5225084686
7.71876266101
6.48713054376
6.18277263629
8.37143181317
8.72392515777
8.6101119258
8.80743552081
6.2592030379
5.96581069586
6.73963684381
6.90095642647
7.00475243826
7.17179436536
7.17182194003
7.30288812554
7.25214582496
7.44061277176
7.38012844948
7.50885687427
7.52426507235
7.70394475291