/*--------------------------------*- C++ -*----------------------------------*\
| =========                 |                                                 |
| \\      /  F ield         | OpenFOAM: The Open Source CFD Toolbox           |
|  \\    /   O peration     | Version:  2112                                  |
|   \\  /    A nd           | Website:  www.openfoam.com                      |
|    \\/     M anipulation  |                                                 |
\*---------------------------------------------------------------------------*/
FoamFile
{
    version     2.0;
    format      ascii;
    arch        "LSB;label=32;scalar=64";
    class       volScalarField;
    location    "0";
    object      cellDeterminant;
}
// * * * * * * * * * * * * * * * * * * * * * * * * * * * * * * * * * * * * * //

dimensions      [0 0 0 0 0 0 0];

internalField   nonuniform List<scalar> 
52617
(
0.353372829906
0.418479771082
0.328218632553
0.383062286122
0.318846555598
0.3510385907
0.316785099135
0.353960921506
0.313176349507
0.34595283919
0.314549195532
0.354225661791
0.314026743594
0.355065992497
0.314626268011
0.359299406111
0.314575212365
0.360470485835
0.314634266553
0.361587791673
0.314553320805
0.361784252684
0.314488330224
0.361851050813
0.314421095377
0.361809763304
0.31436497577
0.361757278832
0.314317431743
0.361693435333
0.314279752116
0.361657048832
0.31424681777
0.361610295833
0.314221091822
0.361592550032
0.314196811493
0.36155142728
0.314178604141
0.361544529266
0.314160881154
0.361516581086
0.314145311656
0.361491018036
0.314133834124
0.361491752116
0.314121177375
0.361464665741
0.314112469624
0.361467713452
0.314102301301
0.361443998192
0.314094850377
0.361440652554
0.314088276353
0.361438655299
0.314080697352
0.361418957934
0.314075907805
0.361423409733
0.314069493818
0.361405078426
0.314066189032
0.361415724021
0.31406099886
0.361401576038
0.314056147666
0.361387815102
0.314053966677
0.361399736587
0.314049475079
0.361383676567
0.314047417053
0.361391385932
0.314043428819
0.361375873297
0.314041888783
0.361384814892
0.314038912438
0.361376294257
0.314036625767
0.361373562808
0.314034499899
0.361371040039
0.314032533365
0.361368855003
0.314030705644
0.361366903573
0.314028988689
0.361364989466
0.314027377501
0.361363154197
0.314025326341
0.361355625123
0.314024997785
0.361365752307
0.3140225209
0.361351870643
0.314022340915
0.361362118459
0.314020114549
0.361349527523
0.314020051881
0.361359665311
0.314017944064
0.361347080221
0.314018020709
0.361357546153
0.314015946042
0.361344186307
0.314015622741
0.361349367251
0.314015327528
0.361354302238
0.313992957662
0.361329809763
0.313991581477
0.361314987769
0.313992811839
0.361328357673
0.313991741494
0.361316870839
0.313992270086
0.361322650668
0.313992263691
0.36132266868
0.313992246611
0.361322584294
0.313992233049
0.361322538969
0.313992222927
0.361322525869
0.313992214591
0.361322521471
0.31399220472
0.361322501878
0.313992199995
0.36132254233
0.313992193807
0.361322554018
0.313992175626
0.361322415259
0.313992164469
0.361322359654
0.313992176236
0.361322588962
0.313992180689
0.361322748673
0.313992150261
0.361322502528
0.313992117
0.361322209633
0.313992112781
0.361322241067
0.313992643371
0.361328053625
0.3139915645
0.361316525784
0.313992794534
0.361329913719
0.313991434285
0.361315258371
0.313992726412
0.361329294064
0.313991433015
0.361315375715
0.313992702645
0.361329150857
0.313991355734
0.361314634599
0.313992603882
0.361328243045
0.313991744959
0.361319056259
0.313992429866
0.361326438993
0.313991430381
0.361315654725
0.314013279249
0.361339951993
0.314013871054
0.361353736913
0.314011861721
0.361339004488
0.314012458655
0.361352120735
0.314010450207
0.361336730537
0.314011063765
0.361349481981
0.314009925805
0.361342952275
0.314008808955
0.361336482903
0.314009508241
0.361349299197
0.314007618817
0.361333875517
0.314008541634
0.36134871604
0.314007294126
0.361339740859
0.314006057374
0.361330840123
0.314007064207
0.361345999477
0.314005350393
0.361331511155
0.31400623411
0.361344939957
0.314004500047
0.361329903518
0.314005374836
0.361343011208
0.314003943944
0.36133101761
0.314004645504
0.361341890229
0.31400321124
0.361329601089
0.314004062298
0.361341909026
0.31400278945
0.361331062819
0.314003249437
0.361338867462
0.314002185688
0.361330130797
0.314002700034
0.361338304332
0.314001481952
0.361327699982
0.314002391671
0.361340053909
0.314001031841
0.361327738429
0.314001306439
0.361333006677
0.314001601244
0.361338380372
0.314000274768
0.361326222735
0.313992509493
0.361327419765
0.313991570271
0.361317408018
0.313992732494
0.361330036162
0.313991362207
0.361315246374
0.313992706754
0.36132986976
0.31399146162
0.361316459664
0.313992528008
0.361328022016
0.313991987985
0.361322251573
0.313991458288
0.361316607768
0.313992534755
0.361328273296
0.313991282367
0.361314785324
0.31399260783
0.361329178572
0.313991299348
0.361315092084
0.313992602716
0.361329259487
0.313991268404
0.361314889426
0.313992497292
0.361328248799
0.313991402783
0.361316488009
0.31399191449
0.361322062279
0.313991931929
0.361322311346
0.313991936701
0.361322427204
0.313991913407
0.361322230821
0.313992408989
0.361327624199
0.313991305129
0.361315769227
0.313992471363
0.361328465615
0.313991507617
0.361318076297
0.313992199408
0.361325558065
0.31399118625
0.361314661399
0.313991906515
0.361322581985
0.313992700864
0.361331234368
0.313991379443
0.361316942392
0.31399240692
0.3613280849
0.313991288265
0.361316031881
0.314001196758
0.361338298893
0.313999946647
0.361326827445
0.31400089285
0.36133898928
0.31399934677
0.361324155222
0.314000613789
0.36133972866
0.313999663012
0.361331116239
0.313998704362
0.361322457679
0.313999972221
0.361337836236
0.31399851622
0.361323693312
0.313999642328
0.361337426679
0.313998128843
0.36132255576
0.313999215023
0.361335808593
0.313997998556
0.361324112123
0.313998383444
0.361329663649
0.313998257899
0.36132964718
0.313998134544
0.361329613439
0.313997993019
0.361329349202
0.313997854725
0.361329093748
0.313997727483
0.361328929484
0.313997603779
0.361328768509
0.313997481217
0.361328587467
0.313997359836
0.361328392255
0.313997246281
0.361328258565
0.313997669539
0.361333877217
0.313996494276
0.36132225564
0.313997632165
0.361335538643
0.313996168447
0.361320641173
0.313997427073
0.361335218487
0.313996092608
0.361321691688
0.313996540079
0.361327457886
0.313997055569
0.361333928346
0.313995841187
0.361321657791
0.313992227103
0.361326234649
0.313991424051
0.361317630523
0.313992253611
0.361326643525
0.313991409432
0.361317560412
0.313992238853
0.36132658287
0.313991424722
0.36131785145
0.313992181185
0.361326036456
0.313991207778
0.361315522191
0.313992282667
0.36132720266
0.31399133957
0.361317114226
0.31399251119
0.361329824352
0.313991149131
0.361315102918
0.313992478149
0.361329527456
0.313991216271
0.361315916186
0.313992299737
0.361327658681
0.313991786153
0.361322162744
0.313991788
0.361322210765
0.313991781733
0.361322165549
0.313991769382
0.361322059292
0.313991757799
0.361321969852
0.313991754311
0.361321972976
0.313991749905
0.361321972833
0.313991750279
0.361322025529
0.313991751573
0.361322083058
0.313991750353
0.361322107403
0.313991746447
0.361322098584
0.313991218961
0.361316453866
0.31399233238
0.361328518403
0.313991135556
0.361315579095
0.313992082518
0.361325866272
0.313991313594
0.36131764062
0.313992122766
0.361326433352
0.31399130935
0.361317688205
0.313992197611
0.361327308271
0.313991005012
0.361314486811
0.31399242931
0.361329979812
0.313991158758
0.36131621906
0.313992022443
0.361325542819
0.313991249196
0.361317250715
0.313992111004
0.361326613317
0.313991335368
0.361318275906
0.313992204477
0.361327636916
0.313990955703
0.361314132314
0.313992291963
0.361328639145
0.313990990969
0.361314632345
0.313992334449
0.36132922662
0.313991160247
0.361316568654
0.313992187896
0.361327673984
0.313991118382
0.361316127775
0.313992144139
0.361327211613
0.313990968484
0.361314546513
0.313992317838
0.361329183453
0.313990945114
0.361314341026
0.313992105351
0.361326923633
0.313991175691
0.361316984475
0.313992314947
0.361329328417
0.313990819049
0.36131311377
0.313991629382
0.361321972245
0.313992420558
0.361330583694
0.313990969694
0.361314875125
0.313992295283
0.361329263435
0.313991081691
0.36131616
0.313991967927
0.361325747321
0.313991177283
0.361317255576
0.313992001663
0.361326199196
0.31399119319
0.361317509822
0.31399213675
0.361327731461
0.313991030511
0.361315787155
0.313992097274
0.361327327785
0.313990927183
0.361314709873
0.313992283977
0.36132940923
0.313990953986
0.36131505237
0.313992371653
0.361330443026
0.313991599231
0.361322077409
0.313990921181
0.361314720884
0.313992087159
0.361327365412
0.313991068514
0.361316386022
0.313992088811
0.361327420166
0.313991018164
0.361315852693
0.313992003945
0.361326498632
0.313990700847
0.361312431679
0.313991586788
0.36132218373
0.313992388737
0.361330946319
0.313990928843
0.361315115361
0.313992235263
0.361329244331
0.313991073218
0.361316684166
0.313996766107
0.361332448422
0.313995496737
0.361319540079
0.313996751768
0.361333924664
0.313995384944
0.361319924271
0.313996602662
0.361333817485
0.313995250714
0.361319915094
0.313996474455
0.361333840706
0.313995045466
0.361319056251
0.313996210511
0.361332374451
0.313995073981
0.361320807459
0.313995533828
0.361326456803
0.313995470029
0.361326413714
0.313995403245
0.361326317231
0.313995340522
0.361326259465
0.313995266225
0.361326075624
0.313995717045
0.361331530052
0.313994573201
0.361319787104
0.313995754642
0.361333116051
0.313994354677
0.361318514116
0.313995607406
0.361332598982
0.313994277363
0.361318736256
0.313995661823
0.361334233952
0.313994834558
0.361325706425
0.313994003609
0.361317222564
0.313995382698
0.36133266057
0.31399395904
0.361317707748
0.313995140856
0.361330974309
0.313994034644
0.361319514384
0.313994528017
0.361325311144
0.313994491343
0.361325365622
0.313994980263
0.361331064626
0.31399386182
0.361319424923
0.31399504332
0.361332576186
0.313993633008
0.361317694751
0.313994888746
0.361331680538
0.313993511306
0.361317169209
0.313994633908
0.361329708244
0.313993638255
0.361319381335
0.31399468276
0.361331085544
0.313993675625
0.361320549358
0.313994403882
0.361328764771
0.313993609385
0.361320556039
0.313994535434
0.361330881326
0.313993317926
0.361317995575
0.313993887368
0.361324494154
0.31399440711
0.361330400847
0.313993115267
0.361316747711
0.313994421433
0.361331194887
0.313993111584
0.361317349014
0.313994395576
0.361331540831
0.313992930337
0.361315959277
0.313993665453
0.361324264283
0.313994406203
0.361332583463
0.313992946303
0.361317078149
0.313994196488
0.361330877713
0.313992735208
0.361315286517
0.31399346027
0.361323421462
0.313994156658
0.361331240257
0.3139929847
0.361318807684
0.313993984749
0.361329846238
0.313992865054
0.361317970698
0.31399396442
0.361330118777
0.313992835195
0.361318173338
0.313993863319
0.361329515607
0.313992757512
0.361317850752
0.313993981638
0.361331336772
0.313992617581
0.361316822621
0.313993861453
0.361330493734
0.313992399503
0.361314849054
0.313993186488
0.361323646844
0.313994009268
0.361332787174
0.313992507006
0.361316683686
0.313993638017
0.36132910519
0.313992613521
0.361318265656
0.313993748098
0.361330699129
0.313992393232
0.361316252086
0.31399383137
0.361332074473
0.313993013275
0.36132335409
0.313992189401
0.361314606299
0.313993608044
0.361330171359
0.31399230557
0.361316282512
0.313993648743
0.361331013688
0.31399242192
0.361317912114
0.313993242348
0.361326888693
0.313992293726
0.361316792869
0.313993447227
0.361329461414
0.313992335245
0.361317618885
0.313992847583
0.3613233212
0.313992827481
0.36132326952
0.313992809843
0.361323246571
0.313992792509
0.361323224994
0.313992774393
0.361323188895
0.313993282368
0.361328808591
0.313992197866
0.361317272591
0.31399343041
0.361330746815
0.313992044163
0.361315885814
0.31399333852
0.361330050472
0.313992040113
0.361316197686
0.313993348311
0.361330478153
0.313991963505
0.361315598469
0.313993123217
0.361328259247
0.31399212983
0.36131770695
0.313993303614
0.361330515486
0.313991931034
0.361315787378
0.313993274732
0.361330481374
0.313992008496
0.361316916355
0.313993067462
0.36132847614
0.31399253696
0.361322865473
0.313992007103
0.361317257117
0.313993105058
0.361329208449
0.313991959421
0.361316923496
0.313993012342
0.361328448184
0.313991952079
0.361317140453
0.313993000033
0.361328609426
0.313991922551
0.361317086435
0.31399297158
0.361328515257
0.31399190013
0.361317017334
0.313992974343
0.361328717553
0.313991847763
0.361316616919
0.313992790374
0.361326926268
0.313991991834
0.361318451755
0.313992816894
0.361327493633
0.313992021066
0.361319015504
0.313992953669
0.361329172341
0.313991740754
0.36131610061
0.313992311188
0.361322384087
0.313992859619
0.361328424596
0.313991616634
0.361315148793
0.313992026246
0.361326965934
0.313990974604
0.361315632976
0.313992043893
0.361327250565
0.313990996863
0.361315972689
0.313992023627
0.361327064981
0.31399087286
0.361314659623
0.313992360431
0.36133082017
0.313991528156
0.361321760319
0.313990710869
0.361312911213
0.313992136324
0.361328407947
0.313990839083
0.361314418919
0.313992149066
0.361328608163
0.313990866549
0.361314794466
0.313992174789
0.361328948678
0.313990801024
0.361314076802
0.313992027811
0.361327396944
0.313991156507
0.361318046513
0.313991880425
0.361325837048
0.313990918376
0.361315435956
0.313991996115
0.361327112528
0.31399092817
0.361315589696
0.31399205991
0.361327859
0.313990957806
0.361315957274
0.313992025481
0.361327472109
0.313990969982
0.361316108404
0.31399219859
0.361329412166
0.313990826823
0.361314586757
0.313992097621
0.361328351114
0.313990678945
0.361313000736
0.313991490554
0.361321862064
0.313992282694
0.361330473572
0.313990831129
0.361314744316
0.313992127606
0.361328789133
0.313990795521
0.361314403886
0.313991997138
0.361327404806
0.313991060623
0.361317280328
0.313991831482
0.36132560431
0.313991103082
0.361317807706
0.313992061645
0.361328209711
0.313990964547
0.361316336746
0.313991961041
0.361327116339
0.313990859728
0.361315230367
0.313991808224
0.361325525478
0.313991012613
0.361316963003
0.313991848377
0.361326004291
0.313991049736
0.36131739236
0.313991827133
0.361325778664
0.313990866073
0.361315388628
0.313992026761
0.361327993113
0.313990911084
0.361315965913
0.313991426181
0.361321537568
0.313991946692
0.361327159262
0.313990893882
0.36131582751
0.313992143431
0.3613293344
0.313990757083
0.361314295548
0.313992063953
0.361328436805
0.313990785078
0.361314681757
0.31399212228
0.361329178156
0.313990753555
0.361314369082
0.313991952373
0.361327342463
0.313991031173
0.361317408825
0.313991829993
0.36132605635
0.313991104546
0.361318292483
0.313992131001
0.361329400596
0.313991346191
0.361320784755
0.313990588946
0.36131257486
0.313992055837
0.361328530923
0.313990738136
0.361314310935
0.313991953822
0.36132747379
0.313990850957
0.361315581554
0.313991381524
0.361321332418
0.313991397985
0.361321543924
0.313991400581
0.361321599801
0.313991929607
0.361327321157
0.313990859053
0.361315791749
0.313992097343
0.361329172066
0.313990750942
0.361314580827
0.313992058668
0.361328726286
0.313990717345
0.361314213594
0.313991952115
0.361327585718
0.313991392921
0.361321568773
0.31399083745
0.361315612252
0.313992085111
0.361329132366
0.313990736776
0.361314560662
0.31399202543
0.361328521898
0.313990690663
0.361314096773
0.3139916333
0.361324111789
0.313988420712
0.361286566632
0.313959111418
0.361108601893
0.313938079504
0.360855659203
0.313683835282
0.359449137624
0.313588128825
0.358351683028
0.312465803941
0.353213383814
0.312716763666
0.352559721978
0.309762142419
0.341907146953
0.312446246927
0.34918902305
0.3095565692
0.340309385617
0.314934939222
0.366505803236
0.314745011302
0.37379959275
0.259865394289
0.26952603199
0.278521898737
0.277637403472
0.277637799331
0.274636933605
0.273070355306
0.271320643908
0.270433005857
0.26988172995
0.269672117142
0.269591237662
0.26956434529
0.269553772598
0.269563080692
0.269555161661
0.269563919549
0.269559547343
0.269555124257
0.269564053631
0.269556593508
0.269562456492
0.26955622258
0.269562469644
0.269556368886
0.269563641537
0.269554981169
0.269561997423
0.269555135188
0.269563519765
0.269555692307
0.269563715975
0.26955544496
0.269563366048
0.269554442424
0.269559682687
0.269565491089
0.269553968223
0.269563595279
0.269556996966
0.269562754493
0.26955611513
0.269562163282
0.26955614888
0.269562756286
0.269556520583
0.269562708677
0.269556164364
0.269561924037
0.269553985412
0.269559981501
0.269565898707
0.269554612195
0.269564754142
0.269555143859
0.269563507542
0.269555545356
0.269564044344
0.26955499183
0.269562374278
0.269556442032
0.269562483033
0.269556624573
0.269564033216
0.269555609068
0.269562939907
0.269553967827
0.269564352151
0.269554436792
0.269564934872
0.269555342751
0.269563512336
0.26955940143
0.269559337682
0.269559342479
0.269559459596
0.269559564356
0.269559546673
0.269555449255
0.269563680928
0.269554104
0.269564517807
0.269554503885
0.269564581065
0.269554250905
0.269563335625
0.269555627719
0.269564672119
0.269554316419
0.269564428376
0.269554382911
0.269564785782
0.269555249066
0.26955949222
0.269563967341
0.26955495097
0.269562339343
0.269556421335
0.269562224066
0.269555371137
0.269564834684
0.269554353005
0.269564734927
0.269555868048
0.269563294007
0.269557129391
0.269585449383
0.269663152395
0.269853416125
0.270410129911
0.271227064055
0.273066420083
0.274484485726
0.277730987562
0.277532491776
0.278770322589
0.269624176611
0.260220337292
0.314894463263
0.374716676392
0.31492282178
0.366322221936
0.309864154456
0.341199620132
0.312288126545
0.348527108512
0.309960773531
0.342425137836
0.312554588844
0.351928810097
0.312533648972
0.353393115262
0.313519414759
0.358033966861
0.313695414835
0.359465892233
0.313921284872
0.360768774096
0.313959657635
0.361102218547
0.313986568174
0.361275771194
0.313991615854
0.361322588796
0.313990743051
0.361313348754
0.313992162306
0.361328780599
0.313991006091
0.361316332369
0.313992002854
0.361327087973
0.313990828257
0.361314417004
0.313992172618
0.361328981785
0.313990722369
0.361313284307
0.313991499655
0.361321764837
0.31399226826
0.361330109639
0.313990818409
0.36131441589
0.313992195074
0.361329378129
0.313990972566
0.361316192265
0.313992028106
0.361327580103
0.313991478652
0.36132164349
0.31399148572
0.361321727731
0.313990970393
0.361316189197
0.313992083811
0.361328217227
0.313990898509
0.361315377573
0.313991805979
0.361325207616
0.313990926164
0.361315774197
0.313992028935
0.361327745459
0.313990969629
0.361316335598
0.313992128612
0.361328866794
0.313990774642
0.361314236572
0.31399215982
0.361329270646
0.313990921587
0.361315882809
0.313991458587
0.361321680342
0.313992005043
0.36132757468
0.313990752749
0.36131405025
0.313992092837
0.361328570554
0.31399078921
0.36131449288
0.31399214843
0.361329245649
0.313990915985
0.361315939559
0.313991990327
0.361327537817
0.313991456664
0.361321781113
0.313991449733
0.361321714751
0.313991444654
0.361321674988
0.313991442493
0.361321666046
0.31399144104
0.361321662792
0.313991444021
0.361321705204
0.313990919281
0.361316059366
0.313992023841
0.36132799115
0.313990888373
0.361315718022
0.313991970619
0.361327453709
0.313990864352
0.361315505411
0.313991810233
0.361325757576
0.313991013787
0.361317207343
0.313991828787
0.361326039509
0.313991063997
0.361317811532
0.313992007147
0.361328013793
0.313990905489
0.361316073147
0.313991859621
0.361326361893
0.313990745661
0.361314389622
0.313992258381
0.361330852955
0.313991403838
0.361321515436
0.31399041939
0.361310760507
0.313991359399
0.361321070765
0.313992259289
0.361330916993
0.313990935413
0.361316574725
0.31399192908
0.36132729564
0.3139908806
0.361315988944
0.313991957554
0.361327655804
0.313990831105
0.361315461139
0.313991932587
0.361327350248
0.313990875577
0.361315948674
0.313991944475
0.361327476315
0.313990703495
0.361314075887
0.313992032179
0.361328474068
0.313990583551
0.361312786991
0.313991393547
0.361321653916
0.31399225473
0.36133106179
0.313990840049
0.361315661269
0.313991303949
0.361320388975
0.313986359218
0.361274673152
0.313959541879
0.361102018912
0.313921207789
0.3607687965
0.313695491171
0.359466092761
0.313519607682
0.358034262973
0.31253413693
0.353393153613
0.312554765462
0.351927224014
0.309959110294
0.34241965169
0.312283905423
0.348518388556
0.309853614054
0.341184384032
0.314918579977
0.366316840412
0.314902181111
0.374727852154
0.270106163587
0.306096695111
0.299696229513
0.368013171533
0.310716234392
0.387300683244
0.314574202821
0.383534325595
0.315601529794
0.380905473419
0.315195623206
0.37211811774
0.315012323317
0.369017003182
0.314377360684
0.364451180024
0.314236168166
0.363080057418
0.314027019597
0.361789417251
0.313989581366
0.361456303364
0.313962716828
0.361282810262
0.313957773105
0.361237258278
0.313958423867
0.36124404289
0.313957702402
0.361236243952
0.313957037495
0.361229076148
0.313958203387
0.361241611275
0.313957154351
0.361230341727
0.313958211127
0.361241645932
0.313956976988
0.361228368108
0.313958224878
0.361241764173
0.31395720858
0.361230883805
0.313958393402
0.361243597927
0.313957035335
0.361229019717
0.313958358898
0.361243253464
0.313957063442
0.36122936207
0.313958357807
0.36124324714
0.313956994222
0.361228560604
0.313958245549
0.361241978467
0.313957169395
0.361230449007
0.313957705093
0.361236196865
0.313957704272
0.361236196539
0.313957698809
0.361236133913
0.313958225142
0.361241766322
0.313957152024
0.361230285125
0.31395840793
0.361243787517
0.313957041644
0.361229098442
0.313958333884
0.36124297229
0.313957042171
0.361229119597
0.31395841189
0.36124385305
0.313957242292
0.361231280723
0.31395817845
0.361241244939
0.313957008228
0.361228667292
0.313958372686
0.361243326879
0.313957070093
0.361229336728
0.313958395231
0.361243569556
0.313957072022
0.361229373563
0.313958368567
0.361243272601
0.313957042505
0.36122904483
0.31395836398
0.361243250451
0.313957066732
0.361229330691
0.313958357065
0.361243169911
0.313957051658
0.361229156671
0.313958348096
0.361243073939
0.313957060401
0.361229256476
0.31395852007
0.3612449542
0.31395772461
0.36123634684
0.313956938322
0.361227859531
0.313958388139
0.361243481744
0.313957020233
0.361228787197
0.313958256771
0.361242080013
0.313957168896
0.361230443401
0.313957699481
0.36123613634
0.313958231751
0.361241848035
0.313957154994
0.361230337224
0.313958405372
0.361243774625
0.313957032127
0.361228997264
0.313958480092
0.361244576224
0.313957698816
0.361236146979
0.313956912775
0.361227664048
0.313958358443
0.361243219152
0.313957058837
0.361229267462
0.313958353241
0.361243165564
0.31395705923
0.361229291549
0.313958354775
0.361243199424
0.313957053048
0.361229220169
0.313958406234
0.361243765811
0.313957151248
0.361230284724
0.313958228797
0.361241832186
0.313957692086
0.361236097788
0.313957691223
0.361236095832
0.313957690633
0.361236088186
0.313957696876
0.361236145979
0.313957168179
0.361230466421
0.313958252963
0.361242067843
0.313957021142
0.361228856079
0.313958489269
0.361244695356
0.313957315943
0.361231871112
0.313954545124
0.361199242504
0.313925169829
0.361022808145
0.313904017555
0.360770203195
0.313648035674
0.359363194987
0.313551700441
0.358266134908
0.312423104458
0.353126560683
0.312675714979
0.352475547368
0.309709452707
0.341821468308
0.312407199939
0.349110445127
0.309507158306
0.340229072803
0.314913846552
0.366431189924
0.314717462565
0.373708640272
0.313992840734
0.361328412879
0.313991765942
0.361316909168
0.313992288675
0.361322663648
0.313992286769
0.361322754914
0.313992271844
0.361322686329
0.313992253173
0.361322563655
0.313992241187
0.361322526063
0.313992770578
0.361328342702
0.313991698395
0.361316903703
0.313992907327
0.361330059949
0.313991517362
0.361315084495
0.313992870647
0.361329834763
0.313991635196
0.361316541641
0.313992704502
0.361328126561
0.313991641629
0.361316716992
0.313992707897
0.361328284468
0.31399146669
0.361314983535
0.313992820012
0.361329757561
0.313991443008
0.361314928767
0.313992661695
0.361328190163
0.31399158123
0.361316608675
0.313992101556
0.361322294966
0.313992629598
0.361328055211
0.313991559207
0.361316597934
0.313992799754
0.361330082481
0.313991428595
0.361315291918
0.313992704906
0.361329142858
0.313991436589
0.361315520867
0.313992882914
0.361331291791
0.313992077426
0.36132257092
0.313991241642
0.36131353685
0.313992715347
0.361329593979
0.313991489132
0.361316393145
0.313992561436
0.361328027015
0.313991508431
0.361316740495
0.313992577231
0.361328330531
0.313991327574
0.361314906012
0.313992671404
0.361329541099
0.313991290757
0.361314644402
0.313992517522
0.361327979183
0.313991974938
0.36132219718
0.313991398582
0.361316051166
0.313992521565
0.361328258631
0.31399149604
0.361317239997
0.313992805403
0.361331488879
0.313991944197
0.361322139012
0.313991127553
0.361313317343
0.31399260794
0.361329446205
0.313991387442
0.361316297232
0.313992457461
0.361327894154
0.3139919169
0.361322130994
0.313991911691
0.361322156003
0.313991376288
0.361316467201
0.313992453984
0.361328147219
0.313991207048
0.361314716324
0.313992552066
0.361329318439
0.313991174024
0.361314425962
0.313992408138
0.361327836888
0.31399133649
0.361316357411
0.313991866142
0.361322141939
0.313992385207
0.361327789529
0.313991278576
0.36131590267
0.313992433967
0.361328471684
0.31399151142
0.361318527422
0.313992384491
0.36132797559
0.313991225327
0.361315476039
0.313992356343
0.361327763812
0.313991832905
0.361322163487
0.313991817369
0.361322030323
0.313991801724
0.361321900158
0.313991786027
0.361321787322
0.313991788253
0.361321884169
0.313991263407
0.361316293156
0.313992370198
0.36132827583
0.313991237707
0.36131603843
0.313992324045
0.361327825391
0.313991233548
0.361316071039
0.313992104641
0.361325512198
0.313991104383
0.361314769728
0.313991812407
0.361322558925
0.313992539626
0.361330449093
0.313991031951
0.361314113392
0.313992278723
0.361327691278
0.313991443127
0.361318761486
0.313992260432
0.361327549013
0.313991024705
0.361314208039
0.313992526914
0.361330587809
0.313991725849
0.36132190536
0.313990899937
0.361312945854
0.313992386262
0.361329104474
0.313991170903
0.361315986185
0.313992241973
0.361327567097
0.313991714611
0.361321909554
0.313991708808
0.361321879017
0.313991710656
0.361321930568
0.313991715501
0.361322016031
0.313991718491
0.361322079244
0.313991712009
0.361322044469
0.313991705823
0.361322021227
0.313991694097
0.361321942901
0.313991678871
0.361321827019
0.31399166437
0.361321713794
0.313991134574
0.361316053385
0.31399221819
0.361327782475
0.313990976947
0.361314400974
0.313992309219
0.361328845536
0.313990990235
0.361314604267
0.313992275088
0.361328532011
0.313990999473
0.361314804783
0.313992297849
0.361328879431
0.313991006893
0.361314943905
0.313992290901
0.361328829866
0.31399093796
0.361314194649
0.313992099282
0.361326787951
0.313991168825
0.361316837245
0.313992325453
0.361329379115
0.313990965917
0.361314692197
0.313992256164
0.361328659323
0.313990944541
0.361314489981
0.313992260564
0.361328732084
0.313990973599
0.361314868527
0.313992310765
0.361329347339
0.313990947401
0.361314593368
0.313992123953
0.361327321824
0.313991125012
0.361316582907
0.313992289568
0.361329178957
0.313990883275
0.361313975735
0.313992135065
0.361327603915
0.313991228985
0.361317876354
0.313991941186
0.361325542025
0.313991051341
0.36131597558
0.313992296601
0.361329470831
0.313990897835
0.361314308976
0.313992142249
0.361327793824
0.313991077221
0.36131634076
0.313992122699
0.361327636848
0.313991023245
0.361315793717
0.313992224051
0.361328858088
0.313991655481
0.361322979955
0.313996545676
0.361368380561
0.314023206163
0.361541770014
0.314060359298
0.36187490605
0.314267818856
0.363164579115
0.314407110508
0.364531255511
0.31503445056
0.369080425512
0.315212418712
0.372157674608
0.315606975909
0.380925939792
0.31457506553
0.383564900731
0.310699190989
0.38735444921
0.299695467197
0.368102681795
0.270031167086
0.306003373804
0.30761068515
0.330787808096
0.31263127935
0.352724285122
0.313636318344
0.358859323732
0.313909811674
0.36073697799
0.313980015306
0.36124268896
0.313991833149
0.361321259424
0.31399214038
0.36131667813
0.313993498927
0.361330250044
0.313992161749
0.361315800364
0.313993523954
0.361330711221
0.313992270837
0.361317298883
0.313993331097
0.361328882956
0.313992262519
0.361317513571
0.313993318871
0.361329053489
0.313992051542
0.361315523867
0.313993383873
0.361330110806
0.3139920739
0.361316097701
0.313993416241
0.361330773785
0.31399216356
0.361317343543
0.313993220834
0.361328879423
0.313992139611
0.361317350102
0.313993211274
0.361329056768
0.31399205166
0.361316668341
0.313993126664
0.361328473877
0.313992105146
0.361317601687
0.313993162817
0.361329151958
0.313992005849
0.361316711252
0.313993094846
0.361328578757
0.313992580094
0.361323160245
0.313992584003
0.361323344088
0.313992548465
0.361323078046
0.31399197632
0.361317021955
0.313993027909
0.361328482162
0.31399177731
0.361315117206
0.313993171284
0.361330382397
0.313991927239
0.361317023001
0.313992827285
0.361326862842
0.313992097706
0.36131914728
0.313992961314
0.361328522018
0.313991690986
0.361314842088
0.313993101569
0.361330244546
0.313991952789
0.361317939287
0.313992889249
0.361328136222
0.313991783276
0.361316279066
0.313992736093
0.361326724302
0.31399201458
0.361319080518
0.313992876436
0.361328446466
0.313991638044
0.361315150041
0.313992975138
0.361329730161
0.313991609111
0.361315014302
0.32292992717
0.357597697437
0.307453734814
0.323557384754
0.322817433403
0.357480304307
0.307542180299
0.323708869698
0.321336312623
0.376058447708
0.309486637997
0.347060377605
0.315396348811
0.352984184664
0.3155706471
0.340943323437
0.325339525194
0.400173394765
0.323923177897
0.370203827105
0.308267616179
0.33240964558
0.322845749057
0.357510045092
0.30751991925
0.323670843602
0.315389085992
0.352978455744
0.321351788023
0.376074229081
0.309467768841
0.347029709129
0.323944838923
0.370226070986
0.308249150761
0.332373438331
0.32283808577
0.357496749617
0.307526165434
0.323676788938
0.321359666265