/*--------------------------------*- C++ -*----------------------------------*\
| =========                 |                                                 |
| \\      /  F ield         | OpenFOAM: The Open Source CFD Toolbox           |
|  \\    /   O peration     | Version:  2112                                  |
|   \\  /    A nd           | Website:  www.openfoam.com                      |
|    \\/     M anipulation  |                                                 |
\*---------------------------------------------------------------------------*/
FoamFile
{
    version     2.0;
    format      ascii;
    arch        "LSB;label=32;scalar=64";
    class       volScalarField;
    location    "0";
    object      cellVolumeRatio;
}
// * * * * * * * * * * * * * * * * * * * * * * * * * * * * * * * * * * * * * //

dimensions      [0 0 0 0 0 0 0];

internalField   nonuniform List<scalar> 
52617
(
0.294436939285
0.304489414374
0.593035945898
0.458428185174
0.593035945898
0.472328687
0.748030011096
0.461538480963
0.748030011096
0.475520239224
0.855027554267
0.470896171379
0.855027554267
0.474616210802
0.897002744576
0.4719067932
0.897002744576
0.471973238805
0.910489304538
0.471159212511
0.913739474512
0.471120022487
0.920701346301
0.471041538797
0.926013447886
0.471047024395
0.931052414314
0.471031343944
0.935472962916
0.471053821996
0.939402247417
0.471030983149
0.942846045747
0.471045085661
0.945960920273
0.471047968317
0.948700903078
0.471037962305
0.951237781597
0.471047933213
0.953478650201
0.471042519226
0.955545279872
0.471036984288
0.957464987115
0.471046764573
0.95916750507
0.47103814007
0.960801072854
0.471048322149
0.962248403016
0.471037583131
0.96364269768
0.471042278608
0.964919720399
0.471039372555
0.966087659477
0.471044709584
0.967226145031
0.471047438311
0.968240189154
0.471036797243
0.969250165065
0.471048678413
0.970138076907
0.471042522306
0.971003015788
0.471036064097
0.971850366417
0.471047804391
0.972588950896
0.471037260656
0.973346390859
0.471039930262
0.974011597496
0.471045320524
0.974697330785
0.471039115759
0.975302118612
0.471042328862
0.975903289814
0.471042127792
0.976470293114
0.471042036588
0.977011489037
0.471042225835
0.977528257511
0.471042454103
0.978022059391
0.471042611759
0.978494645084
0.471042545704
0.97894058964
0.471045790507
0.979394950794
0.471039344829
0.979783427653
0.471044600007
0.980212080954
0.471039660409
0.980569865181
0.471045121894
0.980966008239
0.471039695013
0.981295289256
0.471045004896
0.981665040519
0.471039938889
0.981967306516
0.471045239945
0.982307989424
0.471042263647
0.982615517479
0.471047084933
0.996005905187
0.471046897971
0.996005905187
0.471036337655
0.996041529278
0.471046944751
0.996041529278
0.471045626909
0.996077270078
0.471042500365
0.996086099249
0.471042469344
0.996101352545
0.471042420148
0.996116589449
0.471042308331
0.996131595232
0.471042378207
0.996146434146
0.471042334546
0.996161220537
0.471042374803
0.996176033955
0.471042417318
0.996190458473
0.471042387427
0.996204531706
0.471042198536
0.99621905765
0.471042216616
0.99623397779
0.471042654446
0.996248156151
0.471042934259
0.996261461466
0.471042567796
0.996275142746
0.47104209455
0.996289462787
0.471042032842
0.996303590817
0.471039011058
0.996303590817
0.471037516982
0.996326030954
0.471048240142
0.996326030954
0.471038043132
0.996353625157
0.471046571081
0.996353625157
0.471038217308
0.996378884466
0.471046186688
0.996378884466
0.471035864067
0.99641163211
0.471040044022
0.99641163211
0.471054511036
0.996434256355
0.471031640415
0.996434256355
0.471051971138
0.982890139723
0.471036327791
0.983210570721
0.471046761281
0.983454522244
0.471038602759
0.983755929211
0.471046736655
0.983982500002
0.471036339365
0.984267929863
0.471047181138
0.984489619277
0.471042569816
0.984726306117
0.471037931928
0.984978353546
0.471048541283
0.98516736581
0.471037818426
0.985419834745
0.471047563333
0.985601307023
0.471042137266
0.985805468208
0.471036799125
0.986032842168
0.471046824578
0.986190263234
0.471038313212
0.986410648302
0.471046688509
0.986559725901
0.471036365468
0.986771141807
0.471047168044
0.986914856551
0.471045748648
0.987109732353
0.471039146865
0.987247185199
0.471045434654
0.987436633829
0.471032415824
0.987565056868
0.471053100336
0.987739331359
0.471032323227
0.987868985595
0.471051784934
0.988033666679
0.471031594405
0.988153384141
0.471052776318
0.988319439467
0.471039732444
0.988425278253
0.471045854089
0.988577714746
0.471042420045
0.988707051577
0.471039063124
0.988812949021
0.471045351217
0.99646148072
0.471039438943
0.99646148072
0.471037241244
0.996479385786
0.471048452571
0.996479385786
0.471037971231
0.996505747299
0.471048235165
0.996505747299
0.471037664163
0.996539025316
0.471039022976
0.996539025316
0.471042306744
0.996551074401
0.471045651537
0.996565005882
0.471047367763
0.996565005882
0.471036577704
0.996587637616
0.471046507822
0.996587637616
0.471037784882
0.996610218633
0.471046686994
0.996610218633
0.471036743233
0.996636108559
0.471047464276
0.996636108559
0.471045507965
0.99666752689
0.471042232639
0.996672564546
0.471042586202
0.996683472841
0.471042884911
0.996694005649
0.471042421246
0.996702025325
0.471038733153
0.996702025325
0.4710449422
0.996724840732
0.471032269872
0.996724840732
0.471053253126
0.996745515612
0.471030982151
0.996745515612
0.471052931014
0.996779083178
0.47103486032
0.996772236748
0.471049715708
0.996772236748
0.471037205893
0.9967958151
0.471039658592
0.9967958151
0.471053069569
0.988965126111
0.471040137468
0.989058074138
0.471037454933
0.989203830746
0.471047994842
0.989287464579
0.471037865879
0.989437054268
0.471047807395
0.989518453369
0.471042450549
0.989626723551
0.471036789508
0.989762124351
0.471046667454
0.989831106336
0.471038460686
0.989966135735
0.471046860871
0.990032195047
0.471036370268
0.990163807283
0.471047081757
0.990230639338
0.471045586014
0.990344760044
0.471042438163
0.990430728846
0.471042757181
0.990521388199
0.471042924437
0.990610128789
0.471042795014
0.990697555142
0.471042477716
0.990783453098
0.47104240707
0.990867609571
0.471042439475
0.990950210884
0.471042364138
0.991031382697
0.471042298485
0.991111230854
0.47104231241
0.991196309059
0.471039116135
0.991253253163
0.471037696355
0.991357901074
0.471048176817
0.991398356954
0.471037691531
0.991506897454
0.471048153648
0.991545253116
0.471037596206
0.991638736098
0.471042411422
0.991709439265
0.471039689405
0.991755189811
0.47104543077
0.996820472947
0.471030898285
0.996820472947
0.471051981996
0.99683955624
0.471032770729
0.99683955624
0.471051924355
0.996859955107
0.471032783081
0.996859955107
0.471052046726
0.996876668781
0.471031349923
0.996876668781
0.47105217121
0.996897390496
0.471039666576
0.996897390496
0.47103727055
0.996909904418
0.471048656934
0.996909904418
0.471038191416
0.996930305817
0.471048110875
0.996930305817
0.471037247024
0.996958765183
0.471038879362
0.996958765183
0.471042620552
0.996974211893
0.471042747011
0.996983173595
0.471042619395
0.996992232927
0.47104237732
0.99700133739
0.471042239025
0.997010478316
0.471042186838
0.997019439788
0.471042297781
0.997028377843
0.471042324872
0.997037157392
0.471042420623
0.997045806758
0.471042463399
0.997054441192
0.471042502856
0.997056549765
0.471045847602
0.997064536735
0.471039597785
0.997064536735
0.471052733371
0.997087922917
0.471030929648
0.997087922917
0.471051931623
0.997103694188
0.471033035889
0.997103694188
0.471053140825
0.997115580064
0.471039012398
0.997115580064
0.471036849319
0.997130059168
0.471049022437
0.997130059168
0.471045238171
0.997153552528
0.471030472231
0.997153552528
0.471051627808
0.997169342423
0.471033149925
0.997169342423
0.471054284578
0.997178445166
0.471039823498
0.997178445166
0.471035859642
0.99719416096
0.471046080203
0.99719416096
0.47103800251
0.997211103316
0.471048062985
0.997211103316
0.471037385891
0.997227481835
0.471039709543
0.997227481835
0.471044950787
0.997241516368
0.471047170362
0.997241516368
0.471036694759
0.997253519264
0.471046862593
0.997253519264
0.471036589092
0.997275239429
0.471047562463
0.997275239429
0.471037369391
0.997280945509
0.471048466945
0.997280945509
0.47103652789
0.997319259775
0.471042502902
0.997303420463
0.471048257175
0.997303420463
0.471037629915
0.997321234205
0.471048218024
0.997321234205
0.471045066279
0.9973411474
0.471030992998
0.9973411474
0.471051783023
0.997354833056
0.471032570882
0.997354833056
0.471053453362
0.997364422508
0.471031316502
0.997364422508
0.471044962161
0.997377430585
0.471047512982
0.997377430585
0.471037204437
0.997388833597
0.471046943752
0.997388833597
0.471038420283
0.997409127125
0.471047727428
0.997409127125
0.471034433115
0.997416642081
0.471044929073
0.997426177862
0.471039565872
0.997426177862
0.471045174371
0.997438283055
0.471040332212
0.997438283055
0.471044983942
0.997448278702
0.471047077286
0.997448278702
0.471034624477
0.997484460159
0.471042731876
0.997464761732
0.471048939471
0.997464761732
0.471038147887
0.997481767654
0.471048126553
0.997481767654
0.471036866143
0.991849265579
0.471047666677
0.991887516016
0.471036260235
0.99198521751
0.471046502832
0.992015427151
0.471037932207
0.992111153234
0.471046541999
0.992140247218
0.471038284301
0.992234231292
0.471046950042
0.992260200385
0.471036355425
0.992353173944
0.471046953025
0.992382339778
0.471045551701
0.992459652476
0.471042477552
0.992509441345
0.471042555206
0.992564989928
0.471042719051
0.992619977101
0.47104267371
0.992674011568
0.471042465756
0.992733879666
0.471038874716
0.99276630822
0.471037179456
0.992847467098
0.471047950086
0.992865101906
0.471037698886
0.992949636717
0.47104643081
0.992965997172
0.471038034808
0.993049884153
0.471048046629
0.99306901764
0.471042592017
0.993116817164
0.471037262033
0.993192876085
0.471047134279
0.993202348633
0.471036381984
0.993281841362
0.471046901781
0.993297964191
0.471045600871
0.993362420181
0.471042571667
0.993399575741
0.471042707605
0.993449411931
0.471039544268
0.993471824083
0.471037950105
0.993542950346
0.471048385784
0.993551087143
0.471037790644
0.993626937809
0.471046413325
0.993633551937
0.471036187248
0.993705825791
0.471047362282
0.993718778824
0.471044859898
0.993783826551
0.471032249047
0.993795606296
0.471053307295
0.993855774974
0.471032638016
0.993874383648
0.471053803618
0.993933095199
0.471032036045
0.993941876225
0.47104527876
0.994001677655
0.471042463785
0.994036731803
0.471047328335
0.994048943781
0.471036248191
0.994117614255
0.471046379375
0.994118551864
0.471038173187
0.994184114054
0.471047073
0.994184114054
0.471037242681
0.994246524846
0.471042448155
0.994279756392
0.471047900491
0.994283553947
0.471037989526
0.994347117825
0.471046707423
0.994347117825
0.471036360157
0.994407403116
0.471050053881
0.994438738542
0.471039755376
0.994444934602
0.47104561424
0.994503244689
0.471039863171
0.994506263837
0.471044681052
0.994564975018
0.471039285988
0.994566018921
0.471045605961
0.994622547879
0.471039055719
0.994624701176
0.47103752672
0.994677781747
0.47104846374
0.994677781747
0.471038381566
0.994731541614
0.471046650504
0.994731541614
0.471036254169
0.994788922131
0.471042459195
0.994812295264
0.471048629022
0.994812295264
0.471036976289
0.994872377991
0.471047654503
0.994872377991
0.471037528249
0.994919530672
0.471047919324
0.994919530672
0.471037721502
0.99497677086
0.471047969015
0.99497677086
0.471042222656
0.995001542595
0.471036456431
0.995045323357
0.471046622202
0.995045323357
0.4710383451
0.995094448886
0.471048426993
0.995094448886
0.471045628056
0.995143809914
0.471029456552
0.995145197905
0.471052187088
0.995189940194
0.471039294505
0.995189940194
0.471045681166
0.995233401418
0.471042448582
0.995249387252
0.471042458955
0.995271917578
0.471042427902
0.995294185863
0.47104247327
0.995316159715
0.471042430477
0.995344545873
0.471039129373
0.995346223114
0.471037666528
0.995384422338
0.471048385097
0.995384422338
0.471038015056
0.995428144559
0.471046251342
0.995428144559
0.471038664721
0.995467216754
0.471046751157
0.995467216754
0.471036446149
0.995513671125
0.471047047023
0.995513671125
0.47103745948
0.995547689546
0.471048297468
0.995547689546
0.471038196828
0.99558832584
0.471048201056
0.99558832584
0.471037423459
0.995636129316
0.471038855482
0.995636129316
0.471042246597
0.99565483823
0.471045633996
0.995684108265
0.471039465281
0.995684108265
0.471044706973
0.995722519882
0.471039705545
0.995722519882
0.471045007335
0.99575808399
0.471039760379
0.99575808399
0.471045091074
0.995793216664
0.471039636762
0.995793216664
0.471045015417
0.995827342204
0.471039582886
0.995827342204
0.471052996278
0.995866715719
0.471030987647
0.995866715719
0.471052212145
0.995900160431
0.471033147325
0.995900160431
0.4710540548
0.995927093315
0.471032005674
0.995927093315
0.471044873088
0.995967108688
0.471041854976
0.995976734961
0.471046987554
0.995976734961
0.471036790212
0.997495942939
0.47103965034
0.997495942939
0.471044537728
0.997508454495
0.47103962673
0.997508454495
0.471044960683
0.997519221977
0.471047320583
0.997519221977
0.471036715472
0.99753454743
0.471048562528
0.99753454743
0.471042517426
0.99754100555
0.471036360832
0.997547425879
0.471046616408
0.997547425879
0.471038070399
0.997559596905
0.471046233871
0.997559596905
0.471038587937
0.997569340564
0.471046631839
0.997569340564
0.471036172229
0.997588419226
0.471039683173
0.997588419226
0.471053956917
0.997597881712
0.471031353551
0.997597881712
0.471052501625
0.997608168827
0.471039516155
0.997608168827
0.471044558867
0.997618907181
0.471039232394
0.997618907181
0.471045515143
0.997630982572
0.471039395435
0.997630982572
0.471038136145
0.997637515575
0.471048656712
0.997637515575
0.471037884206
0.997647684259
0.471046468529
0.997647684259
0.471036600019
0.997682782234
0.471042690575
0.997663243921
0.471048348824
0.997663243921
0.471037770344
0.997676059042
0.471046343363
0.997676059042
0.471036634221
0.997691585635
0.471039561368
0.997691585635
0.471053096269
0.997705541498
0.471032601002
0.997705541498
0.471053581487
0.997710274241
0.471032618682
0.997710274241
0.471044949479
0.997720869668
0.471039830486
0.997720869668
0.471052738203
0.997735219765
0.471030841384
0.997735219765
0.471051661456
0.997745127602
0.471032521075
0.997745127602
0.471052083057
0.997752787328
0.471031647002
0.997752787328
0.471052707401
0.997761179841
0.471039580569
0.997761179841
0.471045684842
0.997786705653
0.471042070563
0.997776859256
0.471038873054
0.997776859256
0.471037659762
0.997781213526
0.471048574924
0.997781213526
0.471038079576
0.997793541683
0.471046061906
0.997793541683
0.471038595116
0.997801081425
0.471046785897
0.997801081425
0.471036743211
0.997816733083
0.471039488267
0.997816733083
0.471053282845
0.997829183511
0.471033053939
0.997829183511
0.471054483274
0.997835547333
0.47103228408
0.997835547333
0.471049642027
0.997841495959
0.471035935033
0.997844150988
0.471046960987
0.997844150988
0.471036743915
0.997856085151
0.471046947656
0.997856085151
0.471045014176
0.997879546958
0.471041883594
0.997879546958
0.471042260129
0.997883790792
0.471042426567
0.997879046487
0.471039216175
0.997879046487
0.471037772847
0.997883508708
0.471048480092
0.997883508708
0.471038237682
0.997892614687
0.471046719859
0.997892614687
0.471036590983
0.99791187396
0.471047255633
0.99791187396
0.47104229605
0.997916322473
0.471037465046
0.997914303636
0.471048234771
0.997914303636
0.471037993715
0.997923012808
0.471046626071
0.997923012808
0.471037638898
0.997906786569
0.471044038547
0.997042167697
0.471034065915
0.997042167697
0.471134257969
0.990113756019
0.471086765006
0.990113756019
0.472137347275
0.969086168944
0.471761662912
0.969086168944
0.475513745722
0.942145327179
0.471099821756
0.922378806127
0.477837896947
0.922378806127
0.462050388767
0.846351395539
0.473954057937
0.846351395539
0.456701070737
0.910120921753
0.47853191008
0.461997554738
0.875413830085
0.875413830085
0.916047185445
0.948668864195
0.943357413428
0.955858139407
0.945767121777
0.946527270506
0.943889457902
0.943997041444
0.943765388046
0.94379075112
0.943827974166
0.943789073059
0.943806905043
0.943803306102
0.943804195138
0.943805484834
0.94381771013
0.943787848031
0.943819802889
0.943791236661
0.943819614553
0.94378810588
0.943819577182
0.94379188213
0.943826851495
0.943790421828
0.943802702022
0.943805226889
0.943802895112
0.943805947094
0.943804136122
0.943807335734
0.9438198705
0.943784267528
0.943826142933
0.943803296768
0.943784936469
0.94381754408
0.943792238656
0.943820673101
0.943792100354
0.943817801692
0.943789800681
0.943818740809
0.94379138363
0.943824592109
0.943793197877
0.94381897855
0.943782344294
0.943821600763
0.94378544004
0.943822030655
0.943805271107
0.943804007055
0.943802991098
0.94379165024
0.94382229212
0.943790775796
0.94381980016
0.943787481757
0.943817517757
0.943805682924
0.943789202339
0.943826284891
0.94378975417
0.943821791265
0.943784094923
0.943820831118
0.943805356815
0.943805600537
0.943805993159
0.943805895129
0.943805103576
0.943804380904
0.943804392253
0.943804493212
0.943788518963
0.943825071195
0.943788124827
0.943821325991
0.943788591789
0.94382474934
0.943789017488
0.943821070897
0.943785457085
0.943821503364
0.943788764652
0.943822151734
0.943785280698
0.943821725139
0.943805125819
0.943803701816
0.943791902207
0.943822264813
0.943790525937
0.943823458591
0.943805928569
0.943784071282
0.943821795828
0.943784782334
0.943820995661
0.943787757669
0.943815378164
0.943741495029
0.944051974082
0.943606240162
0.946922982919
0.944646011631
0.957239756605
0.940927450195
0.941990186326
0.912839943638
0.869281767466
0.869281767466
0.46073092016
0.45552693706
0.467002798737
0.850827843421
0.457473724815
0.850827843421
0.473097130264
0.927100785984
0.462947127757
0.927100785984
0.477089106889
0.954685568593
0.471780979757
0.977481617476
0.475128415245
0.977481617476
0.472082884799
0.995596277296
0.472038026618
0.995596277296
0.47117008537
0.998380794602
0.471122937192
0.997685987452
0.471043790364
0.997578113812
0.47104393161
0.997578113812
0.47103738831
0.997584547477
0.4710476006
0.997584547477
0.471037112139
0.997595434685
0.471047250088
0.997595434685
0.471036598833
0.997602808094
0.471046717392
0.997602808094
0.471036788423
0.997638033626
0.471042295657
0.997619637628
0.471047534098
0.997619637628
0.471037598616
0.997634291072
0.471048433592
0.997634291072
0.47103818074
0.997653649402
0.471039322852
0.997653649402
0.471042213215
0.997665202362
0.471042159839
0.997665202362
0.471045917805
0.997666766484
0.471039695188
0.997666766484
0.471052411209
0.997682486063
0.471029216475
0.997682486063
0.471052900098
0.997690433615
0.471039801244
0.997690433615
0.47103754813
0.997696733011
0.471047859089
0.997696733011
0.471037885608
0.997708621763
0.471048379373
0.997708621763
0.471037737913
0.997736442017
0.471042371692
0.997723912649
0.471046989778
0.997723912649
0.471036338337
0.997733491365
0.471046469322
0.997733491365
0.4710378589
0.997744579585
0.471048212785
0.997744579585
0.471037712233
0.997763500511
0.471039201427
0.997763500511
0.471042434154
0.997775146425
0.47104235705
0.997780179451
0.471042345927
0.997785134244
0.471042298879
0.997790011857
0.471042309125
0.99779311431
0.471042294533
0.99779311431
0.471045632877
0.997794644622
0.47103945538
0.997794644622
0.471044880693
0.997804717895
0.471039771707
0.997804717895
0.471053010857
0.997818690483
0.471030899461
0.997818690483
0.471051957773
0.997828264237
0.47103290807
0.997828264237
0.471053493801
0.997832485137
0.471032272492
0.997832485137
0.471044423924
0.997842589514
0.471047057959
0.997842589514
0.47103641068
0.997853459612
0.471048943209
0.997853459612
0.471042615854
0.997855922557
0.471034240654
0.997888029442
0.47104213647
0.997866138675
0.471049918013
0.997866138675
0.47103740953
0.997879181536
0.471039515693
0.997879181536
0.471044824922
0.997886565416
0.471039944418
0.997886565416
0.471045278599
0.997896656189
0.47103904382
0.997896656189
0.471045437679
0.997902842091
0.471046934531
0.997902842091
0.471036416459
0.997908390341
0.47104684272
0.997908390341
0.471036379573
0.99794309929
0.471042285498
0.997920836461
0.471050180391
0.997920836461
0.47103691691
0.997845130251
0.471044346763
0.997147408082
0.471041551924
0.997066078335
0.471123024788
0.991123579239
0.471170753629
0.991123579239
0.472040838101
0.97300024559
0.472089692936
0.97300024559
0.475145728675
0.950168800416
0.471806438698
0.931471534347
0.477126980345
0.931471534347
0.462974236324
0.854646031577
0.473109524314
0.854646031577
0.45745853324
0.913470030507
0.47778764308
0.80560502648
0.308148655889
0.835848442769
0.409252666883
0.915286699199
0.431656602404
0.915286699199
0.44944772246
0.934617081556
0.453796559701
0.934617081556
0.463661239797
0.971467617344
0.464991106284
0.971467617344
0.468920848076
0.992954350278
0.469188599495
0.992954350278
0.470099030416
0.99883477961
0.470151938706
0.998973980871
0.470233616478
0.998901651861
0.470230410274
0.99891684486
0.470230666243
0.99889801592
0.470232820002
0.998880808017
0.47023541929
0.998910741191
0.470229938258
0.998883871158
0.47023546502
0.998910612896
0.470237675063
0.998878849841
0.470225528493
0.998910747071
0.470237765766
0.998884971195
0.470228045726
0.998915216638
0.470238677548
0.998880502907
0.4702288207
0.998914520575
0.470237265762
0.998881512764
0.470228857647
0.998914531207
0.470237310966
0.998879323929
0.470226808969
0.998911214184
0.470237519365
0.998883874899
0.470236084159
0.99889755387
0.470232849363
0.998897587031
0.470232861274
0.998897411622
0.470232748757
0.998910742341
0.470229492124
0.998883592097
0.470228113351
0.998915835024
0.470238964181
0.998880736354
0.470228592977
0.998913797608
0.470236712178
0.998880874359
0.470228469101
0.998916094465
0.470239022945
0.998886090556
0.470227952545
0.998909411269
0.470238118061
0.998879376195
0.470227063639
0.998914338778
0.470237294258
0.998880996866
0.4702289017
0.998914933099
0.470237255895
0.998881154841
0.470229236316
0.998914161285
0.47023682614
0.998880321678
0.470228667189
0.998914245182
0.470237171547
0.998881126054
0.470228656212
0.998914023266
0.470237114849
0.99888064614
0.470228386337
0.998913796308
0.470236794942
0.998880926006
0.470228745513
0.998918440878
0.470238702853
0.998897622402
0.470233092714
0.998877183757
0.470227520618
0.998914668185
0.470237622072
0.998879619244
0.470227187258
0.99891135851
0.470237577621
0.998883860112
0.470235980852
0.998897408228
0.470232700095
0.998910995028
0.47022956694
0.998883806042
0.470228226157
0.998915880662
0.470238810302
0.998880520423
0.470228365336
0.998917785866
0.470238261179
0.998897508469
0.470232816295
0.998877087819
0.470227235402
0.998914305141
0.47023721831
0.998881078279
0.470228619364
0.998914181417
0.470237155507
0.99888123076
0.470228655005
0.99891435871
0.470237204133
0.998881029881
0.470228525395
0.998915759905
0.470238902345
0.998883622155
0.4702281793
0.998911032913
0.470229666682
0.998897504575
0.470233010527
0.998897527935
0.47023291785
0.998897503651
0.470232986546
0.998897597375
0.470232888857
0.998884061524
0.47023622857
0.998911487311
0.47023759858
0.998880065793
0.470227112133
0.998918154102
0.470238838166
0.998886524414
0.47023051921
0.998794745008
0.470222800188
0.999031160897
0.470324455645
0.992146727535
0.470277156315
0.992146727535
0.471324952586
0.971107047563
0.47094871189
0.971107047563
0.474689915707
0.944163772831
0.470281481615
0.920433963577
0.477002880848
0.920433963577
0.46124951257
0.844645632119
0.47314782396
0.844645632119
0.45593741873
0.454546186677
0.46712254699
0.996010396405
0.4710469574
0.996010396405
0.471045644119
0.996046461026
0.47104252458
0.996055527351
0.471042503729
0.996070674985
0.471042458467
0.996085857287
0.471042247073
0.996101329677
0.471042239879
0.996118512344
0.471039341934
0.996118512344
0.471038026562
0.99614307404
0.471048296064
0.99614307404
0.471037457655
0.996174561638
0.471047828902
0.996174561638
0.471037507202
0.996205692026
0.471038997239
0.996205692026
0.471045536725
0.996232092132
0.471046991869
0.996232092132
0.471036529192
0.996257827508
0.471046979695
0.996257827508
0.47103648583
0.99628962609
0.471046950984
0.99628962609
0.471045499951
0.996323323744
0.471042289455
0.996330415455
0.471039156117
0.996330415455
0.471037812868
0.996352259805
0.471048465961
0.996352259805
0.471037823171
0.996380363139
0.471046255098
0.996380363139
0.471038067728
0.996411242705
0.471048575061
0.996411242705
0.471042701786
0.996423372205
0.471036354083
0.996444437089
0.471048092199
0.996444437089
0.471037376205
0.996471940599
0.471039045227
0.996471940599
0.471045769737
0.99649375564
0.471047306826
0.99649375564
0.471036695897
0.996515789059
0.471046937826
0.996515789059
0.471036278464
0.996551095825
0.471046782963
0.996551095825
0.471042196284
0.9965622969
0.47104528284
0.996579808504
0.471039893051
0.996579808504
0.47103728642
0.996604031614
0.471050120235
0.996604031614
0.471042604184
0.996616161793
0.471036105163
0.996634235107
0.471048027515
0.996634235107
0.471037457101
0.996665641092
0.471039088744
0.996665641092
0.471042425166
0.996683536994
0.471042259286
0.996687812336
0.471045726138
0.996699861787
0.471047185069
0.996699861787
0.471036704428
0.996719195011
0.471046914799
0.996719195011
0.471036372004
0.996745383823
0.471046895413
0.996745383823
0.471045683634
0.99677588502
0.471042414205
0.996775811393
0.471039207387
0.996775811393
0.47104534418
0.99679823793
0.471032357313
0.99679823793
0.471054938032
0.996815388917
0.471031621357
0.996815388917
0.471044961587
0.996843903983
0.471039122242
0.996843903983
0.471042507217
0.996860019488
0.47104242733
0.996869882023
0.471042155493
0.996879837724
0.471042147268
0.996889953677
0.471042128082
0.996892878381
0.471045583046
0.996903396339
0.471039448629
0.996903396339
0.471044893606
0.996923152746
0.471039867888
0.996923152746
0.471052991533
0.996943288462
0.471029361661
0.996943288462
0.471052976778
0.996975161219
0.471035065043
0.996963210989
0.471047976679
0.996963210989
0.471035930052
0.99699156528
0.471039700466
0.99699156528
0.471055971353
0.997003203649
0.471039537186
0.997003203649
0.471035744936
0.99702629162
0.471048100033
0.99702629162
0.471042325861
0.99703431673
0.471036095186
0.99704741653
0.471048167217
0.99704741653
0.471037450219
0.997073663905
0.471039028153
0.997073663905
0.471042209631
0.997088711002
0.471042260236
0.997097264051
0.471042298313
0.997105701751
0.471042496601
0.997114029788
0.471042537475
0.997122253277
0.471042572724
0.997130603207
0.471042485891
0.997138812346
0.471042470018
0.997146915052
0.471042298087
0.997155014195
0.471042172123
0.997156629372
0.471045519606
0.997163168562
0.471047315061
0.997163168562
0.471036690535
0.997177849229
0.471046768732
0.997177849229
0.47103773962
0.997194554358
0.471046208477
0.997194554358
0.471037996614
0.997209391646
0.47104676601
0.997209391646
0.471038236229
0.997223570063
0.471046725699
0.997223570063
0.471036297407
0.997245406592
0.471047483605
0.997245406592
0.471037210582
0.997253807889
0.471048253274
0.997253807889
0.471037944339
0.997269234879
0.471046373263
0.997269234879
0.471038017933
0.997284614303
0.471046037155
0.997284614303
0.471038511581
0.997297471267
0.471046729933
0.997297471267
0.471036864423
0.997317293489
0.471047548649
0.997317293489
0.471037623826
0.997325570753
0.471048036047
0.997325570753
0.471036176161
0.997346863803
0.471039664476
0.997346863803
0.471053674786
0.997360659619
0.471030595439
0.997360659619
0.471044816476
0.997366922097
0.47104866066
0.997366922097
0.471036562299
0.997385924305
0.471047365451
0.997385924305
0.471045958178
0.997398709807
0.471039350243
0.997398709807
0.471045493982
0.997421283803
0.471040675578
0.997421283803
0.47103984039
0.997536522552
0.471042859158
0.998249821922
0.470960807772
0.995476649449
0.470907796441
0.995476649449
0.469994240976
0.973828972225
0.469719660713
0.973828972225
0.465760886036
0.936723985604
0.464390289164
0.936723985604
0.454468846438
0.917474610013
0.450105379319
0.917474610013
0.432314765879
0.837502469461
0.409792945618
0.805835006364
0.308447870248
0.606990685206
0.411111334527
0.906127177162
0.459773099326
0.970748741716
0.468679033394
0.987780871065
0.470674597935
0.993229121054
0.47104293101
0.994727950198
0.471064564041
0.995069568794
0.471043924976
0.995183714195
0.47104710623
0.995184984533
0.471037938271
0.99523331454
0.471048154315
0.99523331454
0.471037620725
0.995280834779
0.471039060588
0.995280834779
0.471045681897
0.995321976788
0.471047115403
0.995321976788
0.471036383333
0.995364417037
0.471046627321
0.995364417037
0.471038089235
0.995407189399
0.471048436857
0.995407189399
0.471037824462
0.995451343199
0.471039201162
0.995451343199
0.471045590956
0.995490950189
0.471038997125
0.995490950189
0.471044265318
0.995533108997
0.471039589203
0.995533108997
0.471045263945
0.995569635914
0.471040241837
0.995569635914
0.471045163216
0.99561744836
0.471038971454
0.99561744836
0.471042722857
0.995643096864
0.471043050394
0.995661265227
0.471042687994
0.99567313936
0.47104540791
0.995701702193
0.471046687874
0.995701702193
0.471036213175
0.995737702892
0.4710483881
0.995737702892
0.471044927044
0.995780892785
0.471031115484
0.995780892785
0.471054290751
0.995807726675
0.471039693999
0.995807726675
0.471035774236
0.99584474191
0.471048212613
0.99584474191
0.471037569362
0.995879055297
0.471040024425
0.995879055297
0.471052273234
0.995918141342
0.471031299401
0.995918141342
0.471053911823
0.99594361556
0.471039726179
0.99594361556
0.471036264615
0.995974093842
0.471046615226
0.995974093842
0.471036239749
0.938619908385
0.308763564783
0.920662860052
0.299567866738
0.939909174052
0.308281582427
0.921931235476
0.2995683352
0.842962880546
0.319215231966
0.93296718281
0.296560457486
0.607953123951
0.375549005612
0.921995074552
0.351806231601
0.607953123951
0.311960635364
0.93296718281
0.30384254508
0.939909174052
0.301643613876
0.93958455884
0.308402563501
0.921612557259
0.299568116766
0.608108892468
0.375593515538
0.842768031376
0.319328183843
0.932710213835
0.296556783258
0.932710213835
0.303926405961
0.939674127599
0.301639957018
0.939674127599
0.308363453539
0.921709269331
0.299562526637