/*--------------------------------*- C++ -*----------------------------------*\
| =========                 |                                                 |
| \\      /  F ield         | OpenFOAM: The Open Source CFD Toolbox           |
|  \\    /   O peration     | Version:  2112                                  |
|   \\  /    A nd           | Website:  www.openfoam.com                      |
|    \\/     M anipulation  |                                                 |
\*---------------------------------------------------------------------------*/
FoamFile
{
    version     2.0;
    format      ascii;
    arch        "LSB;label=32;scalar=64";
    class       volScalarField;
    location    "0";
    object      cellVolume;
}
// * * * * * * * * * * * * * * * * * * * * * * * * * * * * * * * * * * * * * //

dimensions      [0 3 0 0 0 0 0];

internalField   nonuniform List<scalar> 
52617
(
2.40022852668e-09
2.32716898891e-09
3.94930742149e-09
4.08553494021e-09
6.65947393039e-09
6.5614057198e-09
8.37522572804e-09
8.60620236286e-09
1.1196376621e-08
1.10512299577e-08
1.27603056799e-08
1.28273790733e-08
1.49238531743e-08
1.48142947769e-08
1.65507761814e-08
1.65573450212e-08
1.8451199042e-08
1.84237745847e-08
2.0265146389e-08
2.02721657539e-08
2.21782542554e-08
2.21767212716e-08
2.40884346966e-08
2.40902752454e-08
2.60130506221e-08
2.60135260605e-08
2.79394051529e-08
2.7938973818e-08
2.98666089352e-08
2.98668623965e-08
3.17932057511e-08
3.17928895631e-08
3.37204635842e-08
3.37209269459e-08
3.56467829289e-08
3.56461412299e-08
3.75743111588e-08
3.75749626413e-08
3.95004402535e-08
3.94996329443e-08
4.14277133999e-08
4.14276885638e-08
4.33550500145e-08
4.33559363905e-08
4.5281081395e-08
4.52803176464e-08
4.72087316925e-08
4.72095156885e-08
4.91347616342e-08
4.91338631476e-08
5.10624506938e-08
5.10631586008e-08
5.29889873256e-08
5.29890040388e-08
5.49154361812e-08
5.49146190033e-08
5.68431194028e-08
5.68439345756e-08
5.87692130685e-08
5.87684908618e-08
6.06969362838e-08
6.06979559687e-08
6.26225699737e-08
6.26211824635e-08
6.45501619454e-08
6.45501416665e-08
6.64778181899e-08
6.64792940447e-08
6.84033473537e-08
6.84022148975e-08
7.03311993116e-08
7.03320630657e-08
7.22571121362e-08
7.22560566242e-08
7.41850634242e-08
7.41861480916e-08
7.61108716328e-08
7.61098155876e-08
7.80382511022e-08
7.80382140888e-08
7.9965148101e-08
7.99651393801e-08
8.18920438901e-08
8.1892060248e-08
8.38189159584e-08
8.38189205081e-08
8.57457728862e-08
8.57457444774e-08
8.76726368929e-08
8.76725933526e-08
8.95995060712e-08
8.95994570283e-08
9.15270109539e-08
9.15282343664e-08
9.34526065094e-08
9.34512464894e-08
9.53808809905e-08
9.53823058157e-08
9.73063715943e-08
9.7305094905e-08
9.9234511532e-08
9.92358420532e-08
1.01159989947e-07
1.01158578228e-07
1.03088225384e-07
1.03089570582e-07
1.05013646335e-07
1.0501210518e-07
1.06942100453e-07
1.06943676589e-07
1.08868197759e-07
1.08868210521e-07
1.10794299319e-07
1.10792747852e-07
4.82676740125e-07
4.82668283056e-07
4.84612327709e-07
4.84621029933e-07
4.86531597571e-07
4.86524894409e-07
4.88465172656e-07
4.88471817884e-07
4.90388835614e-07
4.90388832143e-07
4.92315710443e-07
4.92315682617e-07
4.94242588051e-07
4.9424262673e-07
4.96169417603e-07
4.9616946789e-07
4.98096255532e-07
4.98096290097e-07
5.00023127583e-07
5.00023158255e-07
5.01950002946e-07
5.01950043283e-07
5.03876810761e-07
5.03876775026e-07
5.05803690926e-07
5.05803639065e-07
5.07730766954e-07
5.07730933333e-07
5.09657753539e-07
5.0965802164e-07
5.1158439172e-07
5.11584323888e-07
5.13511004825e-07
5.13510651777e-07
5.15437989611e-07
5.15437910091e-07
5.1736510076e-07
5.17365402595e-07
5.19291952875e-07
5.19292210517e-07
5.21215175607e-07
5.21208176106e-07
5.23148948183e-07
5.23156149589e-07
5.25067322722e-07
5.25057721956e-07
5.27003517331e-07
5.27012344989e-07
5.28921573572e-07
5.28912742505e-07
5.30857278196e-07
5.30866035934e-07
5.32775517452e-07
5.32766860292e-07
5.3471177055e-07
5.34721644568e-07
5.36629747383e-07
5.36622145929e-07
5.38562307072e-07
5.3856635773e-07
5.40484860634e-07
5.4047962536e-07
5.42418987692e-07
5.42427815176e-07
1.12722973648e-07
1.12725010373e-07
1.14647845542e-07
1.14645905336e-07
1.16576662112e-07
1.16578564997e-07
1.18501610665e-07
1.18499629044e-07
1.20430607927e-07
1.20432815605e-07
1.22355513446e-07
1.22353820326e-07
1.24283193088e-07
1.24283171667e-07
1.26210899736e-07
1.26212615593e-07
1.28135709055e-07
1.28133332293e-07
1.30064914351e-07
1.30067122187e-07
1.31989340751e-07
1.31986711858e-07
1.33917578853e-07
1.33917608404e-07
1.35845847048e-07
1.35848622171e-07
1.37770103832e-07
1.37767747336e-07
1.39699314593e-07
1.39701599087e-07
1.41623891463e-07
1.41621535691e-07
1.43553286988e-07
1.43555913587e-07
1.45477792069e-07
1.45475744642e-07
1.47406628955e-07
1.4740859489e-07
1.49331552636e-07
1.49329556841e-07
1.51260550422e-07
1.51262818061e-07
1.53185070556e-07
1.53182714154e-07
1.5511390312e-07
1.55115410484e-07
1.57039310064e-07
1.57037813103e-07
1.58967750131e-07
1.58969413046e-07
1.60893049996e-07
1.60891502128e-07
1.62821938961e-07
1.62824385822e-07
1.64746267713e-07
1.64743740128e-07
1.66675490133e-07
1.66677698342e-07
1.68601302303e-07
1.68601339455e-07
1.70527055546e-07
1.70524805831e-07
1.72456333338e-07
1.72458936136e-07
5.44338089701e-07
5.44331604838e-07
5.46271080451e-07
5.46277404945e-07
5.48189665223e-07
5.48179479023e-07
5.50126448216e-07
5.50135722187e-07
5.52043588156e-07
5.52033584761e-07
5.53979331933e-07
5.53987004466e-07
5.55898717945e-07
5.55891174526e-07
5.57829351208e-07
5.57829403797e-07
5.5975992153e-07
5.59767471459e-07
5.61679134244e-07
5.61671157506e-07
5.63615148965e-07
5.63625303521e-07
5.65532285596e-07
5.65523046211e-07
5.67468694423e-07
5.67478477074e-07
5.69385852756e-07
5.69376382712e-07
5.71322511159e-07
5.71332574893e-07
5.7324019551e-07
5.73232000763e-07
5.75175021844e-07
5.75182864116e-07
5.7709818603e-07
5.77098449242e-07
5.79024853858e-07
5.79024751514e-07
5.80951595602e-07
5.80951299228e-07
5.82878588925e-07
5.82878551508e-07
5.84801757733e-07
5.84794215696e-07
5.86736800843e-07
5.86745751104e-07
5.88654560699e-07
5.8864561356e-07
5.9058883319e-07
5.90594519614e-07
5.92510702465e-07
5.92505975634e-07
5.94445315464e-07
5.94456022242e-07
5.96366161265e-07
5.96365445395e-07
5.98286666073e-07
5.98273492141e-07
6.00224047196e-07
6.00231413294e-07
6.0214301817e-07
6.02134452745e-07
6.04078597691e-07
6.04087371948e-07
1.74380601282e-07
1.74378083947e-07
1.76309769711e-07
1.76311916968e-07
1.78234014296e-07
1.78230914988e-07
1.80164027826e-07
1.80167178125e-07
1.82087407227e-07
1.82083696024e-07
1.84016181413e-07
1.8401614213e-07
1.85945040725e-07
1.85948817976e-07
1.87868414188e-07
1.87865244959e-07
1.89798454489e-07
1.8980157666e-07
1.91722168706e-07
1.91718966308e-07
1.93652458643e-07
1.93656026402e-07
1.95576183676e-07
1.95573513765e-07
1.97505687975e-07
1.97508383162e-07
1.99431244495e-07
1.99431274141e-07
2.01358094702e-07
2.01358061611e-07
2.03284953865e-07
2.03284869087e-07
2.05211866866e-07
2.0521184257e-07
2.07138763794e-07
2.0713879148e-07
2.0906562695e-07
2.09065658052e-07
2.10992492772e-07
2.10992529185e-07
2.12919368152e-07
2.12919423817e-07
2.14846241875e-07
2.1484632327e-07
2.16773087809e-07
2.16773159118e-07
2.18698441296e-07
2.18695499595e-07
2.20628220485e-07
2.20631246684e-07
2.22551532848e-07
2.22547467324e-07
2.2448245076e-07
2.24486311065e-07
2.26405334483e-07
2.26401281208e-07
2.28335856353e-07
2.28339075245e-07
2.30261130431e-07
2.30261163616e-07
2.32186083256e-07
2.32182418424e-07
2.34116327942e-07
2.34119416526e-07
6.05998100573e-07
6.05992159922e-07
6.07931033741e-07
6.07937449948e-07
6.09851361352e-07
6.09844693396e-07
6.11784873036e-07
6.11791433343e-07
6.13705103215e-07
6.13698456661e-07
6.1563823491e-07
6.15644301685e-07
6.17559284296e-07
6.17553416891e-07
6.19494169777e-07
6.1950393456e-07
6.2141232104e-07
6.21404772042e-07
6.23346321261e-07
6.23353551178e-07
6.25263671792e-07
6.25251945428e-07
6.27201785258e-07
6.27212146456e-07
6.29117770132e-07
6.291064871e-07
6.31054915736e-07
6.31064085685e-07
6.32973033879e-07
6.3296456068e-07
6.34903925804e-07
6.34903663478e-07
6.36830840988e-07
6.36830539554e-07
6.38757862574e-07
6.38757679725e-07
6.40684893501e-07
6.40684906663e-07
6.42611869688e-07
6.42612032344e-07
6.44538732204e-07
6.44538881759e-07
6.46465561735e-07
6.46465685758e-07
6.48392338776e-07
6.48392348039e-07
6.50319132009e-07
6.50319031347e-07
6.52245992713e-07
6.52245851038e-07
6.54172897453e-07
6.54172777325e-07
6.56104107242e-07
6.56112778056e-07
6.58021558938e-07
6.5801134503e-07
6.5995884388e-07
6.59969070358e-07
6.6187755438e-07
6.61871552723e-07
6.6381062208e-07
6.63817458075e-07
6.65730445705e-07
6.65723307272e-07
6.67664205424e-07
6.6767092314e-07
6.69583496688e-07
6.69574922083e-07
6.71520443643e-07
6.71532271522e-07
6.73434475625e-07
6.73421258777e-07
6.75372755472e-07
6.75381813059e-07
6.77292450899e-07
6.7728665322e-07
6.79225831549e-07
6.79233337982e-07
6.81145014566e-07
6.81137291465e-07
6.83078576114e-07
6.83084352636e-07
6.84998211001e-07
6.84988913559e-07
6.86936439834e-07
6.8694937781e-07
6.88851214489e-07
6.88840270187e-07
6.90789458521e-07
6.90801464017e-07
6.92704037161e-07
6.92691850938e-07
6.94641320035e-07
6.94650018584e-07
6.96559215072e-07
6.96549614817e-07
6.98495807386e-07
6.98505453532e-07
7.00413660167e-07
7.00404941987e-07
7.02351084137e-07
7.02363517543e-07
7.04265533099e-07
7.04253354784e-07
7.06205111834e-07
7.06217990506e-07
7.08121345552e-07
7.08113006525e-07
7.10056078358e-07
7.10064260971e-07
7.11972443931e-07
7.11959675136e-07
7.13913613949e-07
7.1392865303e-07
7.15832575127e-07
7.15832367201e-07
7.17751754328e-07
7.17736635112e-07
7.19692462295e-07
7.19704426599e-07
7.21606767752e-07
7.21593912551e-07
7.23544975283e-07
7.23554699225e-07
7.25463740006e-07
7.25456997851e-07
7.27397783494e-07
7.27405648487e-07
7.29316852566e-07
7.29309172569e-07
7.31251133893e-07
7.31258494028e-07
7.33169095526e-07
7.33158616221e-07
7.35106525739e-07
7.35116990797e-07
7.37023380451e-07
7.3701365569e-07
7.38961357907e-07
7.3897382691e-07
7.40875204712e-07
7.4086171824e-07
7.42814817808e-07
7.42826728854e-07
7.44727751238e-07
7.44712225979e-07
7.46662258229e-07
7.46661665816e-07
7.48596150021e-07
7.48608911522e-07
7.50511600328e-07
7.50501718895e-07
7.52448268339e-07
7.52458022699e-07
7.54365360272e-07
7.54355365077e-07
7.56302793954e-07
7.56313692239e-07
7.58220298734e-07
7.58212107532e-07
7.60160015235e-07
7.60177343009e-07
7.62077050417e-07
7.62076221189e-07
7.63995293494e-07
7.63978166683e-07
7.65937126608e-07
7.65949108875e-07
7.6785121127e-07
7.67837428258e-07
7.69789720644e-07
7.69799002949e-07
2.36040229163e-07
2.36037259387e-07
2.37970763167e-07
2.37975058172e-07
2.39893457046e-07
2.39889483303e-07
2.41824320954e-07
2.4182833007e-07
2.43747205306e-07
2.43743154099e-07
2.45678175025e-07
2.45682213672e-07
2.47600987023e-07
2.4759681936e-07
2.49532317155e-07
2.49536910636e-07
2.51455150955e-07
2.51451732527e-07
2.53385354491e-07
2.53388783571e-07
2.55310484269e-07
2.55310458036e-07
2.5723733562e-07
2.57237283261e-07
2.59164224237e-07
2.59164189547e-07
2.61091082404e-07
2.61091032999e-07
2.63017948855e-07
2.63017948796e-07
2.64943056988e-07
2.64939550079e-07
2.66873537906e-07
2.66877384512e-07
2.68796110933e-07
2.68791393066e-07
2.70727725667e-07
2.70732386222e-07
2.72650007267e-07
2.72645504392e-07
2.74581413708e-07
2.74585925939e-07
2.76503142581e-07
2.76497415504e-07
2.78432956491e-07
2.78432869944e-07
2.80362744522e-07
2.80368349175e-07
2.82284288654e-07
2.82279443693e-07
2.84216291919e-07
2.842215549e-07
2.86138616538e-07
2.86134823077e-07
2.88069267081e-07
2.88073215746e-07
2.89994126241e-07
2.89994066269e-07
2.91920928217e-07
2.91920776701e-07
2.9384579095e-07
2.93841604152e-07
2.95776673104e-07
2.95780595564e-07
2.97698929876e-07
2.97693538857e-07
2.99631225539e-07
2.99636461765e-07
3.01553041828e-07
3.01548213926e-07
3.03485164365e-07
3.03490785453e-07
3.05407452073e-07
3.0540394374e-07
3.07337909458e-07
3.07341825108e-07
3.09260325281e-07
3.09255536883e-07
3.11191077241e-07
3.11194038431e-07
3.13114925804e-07
3.13111768348e-07
3.15044769194e-07
3.15047680573e-07
3.16967782556e-07
3.16962903262e-07
3.1889971651e-07
3.18904667005e-07
3.20824123016e-07
3.2082412563e-07
3.22748760435e-07
3.22744207452e-07
3.24680955052e-07
3.2468694496e-07
3.26602154912e-07
3.26596883361e-07
3.28534413024e-07
3.28539918773e-07
3.30455664417e-07
3.30449981833e-07
3.32388799766e-07
3.32395460622e-07
3.3431225703e-07
3.34312269789e-07
3.36235606609e-07
3.36228825735e-07
3.38168729911e-07
3.38174392537e-07
3.40089974628e-07
3.40084442071e-07
3.42023392568e-07
3.42030623303e-07
3.43946949204e-07
3.4394754806e-07
3.45870425068e-07
3.45864465777e-07
3.47802490649e-07
3.47806807867e-07
3.49724842535e-07
3.49719999064e-07
3.5165675195e-07
3.51661851327e-07
3.53578459712e-07
3.53573302894e-07
3.55510295933e-07
3.55515170155e-07
3.57432371397e-07
3.57427604517e-07
3.5936406061e-07
3.59369155884e-07
3.61285013613e-07
3.61278443233e-07
3.63218139826e-07
3.63224072178e-07
3.65139049523e-07
3.65133087064e-07
3.67072958128e-07
3.67080739922e-07
3.689958241e-07
3.6899582866e-07
3.70918416924e-07
3.70910192304e-07
3.72852666468e-07
3.72858807975e-07
3.74774062102e-07
3.74769155933e-07
3.76705666367e-07
3.76710387676e-07
3.78627013391e-07
3.78620559149e-07
3.80560439029e-07
3.80567045479e-07
3.82479808453e-07
3.8247185564e-07
3.84410791945e-07
3.84410827064e-07
3.86341905503e-07
3.86350099787e-07
3.88261412705e-07
3.88255144692e-07
3.90194701278e-07
3.9020128778e-07
3.92114583966e-07
3.92107361533e-07
3.94047604632e-07
3.94052638547e-07
3.9597051271e-07
3.9596722008e-07
3.97902249384e-07
3.97908545552e-07
3.99822988126e-07
3.99817175415e-07
4.01755455896e-07
4.01760907555e-07
4.03679634671e-07
4.03679641459e-07
4.05606514147e-07
4.05606547646e-07
4.07533365489e-07
4.07533391361e-07
4.0946020913e-07
4.09460223988e-07
4.1138708051e-07
4.11387106855e-07
4.13311231991e-07
4.13305725711e-07
4.15243683447e-07
4.1524949363e-07
4.17163816988e-07
4.17156218509e-07
4.19098197265e-07
4.19105442063e-07
4.21017868211e-07
4.21010867493e-07
4.22951541518e-07
4.22958375471e-07
4.24871182171e-07
4.2486356742e-07
4.26805800352e-07
4.26813369543e-07
4.28726294283e-07
4.28720990939e-07
4.30658369361e-07
4.30663757755e-07
4.32578660191e-07
4.3257086032e-07
4.34513248067e-07
4.3452070273e-07
4.36432331872e-07
4.36424445099e-07
4.38366260979e-07
4.38372488629e-07
4.40287157498e-07
4.40281311104e-07
4.42216935017e-07
4.42216934891e-07
4.44146824821e-07
4.4415278352e-07
4.46067498785e-07
4.46060839704e-07
4.48001022697e-07
4.48007490078e-07
4.49921626075e-07
4.49915703635e-07
4.51854424391e-07
4.51860564567e-07
4.53774979716e-07
4.53768671808e-07
4.5570805501e-07
4.55714199492e-07
4.57628792621e-07
4.57622533136e-07
4.59562070682e-07
4.59568427121e-07
4.61482611505e-07
4.61476161853e-07
4.63416289096e-07
4.63423233699e-07
4.65337428853e-07
4.65332947718e-07
4.67268783571e-07
4.67273595292e-07
4.69190507022e-07
4.69185168545e-07
4.7112203177e-07
4.71126127935e-07
4.73043267262e-07
4.73035957822e-07
4.74977807549e-07
4.7498539488e-07
4.76901097844e-07
4.76901564837e-07
4.78824414505e-07
4.78817916122e-07
4.80758633909e-07
4.80767187892e-07
7.71707466707e-07
7.71698019722e-07
7.73644717223e-07
7.73656108021e-07
7.755606031e-07
7.75550415621e-07
7.77497774185e-07
7.77508385541e-07
7.79414561397e-07
7.7940469816e-07
7.81352924561e-07
7.81366109129e-07
7.83264278446e-07
7.83247101341e-07
7.85200152179e-07
7.85200137697e-07
7.87135714533e-07
7.87152503936e-07
7.89047516383e-07
7.89034949849e-07
7.90987471787e-07
7.91001195887e-07
7.9290089952e-07
7.928878186e-07
7.94840631056e-07
7.94853572771e-07
7.96754112973e-07
7.96740228436e-07
7.98695469652e-07
7.98710023474e-07
8.00609388443e-07
8.00598434228e-07
8.02544790029e-07
8.02551485378e-07
8.04464598493e-07
8.04456570644e-07
8.06401670694e-07
8.06413717958e-07
8.08317248057e-07
8.08306800286e-07
8.10255241803e-07
8.10267019413e-07
8.12170123329e-07
8.12158115286e-07
8.14108591449e-07
8.14119669655e-07
8.16024619421e-07
8.16013503203e-07
8.1796238657e-07
8.17973302581e-07
8.19876190634e-07
8.19861096299e-07
8.21817722203e-07
8.21831696567e-07
8.23731018084e-07
8.2371796653e-07
8.25673262296e-07
8.2569052298e-07
8.27590970797e-07
8.27590584058e-07
8.29508966317e-07
8.29491359995e-07
8.31451866521e-07
8.31465606564e-07
8.33364712605e-07
8.33350544301e-07
8.35305914232e-07
8.35320356025e-07
8.37219891193e-07
8.37208458746e-07
8.39157013297e-07
8.39165863794e-07
8.41075766535e-07
8.41068060165e-07
8.43010018038e-07
8.43017729279e-07
8.44926195505e-07
8.44912859041e-07
8.46865284761e-07
8.46875998999e-07
8.4878134811e-07
8.48770320222e-07
8.50720250437e-07
8.50733288893e-07
8.52636491281e-07
8.52628551114e-07
8.5457190885e-07
8.54581301002e-07
8.56489637532e-07
8.56480634744e-07
8.58425276995e-07
8.58433850318e-07
8.60343817146e-07
8.60335343959e-07
8.62281547166e-07
8.62294498532e-07
8.64195113823e-07
8.64181964268e-07
8.66134232604e-07
8.66145798389e-07
8.68055494923e-07
8.68055637615e-07
8.69976670439e-07
8.69965214385e-07
8.71915060335e-07
8.71926997166e-07
8.73827960054e-07
8.73811833657e-07
8.75771109145e-07
8.75786627653e-07
8.77683220061e-07
8.77669201384e-07
8.79624073915e-07
8.79638641578e-07
8.81535481026e-07
8.81519499828e-07
8.83478177601e-07
8.83493459705e-07
8.85391389493e-07
8.85379340236e-07
8.87328664811e-07
8.87337542334e-07
8.89246404411e-07
8.8923698727e-07
8.9118099481e-07
8.91187778086e-07
8.93096003925e-07
8.93079132684e-07
8.95033261053e-07
8.95035319555e-07
8.9696937307e-07
8.96989227511e-07
8.98878425681e-07
8.9886377265e-07
9.00820458577e-07
9.00836252656e-07
9.02733145347e-07
9.02720637247e-07
9.04672686553e-07
9.04685716596e-07
9.06593397681e-07
9.06594059636e-07
9.08519871406e-07
9.0851998939e-07
9.10446566814e-07
9.10446503795e-07
9.12367262796e-07
9.12354770689e-07
9.14306464304e-07
9.14318951107e-07
9.16218855364e-07
9.16202209906e-07
9.18162137532e-07
9.18177608001e-07
9.20073546624e-07
9.20058050083e-07
9.22016590846e-07
9.22033065083e-07
9.23928678645e-07
9.23915707382e-07
9.25861995186e-07
9.25862169801e-07
9.27795221238e-07
9.27808455018e-07
9.29706905465e-07
9.29690099826e-07
9.31650044575e-07
9.31665601817e-07
9.33561224478e-07
9.33545667204e-07
9.35504254833e-07
9.35520865555e-07
9.37421589476e-07
9.37416689014e-07
9.39387928906e-07
9.39480183021e-07
9.42174723739e-07
9.42048097733e-07
9.44367458632e-07
9.44942511524e-07
9.53796927768e-07
9.51931761451e-07
9.56894406319e-07
9.58097778976e-07
9.8741932037e-07
9.78194636705e-07
9.75901417651e-07
9.82071387737e-07
1.03582896343e-06
1.01740693797e-06
9.55426682639e-07
9.82817339718e-07
1.01441008937e-06
9.95519159735e-07
8.58547394785e-07
8.92199252882e-07
8.96321617261e-07
8.7383231649e-07
1.76893086118e-06
1.76320001965e-06
2.01413315515e-06
1.96200611788e-06
2.06816750495e-06
1.98868590107e-06
1.99129633492e-06
1.94964144852e-06
1.94045044912e-06
1.92899870268e-06
1.92686779881e-06
1.92545605932e-06
1.92520451935e-06
1.92513059565e-06
1.92519050785e-06
1.92514015501e-06
1.92519741101e-06
1.92516967373e-06
1.92514115622e-06
1.92519888793e-06
1.92515005806e-06
1.92518724724e-06
1.92514763936e-06
1.92518810314e-06
1.9251495217e-06
1.92519662902e-06
1.92514041548e-06
1.92518541507e-06
1.92514166135e-06
1.92519593415e-06
1.92514576459e-06
1.92519745441e-06
1.92514406555e-06
1.92519472937e-06
1.9251365973e-06
1.92517094783e-06
1.92520844583e-06
1.92513294224e-06
1.92519608638e-06
1.92515482991e-06
1.92519082782e-06
1.92514670965e-06
1.92518478908e-06
1.92514649533e-06
1.92518989809e-06
1.92515004323e-06
1.92518954934e-06
1.92514715704e-06
1.92518330234e-06
1.9251318114e-06
1.92517262569e-06
1.92521163036e-06
1.92513771852e-06
1.92520315906e-06
1.92514106658e-06
1.92519432248e-06
1.92514352173e-06
1.92519750459e-06
1.92513797752e-06
1.92518566273e-06
1.92514813593e-06
1.92518713691e-06
1.92515062065e-06
1.92519910632e-06
1.92514449055e-06
1.92519093567e-06
1.92513349526e-06
1.92520089654e-06
1.9251368223e-06
1.92520481196e-06
1.92514286885e-06
1.92519478803e-06
1.92516851364e-06
1.92516799565e-06
1.92516797742e-06
1.92516884189e-06
1.92516967924e-06
1.92516964727e-06
1.9251436095e-06
1.92519601315e-06
1.9251340117e-06
1.92520112229e-06
1.92513607408e-06
1.92520074161e-06
1.92513408406e-06
1.92519274264e-06
1.92514418551e-06
1.92520242876e-06
1.92513561663e-06
1.92520071038e-06
1.92513574366e-06
1.92520304559e-06
1.92514146226e-06
1.92516849889e-06
1.92519738179e-06
1.92513876373e-06
1.92518673219e-06
1.92514893421e-06
1.92518558864e-06
1.92514268872e-06
1.92520485376e-06
1.92513729645e-06
1.9252049212e-06
1.92514805843e-06
1.9251949197e-06
1.92515859765e-06
1.92534247664e-06
1.92687504479e-06
1.92812535801e-06
1.94089944487e-06
1.94632769332e-06
1.99363795034e-06
1.9817347958e-06
2.07375380763e-06
1.95345573564e-06
2.02148372056e-06
1.75723894151e-06
1.77338422058e-06
7.1894401717e-07
7.0221061082e-07
6.97248709677e-07
7.22592742409e-07
8.19494466558e-07
8.06417588065e-07
7.83956958679e-07
8.03999723778e-07
8.45600576044e-07
8.32615112681e-07
8.07282666743e-07
8.10651653307e-07
8.15349082995e-07
8.08828411402e-07
7.96988740454e-07
7.97212117528e-07
7.95911206814e-07
7.94696868447e-07
7.92406234563e-07
7.92695400319e-07
7.93631729278e-07
7.93579375062e-07
7.94918866197e-07
7.94977786162e-07
7.96762584816e-07
7.96761970713e-07
7.98696937899e-07
7.98713259992e-07
8.00608580089e-07
8.00595236252e-07
8.02547094494e-07
8.02557396047e-07
8.04463947026e-07
8.04453792484e-07
8.06402995699e-07
8.06417169616e-07
8.08315729058e-07
8.08301818014e-07
8.10258073153e-07
8.10274602226e-07
8.12176406514e-07
8.12176394151e-07
8.14094927713e-07
8.14078584899e-07
8.16037392416e-07
8.16051697678e-07
8.1794922498e-07
8.17934159859e-07
8.19888843337e-07
8.19899438777e-07
8.21804905303e-07
8.21793385138e-07
8.23737682708e-07
8.23737823746e-07
8.25664571109e-07
8.25664590161e-07
8.27596842262e-07
8.27607757816e-07
8.2951200646e-07
8.29499255687e-07
8.31451978083e-07
8.31464825193e-07
8.33369088095e-07
8.33362442675e-07
8.35304918886e-07
8.35316820633e-07
8.37219577343e-07
8.37207479122e-07
8.39157667684e-07
8.39168264845e-07
8.41072079352e-07
8.41057622765e-07
8.43013765129e-07
8.43028728729e-07
8.44925160027e-07
8.44909706168e-07
8.46865649547e-07
8.46877234711e-07
8.48786927973e-07
8.48786946328e-07
8.50708000691e-07
8.50696148697e-07
8.5264870362e-07
8.52664353282e-07
8.54560639874e-07
8.54546671195e-07
8.56501908846e-07
8.56516660417e-07
8.5841335561e-07
8.58397782602e-07
8.60353815169e-07
8.60365464668e-07
8.62269056644e-07
8.62257033132e-07
8.64201843625e-07
8.64201635484e-07
8.66128853501e-07
8.66128814682e-07
8.68055781563e-07
8.68055828024e-07
8.69982676401e-07
8.69982746471e-07
8.71909586248e-07
8.71909675915e-07
8.73836455965e-07
8.73836477185e-07
8.75769178432e-07
8.75780967089e-07
8.7768374565e-07
8.77670683803e-07
8.79623628349e-07
8.79636337896e-07
8.81537996859e-07
8.81525984592e-07
8.83477479159e-07
8.83490615576e-07
8.85393468516e-07
8.85384962799e-07
8.87329007725e-07
8.87338377574e-07
8.89246450973e-07
8.89237085603e-07
8.91181862496e-07
8.91189849895e-07
8.93097913198e-07
8.93084215115e-07
8.95037921195e-07
8.95049860201e-07
8.96954131591e-07
8.9694426936e-07
8.98893413667e-07
8.98908971498e-07
9.00801779114e-07
9.00781598602e-07
9.02739546009e-07
9.02739830019e-07
9.04679248379e-07
9.04703348855e-07
9.06593948105e-07
9.06595314549e-07
9.08509139325e-07
9.08488664357e-07
9.1045191746e-07
9.10462688273e-07
9.1236743709e-07
9.1235506471e-07
9.1430651523e-07
9.14318697776e-07
9.16220551747e-07
9.1620723088e-07
9.18161025011e-07
9.1817448913e-07
9.20075152095e-07
9.2006271673e-07
9.22014465514e-07
9.22027012174e-07
9.23928975789e-07
9.23916326466e-07
9.25870672793e-07
9.25887588036e-07
9.27781424266e-07
9.27766430888e-07
9.29726048249e-07
9.29745973988e-07
9.31642344048e-07
9.31642259322e-07
9.3355785118e-07
9.33536374075e-07
9.35502914731e-07
9.35516235498e-07
9.3742719684e-07
9.37431335477e-07
9.39451592658e-07
9.39523935327e-07
9.42139131129e-07
9.42077595425e-07
9.44911427237e-07
9.45257069652e-07
9.53373975788e-07
9.51917649948e-07
9.58996863412e-07
9.59261160522e-07
9.85608038394e-07
9.77703946137e-07
9.80393242326e-07
9.84455251656e-07
1.03180954994e-06
1.01590732336e-06
9.61101224639e-07
9.85635429173e-07
1.00938099413e-06
9.93253947512e-07
8.62663460981e-07
8.94030118561e-07
8.93242432607e-07
8.7247548212e-07
4.90151465846e-07
6.08426523836e-07
5.86411890919e-07
6.29873398509e-07
6.07118251e-07
6.38058297359e-07
6.6330937785e-07
6.72989224862e-07
6.80743603267e-07
6.9591180626e-07
7.28366318893e-07
7.30325286653e-07
7.39117696013e-07
7.45485985806e-07
7.60825870896e-07
7.61256367606e-07
7.64337430212e-07
7.66334986381e-07
7.69760895854e-07
7.70318019513e-07
7.7046577137e-07
7.71364581108e-07
7.71090886212e-07
7.71882852784e-07
7.71171110168e-07
7.72019055861e-07
7.711663517e-07
7.7200255023e-07
7.71173930972e-07
7.7202468989e-07
7.71180742465e-07
7.72044808826e-07
7.71169066949e-07
7.72009985627e-07
7.71179496045e-07
7.72041193488e-07
7.71169375792e-07
7.72010393959e-07
7.71181818962e-07
7.72047400028e-07
7.71169488998e-07
7.72010403591e-07
7.71179291388e-07
7.7204013838e-07
7.71167632415e-07
7.72005090692e-07
7.71181047114e-07
7.72045349639e-07
7.71167758029e-07
7.72005754391e-07
7.71180431981e-07
7.72043953288e-07
7.71167724239e-07
7.72005712348e-07
7.71181601857e-07
7.7204681625e-07
7.71169353233e-07
7.7200990667e-07
7.71179790508e-07
7.72041485389e-07
7.7117451889e-07
7.72025635564e-07
7.71174461481e-07
7.72025552462e-07
7.71174554638e-07
7.72025781292e-07
7.71169496903e-07
7.72010415161e-07
7.71179775755e-07
7.72041689198e-07
7.7116720608e-07
7.72004185979e-07
7.71180898441e-07
7.72045020366e-07
7.71168104408e-07
7.72006659889e-07
7.71180754394e-07
7.72044769491e-07
7.71166980989e-07
7.72003760138e-07
7.71178662791e-07
7.72038643928e-07
7.71170119928e-07
7.72012067589e-07
7.71181820037e-07
7.72046994277e-07
7.71168240315e-07
7.72006377703e-07
7.71181162818e-07
7.72045083687e-07
7.7116800214e-07
7.72005679951e-07
7.71181015424e-07
7.72044814027e-07
7.71168364794e-07
7.72006639491e-07
7.7118140081e-07
7.72045843804e-07
7.71168179498e-07
7.72006389155e-07
7.71180947086e-07
7.72044767862e-07
7.71168300135e-07
7.7200668143e-07
7.71181203142e-07
7.72045395136e-07
7.71168386008e-07
7.720069428e-07
7.71181056669e-07
7.72045032187e-07
7.71166403415e-07
7.72001368537e-07
7.71174825917e-07
7.72025889964e-07
7.71182983491e-07
7.72049853607e-07
7.71168169061e-07
7.7200605179e-07
7.71181775011e-07
7.72046761346e-07
7.71169404943e-07
7.72009846893e-07
7.7117979804e-07
7.72041504358e-07
7.71174576789e-07
7.7202580609e-07
7.71169337361e-07
7.72010060154e-07
7.7117958405e-07
7.72041331921e-07
7.71167105556e-07
7.72004050075e-07
7.71180968718e-07
7.72045257617e-07
7.71166373445e-07
7.72001844754e-07
7.7117444645e-07
7.72025598134e-07
7.71182588343e-07
7.72049532167e-07
7.71168000939e-07
7.72006164063e-07
7.71180846789e-07
7.72044704379e-07
7.71168039176e-07
7.7200629796e-07
7.71180677865e-07
7.72044417411e-07
7.71167869452e-07
7.72005991032e-07
7.71180785984e-07
7.72044680912e-07
7.71167256869e-07
7.72004294878e-07
7.71179723152e-07
7.72041613304e-07
7.71169235502e-07
7.72009928905e-07
7.71174316949e-07
7.720254715e-07
7.71174270463e-07
7.72025406908e-07
7.71174286785e-07
7.72025442016e-07
7.71174301201e-07
7.72025384011e-07
7.7117955097e-07
7.72041101339e-07
7.71169188342e-07
7.72009530512e-07
7.7118127613e-07
7.72045916761e-07
7.71166123019e-07
7.72001309469e-07
7.71179607501e-07
7.72039254362e-07
7.71207866983e-07
7.72138490754e-07
7.71909587716e-07
7.72658169164e-07
7.72123485533e-07
7.73445906359e-07
7.78235178431e-07
7.77571324847e-07
7.79159598119e-07
7.81001893523e-07
8.02341616276e-07
7.95731286516e-07
7.91325580059e-07
7.97217700723e-07
8.38123218481e-07
8.24145502197e-07
7.71437075953e-07
7.94436745706e-07
8.1733707839e-07
8.02993307046e-07
6.90360193231e-07
7.18181227735e-07
7.19350590951e-07
7.02030597044e-07
4.82678170231e-07
4.82671636157e-07
4.84611578326e-07
4.84618243859e-07
4.86535113861e-07
4.86535129208e-07
4.88461838222e-07
4.88461689563e-07
4.90388734945e-07
4.90388649349e-07
4.92315728968e-07
4.92315801915e-07
4.94242617995e-07
4.94242723077e-07
4.96165981272e-07
4.96159156942e-07
4.98099347742e-07
4.98105922078e-07
5.00018327717e-07
5.00009208997e-07
5.01954328397e-07
5.01963170586e-07
5.03872187772e-07
5.03863258634e-07
5.05807121739e-07
5.05814201928e-07
5.07727274722e-07
5.07720497047e-07
5.09661085844e-07
5.09668141126e-07
5.11581081513e-07
5.11574136022e-07
5.13515962348e-07
5.13525200259e-07
5.15433425715e-07
5.15424368464e-07
5.1736951167e-07
5.1737873935e-07
5.19288171654e-07
5.1928100676e-07
5.21222100537e-07
5.2122922269e-07
5.23145537313e-07
5.23145649169e-07
5.25068877961e-07
5.25061800606e-07
5.27002759141e-07
5.27009949277e-07
5.28921082108e-07
5.28911261333e-07
5.30857512394e-07
5.30866465185e-07
5.32775685747e-07
5.32767119888e-07
5.3471114592e-07
5.34719858784e-07
5.36627601442e-07
5.36615994232e-07
5.38560363877e-07
5.38560041235e-07
5.40493507981e-07
5.40505053083e-07
5.42409713132e-07
5.42400385839e-07
5.44345166617e-07
5.44352936971e-07
5.46264615695e-07
5.46257331918e-07
5.48198693248e-07
5.48206041008e-07
5.50118099406e-07
5.50110332876e-07
5.520537347e-07
5.52063566423e-07
5.53970698901e-07
5.53961107392e-07
5.55907598238e-07
5.55917789176e-07
5.57825598724e-07
5.57818081286e-07
5.59756144026e-07
5.59756211662e-07
5.61687057365e-07
5.61695318336e-07
5.63605675032e-07
5.63597529432e-07
5.6553992989e-07
5.65546580479e-07
5.67456957166e-07
5.67444238315e-07
5.69390589608e-07
5.69390712329e-07
5.71323857104e-07
5.71336191162e-07
5.73239351537e-07
5.73229502261e-07
5.75175256221e-07
5.75183404169e-07
5.77094318479e-07
5.77086617312e-07
5.79024995631e-07
5.79025122829e-07
5.80951700453e-07
5.80951712791e-07
5.8288231607e-07
5.82890129333e-07
5.84801159238e-07
5.84792763697e-07
5.86737473996e-07
5.86747858736e-07
5.88654038925e-07
5.88643928612e-07
5.90591654973e-07
5.90602603564e-07
5.92508994879e-07