/*--------------------------------*- C++ -*----------------------------------*\
| =========                 |                                                 |
| \\      /  F ield         | OpenFOAM: The Open Source CFD Toolbox           |
|  \\    /   O peration     | Version:  2112                                  |
|   \\  /    A nd           | Website:  www.openfoam.com                      |
|    \\/     M anipulation  |                                                 |
\*---------------------------------------------------------------------------*/
FoamFile
{
    version     2.0;
    format      ascii;
    arch        "LSB;label=32;scalar=64";
    class       volScalarField;
    location    "0";
    object      faceWeight;
}
// * * * * * * * * * * * * * * * * * * * * * * * * * * * * * * * * * * * * * //

dimensions      [0 0 0 0 0 0 0];

internalField   nonuniform List<scalar> 
52617
(
0.351549363932
0.357602380636
0.502829193179
0.502829193179
0.498761679343
0.498761679343
0.502268594686
0.502268594686
0.498912261659
0.498912261659
0.500436896613
0.500436896613
0.499385979486
0.499385979486
0.50003306746
0.50003306746
0.499876048523
0.499876048523
0.500028859593
0.500028859593
0.499994239724
0.499994239724
0.500006367083
0.500006367083
0.500001523059
0.500001523059
0.499998713471
0.499998713471
0.500000707201
0.500000707201
0.499999171238
0.499999171238
0.500001145105
0.500001145105
0.499998499857
0.499998499857
0.500001444867
0.500001444867
0.499998296821
0.499998296821
0.499999950045
0.499999950045
0.500001703698
0.500001703698
0.499998594415
0.499998594415
0.500001383902
0.500001383902
0.499998476131
0.499998476131
0.500001155281
0.500001155281
0.500000026284
0.500000026284
0.49999875994
0.49999875994
0.500001195054
0.500001195054
0.499998975922
0.499998975922
0.500001399952
0.500001399952
0.499998153583
0.499998153583
0.49999997382
0.49999997382
0.500001850035
0.500001850035
0.499998620354
0.499998620354
0.500001023434
0.500001023434
0.499998782688
0.499998782688
0.50000121842
0.50000121842
0.499998843734
0.499998843734
0.499999960475
0.499999960475
0.499999990908
0.499999990908
0.500000016642
0.500000016642
0.500000004523
0.500000004523
0.499999972387
0.499999972387
0.499999958611
0.499999958611
0.499999954387
0.499999954387
0.500001113883
0.500001113883
0.499998787237
0.499998787237
0.500001244846
0.500001244846
0.49999890663
0.49999890663
0.500001117309
0.500001117309
0.49999883705
0.49999883705
0.50000108741
0.50000108741
0.499998777008
0.499998777008
0.500001228172
0.500001228172
0.500000009769
0.500000009769
0.499998833061
0.499998833061
0.49967112424
0.499679952771
0.50000149641
0.50000149641
0.499998851872
0.499998851872
0.500001133684
0.500001133684
0.499999999414
0.499999999414
0.49999999529
0.49999999529
0.500000006522
0.500000006522
0.50000000845
0.50000000845
0.500000005787
0.500000005787
0.500000005112
0.500000005112
0.500000006701
0.500000006701
0.499999994094
0.499999994094
0.499999991459
0.499999991459
0.500000027311
0.500000027311
0.500000043837
0.500000043837
0.499999988951
0.499999988951
0.499999942703
0.499999942703
0.49999998714
0.49999998714
0.500000048617
0.500000048617
0.500000041345
0.500000041345
0.499998880893
0.499998880893
0.500001147121
0.500001147121
0.499998476254
0.499998476254
0.500001395873
0.500001395873
0.499998608617
0.499998608617
0.500001374764
0.500001374764
0.499998645891
0.499998645891
0.500001538824
0.500001538824
0.49999881956
0.49999881956
0.500000626768
0.500000626768
0.499999192808
0.499999192808
0.500001356176
0.500001356176
0.50000150568
0.50000150568
0.499998589715
0.499998589715
0.500001360238
0.500001360238
0.499998606463
0.499998606463
0.50000152761
0.50000152761
0.499998846846
0.499998846846
0.499999985636
0.499999985636
0.500001132926
0.500001132926
0.499998454257
0.499998454257
0.500001414561
0.500001414561
0.499998340195
0.499998340195
0.500000018385
0.500000018385
0.500001702352
0.500001702352
0.499998574608
0.499998574608
0.50000136273
0.50000136273
0.499998613818
0.499998613818
0.500001524739
0.500001524739
0.499998827174
0.499998827174
0.500001111398
0.500001111398
0.499998886258
0.499998886258
0.500001249291
0.500001249291
0.499998718097
0.499998718097
0.500000809816
0.500000809816
0.499999205629
0.499999205629
0.500000871717
0.500000871717
0.499999198285
0.499999198285
0.500001252303
0.500001252303
0.499998721462
0.499998721462
0.500001104035
0.500001104035
0.500000018359
0.500000018359
0.499998900604
0.499998900604
0.500001257703
0.500001257703
0.499999007215
0.499999007215
0.500000964788
0.500000964788
0.499998451521
0.499998451521
0.500001404812
0.500001404812
0.499998489931
0.499998489931
0.500001154143
0.500001154143
0.499998869174
0.499998869174
0.50000000786
0.50000000786
0.500001123983
0.500001123983
0.499998816533
0.499998816533
0.500001501396
0.500001501396
0.499998638538
0.499998638538
0.500001436583
0.500001436583
0.49999861399
0.49999861399
0.500001467891
0.500001467891
0.499998808701
0.499998808701
0.500001136204
0.500001136204
0.500000038004
0.500000038004
0.499999985267
0.499999985267
0.499999957483
0.499999957483
0.499999994654
0.499999994654
0.499998925268
0.499998925268
0.500001271182
0.500001271182
0.499998733386
0.499998733386
0.500000802366
0.500000802366
0.499999335195
0.499999335195
0.500001500931
0.500001500931
0.499999899968
0.499999899968
0.499998165031
0.499998165031
0.500001022681
0.500001022681
0.499998814583
0.499998814583
0.500001210414
0.500001210414
0.499998796999
0.499998796999
0.500001014901
0.500001014901
0.499998550909
0.499998550909
0.500001457131
0.500001457131
0.49999830153
0.49999830153
0.49999998221
0.49999998221
0.500001692796
0.500001692796
0.499998594201
0.499998594201
0.500001370816
0.500001370816
0.499998608041
0.499998608041
0.500001535275
0.500001535275
0.49999886237
0.49999886237
0.500001137177
0.500001137177
0.500000012391
0.500000012391
0.499999986305
0.499999986305
0.499999965243
0.499999965243
0.49999999013
0.49999999013
0.500000011142
0.500000011142
0.500000012397
0.500000012397
0.500000014382
0.500000014382
0.50000002179
0.50000002179
0.500000031571
0.500000031571
0.500000027417
0.500000027417
0.499998879084
0.499998879084
0.500001143012
0.500001143012
0.49999847767
0.49999847767
0.500001433027
0.500001433027
0.499998508084
0.499998508084
0.500001174753
0.500001174753
0.50000001201
0.50000001201
0.499998684654
0.499998684654
0.500001099373
0.500001099373
0.499999183076
0.499999183076
0.50000087951
0.50000087951
0.499999088846
0.499999088846
0.500000893594
0.500000893594
0.499999097478
0.499999097478
0.500000821204
0.500000821204
0.49999920825
0.49999920825
0.500001313528
0.500001313528
0.49999898765
0.49999898765
0.500000966541
0.500000966541
0.499998437129
0.499998437129
0.500001376636
0.500001376636
0.499998505437
0.499998505437
0.500001210927
0.500001210927
0.499998884463
0.499998884463
0.499999965565
0.499999965565
0.499999960555
0.499999960555
0.499999976149
0.499999976149
0.500000001712
0.500000001712
0.500000021086
0.500000021086
0.500000019332
0.500000019332
0.500000015987
0.500000015987
0.500000001191
0.500000001191
0.499999987101
0.499999987101
0.499999981895
0.499999981895
0.499999984693
0.499999984693
0.500001101293
0.500001101293
0.499998706474
0.499998706474
0.500001291292
0.500001291292
0.499999244361
0.499999244361
0.500000858171
0.500000858171
0.499999106436
0.499999106436
0.500000838456
0.500000838456
0.499998932844
0.499998932844
0.500001467789
0.500001467789
0.499998364481
0.499998364481
0.500001117592
0.500001117592
0.499999286657
0.499999286657
0.500000920953
0.500000920953
0.499999055123
0.499999055123
0.500000704714
0.500000704714
0.499998868917
0.499998868917
0.500001569511
0.500001569511
0.499998676013
0.499998676013
0.500001448277
0.500001448277
0.499998533974
0.499998533974
0.500001043527
0.500001043527
0.499998851459
0.499998851459
0.500001150816
0.500001150816
0.499998962728
0.499998962728
0.5000014752
0.5000014752
0.499998558969
0.499998558969
0.50000151969
0.50000151969
0.499999018638
0.499999018638
0.500000960323
0.500000960323
0.499998505461
0.499998505461
0.500001755463
0.500001755463
0.499999975798
0.499999975798
0.499998244595
0.499998244595
0.500001385345
0.500001385345
0.499998515433
0.499998515433
0.500001119935
0.500001119935
0.499999225531
0.499999225531
0.500000901041
0.500000901041
0.499999122462
0.499999122462
0.500000838756
0.500000838756
0.499998808898
0.499998808898
0.500001186334
0.500001186334
0.499998900443
0.499998900443
0.500001406133
0.500001406133
0.499998483034
0.499998483034
0.50000133624
0.50000133624
0.499998262741
0.499998262741
0.499999933886
0.499999933886
0.500001420599
0.500001420599
0.499998902808
0.499998902808
0.500001080284
0.500001080284
0.499998895842
0.499998895842
0.500001200824
0.500001200824
0.499999099736
0.499999099736
0.500001899557
0.500001899557
0.499999909324
0.499999909324
0.49999813186
0.49999813186
0.500001303647
0.500001303647
0.499998504141
0.499998504141
0.500001004847
0.500001004847
0.499998951526
0.499998951526
0.500001504024
0.500001504024
0.499998619604
0.499998619604
0.500001381541
0.500001381541
0.499998614948
0.499998614948
0.500001369894
0.500001369894
0.499998597314
0.499998597314
0.500001534016
0.500001534016
0.49999886711
0.49999886711
0.500001127755
0.500001127755
0.499999991441
0.499999991441
0.499999983042
0.499999983042
0.499999988853
0.499999988853
0.499999984235
0.499999984235
0.499999999981
0.499999999981
0.499998896954
0.499998896954
0.500001201124
0.500001201124
0.499998537337
0.499998537337
0.500001434572
0.500001434572
0.499998623724
0.499998623724
0.50000136942
0.50000136942
0.499998273947
0.499998273947
0.499999974105
0.499999974105
0.500001665881
0.500001665881
0.499998569704
0.499998569704
0.500001543112
0.500001543112
0.499998895204
0.499998895204
0.500001142271
0.500001142271
0.499999982774
0.499999982774
0.499999956747
0.499999956747
0.499998812635
0.499998812635
0.500001105123
0.500001105123
0.499998490902
0.499998490902
0.500001456289
0.500001456289
0.499998665816
0.499998665816
0.500001543472
0.500001543472
0.49999904272
0.49999904272
0.500001061705
0.500001061705
0.499998709708
0.499998709708
0.500000792976
0.500000792976
0.499999159665
0.499999159665
0.500000770097
0.500000770097
0.499998717193
0.499998717193
0.500001293633
0.500001293633
0.500000000679
0.500000000679
0.499998824413
0.499998824413
0.500001537361
0.500001537361
0.499998654936
0.499998654936
0.500001396535
0.500001396535
0.499998566974
0.499998566974
0.500001669929
0.500001669929
0.50000000318
0.50000000318
0.499998319397
0.499998319397
0.500001395399
0.500001395399
0.499998644325
0.499998644325
0.500001761736
0.500001761736
0.50000014509
0.50000014509
0.499998564164
0.499998564164
0.500001034393
0.500001034393
0.499998845873
0.499998845873
0.500001208405
0.500001208405
0.499998784604
0.499998784604
0.500001142533
0.500001142533
0.499998888614
0.499998888614
0.500001181533
0.500001181533
0.499998484475
0.499998484475
0.500001361051
0.500001361051
0.499998639211
0.499998639211
0.500001766617
0.500001766617
0.500000001033
0.500000001033
0.499998152174
0.499998152174
0.500001372624
0.500001372624
0.499998909072
0.499998909072
0.500001044426
0.500001044426
0.499998579455
0.499998579455
0.500001446633
0.500001446633
0.499998267248
0.499998267248
0.500000007613
0.500000007613
0.500001767471
0.500001767471
0.499998654673
0.499998654673
0.500001406662
0.500001406662
0.499998465053
0.499998465053
0.500001064567
0.500001064567
0.499999307048
0.499999307048
0.500001318603
0.500001318603
0.499998788477
0.499998788477
0.500001130796
0.500001130796
0.500000001405
0.500000001405
0.500000006882
0.500000006882
0.50000000529
0.50000000529
0.500000003028
0.500000003028
0.500000005333
0.500000005333
0.499998889792
0.499998889792
0.500001166011
0.500001166011
0.499998482105
0.499998482105
0.500001440548
0.500001440548
0.499998614319
0.499998614319
0.50000134647
0.50000134647
0.499998506446
0.499998506446
0.500001477862
0.500001477862
0.499998969156
0.499998969156
0.500001042656
0.500001042656
0.499998497395
0.499998497395
0.500001429688
0.500001429688
0.499998494076
0.499998494076
0.50000118387
0.50000118387
0.499998893439
0.499998893439
0.499999999969
0.499999999969
0.500001117994
0.500001117994
0.49999875596
0.49999875596
0.500001202998
0.500001202998
0.499998903054
0.499998903054
0.500001132403
0.500001132403
0.499998841582
0.499998841582
0.500001123603
0.500001123603
0.499998860148
0.499998860148
0.500001152614
0.500001152614
0.499998835327
0.499998835327
0.500001248796
0.500001248796
0.499999197512
0.499999197512
0.500000858132
0.500000858132
0.499999051823
0.499999051823
0.50000072453
0.50000072453
0.499998712324
0.499998712324
0.500001331166
0.500001331166
0.500000081606
0.500000081606
0.499998869031
0.499998869031
0.49967112424
0.499679952771
0.499998979851
0.499998979851
0.50000122695
0.50000122695
0.499998905357
0.499998905357
0.500001137329
0.500001137329
0.49999894543
0.49999894543
0.500001406157
0.500001406157
0.499998172475
0.499998172475
0.499999998467
0.499999998467
0.50000177746
0.50000177746
0.499998672805
0.499998672805
0.500001445874
0.500001445874
0.499998625193
0.499998625193
0.500001356831
0.500001356831
0.499998547789
0.499998547789
0.500001518485
0.500001518485
0.499998859797
0.499998859797
0.500000695222
0.500000695222
0.499999168406
0.499999168406
0.500001244956
0.500001244956
0.499998922882
0.499998922882
0.500001211294
0.500001211294
0.499998767893
0.499998767893
0.50000113397
0.50000113397
0.499998864792
0.499998864792
0.500001112111
0.500001112111
0.499998465785
0.499998465785
0.500001417006
0.500001417006
0.499998679616
0.499998679616
0.500001742064
0.500001742064
0.499999961058
0.499999961058
0.499998231236
0.499998231236
0.500001377102
0.500001377102
0.499998583207
0.499998583207
0.500001440753
0.500001440753
0.499998862051
0.499998862051
0.500000878899
0.500000878899
0.49999923645
0.49999923645
0.500000762269
0.500000762269
0.499998684642
0.499998684642
0.500001054293
0.500001054293
0.499998917271
0.499998917271
0.500001277188
0.500001277188
0.499999223956
0.499999223956
0.500000915868
0.500000915868
0.499999124057
0.499999124057
0.500000832268
0.500000832268
0.499999179279
0.499999179279
0.500001251647
0.500001251647
0.499998731998
0.499998731998
0.500001112778
0.500001112778
0.500000013706
0.500000013706
0.499998902644
0.499998902644
0.500001140852
0.500001140852
0.499998462075
0.499998462075
0.500001476635
0.500001476635
0.499998668955
0.499998668955
0.500001380092
0.500001380092
0.499998489248
0.499998489248
0.500001441452
0.500001441452
0.499998865908
0.499998865908
0.500000833727
0.500000833727
0.499999117489
0.499999117489
0.50000063429
0.50000063429
0.499998425757
0.499998425757
0.50000019166
0.50000019166
0.500001844565
0.500001844565
0.49999864153
0.49999864153
0.500001461066
0.500001461066
0.499998845337
0.499998845337
0.500001200242
0.500001200242
0.50000006085
0.50000006085
0.500000010822
0.500000010822
0.499999994228
0.499999994228
0.499998858995
0.499998858995
0.500001138086
0.500001138086
0.499998486023
0.499998486023
0.5000014041
0.5000014041
0.499998596428
0.499998596428
0.500001488955
0.500001488955
0.499998830047
0.499998830047
0.500000015709
0.500000015709
0.500001188628
0.500001188628
0.499998493626
0.499998493626
0.50000139153
0.50000139153
0.499998611281
0.499998611281
0.500001479642
0.500001479642
0.499999564366
0.499999564366
0.500008183487
0.500008183487
0.499988799445
0.499988799445
0.500050728658
0.500050728658
0.499836880514
0.499836880514
0.500104732679
0.500104732679
0.496747349155
0.499217805423
0.496747349155
0.500525207201
0.480382756155
0.491909186123
0.480382756155
0.491909186123
0.459630345439
0.473875487901
0.459630345439
0.473875487901
0.475520547774
0.482294920129
0.315332001127
0.499701789401
0.491757153117
0.491757153117
0.489890936593
0.489890936593
0.494759559294
0.494759559294
0.4985469762
0.4985469762
0.499734611465
0.499820695116
0.499968474319
0.499990741405
0.499993427302
0.499993427302
0.499996375646
0.499996300515
0.499996300515
0.499993707473
0.499993707473
0.499994828101
0.499994828101
0.499994951592
0.499994951592
0.499992729214
0.499992729214
0.499994295757
0.499994295757
0.499993474491
0.499993474491
0.499993077552
0.499993077552
0.499992493082
0.499992493082
0.500004423777
0.499990274761
0.499990274761
0.499994573871
0.499994573871
0.499994352125
0.499994352125
0.499995004405
0.499995004405
0.499994809606
0.499994809606
0.499994511956
0.499994511956
0.499993337944
0.499993337944
0.500005010778
0.499990477324
0.499990477324
0.499991952402
0.499991952402
0.499993378947
0.499993378947
0.499992344542
0.499992344542
0.49999509024
0.49999509024
0.499995190549
0.499995190549
0.499992932179
0.499992932179
0.499992525014
0.499992525014
0.499991696181
0.499991696181
0.499991969917
0.499991969917
0.499996578245
0.499996578245
0.499999938956
0.50000000046
0.50000009931
0.499999991135
0.499996600285
0.499996600285
0.499991971376
0.499991971376
0.499991589306
0.499991589306
0.499991355808
0.499991355808
0.499993635234
0.499993635234
0.499991335172
0.499991335172
0.499991583486
0.499991583486
0.499992016446
0.499992016446
0.500003525846
0.499992423562
0.499992423562
0.499995075953
0.499995075953
0.499994360816
0.499994360816
0.499991234639
0.499991234639
0.499992605706
0.499992605706
0.499995090973
0.499995090973
0.500022935887
0.500152463636
0.500152463636
0.500657169299
0.500657169299
0.498528600556
0.498528600556
0.486009390078
0.486009390078
0.466679464142
0.466679464142
0.314708209296
0.312578605174
0.317926971534
0.49240619984
0.502976233949
0.486777410753
0.497103819925
0.486777410753
0.497103819925
0.487677037168
0.492583908793
0.487677037168
0.492583908793
0.493935849923
0.496014896131
0.493935849923
0.496014896131
0.498514911911
0.498842576136
0.498514911911
0.498988108441
0.499991231935
0.499883462217
0.500004370729
0.500006176498
0.499999935771
0.499999935771
0.500001702937
0.500001702937
0.499998611024
0.499998611024
0.500001069666
0.500001069666
0.49999894806
0.49999894806
0.500001464676
0.500001464676
0.499998565828
0.499998565828
0.500001700001
0.500001700001
0.499999998731
0.499999998731
0.499998327006
0.499998327006
0.500001460796
0.500001460796
0.499998465139
0.499998465139
0.500001076874
0.500001076874
0.499998831815
0.499998831815
0.500000014306
0.500000014306
0.500000001885
0.500000001885
0.500001099077
0.500001099077
0.499998719001
0.499998719001
0.50000128757
0.50000128757
0.499999335484
0.499999335484
0.500001187357
0.500001187357
0.499998795747
0.499998795747
0.500001052279
0.500001052279
0.499998567593
0.499998567593
0.500001479202
0.500001479202
0.499998475802
0.499998475802
0.500001139921
0.500001139921
0.500000001727
0.500000001727
0.499998838999
0.499998838999
0.500001529538
0.500001529538
0.499998637819
0.499998637819
0.500001435241
0.500001435241
0.499998488147
0.499998488147
0.500001128356
0.500001128356
0.499998838027
0.499998838027
0.499999979929
0.499999979929
0.499999996303
0.499999996303
0.500000004536
0.500000004536
0.50000000675
0.50000000675
0.500000008608
0.500000008608
0.500000002099
0.500000002099
0.500001121773
0.500001121773
0.499998759809
0.499998759809
0.500001204062
0.500001204062
0.499998864452
0.499998864452
0.500001239036
0.500001239036
0.499999199437
0.499999199437
0.500000880001
0.500000880001
0.499999122345
0.499999122345
0.500000746926
0.500000746926
0.499998721923
0.499998721923
0.500001111585
0.500001111585
0.499999083687
0.499999083687
0.500001442263
0.500001442263
0.499998133039
0.499998133039
0.500000026217
0.500000026217
0.500002219916
0.500002219916
0.500000125565
0.500000125565
0.499998121905
0.499998121905
0.500000985843
0.500000985843
0.499998869893
0.499998869893
0.500001110356
0.500001110356
0.499998788451
0.499998788451
0.500001221972
0.500001221972
0.499998873693
0.499998873693
0.50000113402
0.50000113402
0.499998859055
0.499998859055
0.500001522373
0.500001522373
0.499998653208
0.499998653208
0.50000178593
0.50000178593
0.499999992421
0.499999992421
0.49999808284
0.49999808284
0.500001186587
0.500001186587
0.500000367907
0.500000367907
0.500006416854
0.500006416854
0.499994556953
0.499994556953
0.500030477255
0.500030477255
0.4998726068
0.4998726068
0.500022963334
0.500022963334
0.498348240446
0.499329002623
0.498348240446
0.50034455845
0.482817810913
0.492981305088
0.482817810913
0.492981305088
0.462007949707
0.474908015687
0.462007949707
0.474908015687
0.476505816883
0.482695743631
0.499913288461
0.481244126853
0.502765097169
0.481244126853
0.502765097169
0.497682039707
0.50120732058
0.50120732058
0.501836582467
0.501836582467
0.500223826805
0.500223826805
0.500714938511
0.500714938511
0.500047139489
0.500047139489
0.500217503372
0.500217503372
0.500060292084
0.500060292084
0.500097158344
0.500097158344
0.500024875956
0.500042975741
0.499998217993
0.499994415331
0.499998217993
0.499994415331
0.500002171904
0.500006478622
0.49999624032
0.499988748027
0.49999624032
0.499988748027
0.499996675405
0.499989983297
0.499996675405
0.499989983297
0.499996005885
0.49998802238
0.499996005885
0.49998802238
0.499996216229
0.499988646159
0.499996216229
0.499988646159
0.499995725539
0.499987211772
0.499995725539
0.499987211772
0.499995871707
0.49998760798
0.499995871707
0.49998760798
0.49999601564
0.499988034623
0.49999601564
0.499988034623
0.499998289156
0.499994865992
0.499998289156
0.499994865992
0.499999990829
0.499999982162
0.49999834112
0.499995004763
0.49999834112
0.499995004763
0.499995951203
0.499987881242
0.499995951203
0.499987881242
0.499995859216
0.499987585541
0.499995859216
0.499987585541
0.499995572684
0.499986757612
0.499995572684
0.499986757612
0.499997130881
0.49999129416
0.499997130881
0.49999129416
0.499995615086
0.499986864428
0.499995615086
0.499986864428
0.4999957464
0.499987253373
0.4999957464
0.499987253373
0.499995878897
0.499987618157
0.499995878897
0.499987618157
0.499995740715
0.499987250506
0.499995740715
0.499987250506
0.499995888396
0.499987655003
0.499995888396
0.499987655003
0.499995849085
0.499987552776
0.499995849085
0.499987552776
0.499995286322
0.499985897314
0.499995286322
0.499985897314
0.500002586749
0.500007701659
0.499995271459
0.499985890074
0.499995271459
0.499985890074
0.499996014786
0.499988070847
0.499996014786
0.499988070847
0.499998305484
0.499994915069
0.499998299965
0.49999489916
0.499998299965
0.49999489916
0.499995975475
0.499987948387
0.499995975475
0.499987948387
0.499995313424
0.499985986847
0.499995313424
0.499985986847
0.500002564255
0.500007639091
0.499995318244
0.499986003679
0.499995318244
0.499986003679
0.499995853681
0.499987568392
0.499995853681
0.499987568392
0.49999585191
0.499987561166
0.49999585191
0.499987561166
0.499995640173
0.499986948121
0.499995640173
0.499986948121
0.499996579715
0.499989719817
0.499996579715
0.499989719817
0.49999999286
0.499999986644
0.49999999286
0.499999986644
0.499999993723
0.499999970254
0.499999993723
0.499999970254
0.499996591924
0.499989728234
0.499996591924
0.499989728234
0.499995184314
0.499985651471
0.499995184314
0.499985651471
0.500004096146
0.500012011958
0.500008169638
0.500031140481
0.500059545691
0.500080774622
0.500059545691
0.50014260198
0.499928883433
0.499928883433
0.500196805865
0.500196805865
0.496573223845
0.499310572421
0.496573223845
0.500495408378
0.480207870364
0.491733272129
0.480207870364
0.491733272129
0.459463855958
0.473704679462
0.459463855958
0.473704679462
0.311845394791
0.317711495871
0.499670638017
0.499678604379
0.500001146191
0.500001146191
0.500000002629
0.500000002629
0.499999974638
0.499999974638
0.499999985455
0.499999985455
0.500000012348
0.500000012348
0.500000017718
0.500000017718
0.499998853815
0.499998853815
0.500001099896
0.500001099896
0.499998480255
0.499998480255
0.500001467947
0.500001467947
0.499998523234
0.499998523234
0.500001166475
0.500001166475
0.499998887572
0.499998887572
0.500001153582
0.500001153582
0.499998868616
0.499998868616
0.500001499114
0.500001499114
0.499998535645
0.499998535645
0.500001486301
0.500001486301
0.499998850198
0.499998850198
0.500001138686
0.500001138686
0.500000017817
0.500000017817
0.499998876749
0.499998876749
0.500001136946
0.500001136946
0.499998452689
0.499998452689
0.500001405386
0.500001405386
0.499998660173
0.499998660173
0.500001357867
0.500001357867
0.499998197488
0.499998197488
0.499999950077
0.499999950077
0.500001780006
0.500001780006
0.499998566986
0.499998566986
0.500001189548
0.500001189548
0.499998888844
0.499998888844
0.500001116948
0.500001116948
0.499998823498
0.499998823498
0.5000014841
0.5000014841
0.499998557145
0.499998557145
0.500001527659
0.500001527659
0.499998876966
0.499998876966
0.500000010069
0.500000010069
0.500001225609
0.500001225609
0.499998795603
0.499998795603
0.50000097997
0.50000097997
0.499998132164
0.499998132164
0.500000017961
0.500000017961
0.500001799027
0.500001799027
0.499998568173
0.499998568173
0.500001180495
0.500001180495
0.499998887932
0.499998887932
0.500000018306
0.500000018306
0.500000001769
0.500000001769
0.500001117036
0.500001117036
0.499998803639
0.499998803639
0.500001474914
0.500001474914
0.499998568712
0.499998568712
0.500001544848
0.500001544848
0.499998875971
0.499998875971
0.500001132907
0.500001132907
0.499999983542
0.499999983542
0.499998861733
0.499998861733
0.500001212872
0.500001212872
0.499998702513
0.499998702513
0.500000682096
0.500000682096
0.499998818595
0.499998818595
0.50000130776
0.50000130776
0.499998861749
0.499998861749
0.499999964674
0.499999964674
0.499999994798
0.499999994798
0.500000022763
0.500000022763
0.50000004038
0.50000004038
0.500000009716
0.500000009716
0.500001107862
0.500001107862
0.499998735593
0.499998735593
0.500001181345
0.500001181345
0.499998839777
0.499998839777
0.500001176914
0.500001176914
0.499999309553
0.499999309553
0.500001434822
0.500001434822
0.499999854888
0.499999854888
0.499998283032
0.499998283032
0.500001558715
0.500001558715
0.499998840998
0.499998840998
0.500000584996
0.500000584996
0.499998870748
0.499998870748
0.500001532997
0.500001532997
0.499998238401
0.499998238401
0.499999978073
0.499999978073
0.500001792773
0.500001792773
0.499998562239
0.499998562239
0.500001172092
0.500001172092
0.499998886251
0.499998886251
0.500000003906
0.500000003906
0.500000011109
0.500000011109
0.50000000214
0.50000000214
0.499999986049
0.499999986049
0.49999997467
0.49999997467
0.499999981288
0.499999981288
0.499999982082
0.499999982082
0.499999991558
0.499999991558
0.500000008658
0.500000008658
0.500000026642
0.500000026642
0.500001141378
0.500001141378
0.499998816717
0.499998816717
0.500001475779
0.500001475779
0.499998601455
0.499998601455
0.500001436356
0.500001436356
0.49999866775
0.49999866775
0.50000138198
0.50000138198
0.499998582837
0.499998582837
0.500001354507
0.500001354507
0.499998606032
0.499998606032
0.500001528992
0.500001528992
0.499999026641
0.499999026641
0.500000972014
0.500000972014
0.499998474523
0.499998474523
0.500001399719
0.500001399719
0.499998628836
0.499998628836
0.500001451288
0.500001451288
0.499998627633
0.499998627633
0.500001373719
0.500001373719
0.499998498437
0.499998498437
0.500001445479
0.500001445479
0.499998926355
0.499998926355
0.500001046307
0.500001046307
0.499998550626
0.499998550626
0.500001582344
0.500001582344
0.499998850265
0.499998850265
0.500000763134
0.500000763134
0.499999263691
0.499999263691
0.500001156772
0.500001156772
0.499998469858
0.499998469858
0.500001508291
0.500001508291
0.499998828747
0.499998828747
0.500001088984
0.500001088984
0.499998856988
0.499998856988
0.500001203587
0.500001203587
0.499998584906
0.499998584906
0.499999654742
0.499999654742
0.499993634238
0.499993634238
0.499997863072
0.499887208579
0.498490954931
0.498962784912
0.498490954931
0.498692315237
0.493339763733
0.495342850506
0.493339763733
0.495342850506
0.484575448272
0.489392883009
0.484575448272
0.489392883009
0.480622998718
0.489347481867
0.480622998718
0.489347481867
0.488009572612
0.50253224742
0.488009572612
0.499903872727
0.362458358863
0.447249348715
0.499818267021
0.499818267021
0.499959086023
0.499959086023
0.499987808002
0.499987808002
0.499991144361
0.499991144361
0.499996346051
0.499996346051
0.500000682717
0.500000682717
0.499998529714
0.499998529714
0.500001467237
0.500001467237
0.499998495193
0.499998495193
0.500001162634
0.500001162634
0.499998875217
0.499998875217
0.500001121392
0.500001121392
0.499998837287
0.499998837287
0.500001520189
0.500001520189
0.499998605125
0.499998605125
0.500001386026
0.500001386026
0.499998461221
0.499998461221
0.500001134303
0.500001134303
0.499998856946
0.499998856946
0.500001136788
0.500001136788
0.499998814584
0.499998814584
0.50000127074
0.50000127074
0.499998904033
0.499998904033
0.500001045754
0.500001045754
0.499998752793
0.499998752793
0.500001245762
0.500001245762
0.499998901658
0.499998901658
0.49999996328
0.49999996328
0.499999916873
0.499999916873
0.499999968412
0.499999968412
0.500001171568
0.500001171568
0.499998902727
0.499998902727
0.500001546083
0.500001546083
0.499998479589
0.499998479589
0.500001136776
0.500001136776
0.499999186007
0.499999186007
0.5000006919
0.5000006919
0.499998851157
0.499998851157
0.500001594166
0.500001594166
0.499998516017
0.499998516017
0.50000095122
0.50000095122
0.499998936523
0.499998936523
0.500001293527
0.500001293527
0.499999203159
0.499999203159
0.500000696851
0.500000696851
0.499998850979
0.499998850979
0.50000149825
0.50000149825
0.499998588405
0.499998588405
0.499670638017
0.499678604379
0.500105725939
0.500105725939
0.485707155201
0.477967957491
0.500154931323
0.500154931323
0.485838881627
0.478095375937
0.499097348023
0.494476833762
0.487790593345
0.488780023269
0.433370168595
0.370221266401
0.493277173974
0.477178952451
0.433370168595
0.370221266401
0.487790593345
0.488780023269
0.49956729413
0.49956729413
0.500142572456
0.500142572456
0.48580579026
0.478063357887
0.433392601534
0.370246880196
0.468934307461
0.435808649176
0.487763992813
0.48875317257
0.487763992813
0.48875317257
0.488254130798
0.489947541078
0.488254130798
0.489947541078
0.485816128571
0.478074055322