/*--------------------------------*- C++ -*----------------------------------*\
| =========                 |                                                 |
| \\      /  F ield         | OpenFOAM: The Open Source CFD Toolbox           |
|  \\    /   O peration     | Version:  2112                                  |
|   \\  /    A nd           | Website:  www.openfoam.com                      |
|    \\/     M anipulation  |                                                 |
\*---------------------------------------------------------------------------*/
FoamFile
{
    version     2.0;
    format      ascii;
    arch        "LSB;label=32;scalar=64";
    class       volScalarField;
    location    "0";
    object      minTetVolume;
}
// * * * * * * * * * * * * * * * * * * * * * * * * * * * * * * * * * * * * * //

dimensions      [0 0 0 0 0 0 0];

internalField   nonuniform List<scalar> 
52617
(
1.60197691413e-05
1.73418982139e-05
0.000126325633401
0.000106027892325
0.000261895813079
0.000284158371068
0.000986699111296
0.000881684822232
0.00166869601081
0.00181197609757
0.00430557167792
0.00424026329111
0.0070876102531
0.00736988237869
0.0127751824633
0.0127647569578
0.0190135416085
0.0191418684439
0.0273532670897
0.0273097487867
0.0366873513954
0.0366964074317
0.0474633638751
0.0474480087079
0.0522166138495
0.0522129873026
0.0557066691384
0.0557100692583
0.0591158010129
0.0591139025118
0.062449104253
0.0624514727769
0.0656941179691
0.065690747447
0.0688599323364
0.0688645805904
0.0719292407377
0.0719245950429
0.074916397185
0.0749220209579
0.0778065186768
0.0778064961141
0.0805938840851
0.0805878752403
0.0832971646972
0.0833022204321
0.0858911548604
0.0858860702566
0.0883959936333
0.0884016868341
0.0907916523596
0.0907872107569
0.0930960470608
0.0930960019481
0.0913442279382
0.0913434695108
0.0810970263599
0.0810978025
0.0720427334778
0.0720421751613
0.0640563645413
0.064057113612
0.0570128898113
0.0570120077688
0.0508060377309
0.0508061486971
0.0453339337958
0.0453347098041
0.0405060729572
0.0405055488996
0.0362462008712
0.0362465559907
0.0324819133646
0.0324815463317
0.0291544784389
0.0291548312118
0.0262076425655
0.0262073501072
0.0235961978883
0.0235962167132
0.0212782532087
0.0212782766703
0.0192180698977
0.0192180949085
0.0173843530735
0.017384372225
0.0157498261371
0.0157498377542
0.0142907024511
0.0142907109939
0.012986217617
0.0129862250877
0.0118183764116
0.0118185202787
0.0107708505966
0.0107707154337
0.00983050503958
0.00983064032759
0.00898445341075
0.00898434841607
0.00822271350928
0.00822281536439
0.00753539690724
0.0075353026929
0.00691480159708
0.00691488591332
0.00635322466598
0.00635314126746
0.00584478458844
0.00584486528404
0.00538345509174
0.0053834536691
0.00496446401401
0.00496440132155
3.79919631678e-06
3.7991304199e-06
3.7247234407e-06
3.72478953899e-06
3.6518618597e-06
3.65181183762e-06
3.58081406661e-06
3.5808620363e-06
3.51134375918e-06
3.51134295978e-06
3.44350538622e-06
3.44350444421e-06
3.3772322677e-06
3.3772318012e-06
3.31248281775e-06
3.31248243501e-06
3.24921753026e-06
3.24921704884e-06
3.187396594e-06
3.18739609619e-06
3.12698039652e-06
3.12697996901e-06
3.06793198457e-06
3.06793111026e-06
3.01021825249e-06
3.01021730743e-06
2.95380397736e-06
2.95380430256e-06
2.89865014896e-06
2.89865101862e-06
2.84472267723e-06
2.84472167354e-06
2.79199519205e-06
2.79199270194e-06
2.74043984849e-06
2.74043887616e-06
2.6900225698e-06
2.69002357101e-06
2.64071089529e-06
2.64071162541e-06
2.59246348829e-06
2.59242883307e-06
2.5453122767e-06
2.5453467922e-06
2.49912447981e-06
2.49907917746e-06
2.45401644219e-06
2.45405712687e-06
2.40979988419e-06
2.40976002151e-06
2.36661426767e-06
2.36665291521e-06
2.32427832429e-06
2.32424090405e-06
2.28292436894e-06
2.28296604162e-06
2.24236649116e-06
2.24233484545e-06
2.20273798046e-06
2.20275437008e-06
2.16390962302e-06
2.16388890902e-06
2.12593722102e-06
2.12597137665e-06
0.00458352771801
0.00458360510367
0.0042365144723
0.00423644787536
0.00392025708236
0.00392031680667
0.00363143068301
0.0036313741305
0.00336756302492
0.00336762063837
0.0031260018534
0.00312596031756
0.0029047645148
0.00290476525812
0.00270183340348
0.00270186771337
0.00251546458752
0.00251542072953
0.00234423121587
0.0023442690109
0.00218657375917
0.002186532857
0.00204142423469
0.00204142692234
0.00190757228667
0.00190760969998
0.00178397650372
0.00178394751922
0.00166984506387
0.00166987108964
0.0015642428952
0.00156421819435
0.00146654039305
0.00146656593182
0.00137596917008
0.00137595035506
0.00129201489828
0.00129203117053
0.0012140635199
0.00121404785218
0.0011416725398
0.00114168874111
0.00107434106113
0.00107432501818
0.00101171605366
0.00101172547831
0.000953371191251
0.000953362483453
0.000899010175292
0.000899019208694
0.000848290986718
0.000848283134713
0.000800960214395
0.000800971633278
0.000756728916508
0.000756717560641
0.000715400084381
0.000715409113405
0.000676723419022
0.000676723171821
0.000640517684143
0.000640509451801
0.000606608680352
0.000606617415116
2.08870362415e-06
2.08867876423e-06
2.0522981211e-06
2.05232147046e-06
2.01660767752e-06
2.01657052231e-06
1.98172048859e-06
1.98175357632e-06
1.94748238607e-06
1.94744744048e-06
1.9140227648e-06
1.91404912466e-06
1.88118934884e-06
1.88116415293e-06
1.84906819805e-06
1.84906872222e-06
1.81760117825e-06
1.81762555959e-06
1.7867426328e-06
1.78671759693e-06
1.75655726824e-06
1.75658865928e-06
1.72692739396e-06
1.72689943816e-06
1.69795062976e-06
1.69797961977e-06
1.66949855514e-06
1.66947101099e-06
1.6416747633e-06
1.64170337587e-06
1.6143483006e-06
1.6143253312e-06
1.58761646251e-06
1.58763783083e-06
1.56138094081e-06
1.5613813479e-06
1.53567282077e-06
1.53567225588e-06
1.51047126811e-06
1.5104702255e-06
1.48576505432e-06
1.48576469548e-06
1.46153355299e-06
1.46151479879e-06
1.43779993363e-06
1.43782157292e-06
1.41448815612e-06
1.41446674163e-06
1.39166911061e-06
1.39168236567e-06
1.36926091551e-06
1.36925004271e-06
1.34731011627e-06
1.34733399839e-06
1.32574743615e-06
1.32574547824e-06
1.30460315647e-06
1.30457459287e-06
1.28389691887e-06
1.28391257249e-06
1.26354269947e-06
1.26352493578e-06
1.24361079602e-06
1.24362875674e-06
0.000574808041113
0.000574799902285
0.000544989964993
0.000544996315344
0.000516988345929
0.000516979677246
0.000490702594421
0.000490710910302
0.000465979760587
0.000465970607818
0.000442746215641
0.000442746480081
0.000420881200128
0.000420889541885
0.000400283218454
0.000400276682497
0.00038089135371
0.000380897437431
0.000362599751075
0.000362593887152
0.000345360103332
0.000345366265897
0.000329079789246
0.000329075367391
0.000313717476034
0.000313721584238
0.000299199140016
0.000299199022122
0.000285478808034
0.000285478611452
0.00027250411167
0.000272503863905
0.000260228345639
0.000260228191234
0.000248608011652
0.000248607927994
0.000237602831208
0.000237602755008
0.000227175336761
0.00022717526888
0.000217290545023
0.00021729049823
0.000207915859459
0.000207915837013
0.000199020903123
0.000199020870369
0.000190576520637
0.00019057399494
0.00018255992118
0.000182562340138
0.000174939581424
0.000174936463371
0.000167701942196
0.000167704753983
0.000160813858048
0.00016081104901
0.000154267348793
0.000154269485199
0.000148033177568
0.000148033165503
0.000142098194605
0.000142096024796
0.000136449090874
0.000136450876764
1.22401971979e-06
1.22400781741e-06
1.20482543272e-06
1.20483802971e-06
1.18596718245e-06
1.18595431771e-06
1.16748669377e-06
1.16749910271e-06
1.14932524608e-06
1.14931289869e-06
1.13152525658e-06
1.13153632194e-06
1.11403620682e-06
1.11402571676e-06
1.0968919784e-06
1.09690906382e-06
1.08003435987e-06
1.08002125151e-06
1.0635114997e-06
1.06352364807e-06
1.04726757128e-06
1.04724807705e-06
1.03135277613e-06
1.03136967766e-06
1.01568997658e-06
1.0156719251e-06
1.00034835738e-06
1.00036282071e-06
9.85251165105e-07
9.85238118411e-07
9.70447426284e-07
9.70447185897e-07
9.55904010456e-07
9.55903723771e-07
9.41621298005e-07
9.41621195762e-07
9.27593706612e-07
9.27593888992e-07
9.13815856213e-07
9.13816243289e-07
9.00282487147e-07
9.0028284484e-07
8.86988726263e-07
8.86989038946e-07
8.7392970235e-07
8.73929854003e-07
8.61100814495e-07
8.61100819926e-07
8.48497380656e-07
8.4849733547e-07
8.36114652653e-07
8.36114638336e-07
8.23952875878e-07
8.23963721296e-07
8.11986955369e-07
8.11974507341e-07
8.00253111403e-07
8.00265469854e-07
7.886978562e-07
7.88690768993e-07
7.77359765607e-07
7.77367711667e-07
7.66202073797e-07
7.66193926144e-07
7.55251120701e-07
7.55258670573e-07
7.44472626133e-07
7.44463193062e-07
7.33894588557e-07
7.33907413627e-07
7.23473413514e-07
7.23459330407e-07
7.13257662596e-07
7.13267198085e-07
7.03191812599e-07
7.03185854048e-07
6.93310397151e-07
6.9331800245e-07
6.83581116883e-07
6.83573426852e-07
6.74029222737e-07
6.74034898924e-07
6.64625795417e-07
6.64616891607e-07
6.55394138051e-07
6.55406407463e-07
6.46294473391e-07
6.462842824e-07
6.37367536223e-07
6.37378524187e-07
6.28566154313e-07
6.28555171722e-07
6.19932070961e-07
6.19939796018e-07
6.11422233449e-07
6.11413895431e-07
6.0306837222e-07
6.03076664642e-07
5.94835531821e-07
5.94828201388e-07
5.86751928971e-07
5.86762233743e-07
5.78782140646e-07
5.78772196567e-07
5.70962572542e-07
5.70972895064e-07
5.63249271702e-07
5.63242643421e-07
5.55674803997e-07
5.55681121959e-07
5.48210376876e-07
5.48200605745e-07
5.40884417357e-07
5.40895703588e-07
5.33655632964e-07
5.33655368286e-07
5.26546847839e-07
5.2653581597e-07
5.19565202195e-07
5.19573775461e-07
5.12674759559e-07
5.12665693115e-07
5.05912412078e-07
5.05919181891e-07
4.99241629101e-07
4.99237025073e-07
4.92686949765e-07
4.92692236815e-07
4.86225361726e-07
4.86220273862e-07
4.79874670584e-07
4.79879465262e-07
4.73613681364e-07
4.7360697375e-07
4.6746215585e-07
4.67468778102e-07
4.61393958107e-07
4.61387922983e-07
4.55432102033e-07
4.5543973037e-07
4.49548552987e-07
4.49540427932e-07
4.43771028286e-07
4.43778103725e-07
4.3806584628e-07
4.38056801036e-07
4.32463359251e-07
4.32463116602e-07
4.26944458631e-07
4.26951728654e-07
4.21499522262e-07
4.21494038731e-07
4.16149784593e-07
4.16155170801e-07
4.10870684253e-07
4.1086530637e-07
4.05682614082e-07
4.05688444819e-07
4.00562678282e-07
4.00558394014e-07
3.9553085871e-07
3.9553979114e-07
3.9056099358e-07
3.90560487239e-07
3.85669975726e-07
3.85661372184e-07
3.80863336893e-07
3.80869257505e-07
3.76114033687e-07
3.76107336759e-07
3.71448370216e-07
3.71452844425e-07
0.000131063106723
0.000131061522198
0.000125932949339
0.000125935177837
0.000121037502113
0.000121035544245
0.000116372079384
0.000116373966827
0.000111916759529
0.000111914943462
0.00010766758584
0.000107669318391
0.000103606754157
0.00010360505183
9.97313859015e-05
9.97331800565e-05
9.60248428644e-05
9.60235524722e-05
9.2484774755e-05
9.24859894066e-05
8.90981371595e-05
8.90980919913e-05
8.58595570996e-05
8.5859505918e-05
8.27609485895e-05
8.27609060046e-05
7.97952773054e-05
7.97952331236e-05
7.6955967092e-05
7.69559396082e-05
7.42364364057e-05
7.4235468401e-05
7.16323655939e-05
7.16333715011e-05
6.91352685314e-05
6.91340780035e-05
6.67437449621e-05
6.67448699731e-05
6.44485231296e-05
6.44474772768e-05
6.22492468472e-05
6.22502475834e-05
6.01370811775e-05
6.01358623785e-05
5.8112192208e-05
5.81122042127e-05
5.61680539387e-05
5.61691607851e-05
5.42998997312e-05
5.42989863833e-05
5.25076772916e-05
5.25086304307e-05
5.07840034639e-05
5.07833362597e-05
4.9129135574e-05
4.91297907284e-05
4.75375311321e-05
4.75375033907e-05
4.60076228942e-05
4.60075827987e-05
4.45361031591e-05
4.45354769126e-05
4.31213547407e-05
4.31219144647e-05
4.17591010041e-05
4.17583604961e-05
4.04493370138e-05
4.04500335201e-05
3.91871185628e-05
3.91865029423e-05
3.79731421164e-05
3.79738320689e-05
3.68027225911e-05
3.68023011028e-05
3.56761558472e-05
3.56765965364e-05
3.45898463209e-05
3.45893154098e-05
3.35438679258e-05
3.35441810809e-05
3.25348057021e-05
3.25344829938e-05
3.15624867191e-05
3.15627740983e-05
3.06241942701e-05
3.06237347342e-05
2.97199776214e-05
2.9720434728e-05
2.88468064186e-05
2.88468022859e-05
2.80043152039e-05
2.80039294837e-05
2.71916852579e-05
2.71921793755e-05
2.64063230626e-05
2.64059030732e-05
2.56488189777e-05
2.56492410962e-05
2.49164051763e-05
2.4915982797e-05
2.4209811743e-05
2.42102871748e-05
2.35262909164e-05
2.35262824251e-05
2.28659175226e-05
2.28654620938e-05
2.22281956431e-05
2.22285619025e-05
2.16109633486e-05
2.1610616778e-05
2.10149379541e-05
2.10153730295e-05
2.04378126839e-05
2.04378381871e-05
1.98796954736e-05
1.98793538298e-05
1.93401665779e-05
1.93404003417e-05
1.88176144965e-05
1.88173557179e-05
1.83123575648e-05
1.83126168956e-05
1.78227650329e-05
1.78225067176e-05
1.73492733138e-05
1.73495058678e-05
1.68903452014e-05
1.68901214065e-05
1.64462646457e-05
1.64464926126e-05
1.60157085942e-05
1.60154206799e-05
1.55990759941e-05
1.55993267388e-05
1.51948921063e-05
1.51946471485e-05
1.48037348678e-05
1.48040425902e-05
1.44240615692e-05
1.4424055814e-05
1.40561035386e-05
1.40557951559e-05
1.36997486048e-05
1.36999710814e-05
1.33536856477e-05
1.33535125883e-05
1.30184018431e-05
1.30185622837e-05
1.26928493609e-05
1.26926364282e-05
1.23773620839e-05
1.23775743853e-05
1.20707725813e-05
1.20705258146e-05
1.17736881533e-05
1.17736939305e-05
1.14852490194e-05
1.14854901633e-05
1.1204932227e-05
1.12047536269e-05
1.09331633977e-05
1.09333452544e-05
1.06688810605e-05
1.0668687101e-05
1.04126084964e-05
1.04127405574e-05
1.0163409796e-05
1.01633266197e-05
9.92152707057e-06
9.92168112763e-06
9.68625371193e-06
9.68611363901e-06
9.45791794566e-06
9.45804373415e-06
9.23581566981e-06
9.23581319864e-06
9.01999853306e-06
9.0199967143e-06
8.81019885981e-06
8.81019692873e-06
8.60622385014e-06
8.60622173984e-06
8.40788762665e-06
8.40788580027e-06
8.2149640615e-06
8.214855238e-06
8.02745213497e-06
8.02756228154e-06
7.84485533971e-06
7.84471391855e-06
7.66745680856e-06
7.66758748339e-06
7.49458400307e-06
7.49446059701e-06
7.32660576287e-06
7.3267224709e-06
7.1628980734e-06
7.16277121445e-06
7.00380816794e-06
7.00393079199e-06
6.84869607431e-06
6.84861182906e-06
6.69785862475e-06
6.6979409196e-06
6.55083193822e-06
6.55071522705e-06
6.40785516387e-06
6.4079638369e-06
6.2683747871e-06
6.26826294302e-06
6.13274867357e-06
6.13283516386e-06
6.00043116312e-06
6.00035274682e-06
5.87164940031e-06
5.87165074288e-06
5.74616755877e-06
5.74624405411e-06
5.62377857835e-06
5.62369602575e-06
5.50465183151e-06
5.50473080879e-06
5.38837978096e-06
5.38830998299e-06
5.27518529447e-06
5.27525645825e-06
5.16469066939e-06
5.16461998614e-06
5.05710458387e-06
5.05717231214e-06
4.95206229595e-06
4.95199565693e-06
4.84975900033e-06
4.84982561924e-06
4.74984604772e-06
4.74978071442e-06
4.65252864277e-06
4.65259780791e-06
4.55745764321e-06
4.55741415574e-06
4.46480724388e-06
4.46485261578e-06
4.37432102333e-06
4.37427175175e-06
4.28611120775e-06
4.28614816728e-06
4.19994389248e-06
4.19988015725e-06
4.1159613427e-06
4.11602676275e-06
4.03387598689e-06
4.03387947602e-06
3.95375718227e-06
3.95370428157e-06
3.87561098972e-06
3.8756792091e-06
3.66841483649e-07
3.66837048587e-07
3.62311792121e-07
3.62317109997e-07
3.57839127483e-07
3.57834471859e-07
3.53442613418e-07
3.53447417703e-07
3.49101958031e-07
3.49097579334e-07
3.44833624205e-07
3.44839403926e-07
3.40616179345e-07
3.40608769657e-07
3.3647308768e-07
3.36473148357e-07
3.32387494917e-07
3.32394551585e-07
3.28352218395e-07
3.28347022115e-07
3.24387355186e-07
3.24392942854e-07
3.20468821998e-07
3.20463563121e-07
3.16617367795e-07
3.16622484499e-07
3.12811545122e-07
3.12806126659e-07
3.09071300659e-07
3.09076891552e-07
3.05372875044e-07
3.05368708562e-07
3.01736626526e-07
3.017391251e-07
2.98146742417e-07
2.98143787648e-07
2.94613469632e-07
2.94617833736e-07
2.91122951798e-07
2.91119199392e-07
2.87689686878e-07
2.87693825625e-07
2.8429674307e-07
2.84292550362e-07
2.80960267491e-07
2.80964053199e-07
2.77663018805e-07
2.77659247479e-07
2.74418500243e-07
2.74422127761e-07
2.7121250288e-07
2.71207539055e-07
2.68059744749e-07
2.68064274806e-07
2.64941962699e-07
2.64937789226e-07
2.61877167255e-07
2.6188259634e-07
2.58845497182e-07
2.58845330278e-07
2.55857940633e-07
2.55852535879e-07
2.5291845986e-07
2.52922613503e-07
2.50010143324e-07
2.5000591968e-07
2.47150762648e-07
2.47155009502e-07
2.4432210655e-07
2.4431878483e-07
2.41539469272e-07
2.4154200031e-07
2.38789029384e-07
2.38786851999e-07
2.36080012973e-07
2.36082156985e-07
2.33403558236e-07
2.33399904579e-07
2.30769588673e-07
2.30772503102e-07
2.28164767121e-07
2.28161833568e-07
2.25601345106e-07
2.25604791061e-07
2.230661234e-07
2.2306405844e-07
2.20570330609e-07
2.20572737692e-07
2.18103402564e-07
2.18101120645e-07
2.15673907883e-07
2.15676046703e-07
2.13273027828e-07
2.13270937707e-07
2.10908248288e-07
2.1091138759e-07
2.08568997886e-07
2.08565833691e-07
2.06267230212e-07
2.06269961575e-07
2.03991600066e-07
2.039916086e-07
2.01746127308e-07
2.01743479375e-07
1.99533599181e-07
1.9953630739e-07
1.97345330739e-07
1.97341709187e-07
1.95192147372e-07
1.95195585327e-07
1.93059930442e-07
1.93056862179e-07
1.90961764495e-07
1.90964905508e-07
1.88884877884e-07
1.88881472262e-07
1.8684189587e-07
1.86845108543e-07
1.84818663893e-07
1.84816158436e-07
1.82827103052e-07
1.82828921147e-07
1.80856883983e-07
1.80854979992e-07
1.78915308662e-07
1.78916666684e-07
1.76995446504e-07
1.76992138988e-07
1.75105163066e-07
1.75105599157e-07
1.73237435332e-07
1.73241255655e-07
1.71388706102e-07
1.71385928802e-07
1.69570231936e-07
1.69573187419e-07
1.67768967935e-07
1.67766651961e-07
1.6599587881e-07
1.6599825106e-07
1.64241607457e-07
1.64241706119e-07
1.6251060127e-07
1.6251060102e-07
1.60801511323e-07
1.60801479284e-07
1.59113034001e-07
1.59110860884e-07
1.57448562462e-07
1.57450694107e-07
1.55801075152e-07
1.55798258497e-07
1.54179011263e-07
1.54181593591e-07
1.52571880937e-07
1.52569324662e-07
1.50990202859e-07
1.5099288364e-07
1.49422665548e-07
1.49420573835e-07
1.47878460711e-07
1.47878495942e-07
1.46352800542e-07
1.46354870907e-07
1.44843209067e-07
1.44840603068e-07
1.43356798921e-07
1.43359178544e-07
1.41883843693e-07
1.4188149117e-07
1.40433969646e-07
1.40436447377e-07
1.38998957706e-07
1.3899822175e-07
1.37591308811e-07
1.37604653457e-07
1.36329834302e-07
1.36311562472e-07
1.35015689425e-07
1.35096961124e-07
1.3478541152e-07
1.34524144505e-07
1.33681104252e-07
1.33849603606e-07
1.36312143632e-07
1.35055441897e-07
1.32759132927e-07
1.33603533571e-07
1.37698595274e-07
1.35257529708e-07
1.22299319341e-07
1.25820013018e-07
1.23046142199e-07
1.20691989682e-07
1.01565357139e-07
1.05561046675e-07
1.05672881283e-07
1.02905218074e-07
1.62741341988e-06
1.62870490229e-06
1.88116663298e-06
1.90759706384e-06
2.0622680879e-06
2.00143070616e-06
2.00640602191e-06
1.96264890634e-06
1.95205816393e-06
1.94008320239e-06
1.93776105316e-06
1.936304687e-06
1.93603466115e-06
1.93596037309e-06
1.93602109069e-06
1.93597211452e-06
1.9360303246e-06
1.93600397464e-06
1.93597507996e-06
1.93603464356e-06
1.93598176521e-06
1.93601963442e-06
1.93598063897e-06
1.93602260358e-06
1.93598349591e-06
1.93603270247e-06
1.9359749049e-06
1.93602056732e-06
1.93597659729e-06
1.93603269913e-06
1.93598215121e-06
1.93603455715e-06
1.93598005757e-06
1.93603061051e-06
1.93596931646e-06
1.93600444877e-06
1.93604249892e-06
1.93596508296e-06
1.93602862453e-06
1.93599202216e-06
1.93602565498e-06
1.93597806491e-06
1.93601645418e-06
1.9359774916e-06
1.93602350154e-06
1.93598424578e-06
1.93602363428e-06
1.93598016748e-06
1.93601335045e-06
1.935961683e-06
1.93600401806e-06
1.93604703449e-06
1.9359711402e-06
1.93603732149e-06
1.93597332802e-06
1.93602736597e-06
1.93597707403e-06
1.93602887814e-06
1.935966895e-06
1.93601498575e-06
1.93597978959e-06
1.9360192587e-06
1.93598254492e-06
1.93603543504e-06
1.93597914008e-06
1.93602421159e-06
1.93596576028e-06
1.93603668927e-06
1.93597116272e-06
1.93603984982e-06
1.93597614144e-06
1.93602883365e-06
1.93600294562e-06
1.93600225596e-06
1.93600196971e-06
1.93600286529e-06
1.93600411146e-06
1.93600434771e-06
1.93597815359e-06
1.93602899523e-06
1.93596622491e-06
1.93603479734e-06
1.93596775791e-06
1.9360332812e-06
1.93596489121e-06
1.9360242654e-06
1.93597737004e-06
1.9360365831e-06
1.93596896232e-06
1.93603513038e-06
1.93596856154e-06
1.93603653762e-06
1.9359732183e-06
1.93600081099e-06
1.93603041931e-06
1.93597050444e-06
1.93601878978e-06
1.93598169168e-06
1.93601745425e-06
1.93597361894e-06
1.93604216105e-06
1.93597383173e-06
1.9360424201e-06
1.93598576388e-06
1.93603197491e-06
1.93599320661e-06
1.93618853859e-06
1.93776101563e-06
1.9391887399e-06
1.95242084147e-06
1.95918376938e-06
2.0084619392e-06
1.99372978476e-06
2.06687033913e-06
1.8981195054e-06
1.88511037945e-06
1.61976218258e-06
1.62791521393e-06
3.08587031494e-07
3.01236453701e-07
2.99661912546e-07
3.10749599998e-07
3.51870411574e-07
3.45978587501e-07
3.4480782734e-07
3.53676702606e-07
3.74433998606e-07
3.68637113828e-07
3.52402295171e-07
3.53819549916e-07
3.5018291021e-07
3.47375958926e-07
3.36941007723e-07
3.37030442382e-07
3.31339585452e-07
3.30835178468e-07
3.25013384268e-07
3.25132092179e-07
3.20773424913e-07
3.20752611872e-07
3.16650803443e-07
3.16674337806e-07
3.12815659007e-07
3.12815472986e-07
3.09072121667e-07
3.09078407731e-07
3.0537314544e-07
3.05368090136e-07
3.01738063423e-07
3.01741922103e-07
2.98146823862e-07
2.98143094149e-07
2.94614160639e-07
2.94619305564e-07
2.9112263423e-07
2.91117654459e-07
2.87691465195e-07
2.87697288825e-07
2.84298644386e-07
2.8429859164e-07
2.80955855616e-07
2.80950243061e-07
2.7766718329e-07
2.77672017202e-07
2.74413850257e-07
2.74408825907e-07
2.71216574386e-07
2.7122006569e-07
2.68055592888e-07
2.68051870256e-07
2.64944255416e-07
2.64944337099e-07
2.61874148985e-07
2.61874190198e-07
2.58848192154e-07
2.58851596372e-07
2.55859299848e-07
2.55855406108e-07
2.52919098309e-07
2.52922996521e-07
2.50012022737e-07
2.50010042573e-07
2.47150331841e-07
2.47153822631e-07
2.44322124841e-07
2.44318606685e-07
2.41539114513e-07
2.41542140205e-07
2.38787935208e-07
2.38783858065e-07
2.36081357753e-07
2.36085524062e-07
2.33402984096e-07
2.33398742147e-07
2.30769831447e-07
2.3077297748e-07
2.28166236414e-07
2.28166228777e-07
2.25598465495e-07
2.2559535122e-07
2.23069610063e-07
2.23073682082e-07
2.20567749313e-07
2.20564164861e-07
2.18106776278e-07
2.18110508164e-07
2.15670820526e-07
2.15666929982e-07
2.13275462757e-07
2.13278339296e-07
2.10905259318e-07
2.10902342253e-07
2.08570994776e-07
2.08570970874e-07
2.0626621877e-07
2.06266235884e-07
2.0399190457e-07
2.03991941265e-07
2.01747620296e-07
2.01747661421e-07
1.99532904474e-07
1.99532949546e-07
1.97347289053e-07
1.97347317933e-07
1.95191538318e-07
1.95194156549e-07
1.93060316226e-07
1.93057467933e-07
1.90962111124e-07
1.90964862526e-07
1.88885690556e-07
1.88883138754e-07
1.86841945246e-07
1.86844712357e-07
1.8481929292e-07
1.84817526947e-07
1.82827068859e-07
1.82828986305e-07
1.80857009926e-07
1.80855114181e-07
1.78915713598e-07
1.78917308164e-07
1.76995987545e-07
1.76993295959e-07
1.75105537495e-07
1.751078687e-07
1.73234601511e-07
1.73232714289e-07
1.71391351438e-07
1.71394300448e-07
1.69566061754e-07
1.69562289498e-07
1.67770889247e-07
1.67770971051e-07
1.65997581273e-07
1.66001977724e-07
1.6424129778e-07
1.64241514922e-07
1.62508551972e-07
1.62504902706e-07
1.60802608231e-07
1.60804503076e-07
1.59113068334e-07
1.59110927652e-07
1.57448800702e-07
1.57450892382e-07
1.55801171116e-07
1.55798924972e-07
1.54178900591e-07
1.5418115462e-07
1.52572181634e-07
1.52570136261e-07
1.50989652947e-07
1.50991700963e-07
1.49423088267e-07
1.49421058701e-07
1.47879757805e-07
1.47882445001e-07
1.4635101089e-07
1.46348657335e-07
1.4484657125e-07
1.44849652197e-07
1.43355230136e-07
1.43355192768e-07
1.41883261387e-07
1.41880010978e-07
1.40434195567e-07
1.40436187146e-07
1.39000409135e-07
1.39001005936e-07
1.37601657968e-07
1.37612111688e-07
1.36326846933e-07
1.36317891223e-07
1.35100216496e-07
1.35148986292e-07
1.34737432249e-07
1.34533545823e-07
1.33992605893e-07
1.34031156814e-07
1.3609113572e-07
1.35015492183e-07
1.33410403117e-07
1.33970249373e-07
1.37241474217e-07
1.35134325568e-07
1.23117011609e-07
1.26271096054e-07
1.22633824341e-07
1.20617376987e-07
1.02291044136e-07
1.06022707743e-07
1.05548529009e-07
1.02983668685e-07
5.21798711041e-08
8.80712989205e-08
2.04273592277e-07
2.23200444222e-07
2.48972492216e-07
2.61261509289e-07
2.870800923e-07
2.89858105441e-07
3.05585593139e-07
3.10639474027e-07
3.36426335418e-07
3.35192032657e-07
3.48039865261e-07
3.48767262283e-07
3.61929228245e-07
3.59755186816e-07
3.65110292839e-07
3.63656073282e-07
3.68231040814e-07
3.66071158092e-07
3.68714404467e-07
3.66713572937e-07
3.69062517586e-07
3.67008510578e-07
3.69113398219e-07
3.67085659588e-07
3.69114478308e-07
3.67081141454e-07
3.69118036361e-07
3.67091600382e-07
3.69121888436e-07
3.67101753626e-07
3.69116357516e-07
3.67085257481e-07
3.69121224568e-07
3.67099973271e-07
3.69116627075e-07
3.67085562165e-07
3.69122927728e-07
3.67103500106e-07
3.6911704882e-07
3.67085936863e-07
3.69121409781e-07
3.67099746549e-07
3.69115919321e-07
3.6708317062e-07
3.6912228684e-07
3.67102260308e-07
3.69115857781e-07
3.67083371453e-07
3.69121824584e-07
3.67101429666e-07
3.69115808887e-07
3.67083312914e-07
3.69122448223e-07
3.67102860647e-07
3.69116859716e-07
3.67085577063e-07
3.69121844118e-07
3.67100581454e-07
3.69119322258e-07
3.6709304088e-07
3.69119308646e-07
3.67093020561e-07
3.69119435511e-07
3.67093210413e-07
3.69117087711e-07
3.6708597665e-07
3.69121254877e-07
3.67100094968e-07
3.69115384185e-07
3.67082406464e-07
3.69122293998e-07
3.67102186807e-07
3.69116168407e-07
3.67083934085e-07
3.69122037986e-07
3.67101883052e-07
3.69115105052e-07
3.67082039415e-07
3.69120564588e-07
3.67098496633e-07
3.69117220061e-07
3.67086592551e-07
3.69123098942e-07
3.67103481669e-07
3.69116714148e-07
3.67084282439e-07
3.69122929278e-07
3.67102722872e-07
3.69116533483e-07
3.67083885673e-07
3.69122674082e-07
3.67102404865e-07
3.69116829195e-07
3.67084468047e-07
3.69122893159e-07
3.67102929476e-07
3.6911653381e-07
3.67084138387e-07
3.69122559613e-07
3.67102302306e-07
3.69116667865e-07
3.67084353052e-07
3.69122813446e-07
3.67102736319e-07
3.69116740026e-07
3.67084502044e-07
3.69122680256e-07
3.67102496176e-07
3.69115282458e-07
3.67081347661e-07
3.69119058984e-07
3.67092755672e-07
3.69123837286e-07
3.67105022151e-07
3.69116707155e-07
3.67084149459e-07
3.69123102884e-07
3.6710339018e-07
3.6911688547e-07
3.67085549242e-07
3.69121884966e-07
3.67100627398e-07
3.69119383976e-07
3.67093155673e-07
3.69116977446e-07
3.6708576864e-07
3.69120985409e-07
3.67099754287e-07
3.69115147535e-07
3.67082161454e-07
3.69122265626e-07
3.6710222764e-07
3.69114727558e-07
3.6708103784e-07
3.69118384952e-07
3.67092127623e-07
3.69123122971e-07
3.67104347505e-07
3.6911630399e-07
3.67083888033e-07
3.69122364422e-07
3.67102126037e-07
3.69116234309e-07
3.67083869979e-07
3.69122077204e-07
3.67101778782e-07
3.69116042056e-07
3.67083602813e-07
3.69122198741e-07
3.67101978821e-07
3.691154378e-07
3.67082492844e-07
3.69121279187e-07
3.67100113401e-07
3.69116664073e-07
3.67085443792e-07
3.69119036501e-07
3.67092774538e-07
3.69118922614e-07
3.67092658448e-07
3.69118904124e-07
3.67092649079e-07
3.69118944204e-07
3.67092654464e-07
3.69121559628e-07
3.67100224176e-07
3.6911657158e-07
3.6708518576e-07
3.69122160821e-07
3.67102303097e-07
3.69114579804e-07
3.67080760487e-07
3.69120491652e-07
3.67098266892e-07
3.69137669596e-07
3.67149086202e-07
3.69479878996e-07
3.67402477919e-07
3.69613671418e-07
3.67808270803e-07
3.72617394676e-07
3.69847322617e-07
3.73285807661e-07
3.7170405048e-07
3.84711100232e-07
3.79027359014e-07
3.78983472374e-07
3.79288817351e-07
3.97704191161e-07
3.88424905569e-07
3.56585558383e-07
3.64888783601e-07
3.62891437542e-07
3.54009353452e-07
3.02170318569e-07
3.12456996463e-07
3.14301703751e-07
3.04515631629e-07
3.79921732029e-06
3.79916620131e-06
3.72472000933e-06
3.72477046095e-06
3.65189085169e-06
3.65189015303e-06
3.58078776989e-06
3.58078591032e-06
3.51134179502e-06
3.51134044349e-06
3.44350565538e-06
3.44350543553e-06
3.37723241833e-06
3.37723241439e-06
3.31246133272e-06
3.31241606531e-06
3.24923016298e-06
3.24927246858e-06
3.18736557588e-06
3.18730809596e-06
3.12700666429e-06
3.12706123699e-06
3.06789867573e-06
3.06784491311e-06
3.01024062796e-06
3.01028250335e-06
2.95378316885e-06
2.95374429836e-06
2.89866894999e-06
2.89870880796e-06
2.84471111327e-06
2.84467301587e-06
2.79202165108e-06
2.79207137339e-06
2.74041352558e-06
2.74036582e-06
2.69004671848e-06
2.69009417493e-06
2.64068943966e-06
2.64065320445e-06
2.59249593586e-06
2.59253086211e-06
2.54530144831e-06
2.54530145766e-06
2.49913543578e-06
2.49910193066e-06
2.45401057654e-06
2.45404358746e-06
2.40979967643e-06
2.409755355e-06
2.36661734024e-06
2.36665688601e-06
2.32428027166e-06
2.32424326768e-06
2.28291920835e-06
2.28295605004e-06
2.24235570974e-06
2.2423077895e-06
2.20273760836e-06
2.20273696781e-06
2.1639420755e-06
2.16398801376e-06
2.1258972838e-06
2.12586112178e-06
2.08873364276e-06
2.08876328607e-06
2.05227973947e-06
2.05225272408e-06
2.0166411999e-06
2.01666806816e-06
1.98169389962e-06
1.98166629302e-06
1.94751976391e-06
1.94755415717e-06
1.91399048689e-06
1.91395767043e-06
1.88122166776e-06
1.88125582359e-06
1.84905416018e-06
1.84902936798e-06
1.81759004077e-06
1.81759041415e-06
1.78676242005e-06
1.78678834124e-06
1.7565268546e-06
1.75650158001e-06
1.72694639442e-06
1.72696644828e-06
1.69791048638e-06
1.69787288498e-06
1.66951687151e-06
1.66951772557e-06
1.64167832368e-06
1.64171356263e-06
1.61434548844e-06
1.61431803451e-06
1.58761919196e-06
1.58764156126e-06
1.56137108303e-06
1.56135050187e-06
1.53567352627e-06
1.53567412852e-06
1.51047094662e-06
1.51047123617e-06
1.48577246823e-06
1.48579226782e-06
1.46153167e-06
1.46151094611e-06
1.43780153421e-06
1.43782678241e-06
1.4144880063e-06
1.41446393878e-06
1.39167714562e-06
1.39170271058e-06
1.36925389005e-06
1.36923550394e-06
1.34730499758e-06
1.34732308316e-06
1.32575020472e-06
1.32574970371e-06
1.30460926381e-06
1.30459153514e-06
1.28389456773e-06
1.28391302421e-06
1.2635389302e-06
1.26351936638e-06
1.24360404593e-06
1.24361416634e-06
1.22401649612e-06
1.22399939089e-06