/*--------------------------------*- C++ -*----------------------------------*\
| =========                 |                                                 |
| \\      /  F ield         | OpenFOAM: The Open Source CFD Toolbox           |
|  \\    /   O peration     | Version:  2112                                  |
|   \\  /    A nd           | Website:  www.openfoam.com                      |
|    \\/     M anipulation  |                                                 |
\*---------------------------------------------------------------------------*/
FoamFile
{
    version     2.0;
    format      ascii;
    arch        "LSB;label=32;scalar=64";
    class       volScalarField;
    location    "0";
    object      nonOrthoAngle;
}
// * * * * * * * * * * * * * * * * * * * * * * * * * * * * * * * * * * * * * //

dimensions      [0 0 0 0 0 0 0];

internalField   nonuniform List<scalar> 
52617
(
2.66020349931
2.70928504823
2.66020349931
2.70928504823
1.69439765204
1.92456847121
2.78167526914
2.91082286674
2.78167526914
2.91082286674
1.16589090784
1.16915471833
1.16589090784
1.16915471833
0.142170907901
0.250445583239
0.142170907901
0.135565814284
0.0483761010132
0.052408988342
0.0110507215096
0.0116432004441
0.0110507215096
0.0116432004441
0.00155208370376
0.00149125908221
0.00155208370376
0.00149125908221
0.000664460824768
0.00067387570214
0.000664460824768
0.00067387570214
0.00110491076106
0.00110596382877
0.00110491076106
0.00110596382877
0.00108528433692
0.00107776233834
0.00150687081975
0.00149990851149
0.00152502448226
0.00152502448226
0.00151034947029
0.00150451632453
0.00102115611149
0.00101275945624
0.00101181687025
0.00100881006738
0.00122547036103
0.00121811240541
0.00122547036103
0.00121811240541
0.000517591779245
0.000517591779245
0.00131702963276
0.00131911786005
0.00131702963276
0.00131911786005
0.00102948322233
0.00103744073032
0.00102948322233
0.00103744073032
0.00171763450211
0.0017024135182
0.0017233839261
0.0017233839261
0.00170469651052
0.00169048497115
0.00104035287869
0.0010260515849
0.000961752422606
0.000967832171805
0.00124205991208
0.00123832796554
0.00124205991208
0.00123832796554
0.00116396154519
0.00116428683595
0.00122111421596
0.00121732015345
0.00122111421596
0.00121732015345
0.00120608242803
0.00120236279068
0.00115421892591
0.00115223831221
0.00113961321248
0.00113962728422
0.00117826207413
0.00117817422284
0.00120054692069
0.00120054692069
0.0011944275003
0.00119524620899
0.00129751911064
0.00129484562068
0.00129751911064
0.00129484562068
0.00106072605539
0.00106969218027
0.00106072605539
0.00106969218027
0.00111803704561
0.00112133474908
0.00111803704561
0.00112133474908
0.00130544028611
0.00129941852688
0.00130544028611
0.00129941852688
0.000543195995723
0.000543195995723
0.0011874352503
0.00118538592255
0.00110902271829
0.00109519226745
0.00118206556937
0.00118715774918
0.00118206556937
0.00118715774918
0.00119547396893
0.00120125861009
0.00122032839275
0.00122032839275
0.00121573200214
0.00121626071735
0.00120757462029
0.00120523509491
0.00121625772074
0.00121513107377
0.00122149679327
0.00122168326373
0.00122479267817
0.00122445935152
0.0012295724846
0.00122810049185
0.0012295724846
0.00122810049185
0.00121682933916
0.00121764615556
0.00123851543321
0.00124179725936
0.00129672506257
0.00129366345531
0.00129672506257
0.00129366345531
0.00127370295173
0.00126824705706
0.00118487357508
0.0011832495752
0.00123094471689
0.00123092754382
0.0012605351322
0.00125971950787
0.0012605351322
0.00125971950787
0.00126098523491
0.00125660051537
0.00126098523491
0.00125660051537
0.00106118363095
0.00106185109004
0.00106118363095
0.00106185109004
0.00103793525886
0.00104178543447
0.00103793525886
0.00104178543447
0.00131962641978
0.0013120176051
0.00131962641978
0.0013120176051
0.000500099325316
0.000514919655883
0.000667223421749
0.000657286501138
0.00131988021197
0.0013147457174
0.0011874352503
0.00118538592255
0.00103327530062
0.00102798105247
0.00103327530062
0.00102798105247
0.00107861114391
0.00107206776279
0.00115174096526
0.00114840458111
0.00115174096526
0.00114840458111
0.000579761342279
0.000579761342279
0.00109779256587
0.0010947871919
0.00115902783448
0.00115081498619
0.00115902783448
0.00115081498619
0.0015668944664
0.00155969046582
0.0015668944664
0.00155969046582
0.00151662885587
0.00151215846462
0.00105444605524
0.00105097247079
0.00105444605524
0.00105097247079
0.00108457081181
0.0010788175822
0.00114077674293
0.00113550932047
0.00114077674293
0.00113550932047
0.00105543482957
0.00106108574286
0.00105543482957
0.00106108574286
0.00124513307694
0.0012386419652
0.00124513307694
0.0012386419652
0.000631178405758
0.000626357464832
0.000620039554401
0.000621910665669
0.000655539726152
0.000660809771443
0.000655539726152
0.000660809771443
0.00132241049404
0.00131373877107
0.00132241049404
0.00131373877107
0.00108624369839
0.00109015026729
0.00112194660908
0.00112194660908
0.0011010840377
0.00110477386111
0.00130105327504
0.00129470206124
0.00131988021197
0.0013147457174
0.00126991705336
0.00126866770686
0.00126991705336
0.00126866770686
0.00103445344461
0.00103016166828
0.00117135255105
0.00116975340019
0.00117135255105
0.00116975340019
0.00117294423936
0.0011745961405
0.00119215756085
0.00119215756085
0.00115771076805
0.00115946673372
0.00120514981471
0.00120164568916
0.00120514981471
0.00120164568916
0.0009890472992
0.000987051696614
0.00110577860903
0.00110170549039
0.00110577860903
0.00110170549039
0.00123689880576
0.00123458857576
0.00123689880576
0.00123458857576
0.00119155575478
0.00119518552666
0.00127099083604
0.00126958638765
0.00127099083604
0.00126958638765
0.00124385502822
0.00124261702153
0.00117604646858
0.00117578456823
0.00113703515082
0.00113915130687
0.00139830530663
0.00139149756522
0.00139830530663
0.00139149756522
0.000708989489708
0.000717789089618
0.000708989489708
0.000717789089618
0.0019922364863
0.00197915725359
0.0019922364863
0.00197915725359
0.00183070711487
0.00182489358667
0.000902464187324
0.000892035355232
0.00116982319068
0.00116842565308
0.00116982319068
0.00116842565308
0.00130105327504
0.00129470206124
0.00100351023185
0.0010030212592
0.00111376891025
0.00111125224386
0.00111376891025
0.00111125224386
0.00151377630852
0.00150443710764
0.00153363771449
0.00153363771449
0.00152352528168
0.00151263778308
0.00105074703436
0.00104767732664
0.00105074703436
0.00104767732664
0.00107783538015
0.00107357308757
0.00116554143788
0.00116183003471
0.00116554143788
0.00116183003471
0.00120019744667
0.00120247039479
0.00123489054017
0.00123611712018
0.00123489054017
0.00123611712018
0.00120224820444
0.00120388562941
0.00113805913409
0.00113943250301
0.00111723842002
0.00111594257795
0.00112635396765
0.00112525358443
0.00113863640047
0.00113794800153
0.00116192131748
0.00116065055582
0.001199559265
0.00119714166669
0.00121377399359
0.00121377399359
0.00120296737056
0.00120164599247
0.00119257662737
0.00119112806759
0.00119257662737
0.00119112806759
0.00104538786995
0.00104188408644
0.00113215182236
0.00113053139443
0.00113215182236
0.00113053139443
0.000621938208954
0.000621938208954
0.00133932650471
0.00133961329414
0.00133932650471
0.00133961329414
0.000601728133527
0.000601539732372
0.000705219099054
0.000705210830035
0.000705219099054
0.000705210830035
0.000676550299168
0.00067547093984
0.000676550299168
0.00067547093984
0.000639892953275
0.000644099083888
0.000578253144449
0.000570106673039
0.00134723506542
0.00134481816515
0.00134723506542
0.00134481816515
0.00126782368043
0.00126582445623
0.00126782368043
0.00126582445623
0.00102156219866
0.00101373963567
0.00121372504795
0.00121179838479
0.00121372504795
0.00121179838479
0.00110703334386
0.00111066238541
0.00118187593202
0.00117909108009
0.00123844921946
0.00123489673808
0.00127195741099
0.00126974656461
0.00127195741099
0.00126974656461
0.00126651874514
0.00126511163683
0.00123086950891
0.00123122389374
0.00119794635087
0.00119884535074
0.00116988612318
0.00117139704446
0.00117988305408
0.00117982250832
0.00120404728189
0.00120341083896
0.00121389950161
0.00121389950161
0.00119789006492
0.00119986275497
0.00145217084275
0.00144495583875
0.00145217084275
0.00144495583875
0.000649610105147
0.000657635188532
0.000649610105147
0.000657635188532
0.000697865825492
0.000699143139605
0.000697865825492
0.000699143139605
0.0010338077821
0.00103878608315
0.00110398842029
0.0010923469111
0.00128181766365
0.00127163558759
0.00128181766365
0.00127163558759
0.000686926029393
0.000691993415764
0.000686926029393
0.000691993415764
0.000722067420581
0.000723982936079
0.000722067420581
0.000723982936079
0.0013512502095
0.00134239256936
0.0013512502095
0.00134239256936
0.000972826648244
0.000976849884694
0.00113525283626
0.00112806892616
0.00113525283626
0.00112806892616
0.00100618229392
0.00100755491614
0.00117107590727
0.00116758626516
0.00117107590727
0.00116758626516
0.000989382946474
0.000990522413369
0.0011670258173
0.00116303777486
0.0011670258173
0.00116303777486
0.00130076414823
0.00129989666231
0.00130076414823
0.00129989666231
0.00126613307608
0.00126500792054
0.00126613307608
0.00126500792054
0.00168344029757
0.00167331423432
0.00168344029757
0.00167694076302
0.0016432472491
0.00163485771333
0.00103913617881
0.00103337935003
0.00112923208687
0.00112755607007
0.00112923208687
0.00112755607007
0.000617293107022
0.000621627543754
0.000699325050338
0.000698574689327
0.000699325050338
0.000698574689327
0.000632939436599
0.00063379166522
0.00110709062779
0.00110408745621
0.00110709062779
0.00110408745621
0.000968982688223
0.000968663300112
0.00108072299057
0.00107957812351
0.00113209709428
0.00113057491537
0.00113209709428
0.00113057491537
0.00178226000186
0.00177644836662
0.00188239218928
0.00187038716349
0.00188239218928
0.00187038716349
0.00136387474008
0.00136468713669
0.00136387474008
0.00136468713669
0.00139228599093
0.0013886451853
0.00139228599093
0.0013886451853
0.000910719592099
0.000907670611026
0.0019094895255
0.00188401613613
0.0019094895255
0.00188401613613
0.00177350119115
0.00175762695987
0.000995051849306
0.000981264898167
0.00131513320419
0.00131184897604
0.00131513320419
0.00131184897604
0.00124628027009
0.00124306188428
0.00124628027009
0.00124306188428
0.00104857342706
0.00104837528688
0.00104857342706
0.00104837528688
0.00105071789751
0.00104526270045
0.00105071789751
0.00104526270045
0.00109488273267
0.0010870325728
0.00114509953484
0.00114176002336
0.00114509953484
0.00114176002336
0.00117178870021
0.0011703882157
0.0011877725233
0.0011877725233
0.00117838146714
0.00117769308994
0.00114439464124
0.00114521697492
0.00111767546837
0.00111708247631
0.00108438462684
0.00108147949588
0.0010490967542
0.00104810443474
0.00115827037388
0.0011568469082
0.00115827037388
0.0011568469082
0.00111019270234
0.00110943967891
0.00111019270234
0.00110943967891
0.00109016731774
0.00108808083598
0.00146696375737
0.00145583954054
0.00149932692056
0.00149895373778
0.00149932692056
0.00149295425937
0.00109772151604
0.00109081704218
0.00115722396171
0.00115550748497
0.00115722396171
0.00115550748497
0.00124871743842
0.00124801675083
0.00125866217042
0.00125866217042
0.00124152691849
0.00123947145953
0.00113935573279
0.00114015836564
0.000972853247681
0.000976475218359
0.00123080258771
0.00122147143109
0.00123080258771
0.00122147143109
0.00104488919486
0.00104268520029
0.00121882310799
0.00121719919015
0.00121882310799
0.00121719919015
0.00137449894085
0.00136602155888
0.00137449894085
0.00136602155888
0.000621444588977
0.00062449325735
0.000621444588977
0.00062449325735
0.000608368092428
0.000613317377531
0.00137050244449
0.00135870102456
0.00137050244449
0.00135870102456
0.000564016854543
0.000564016854543
0.0011848695763
0.00118087296907
0.0011848695763
0.00118087296907
0.00106300202055
0.00105980308975
0.00114386743842
0.00114180918112
0.00114386743842
0.00114180918112
0.00153738914042
0.00153050089046
0.00155115987055
0.00155115987055
0.00153153571032
0.0015220751297
0.00106256066345
0.00106039133687
0.00106256066345
0.00106039133687
0.00172180978093
0.00172181083931
0.00193371306048
0.0019251652953
0.00193371306048
0.0019251652953
0.00129230874821
0.00129672168978
0.00129230874821
0.00129672168978
0.00136232019396
0.00135966395104
0.00136232019396
0.00135966395104
0.00125053155982
0.00125224584679
0.00125053155982
0.00125224584679
0.00133970225713
0.00133370812136
0.00133970225713
0.00133370812136
0.00109943605276
0.00109847527306
0.00109943605276
0.00109847527306
0.00174902132069
0.00174096086553
0.00175831257168
0.00175831257168
0.00173756718519
0.00172639238127
0.000999563677642
0.000991258044237
0.000988041886498
0.000991258044237
0.000914307070767
0.000918541811962
0.00116230111485
0.00116069765751
0.00116230111485
0.00116069765751
0.00163065268223
0.00162280743677
0.00163270096865
0.00163270096865
0.00160853356746
0.00159787313309
0.00101090008529
0.00100197494354
0.00111181654829
0.00110589231521
0.00113338057615
0.0011324514922
0.00113338057615
0.0011324514922
0.000566395650504
0.000561948469747
0.0013642616305
0.00135928004208
0.0013642616305
0.00135928004208
0.00127316230761
0.00127501968627
0.00129863013067
0.00129863013067
0.0013007686313
0.00129972281524
0.0013026795368
0.00130135718115
0.0013026795368
0.00130152324915
0.00130335922682
0.00130335922682
0.00127739203741
0.00128029386345
0.00131775004679
0.00131599480064
0.00131775004679
0.00131599480064
0.0011908661175
0.001186424392
0.0011908661175
0.001186424392
0.0011301476929
0.00113003255703
0.0011301476929
0.00113003255703
0.00111606471895
0.00111929269157
0.00111606471895
0.00111929269157
0.00112889314379
0.00112949961865
0.00112889314379
0.00112949961865
0.00106885572819
0.00106417602301
0.00119588242559
0.00119586261561
0.00119588242559
0.00119586261561
0.00111322491201
0.0011144500063
0.001134851783
0.001134851783
0.0011063872129
0.00110439540117
0.00126491975502
0.00125993416659
0.00126491975502
0.00125993416659
0.0011077722108
0.00111371327883
0.0011077722108
0.00111371327883
0.00114226490681
0.00114336103126
0.00114226490681
0.00114336103126
0.00116091273092
0.00115543430631
0.00116091273092
0.00115543430631
0.00117369378263
0.00116747326056
0.00117369378263
0.00116747326056
0.000654480290697
0.000653630502285
0.000745176162207
0.000741315486988
0.000745176162207
0.000741315486988
0.000642493458204
0.000645962567921
0.0014844663812
0.00147298966952
0.0014844663812
0.00147298966952
0.000609188885442
0.000605233989521
0.00105566306264
0.00106553824292
0.00110902271829
0.00109519226745
0.00134497426023
0.00134601524379
0.00134497426023
0.00134601524379
0.00113799027802
0.00114166936325
0.00113799027802
0.00114166936325
0.00100088711521
0.00100241497999
0.00103815118994
0.00102751684931
0.00166498535797
0.00165141784108
0.00167942593235
0.00167942593235
0.00166646883675
0.00165714891526
0.000966334113162
0.000953452268958
0.00116339183254
0.00116232776813
0.00116339183254
0.00116232776813
0.00113620529167
0.00113703034272
0.00113620529167
0.00113703034272
0.00123919943482
0.00123293901285
0.00123919943482
0.00123293901285
0.00058221854197
0.000591133907836
0.000623013202273
0.000618100279444
0.00119925721777
0.00119750968507
0.00119925721777
0.00119750968507
0.00140191894524
0.00139888252161
0.00140191894524
0.00139888252161
0.00125694532591
0.00126491111101
0.00125694532591
0.00126491111101
0.00120461834075
0.00120276527166
0.00120461834075
0.00120276527166
0.00103896254891
0.00103489375825
0.00101965811621
0.00101802259727
0.00169494089349
0.00168479460941
0.00169494089349
0.00168479460941
0.0016328045432
0.00162498516276
0.000998645862752
0.000996744807055
0.00106155174671
0.00106104280664
0.00106155174671
0.00106104280664
0.00104342527258
0.00104471966088
0.000665461653897
0.000669810319955
0.000665461653897
0.000669810319955
0.000646883282308
0.000641516450507
0.0012815008761
0.00127592208208
0.0012815008761
0.00127592208208
0.00132644775191
0.00132670683236
0.00132644775191
0.00132670683236
0.000564496773049
0.000567832650642
0.000775301219407
0.000776970138448
0.000775301219407
0.000776970138448
0.000712329197088
0.000717993180197
0.000712329197088
0.000717993180197
0.00135315231358
0.00134590611781
0.00135315231358
0.00134590611781
0.00115123453907
0.00115418798029
0.00118857496462
0.00118857496462
0.00116966117066
0.00117269656429
0.00119548067606
0.00119721320931
0.00119548067606
0.00119721320931
0.00109596838232
0.00109618352131
0.00109596838232
0.00109618352131
0.00116678688166
0.00116133522629
0.00116678688166
0.00116133522629
0.00106992691008
0.00106963664159
0.00106992691008
0.00106963664159
0.000623560524858
0.000624073495839
0.000673756704945
0.000684665249611
0.000673756704945
0.000684665249611
0.00210936144517
0.00208335832659
0.00210936144517
0.00208335832659
0.00181789301287
0.00180801159772
0.00103599653802
0.00103824035814
0.00110052515881
0.00109955671269
0.00110052515881
0.00109955671269
0.00120849118789
0.00120915329064
0.00132605505104
0.00132228922169
0.00134124280127
0.00133912865495
0.00134124280127
0.00133912865495
0.0013029584484
0.0013040352087
0.0012587556965
0.00126139992722
0.0012587556965
0.00126139992722
0.00108268227427
0.00108325540565
0.00108268227427
0.00108325540565
0.00121787571165
0.001216184901
0.00121787571165
0.001216184901
0.000515179356262
0.000515179356262
0.00126846486993
0.00126416346877
0.00126846486993
0.00126416346877
0.00108776257642
0.00108414395052
0.00108776257642
0.00108414395052
0.00126905203125
0.00130198633533
0.00126905203125
0.00130198633533
0.0131288634868
0.0136792852325
0.0131288634868
0.0136792852325
0.0713836228495
0.0751573962239
0.171053577998
0.164899948734
0.171053577998
0.231315240022
1.24342493971
1.24783215272
1.24342493971
1.24783215272
2.91150832173
3.04513442549
2.91150832173
3.04513442549
1.81300685412
2.04492898274
2.86827504873
2.93076806775
2.86827504873
2.93076806775
2.33202410684
2.33202410684
1.47992008845
2.60372521257
2.60372521257
1.09427336531
1.09427336531
0.220486718375
0.127793705174
0.0383980668053
0.0105555642223
0.0105555642223
0.00151372165383
0.00104853971111
0.000829420334958
0.00118094549726
0.00118094549726
0.000421179615229
0.0010699166907
0.0010699166907
0.000463944087358
0.000549848125326
0.000549848125326
0.00050850660895
0.000495337366892
0.000884610856736
0.000884610856736
0.000598837468449
0.00130181696681
0.00130181696681
0.00113127102273
0.00113127102273
0.00097331431391
0.00097331431391
0.00149481770917
0.00149481770917
0.00136789406416
0.00100128941092
0.00100128941092
0.000353033079876
0.000753567337624
0.000753567337624
0.000473782836439
0.000620277571289
0.000620277571289
0.000481811330762
0.000568091258249
0.000568091258249
0.000526963729594
0.00185695355901
0.00185695355901
0.00163227990618
0.000789956574921
0.000954341750588
0.000954341750588
0.000887314837618
0.000887314837618
0.00111644836378
0.00111644836378
0.000467938062045
0.000532992089782
0.000532992089782
0.000431385557243
0.00112443253336
0.00112443253336
0.000966834100918
0.000966834100918
0.000861747792472
0.000888383787176
0.000933482699764
0.000933482699764
0.00108150881497
0.00117280751179
0.00117280751179
0.0011253138274
0.00108547943323
0.00113452704759
0.00113452704759
0.00106945910291
0.00102069773127
0.00102069773127
0.000871176337607
0.000871176337607
0.000903450266491
0.000903450266491
0.000827448506129
0.000825985739839
0.000890283702084
0.000890283702084
0.000825060365254
0.000825060365254
0.000945977347281
0.000945977347281
0.000494003052445
0.00108308817551
0.00108308817551
0.000443172674163
0.000557513537272
0.000557513537272
0.00101996260806
0.00101996260806
0.000812124553496
0.000978474140074
0.000978474140074
0.00128463885157
0.00155473540643
0.0118534092628
0.0118534092628
0.0570898415282
0.147884697389
0.195753394973
1.14964540514
1.14964540514
2.70206643479
2.70206643479
1.57757053489
2.48235028965
2.48235028965
2.6861454737
2.75429850365
2.6861454737
2.75429850365
1.68613535754
1.91157219121
2.78204623806
2.91353476959
2.78204623806
2.91353476959
1.16696913727
1.17050655283
1.16696913727
1.17050655283
0.142456099421
0.253824143779
0.142456099421
0.135835905857
0.048155463565
0.0522140337694
0.0111756388901
0.0117782181662
0.0111756388901
0.0117782181662
0.00177623785503
0.00193351552417
0.00160698390658
0.00163842121316
0.00108677370267
0.00109241497417
0.00108677370267
0.00109241497417
0.00105322867972
0.00105261011532
0.00108790262209
0.00108465582789
0.00108790262209
0.00108465582789
0.0015282746209
0.00152008565526
0.00154209838216
0.00154209838216
0.00152492721047
0.00151896313633
0.00115773437894
0.00114699111461
0.00115773437894
0.00114699111461
0.00108497163956
0.00108724478691
0.00125878638775
0.00125662139809
0.00127343051181
0.00127343051181
0.00126416202725
0.00126161401114
0.00123201962962
0.00123327300289
0.00147019921049
0.00146090375931
0.00147019921049
0.00146090375931
0.000526362358671
0.000536005323632
0.00121499549395
0.00120853642503
0.00121499549395
0.00120853642503
0.000979208772722
0.000981435738047
0.00111267376911
0.00110925076818
0.00111267376911
0.00110925076818
0.00118854031379
0.00118578156401
0.00118854031379
0.00118578156401
0.000511656224738
0.000511656224738
0.00121775809575
0.00121486799913
0.00121775809575
0.00121486799913
0.00101868935604
0.00101515984307
0.00112891768023
0.00112111305836
0.00112891768023
0.00112111305836
0.00107888480971
0.00107972868225
0.00116748762087
0.00116747887983
0.00122409913769
0.00122225264294
0.00122804410405
0.00122743287221
0.00122804410405
0.00122743287221
0.00121858685136
0.00121797356661
0.00120516463333
0.00120439654665
0.00118919911994
0.00118847468909
0.00115619362491
0.00115691747727
0.0013032965871
0.00129921936874
0.0013032965871
0.00129921936874
0.0011976186382
0.00119654815476
0.0011976186382
0.00119654815476
0.00061836615579
0.000616554635193
0.000748805728356
0.00074712511749
0.000748805728356
0.00074712511749
0.00053929509689
0.00054021005259
0.00133313986838
0.0013242161365
0.00133313986838
0.0013242161365
0.00103650828223
0.00104524143061
0.00105968031086
0.00104524143061
0.00169496626695
0.00167626448486
0.00169496626695
0.00167937449843
0.00168330822742
0.0016605899615
0.00187769302727
0.0018564712604
0.00187769302727
0.0018564712604
0.00090861373658
0.000900433743126
0.00115245622933
0.0011543922692
0.00115245622933
0.0011543922692
0.0012996384069
0.00129386994743
0.0012996384069
0.00129386994743
0.00115713608804
0.00115829963716
0.00115713608804
0.00115829963716
0.0011549654744
0.00115352023693
0.0011549654744
0.00115352023693
0.00107177841416
0.00106742365106
0.00177634906406
0.00176077396853
0.00177768118461
0.00177768118461
0.00175661100807
0.00173855946609
0.001081300194
0.00105962768698
0.00148190438915
0.00164399076094
0.0112212012274
0.0118176535994
0.0112212012274
0.0118176535994
0.048252302331
0.0523122261629
0.14237410967
0.13575236816
0.14237410967
0.25389343501
1.16689086496
1.17044882649
1.16689086496
1.17044882649
2.78129148161
2.91283564179
2.78129148161
2.91283564179
1.68554754379
1.91109972759
2.68562737724
2.75330557899
2.68562737724
2.75330557899
21.6852149671
21.6852149671
16.1061694189
13.0899114953
10.2352723333
9.25490190013
5.15619548539
4.73064689946
3.54316778596
3.25498002507
1.15097158252
1.14214667608
0.939031587531
0.817720908028
0.126481135867
0.212763275319
0.126481135867
0.104343957239
0.0518195430218
0.059011505601
0.0112772696902
0.0119302745216
0.0112772696902
0.0119302745216
0.00156422166905
0.00173612031684
0.00165865126869
0.00164853919498
0.00171997082167
0.00171447102012
0.00171997082167
0.00171447102012
0.00123090859395
0.00122916158363
0.00123090859395
0.00122916158363
0.001128643875
0.00112274318415
0.00116778852232
0.00116735681068
0.00116778852232
0.00116735681068
0.00110103835801
0.0011016720772
0.00110103835801
0.0011016720772
0.00105217236614
0.00105174691001
0.00103846605283
0.00104073151433
0.00103846605283
0.00104073151433
0.0011418375895
0.00113249783577
0.0011418375895
0.00113249783577
0.00108443571326
0.00108646914953
0.00113288846245
0.00113317185599
0.00116549578279
0.00116409211072
0.00116713480568
0.00116804691106
0.00117934575635
0.00117934575635
0.00116223338139
0.00116513079054
0.00122779685749
0.00122389665695
0.00122779685749
0.00122389665695
0.00104518529009
0.00104412188642
0.00104518529009
0.00104412188642
0.00110318491052
0.00109748409657
0.00115883883026
0.00115571973996
0.00115883883026
0.00115571973996
0.00120101464981
0.00119754864152
0.00120101464981
0.00119754864152
0.00102374758659
0.00102114076408
0.00100617504939
0.00100459812211
0.00110484049887
0.0011056170932
0.00110484049887
0.0011056170932
0.00112421534385
0.00112524224802
0.00112421534385
0.00112524224802
0.00104715468234
0.00104775942282
0.00104715468234
0.00104775942282
0.0010432111319
0.00104258452666
0.0010432111319
0.00104258452666
0.00101556079147
0.00101490167343
0.00106244129064
0.00105685866715
0.00151370311412
0.00150112564706
0.00153057042409
0.00153057042409
0.00152073839768
0.00151194538543
0.00106146728367
0.00105899909393
0.00112782755414
0.00112409927613
0.00112782755414
0.00112409927613
0.0011620696759
0.0011623026827
0.0012006905065
0.0012006905065
0.00118551136164
0.00118576865472
0.00119317058754
0.00119001530027
0.00119317058754
0.00119001530027
0.00103521841357
0.00102831001685
0.00147300674223
0.00146498377854
0.00148322156893
0.00148322156893
0.00146220147133
0.00145369449127
0.00107057019416
0.00106340926452
0.00105484692802
0.00105404226378
0.00105484692802
0.00105404226378
0.00102336729692
0.00102273352293
0.00102336729692
0.00102273352293
0.00101337609073
0.00101165656491
0.00122650728153
0.00122461858583
0.00122650728153
0.00122461858583
0.0012017021025
0.00120634137612
0.0012244340507
0.0012244340507
0.00121779939728
0.00121894899313
0.00120947938466
0.00120925004305
0.00119837403775
0.00119737150119
0.00117161233134
0.00117087203904
0.00118308908581
0.00118440747246
0.00118308908581
0.00118440747246
0.00155720706633
0.00151543691862
0.00155720706633
0.00151543691862
0.0129189445313
0.0134562543961
0.0129189445313
0.0134562543961
0.0713014427169
0.0750758861784
0.171225427884
0.165066868835
0.171225427884
0.231494727105
1.24404521074
1.24841847534
1.24404521074
1.24841847534
2.91293899092
3.04645414419
2.91293899092
3.04645414419
1.8138970819
2.04587678327
2.86800810288
2.92970289808
2.86800810288
2.92970289808
0.00113869401499
0.00114188770145
0.00120078156683
0.0012000279865
0.0012267815264
0.00122508426459
0.0012267815264
0.00122310248998
0.00118497538564
0.00118468531016
0.00117229059966
0.00117258622794
0.00118136391337
0.00118136391337
0.00116467086886
0.00116249676711
0.00105361894639
0.00105141730575
0.0011646123488
0.0011570771869
0.0011646123488
0.0011570771869
0.00118862065311
0.00118548953373
0.00118862065311
0.00118548953373
0.00111238056645
0.00111100984273
0.00111238056645
0.00111100984273
0.00106919222829
0.00107305830099
0.00111819383401
0.00110508953016
0.00111819383401
0.00110508953016
0.00116601883289
0.00116553768547
0.00116601883289
0.00116553768547
0.001187024194
0.00119029182899
0.00122671765035
0.00122671765035
0.00120936095217
0.00121237300759
0.00118669930049
0.00118415203812
0.00118669930049
0.00118415203812
0.00107408219821
0.00106587339678
0.000983384179927
0.000986042770619
0.000983384179927
0.000986042770619
0.00169112345105
0.00167941725163
0.00175839776209
0.00174249281999
0.00175839776209
0.00174249281999
0.00120331240552
0.00120179490578
0.00120331240552
0.00120179490578
0.00109235825524
0.00109748741748
0.00109235825524
0.00109748741748
0.00117022471667
0.00117188884849
0.00117022471667
0.00117188884849
0.00109379667187
0.00108724076428
0.00113782212358
0.00113748221559
0.00113782212358
0.00113748221559
0.000529495244945
0.000529495244945
0.00131758049169
0.00131534546972
0.00131758049169
0.00131534546972
0.000952769694172
0.000945906453383
0.00182166828104
0.00180642666085
0.00182208978387
0.00182208978387
0.0017912765231
0.0017784494431
0.00120230186126
0.00120083134356
0.00120230186126
0.00120083134356
0.00113426005896
0.00113911035329
0.00114818081619
0.00114818081619
0.00113081376715
0.00113578917205
0.00109694630929
0.00110346833587
0.00117414706591
0.00117225360202
0.00117414706591
0.00117225360202
0.00109478219825
0.00108557646463
0.00116089766138
0.00115812750811
0.00116089766138
0.00115812750811
0.00121170604688
0.00121102637974
0.00122517648666
0.00122517648666
0.001184019683
0.00118470622996
0.00125887787799
0.0012528022086
0.00125887787799
0.0012528022086
0.000643276375589
0.000639734592833
0.0014047962622
0.00140098584225
0.0014047962622
0.00140098584225
0.00117672403942
0.00117973013916
0.00125252929629
0.00125063356241
0.00125706913302
0.00125583225396
0.00125706913302
0.00125583225396
0.00121976199971
0.00122148635008
0.00115609999838
0.00116063673896
0.00110930498063
0.00111475149225
0.0013096979567
0.00130209326411
0.0013096979567
0.00130209326411
0.00127983745174
0.0012778650094
0.00127983745174
0.0012778650094
0.000529377528316
0.000532949008082
0.00160249810941
0.00158669554047
0.00160249810941
0.00158669554047
0.00137945463292
0.00137866177722
0.00116226662145
0.001146986666
0.00109957494313
0.00109020308939
0.000593354871336
0.00060616966878
0.0014054086739
0.00139939100309
0.0014054086739
0.00139939100309
0.00178119385076
0.00177258049184
0.00180432350041
0.00180410715056
0.00180432350041
0.00178892881269
0.0012364219538
0.0012330525205
0.0012364219538
0.0012330525205
0.001183221237
0.00118443885939
0.00120494777938
0.00120494777938
0.00120028125684
0.00119959937018
0.00117995842303
0.00117932134195
0.0011916759568
0.00119074338507
0.00122760478409
0.00122709254037
0.00125395168645
0.0012552313596
0.00127844728329
0.0012811444676
0.00128773493469
0.00128997908745
0.00128773493469
0.00128997908745
0.00127011420626
0.0012723765477
0.00119909704719
0.00120339872451
0.00122044217735
0.00121874745104
0.00122044217735
0.00121874745104
0.00109364605028
0.00109005531479
0.00109364605028
0.00109005531479
0.000997992372464
0.00099664461255
0.00107397021458
0.00107224181036
0.00107397021458
0.00107224181036
0.000988385618932
0.000986361334739