/*--------------------------------*- C++ -*----------------------------------*\
| =========                 |                                                 |
| \\      /  F ield         | OpenFOAM: The Open Source CFD Toolbox           |
|  \\    /   O peration     | Version:  2112                                  |
|   \\  /    A nd           | Website:  www.openfoam.com                      |
|    \\/     M anipulation  |                                                 |
\*---------------------------------------------------------------------------*/
FoamFile
{
    version     2.0;
    format      ascii;
    arch        "LSB;label=32;scalar=64";
    class       volScalarField;
    location    "0";
    object      skewness;
}
// * * * * * * * * * * * * * * * * * * * * * * * * * * * * * * * * * * * * * //

dimensions      [0 0 0 0 0 0 0];

internalField   nonuniform List<scalar> 
52617
(
0.114452938895
0.112281683074
0.0644856541973
0.0671881646876
0.0518630729566
0.050785615788
0.0356833582377
0.036612583616
0.0299512592475
0.0292854816442
0.0226862414055
0.0227770795662
0.0186212154608
0.0183833808923
0.0147513790307
0.0147564535204
0.0119510168539
0.0119150772188
0.00950952363353
0.00951781560299
0.00750196618878
0.00750057302657
0.00571620817942
0.00571793424071
0.00411820662395
0.00411858037438
0.00265753681416
0.00265721161055
0.00130730612586
0.00130747364853
4.6477136843e-05
4.62750073298e-05
0.00113947355205
0.00113920234002
0.00226359708615
0.00226396110411
0.00333426109246
0.00333390636762
0.00436060063178
0.00436101937269
0.00534758915673
0.00534757662992
0.00630095143991
0.00630051756211
0.00722564583356
0.0072260070619
0.0081238402897
0.00812347913096
0.00900006600435
0.00900046827876
0.00985543687226
0.00985511986791
0.0106934562512
0.0106934553604
0.0115153095538
0.0115156494691
0.0123223077963
0.0123219639937
0.0131169978558
0.0131172897454
0.0138992308221
0.0138988190107
0.0146715541728
0.014672102875
0.015433477006
0.0154334627628
0.0161865170028
0.0161859400748
0.0169323076806
0.0169327434735
0.017669690932
0.0176693592068
0.0184009103369
0.0184013049341
0.0191250774466
0.0191246670548
0.0198442222441
0.0198446114922
0.0205573469246
0.0205573472413
0.0212656386757
0.0212656284928
0.0219692699195
0.021969251085
0.0226685716642
0.0226685577463
0.0233638202996
0.023363818429
0.0240552721321
0.0240552753973
0.024743181444
0.0247431861961
0.0254275570785
0.0254271197706
0.0261094777815
0.0261099530384
0.026787554124
0.0267870494818
0.0274638967528
0.0274643411959
0.0281366762816
0.0281362099628
0.0288079291892
0.0288084170803
0.0294759393746
0.0294754702079
0.0301427022507
0.0301432300158
0.0308064125306
0.0308058655414
0.0314691863087
0.0314691873661
0.032129735446
0.032130262622
0.0434474030213
0.0434474096715
0.0434489062912
0.0434488995307
0.0434504043707
0.0434504095025
0.0434518737539
0.0434518687333
0.0434533334151
0.0434533334151
0.0434547735081
0.0434547735639
0.0434561966804
0.0434561967204
0.0434576034811
0.0434576034095
0.0434589937878
0.0434589938238
0.0434603682176
0.0434603681808
0.0434617267777
0.0434617268297
0.0434630697966
0.0434630698159
0.0434643975056
0.0434643975627
0.0434657100176
0.0434657099621
0.0434670077865
0.0434670075935
0.043468290953
0.0434682910666
0.0434695597767
0.0434695599819
0.0434708141769
0.0434708142548
0.0434720544599
0.043472054357
0.0434732813387
0.0434732811262
0.0434744966481
0.0434745010845
0.043475692063
0.0434756875755
0.0434768837291
0.0434768896445
0.0434780517339
0.0434780463626
0.0434792177853
0.0434792230828
0.0434803607529
0.0434803555787
0.0434815016056
0.0434815066812
0.0434826196648
0.0434826139531
0.0434837361256
0.043483740452
0.0434848322566
0.0434848299967
0.0434859226608
0.0434859255736
0.0434869948799
0.0434869900019
0.0327878211595
0.0327871251849
0.0334455712989
0.0334462319062
0.0341003680608
0.0340997209671
0.0347549633798
0.0347556344021
0.0354067528831
0.035406006641
0.036058564746
0.0360591392181
0.0367083017091
0.0367083029591
0.0373564490399
0.0373558745353
0.0380045401272
0.0380053374103
0.0386500523912
0.0386493110971
0.039295947399
0.0392968240287
0.0399396596451
0.0399396335008
0.0405824025645
0.0405814750091
0.0412256103355
0.0412263950051
0.0413662613705
0.0413661870216
0.0414277196788
0.0414277931241
0.0414865728614
0.041486494166
0.0415432450871
0.0415433042871
0.0415975864854
0.0415975322749
0.041649946297
0.0416499996192
0.041700210601
0.0417001527699
0.0417487016942
0.041748760037
0.0417952939397
0.0417952580885
0.0418402620923
0.0418402963314
0.041883535769
0.0418834990837
0.041925333097
0.0419253660898
0.0419655802126
0.0419655302084
0.0420045136495
0.0420045639948
0.0420420099671
0.0420419678297
0.0420782937708
0.0420782937006
0.0421133544829
0.0421133948496
0.0421471844599
0.0421471396662
0.043488063867
0.0434880674265
0.043489113928
0.0434891104714
0.0434901607702
0.0434901663038
0.0434911870753
0.0434911820994
0.0434922128772
0.0434922181871
0.0434932183272
0.0434932143087
0.0434942218727
0.0434942257189
0.0434952091725
0.0434952091541
0.0434961863159
0.0434961824733
0.0434971591798
0.0434971632085
0.0434981138438
0.043498108794
0.0434990678389
0.0434990723886
0.0435000028599
0.0434999981194
0.0435009376422
0.0435009421734
0.0435018536478
0.0435018488687
0.0435027694754
0.0435027732869
0.0435036679726
0.0435036644035
0.0435045630276
0.043504562871
0.0435054475218
0.0435054475809
0.0435063231131
0.0435063232962
0.0435071900084
0.0435071899928
0.0435080500201
0.0435080534241
0.0435088963781
0.0435088923931
0.0435097417559
0.0435097456857
0.0435105719985
0.0435105695587
0.0435113995359
0.0435114015691
0.043512213458
0.0435122089643
0.0435130252297
0.0435130255068
0.0435138293034
0.0435138347691
0.0435146188933
0.0435146158437
0.0435154082925
0.043515411826
0.0435161835436
0.043516180006
0.042179983924
0.042180026221
0.0422116333344
0.0422115987365
0.0422423406101
0.0422423891029
0.0422719795472
0.0422719317654
0.0423007802822
0.0423008346664
0.0423286042881
0.0423286041862
0.0423555681568
0.0423555159682
0.0423817791796
0.0423818215376
0.0424071086812
0.04240706817
0.0424317588922
0.0424317991526
0.0424555958821
0.0424555523461
0.04247881013
0.0424788418924
0.042501280383
0.0425012494875
0.0425231483925
0.0425231484648
0.0425443769156
0.0425443776707
0.0425650045859
0.0425650058457
0.0425850533519
0.0425850539431
0.0426045452875
0.0426045453434
0.0426235010059
0.0426235010267
0.0426419397729
0.0426419397449
0.0426598801363
0.0426598799438
0.0426773399556
0.0426773395421
0.0426943364235
0.0426943361121
0.0427108982239
0.0427109232495
0.0427269907072
0.0427269658216
0.042742720136
0.0427427528564
0.0427579867327
0.0427579564661
0.0427729264694
0.0427729574142
0.0427874322747
0.0427874082508
0.0428016141994
0.0428016141011
0.0428154458343
0.0428154716971
0.0428289010343
0.0428288796004
0.0435169577879
0.0435169601161
0.0435177192586
0.0435177167565
0.0435184785739
0.0435184811463
0.0435192255998
0.0435192230955
0.043519970661
0.0435199731878
0.043520703811
0.0435207015249
0.0435214347537
0.0435214370011
0.0435221538078
0.0435221501089
0.0435228721597
0.0435228749829
0.0435235780754
0.0435235754053
0.0435242835462
0.0435242878307
0.0435249752124
0.043524971457
0.0435256682142
0.0435256722097
0.0435263474927
0.0435263443182
0.043527027285
0.043527030204
0.0435276963719
0.0435276964949
0.0435283608324
0.0435283608673
0.0435290191881
0.0435290192774
0.0435296717312
0.0435296717072
0.043530318318
0.0435303182204
0.0435309591831
0.0435309591757
0.0435315943398
0.043531594231
0.0435322238115
0.043532223833
0.0435328477956
0.0435328477775
0.0435334660906
0.0435334661655
0.0435340790559
0.0435340790899
0.0435346851876
0.0435346824103
0.0435352903188
0.0435352934999
0.0435358840987
0.0435358809377
0.0435364783193
0.043536480185
0.0435370629624
0.0435370608534
0.0435376465507
0.0435376487159
0.0435382209093
0.0435382189253
0.0435387946923
0.043538797222
0.0435393582615
0.0435393548146
0.0435399236703
0.0435399274707
0.0435404773154
0.0435404747369
0.0435410316662
0.0435410333392
0.0435415772773
0.0435415751323
0.0435421222547
0.0435421243976
0.0435426586441
0.0435426570109
0.0435431943954
0.0435431969635
0.0435437206525
0.0435437171032
0.0435442486344
0.0435442516617
0.0435447659839
0.0435447627513
0.0435452853398
0.0435452885708
0.0435457943401
0.0435457920569
0.04354630431
0.0435463067722
0.0435468051013
0.0435468026349
0.0435473067512
0.0435473089262
0.0435477990964
0.043547795966
0.0435482932507
0.0435482963498
0.0435487772055
0.0435487739504
0.043549262832
0.0435492649505
0.043549739983
0.0435497379165
0.0435502177834
0.0435502209375
0.0435506858176
0.0435506821897
0.0435511552337
0.0435511552721
0.0435516208885
0.0435516245239
0.0435520777862
0.0435520749143
0.0435525371395
0.0435525402026
0.0435529873526
0.0435529850348
0.043553438407
0.0435534399846
0.0435538823487
0.0435538805392
0.0435543262446
0.0435543279798
0.0435547631537
0.0435547615343
0.0435552003465
0.0435552026599
0.0435556297393
0.0435556274453
0.0435560603364
0.0435560624258
0.0435564829064
0.0435564801998
0.043556907423
0.0435569103933
0.0435573231131
0.0435573205121
0.043557741209
0.0435577445601
0.0435581516825
0.0435581517619
0.043558558951
0.0435585562467
0.0435589670709
0.0435589691558
0.0435593674876
0.0435593654427
0.0435597689885
0.043559771087
0.0435601633323
0.0435601610529
0.0435605586187
0.04356056032
0.0435609464584
0.0435609429357
0.0435613356895
0.0435613358843
0.0435617218746
0.0435617252816
0.0435621005888
0.0435620982003
0.0435624818385
0.0435624845767
0.0435628555984
0.0435628537467
0.0428420718747
0.0428420917976
0.0428548797398
0.0428548514413
0.042867430649
0.0428674561621
0.0428796311999
0.0428796060434
0.0428915932028
0.0428916179885
0.0429032259966
0.0429032018455
0.0429146364161
0.0429146607528
0.0429257346301
0.042925708443
0.0429366260018
0.0429366450884
0.0429472288118
0.0429472101947
0.0429576204287
0.0429576207378
0.042967770184
0.0429677706447
0.0429776942596
0.0429776946033
0.0429873995484
0.0429873999501
0.0429968921253
0.0429968923067
0.0430061867977
0.043006203546
0.0430152554111
0.0430152375115
0.0430241663693
0.0430241879032
0.0430328472795
0.0430328264627
0.0430413857923
0.043041405485
0.0430497057999
0.0430496864863
0.0430578932191
0.0430579172588
0.0430658781781
0.0430658783239
0.0430736993487
0.0430736767739
0.0430813928818
0.0430814119735
0.0430888903222
0.043088869986
0.0430962735257
0.0430962879263
0.0431034775357
0.0431034629192
0.0431105600706
0.0431105604429
0.0431174957014
0.043117496367
0.0431243021737
0.0431243168267
0.0431309551753
0.0431309417494
0.0431375088693
0.0431375269766
0.0431439034798
0.0431438861902
0.0431502096019
0.0431502252119
0.0431563632094
0.0431563453823
0.0431624314717
0.0431624424581
0.0431683604383
0.0431683485446
0.0431742032787
0.0431742176521
0.0431799134321
0.0431799047137
0.0431855387951
0.0431855479289
0.043191043787
0.0431910355044
0.0431964681287
0.0431964816784
0.0432017701628
0.04320175662
0.043206997113
0.0432069971546
0.0432121299982
0.043212141959
0.0432171521339
0.0432171366302
0.0432221136361
0.0432221270358
0.0432269602653
0.0432269465197
0.0432317496504
0.0432317635986
0.043236427248
0.0432364111954
0.0432410470662
0.0432410471728
0.0432455876778
0.0432456035057
0.0432500286849
0.0432500156901
0.0432544213427
0.0432544338198
0.0432587131955
0.0432586972023
0.043262954561
0.0432629533594
0.0432671249257
0.0432671377549
0.0432712083093
0.0432711992666
0.043275244786
0.0432752548363
0.0432791954275
0.043279185082
0.0432831020983
0.0432831124586
0.0432869252105
0.0432869156241
0.0432907059192
0.0432907151753
0.0432944072102
0.0432943975108
0.0432980697729
0.0432980821492
0.0433016517325
0.0433016407635
0.0433051995249
0.0433052103894
0.0433086684328
0.0433086544869
0.0433121023687
0.0433121024685
0.0433154831021
0.0433154973952
0.0433187922021
0.0433187817047
0.0433220719565
0.043322080218
0.0433252842072
0.0433252764025
0.0433284647174
0.0433284752521
0.0433315773375
0.0433315667104
0.0433346651077
0.0433346776802
0.0433376887727
0.0433376886417
0.0433406672825
0.043340654651
0.0433436188486
0.0433436283622
0.0433465061332
0.0433464963158
0.0433493707681
0.043349381419
0.0433521744613
0.0433521671315
0.0433549521436
0.0433549568146
0.0433576768277
0.0433576679969
0.043360377434
0.0433603854941
0.043363023122
0.0433630157079
0.043365642405
0.0433656424258
0.0433682207712
0.0433682208253
0.0433707626263
0.043370762645
0.0433732687892
0.0433732687753
0.0433757396638
0.0433757397124
0.0433781796252
0.0433781865075
0.0433805752122
0.043380568086
0.0433829528716
0.0433829620926
0.0433852806097
0.0433852719238
0.043387593957
0.0433876023113
0.0433898592132
0.0433898511627
0.0433921100754
0.0433921189088
0.0433943135804
0.0433943049357
0.04339650334
0.0433965093464
0.0433986505561
0.0433986445977
0.0434007823499
0.0434007908865
0.0434028703389
0.0434028623022
0.0434049472214
0.0434049555689
0.0434069810701
0.0434069745269
0.043409002051
0.0434090080809
0.0434109873195
0.0434109873265
0.0434129469111
0.0434129408751
0.0434148903856
0.0434148970132
0.0434167961042
0.0434167897324
0.043418689908
0.043418695618
0.043420547611
0.0434205417544
0.0434223935856
0.0434223995207
0.0434242042492
0.0434241985243
0.0434260037775
0.0434260095422
0.0434277692086
0.0434277633485
0.0434295240835
0.0434295299548
0.0434312453864
0.0434312391522
0.0434329563492
0.0434329602933
0.0434346370799
0.0434346329329
0.0434363056711
0.0434363102389
0.0434379453004
0.0434379418327
0.0434395737983
0.0434395798726
0.0434411715044
0.0434411652599
0.0434427591654
0.0434427587621
0.0434443273443
0.0434443326251
0.0434458680519
0.0434458612322
0.0435632303992
0.0435632322194
0.0435635987614
0.0435635965701
0.0435639683292
0.0435639703198
0.0435643312339
0.0435643292142
0.0435646952669
0.0435646971164
0.0435650525434
0.043565050107
0.0435654122211
0.0435654153445
0.043565764722
0.0435657647293
0.0435661148098
0.0435661117586
0.0435664664634
0.0435664687423
0.0435668105634
0.0435668081164
0.0435671569014
0.0435671592128
0.0435674960472
0.0435674937728
0.0435678373685
0.0435678397388
0.0435681713486
0.0435681688694
0.0435685076229
0.0435685095547
0.043568837851
0.04356883669
0.0435691683925
0.0435691697574
0.0435694936394
0.0435694915566
0.0435698201398
0.0435698219242
0.0435701405806
0.0435701385768
0.0435704625557
0.0435704645585
0.0435707783612
0.0435707765581
0.0435710957093
0.0435710975191
0.0435714070913
0.0435714053729
0.0435717203393
0.0435717226935
0.04357202684
0.0435720246302
0.0435723356986
0.0435723377455
0.0435726378384
0.0435726351375
0.0435729416369
0.0435729417119
0.0435732433463
0.0435732461288
0.0435735391558
0.0435735370114
0.0435738374869
0.0435738396349
0.0435741294261
0.0435741272399
0.0435744234503
0.0435744252129
0.0435747120529
0.043574710691
0.0435750013639
0.0435750025395
0.043575286385
0.0435752852216
0.0435755720362
0.0435755740226
0.0435758525969
0.0435758509965
0.0435761344193
0.0435761360012
0.043576411094
0.0435764092558
0.0435766891854
0.0435766902814
0.0435769625408
0.04357696121
0.0435772366961
0.0435772379611
0.0435775063808
0.0435775052262
0.043577776752
0.0435777778944
0.0435780426247
0.0435780408592
0.0435783099499
0.0435783117667
0.0435785721101
0.043578570495
0.0435788348681
0.0435788348947
0.0435790959785
0.0435790974676
0.0435793529602
0.0435793514396
0.043579611671
0.0435796137847
0.0435798648287
0.043579862752
0.043580120198
0.0435801220674
0.0435803701863
0.0435803682491
0.043580622369
0.0435806244574
0.0435808688553
0.0435808668771
0.0435811175575
0.0435811190997
0.0435813614735
0.0435813603894
0.0435816064097
0.0435816075575
0.0435818475326
0.0435818467249
0.0435820896032
0.0435820916544
0.0435823274482
0.0435823272046
0.0435825638528
0.0435825613928
0.0435828018832
0.0435828036783
0.0435830344873
0.0435830326285
0.0435832691736
0.0435832706376
0.0435834991087
0.0435834975667
0.0435837298461
0.0435837297329
0.0435839583969
0.0435839584247
0.0435841854989
0.0435841854571
0.0435844118365
0.0435844133012
0.0435846345406
0.0435846331519
0.0435848591387
0.0435848610482
0.0435850786233
0.0435850768565
0.0435853004604
0.0435853021764
0.0435855172359
0.0435855154233
0.0435857361406
0.0435857376036
0.0435859514057
0.0435859513379
0.0435861651277
0.0435861636801
0.0435863800956
0.0435863819695
0.0435865902198
0.0435865885336
0.0435868025492
0.043586804179
0.0435870100632
0.0435870083028
0.0435872192433
0.0435872197724
0.043587422355
0.0435874124838
0.0435875387228
0.0435875522354
0.043587721673
0.0435876609377
0.043587150726
0.0435873478825
0.0435872631737
0.0435871360882
0.043584468625
0.0435854558522
0.0435861160797
0.0435854590276
0.0435798651931
0.0435818923911
0.0435883571479
0.0435854804639
0.0435813888809
0.0435834585614
0.0435969124764
0.0435936604954
0.0435937825106
0.0435959500147
0.0436020457552
0.0436022317206
0.0436015685089
0.0436008194313
0.0436004117656
0.0436002780521
0.0436002679449
0.0436002892548
0.0436003090611
0.0436003210629
0.0436003259587
0.0436003277152
0.0436003282664
0.0436003284096
0.0436003284306
0.0436003284388
0.0436003284006
0.0436003283989
0.0436003283983
0.0436003284086
0.0436003284477
0.0436003284616
0.0436003284332
0.0436003284151
0.0436003283888
0.0436003283854
0.043600328422
0.0436003284127
0.0436003283828
0.0436003283795
0.0436003283825
0.0436003283758
0.043600328374
0.0436003283909
0.0436003284174
0.0436003283971
0.0436003284054
0.0436003284308
0.0436003283893
0.043600328377
0.0436003284055
0.043600328423
0.043600328433
0.0436003284174
0.0436003283932
0.04360032839
0.0436003284139
0.0436003284247
0.0436003284055
0.0436003284146
0.0436003284009
0.0436003283844
0.0436003284248
0.0436003284055
0.0436003284097
0.0436003284374
0.0436003284151
0.0436003283844
0.0436003283682
0.0436003284268
0.0436003284779
0.0436003284722
0.0436003284171
0.0436003283777
0.043600328387
0.0436003284196
0.0436003284239
0.0436003284026
0.0436003284208
0.0436003283977
0.0436003283882
0.0436003284218
0.0436003284243
0.0436003284158
0.0436003284223
0.0436003284096
0.0436003283975
0.0436003284056
0.043600328396
0.0436003284166
0.0436003284333
0.0436003284129
0.0436003284267
0.0436003284239
0.0436003284008
0.0436003283959
0.0436003283956
0.043600328417
0.0436003284435
0.0436003284292
0.0436003284396
0.0436003284226
0.0436003284202
0.0436003284236
0.0436003284033
0.0436003284172
0.0436003284153
0.0436003284122
0.0436003284454
0.0436003284189
0.0436003283642
0.0436003283633
0.0436003283522
0.0436003283693
0.0436003283993
0.0436003283018
0.0436003278189
0.0436003261904
0.0436003218316
0.0436003107074
0.0436002922477
0.0436002728708
0.0436002855462
0.0436004244316
0.0436008384766
0.043601597981
0.0436022801632
0.0436021081848
0.0435705044558
0.0435735728795
0.0435747689367
0.0435701155968
0.043553202748
0.0435558717536
0.0435627140423
0.0435588300367
0.0435523039518
0.0435549096694
0.0435609544758
0.0435603176997
0.0435602295089
0.0435614669791
0.043564376559
0.0435643362626
0.0435652550247
0.0435654761023
0.043566568782
0.043566516733
0.0435670310787
0.0435670403528
0.0435674833245
0.0435674728768
0.0435678362507
0.0435678363356
0.0435681712059
0.0435681683539
0.0435685078172
0.0435685101813
0.043568837531
0.043568835755
0.0435691685747
0.0435691702914
0.0435694934449
0.0435694910103
0.0435698204455
0.0435698228228
0.043570140201
0.0435701373883
0.0435704615441
0.0435704615989
0.0435707806034
0.0435707832847
0.0435710936159
0.0435710912637
0.0435714092363
0.0435714117082
0.0435717182385
0.0435717165036
0.0435720288522
0.0435720307354
0.0435723346812
0.0435723346122
0.0435726391713
0.0435726391551
0.0435729408109
0.0435729391277
0.0435732429531
0.0435732449369
0.0435735391762
0.0435735371975
0.0435738369365
0.0435738379336
0.0435741296053
0.043574127821
0.0435744234936
0.0435744253365
0.0435747119702
0.043574710343
0.0435750018596
0.0435750040328
0.0435752858189
0.0435752835733
0.0435755721827
0.0435755745118
0.0435758525475
0.0435758507984
0.0435761336069
0.0435761336391
0.0435764129242
0.0435764146214
0.0435766875021
0.0435766852314
0.0435769642022
0.0435769662006
0.043577234984
0.043577232881
0.0435775080431
0.0435775102693
0.0435777754081
0.0435777737504
0.0435780442991
0.0435780460136
0.043578309094
0.043578309093
0.0435785728665
0.0435785728392
0.043578834922
0.0435788349316
0.0435790951949
0.0435790951483
0.0435793537003
0.0435793537411
0.0435796106347
0.0435796106322
0.0435798650479
0.0435798634782
0.0435801201523
0.0435801218614
0.0435803703194
0.0435803686233
0.0435806220585
0.0435806236442
0.0435808690502
0.0435808673059
0.0435811173058
0.0435811184008
0.0435813614485
0.0435813602957
0.0435816064598
0.0435816076328
0.0435818474333
0.0435818464457
0.0435820894121
0.0435820910871
0.0435823267837
0.0435823253422
0.0435825657114
0.0435825668686
0.0435828000769
0.0435827982031
0.0435830366008
0.043583039069
0.0435832684469
0.0435832684138
0.0435834984142
0.0435834955206
0.043583729842
0.0435837296581
0.0435839595905
0.0435839620492
0.0435841848671
0.0435841835553
0.0435844117863
0.0435844132755
0.0435846346077
0.0435846332155
0.0435848589129
0.0435848604022
0.0435850787652
0.0435850772507
0.0435853002603
0.0435853016321
0.0435855174372
0.0435855160397
0.0435857361665
0.0435857376063
0.0435859504303
0.0435859484928
0.0435861667481
0.0435861684287
0.0435863780635
0.0435863758856
0.0435865910419
0.0435865910437
0.0435868028845
0.0435868051974
0.0435870102062
0.0435870087939
0.043587218761
0.0435872183316
0.0435874157404
0.0435874080542
0.0435875429621
0.0435875494824
0.0435876653254
0.0435876288346
0.043587197967
0.0435873518351
0.0435870460584
0.0435870177961
0.0435846710753
0.0435855155863
0.0435856516521
0.0435852164306
0.0435803327432
0.0435820758493
0.0435877959285
0.0435852076978
0.0435819915741
0.0435837489804
0.0435965774007
0.0435935399018
0.0435941607715
0.0435961535176
1.51064958677
1.46195003659
0.126879194901
0.180148882072
0.0718544760534
0.043624305393
0.0436238713405
0.0436238971402
0.0436235751748
0.0436236033664
0.0436233555841
0.04362338584
0.043623222225
0.0436232534414
0.043623157328
0.0436231890468
0.0436231320934
0.0436231641503
0.0436231238631
0.0436231559668
0.0436231213926
0.0436231536035
0.0436231206532
0.0436231528522
0.0436231205254
0.0436231526262
0.0436231205033
0.0436231525477
0.0436231204943
0.0436231525244
0.0436231204559
0.0436231525426
0.0436231204573
0.0436231525161
0.0436231204491
0.0436231525501
0.0436231204708
0.0436231525432
0.0436231204762
0.0436231524921
0.0436231204746
0.0436231525048
0.0436231205011
0.0436231525456
0.043623120489
0.0436231525477
0.0436231204762
0.043623152535
0.0436231204452
0.0436231525606
0.0436231204378
0.0436231525531
0.0436231204844
0.0436231524866
0.0436231204445
0.0436231525033
0.0436231203947
0.0436231525522
0.0436231204384
0.0436231525252
0.0436231204535
0.0436231525259
0.0436231204347
0.043623152578
0.0436231204233
0.0436231525809
0.0436231204188
0.0436231525764
0.0436231204392
0.0436231525825
0.0436231204686
0.0436231525696
0.0436231204559
0.0436231525856
0.0436231204241
0.0436231525817
0.0436231204317
0.0436231525327
0.0436231204694
0.0436231525281
0.0436231204657
0.0436231525524
0.0436231204588
0.0436231524889
0.0436231204702
0.0436231524581
0.0436231204331
0.0436231525486
0.0436231204385
0.0436231525395
0.0436231204603
0.0436231524904
0.0436231204717
0.043623152474
0.0436231204392
0.043623152498
0.0436231204218
0.043623152523
0.0436231204791
0.043623152467
0.0436231204913
0.0436231524792
0.0436231204829
0.0436231525274
0.0436231204566
0.0436231525154
0.0436231204119
0.043623152513
0.0436231204098
0.0436231525531
0.0436231204339
0.0436231525772
0.0436231204188
0.0436231525478
0.0436231204052
0.0436231525486
0.0436231204248
0.0436231525681
0.0436231204189
0.04362315252
0.0436231204347
0.0436231524934
0.0436231204528
0.0436231525395
0.0436231204679
0.0436231525402
0.0436231204686
0.0436231524987
0.0436231204558
0.0436231525003
0.0436231204595
0.0436231525462
0.04362312044
0.0436231525833
0.0436231204317
0.0436231525749
0.0436231204581
0.0436231524882
0.0436231204861
0.043623152474
0.0436231204482
0.0436231525493
0.0436231204219
0.0436231525795
0.0436231204331
0.0436231526051
0.0436231204241
0.0436231525818
0.0436231204361
0.0436231525229
0.0436231204558
0.0436231525146
0.0436231204852
0.043623152544
0.0436231205056
0.0436231524935
0.0436231204874
0.0436231524609
0.0436231204581
0.0436231525447
0.04362312044
0.0436231525976
0.0436231204408
0.0436231525984
0.0436231204603
0.0436231525613
0.043623120477
0.0436231525071
0.0436231204588
0.0436231525312
0.0436231204543
0.0436231525554
0.0436231204626
0.0436231525779
0.0436231203878
0.0436231525599
0.0436231201756
0.0436231524471
0.0436231195102
0.0436231518539
0.0436231178611
0.0436231501392
0.0436231135796
0.0436231456734
0.0436231064799
0.0436231384976
0.0436230985128
0.043623130714
0.0436231037753
0.043623136116
0.0436231565486
0.0436231884863
0.0436233165001
0.0436233461128
0.0436236128977
0.0436236387565
0.0436238750497
0.0436239037595
0.0436238109008
0.0436238380907
0.0434474023084
0.0434474074394
0.0434489070509
0.0434489018974
0.0434504018064
0.0434504017846
0.0434518763464
0.0434518765172
0.0434533334424
0.0434533335218
0.0434547734567
0.0434547734221
0.0434561966572
0.043456196632
0.0434576059144
0.0434576108469
0.0434589915018
0.0434589868287
0.0434603714666
0.0434603778588
0.0434617236473
0.0434617174756
0.0434630728813
0.0434630790581
0.0434643950033
0.0434643901812
0.0434657123825
0.0434657169812
0.043467005486
0.0434670007428
0.0434682932377
0.0434682978138
0.0434695566137
0.0434695505491
0.0434708170332
0.0434708229053
0.0434720516319
0.0434720457724
0.0434732836842
0.0434732881946
0.0434744922107
0.0434744877725
0.0434756942406
0.0434756941578
0.0434768829777
0.0434768873596
0.0434780522452
0.0434780478467
0.0434792180958
0.0434792240072
0.0434803606775
0.04348035539
0.0434815015757
0.0434815065973
0.0434826200034
0.043482614956
0.0434837372995
0.0434837439428
0.0434848334606
0.0434848335895
0.0434859179533
0.0434859114703
0.0434869999083
0.0434870050503
0.0434880599639
0.043488055729
0.0434891175675
0.0434891215026
0.0434901560897
0.0434901521684
0.0434911916145
0.0434911957167
0.0434922076564
0.043492202481
0.0434932228114
0.0434932278301
0.0434942173342
0.0434942120406
0.043495211059
0.0434952149449
0.0434961882112
0.0434961881529
0.0434971551772
0.0434971510638
0.0434981183298
0.0434981223328
0.0434990639927
0.0434990607506
0.0435000082576
0.043500014437
0.0435009353738
0.043500935268
0.0435018530966
0.0435018472089
0.0435027698497
0.0435027744847
0.0435036678463
0.0435036640934
0.0435045649248
0.0435045684314
0.0435054473974
0.0435054473579
0.0435063230734
0.0435063230458
0.043507188225
0.0435071847114
0.0435080501988
0.043508053942
0.043508896029
0.0435088914268
0.0435097420076
0.0435097464531
0.043510570866
0.0435105661551
0.0435114002604
0.0435114036364
0.0435122139864
0.0435122106059
0.0435130251012
0.0435130251152
0.0435138282932
0.0435138317386
0.0435146185996
0.0435146149502
0.043515408503
0.0435154123451
0.0435161842957
0.0435161823498
0.0435169582989
0.0435169616677
0.0435177186473
0.0435177149036
0.0435184789065
0.0435184821192
0.0435192268633
0.0435192269928
0.0435199694492
0.0435199693961
0.0435207048885
0.0435207048633
0.0435214336114
0.0435214334993
0.0435221555612
0.0435221554629
0.0435228693016
0.043522866284
0.0435235811221
0.0435235845454
0.0435242797909
0.0435242766209
0.0435249786439
0.0435249817269
0.0435256645918
0.0435256614549
0.0435263500148
0.0435263518845
0.0435270239583
0.0435270201302
0.0435276964849
0.0435276969028
0.0435283630632
0.0435283675162
0.0435290171647
0.0435290130948
0.0435296731899
0.0435296762585
0.0435303176318
0.0435303160558
0.043530960607
0.0435309635784
0.0435315924469
0.0435315884837
0.0435322260564
0.0435322305301
0.0435328477611
0.0435328477427
0.0435334638928
0.0435334594289
0.0435340807877
0.0435340843852
0.043534685104
0.0435346821595
0.0435352901446
0.0435352929088
0.0435358856385
0.0435358856138
0.0435364773327
0.0435364773377
0.0435370640341
0.0435370639492
0.0435376454529
0.0435376455286
0.0435382219669
0.0435382220042
0.043538793452
0.0435387934572
0.0435393599775
0.0435393600439
0.0435399217861
0.0435399217804
0.04354047859
0.0435404785986
0.0435410308162
0.0435410307266
0.0435415770082
0.043541574375
0.0435421225476
0.0435421252575
0.0435426577473
0.0435426543332
0.0435431947073
0.043543197905
0.0435437208071
0.0435437175482
0.0435442486319
0.0435442516668
0.0435447660756
0.0435447630075
0.043545285281
0.0435452883881
0.0435457939764
0.0435457910154
0.0435463045895
0.0435463075669
0.04354680472
0.043546801447
0.0435473066519
0.0435473087221
0.0435477996322
0.0435477975485
0.0435482933717
0.0435482966877
0.0435487772709
0.0435487742652
0.0435492633249
0.043549266242
0.0435497394446
0.0435497363386
0.0435502176624
0.0435502205683
0.0435506861706
0.0435506833301
0.0435511567863
0.0435511599049
0.0435516175711
0.0435516146091
0.0435520803173
0.043552082483
0.0435525345855
0.0435525324404
0.0435529899385
0.043552992855
0.043553436026
0.0435534328914
0.0435538843916
0.0435538866928
0.043554324647
0.0435543230933
0.043554764703
0.0435547662257
0.0435551980006
0.043555195641
0.0435556324272
0.0435556354715
0.0435560577845
0.0435560548076
0.0435564854185
0.0435564876982
0.0435569048921
0.0435569028254
0.0435573255208
0.0435573276915
0.0435577383908
0.0435577361243
0.0435581529458
0.0435581556331
0.0435585606363
0.043558561259
0.0435589816209
0.0435589935922
0.0435595066875
0.0435594967992
0.0435600342166
0.0435600930022
0.0435614686184
0.0435612387338
0.0435624157956
0.043562496538
0.0435666800277
0.0435656130561
0.0435684214268
0.0435682115758
0.0435765047671
0.0435739214301
0.0435785700885
0.0435770329793
0.0718565663015
0.043581640321
0.126835391222
0.180198242364
1.51064958677
1.46195003659
0.589189373396
0.420126027021
0.0433442800618
0.0738268933073
0.0433466594264
0.0433469446186
0.0433494090657
0.0433494942784
0.043352208803
0.0433522699952
0.0433549622929
0.0433549872013
0.043357678975
0.0433576744311
0.0433603782818
0.0433603880042
0.0433630220008
0.0433630123824