/*--------------------------------*- C++ -*----------------------------------*\
| =========                 |                                                 |
| \\      /  F ield         | OpenFOAM: The Open Source CFD Toolbox           |
|  \\    /   O peration     | Version:  2112                                  |
|   \\  /    A nd           | Website:  www.openfoam.com                      |
|    \\/     M anipulation  |                                                 |
\*---------------------------------------------------------------------------*/
FoamFile
{
    version     2.0;
    format      ascii;
    arch        "LSB;label=32;scalar=64";
    class       volScalarField;
    location    "0";
    object      wallDistance;
}
// * * * * * * * * * * * * * * * * * * * * * * * * * * * * * * * * * * * * * //

dimensions      [0 1 0 0 0 0 0];

internalField   nonuniform List<scalar> 
52617
(
0.00107252150073
0.00322985692677
0.00108236171257
0.00323449771536
0.00108348839943
0.00325585860524
0.00110225215774
0.00329743567847
0.00110072280704
0.00330826275705
0.00110595563728
0.00331636600232
0.0011037906064
0.00331425845542
0.00110488777746
0.00331452564099
0.00110425091579
0.00331330052458
0.00110441146081
0.00331310719806
0.00110426300253
0.0033128144765
0.00110426394104
0.00331276371424
0.00110424566626
0.00331273027143
0.00110423680885
0.00331271610918
0.00110424087857
0.00331271951203
0.00110423789699
0.00331271735159
0.0011042421751
0.00331272146752
0.001104236379
0.00331271576299
0.00110424321109
0.0033127232512
0.00110423590776
0.00331271524602
0.00110423986464
0.00331271981591
0.00110424399327
0.00331272445452
0.00110423676137
0.00331271649238
0.00110424305408
0.00331272304959
0.00110423663637
0.0033127166397
0.00110424287412
0.00331272351943
0.00110424060279
0.00331272169247
0.00110423768214
0.00331271852372
0.00110424296896
0.00331272362831
0.00110423789441
0.00331271820652
0.00110424290191
0.00331272252203
0.00110423514368
0.00331271358663
0.00110423982544
0.00331271959329
0.00110424459013
0.00331272559868
0.00110423683461
0.00331271659767
0.00110424187548
0.00331272110591
0.0011042369593
0.00331271625497
0.00110424249934
0.00331272211605
0.00110423736929
0.00331271721509
0.0011042398225
0.00331271964288
0.00110424005532
0.00331272020673
0.00110424027546
0.0033127207536
0.00110424033509
0.00331272098595
0.00110424028744
0.00331272098489
0.00110424025642
0.00331272095269
0.00110424025092
0.00331272095495
0.00110424277589
0.00331272340784
0.00110423782319
0.0033127188261
0.00110424336842
0.00331272460682
0.00110423785581
0.0033127183968
0.0011042423469
0.00331272210557
0.00110423707901
0.00331271637361
0.00110424190496
0.00331272091183
0.00110423673921
0.00331271561949
0.00110424241521
0.0033127218208
0.00110423981059
0.00331271938876
0.00110423734188
0.00331271717976
0.00110423627376
0.00331271527038
0.00110424311498
0.00331272273523
0.00110423750797
0.00331271759515
0.00110424261248
0.00331272282999
0.0011042403711
0.00331272111668
0.00110424039531
0.00331272120969
0.00110424035714
0.00331272104187
0.00110424025818
0.00331272073875
0.00110424019252
0.00331272055207
0.00110424019913
0.00331272057484
0.00110424019902
0.00331272056828
0.00110424011791
0.00331272038137
0.00110424014735
0.00331272048204
0.00110424043298
0.00331272117765
0.00110424061158
0.00331272164267
0.00110424034585
0.0033127210872
0.00110423999549
0.00331272023805
0.00110424004355
0.00331272018956
0.00110424028351
0.00331272063578
0.00110424027691
0.0033127206504
0.00110423766835
0.00331271794738
0.00110424225588
0.00331272170168
0.00110423615519
0.00331271519582
0.00110424283589
0.00331272234127
0.00110423670945
0.00331271627309
0.00110424290188
0.00331272263468
0.00110423703332
0.00331271707944
0.00110424366134
0.00331272418698
0.00110423733523
0.00331271721968
0.00110424104236
0.00331272035791
0.00110423854432
0.00331271919828
0.00110424377721
0.00331272534357
0.00110424333593
0.00331272335712
0.00110423679338
0.00331271660933
0.00110424314085
0.00331272341422
0.00110423724166
0.00331271788009
0.00110424397736
0.00331272518443
0.00110423791128
0.00331271882727
0.00110424017728
0.00331272059546
0.00110424241908
0.00331272225309
0.00110423637221
0.00331271594397
0.00110424326941
0.00331272356009
0.00110423625811
0.00331271610569
0.00110424027756
0.00331272075261
0.00110424419163
0.00331272505557
0.0011042368901
0.00331271696602
0.00110424319909
0.00331272357801
0.00110423732825
0.0033127181073
0.00110424400802
0.00331272528909
0.00110423782284
0.0033127186489
0.00110424255619
0.00331272275965
0.0011042378886
0.0033127185851
0.00110424306691
0.00331272368278
0.00110423719269
0.00331271723999
0.00110424202344
0.00331272249348
0.00110423874536
0.00331271974474
0.00110424234323
0.00331272317925
0.00110423887747
0.00331272017339
0.00110424354598
0.00331272510656
0.00110423757837
0.00331271838222
0.00110424272638
0.00331272330257
0.00110424050019
0.00331272142012
0.00110423819262
0.00331271943386
0.00110424326685
0.00331272424545
0.00110423835607
0.00331271945192
0.00110424210509
0.00331272205537
0.00110423648953
0.003312716308
0.00110424337908
0.0033127239314
0.00110423675402
0.00331271693186
0.00110424270729
0.00331272302474
0.00110423790618
0.00331271871256
0.00110424034766
0.0033127210105
0.00110424271484
0.00331272317854
0.00110423782311
0.00331271869675
0.00110424390588
0.00331272508527
0.00110423750678
0.00331271853459
0.00110424373587
0.00331272486148
0.00110423733546
0.00331271812829
0.00110424367508
0.00331272454303
0.00110423769134
0.00331271833519
0.00110424270735
0.00331272310342
0.00110424044104
0.00331272115452
0.0011042402841
0.00331272092033
0.00110424015891
0.00331272066449
0.00110424022916
0.00331272071184
0.00110423795944
0.00331271862615
0.00110424300173
0.00331272339046
0.0011042370891
0.00331271686124
0.00110424181749
0.00331272190847
0.00110423896117
0.00331271981994
0.00110424378773
0.0033127247346
0.00110423967075
0.00331271945528
0.00110423558493
0.00331271486049
0.00110424234031
0.003312722503
0.00110423758183
0.00331271798068
0.00110424294413
0.00331272348752
0.0011042375544
0.00331271797661
0.00110424223186
0.00331272221272
0.00110423677097
0.00331271671364
0.00110424329811
0.0033127234582
0.00110423595927
0.00331271537967
0.00110424007717
0.0033127203113
0.001104244329
0.00331272550967
0.00110423733701
0.00331271822038
0.00110424360198
0.00331272475093
0.00110423752607
0.00331271872621
0.00110424417788
0.0033127257522
0.00110423811387
0.00331271936666
0.00110424285613
0.0033127235456
0.00110424047011
0.00331272135633
0.00110424046601
0.00331272145926
0.00110424049088
0.00331272162694
0.00110424060361
0.00331272185495
0.00110424064402
0.00331272188346
0.00110424059032
0.00331272171668
0.00110424054872
0.00331272158357
0.00110424053295
0.00331272150325
0.00110424049801
0.00331272135521
0.00110424038327
0.00331272102958
0.00110423778847
0.0033127183165
0.00110424240669
0.00331272217125
0.00110423645811
0.0033127160985
0.00110424339959
0.00331272386874
0.00110423678916
0.00331271695715
0.00110424274914
0.00331272305857
0.00110424016025
0.00331272042776
0.00110423689884
0.0033127165064
0.00110424221918
0.00331272180179
0.00110423844794
0.00331271895215
0.00110424197991
0.00331272205419
0.00110423802496
0.00331271809858
0.00110424205776
0.00331272222844
0.00110423802352
0.0033127180547
0.00110424165701
0.00331272134383
0.00110423835579
0.0033127185652
0.00110424336076
0.00331272428114
0.00110423810803
0.00331271879499
0.00110424201848
0.00331272178566
0.0011042363561
0.00331271597131
0.00110424320051
0.00331272352093
0.00110423674483
0.00331271683663
0.00110424280387
0.0033127230638
0.00110423778648
0.00331271828522
0.00110424002556
0.00331272023087
0.00110424012579
0.0033127205516
0.00110424031518
0.003312721051
0.00110424047833
0.00331272142972
0.00110424057272
0.00331272162423
0.00110424056321
0.0033127216064
0.00110424050632
0.00331272144833
0.00110424040772
0.00331272121786
0.00110424033924
0.00331272107537
0.00110424034171
0.00331272110577
0.00110424038625
0.00331272122853
0.00110424275634
0.00331272340317
0.00110423750368
0.0033127182245
0.00110424353789
0.00331272491087
0.00110423893595
0.00331272014693
0.00110424212911
0.00331272259457
0.00110423815958
0.00331271842702
0.00110424191848
0.00331272205199
0.00110423782078
0.00331271817454
0.00110424321189
0.00331272315391
0.00110423584025
0.00331271474391
0.00110424236425
0.00331272215639
0.00110423873225
0.00331271934828
0.00110424211026
0.0033127222615
0.00110423786995
0.0033127177847
0.0011042414188
0.00331272114371
0.00110423784729
0.00331271853722
0.00110424419837
0.00331272566104
0.00110423755616
0.00331271851716
0.00110424351445
0.00331272414711
0.00110423676561
0.00331271677146
0.00110424225826
0.00331272216706
0.00110423769328
0.00331271815216
0.00110424292361
0.00331272368699
0.00110423835123
0.00331271963525
0.00110424386086
0.00331272506804
0.00110423723586
0.00331271807245
0.00110424405587
0.0033127254551
0.0011042384835
0.00331271978452
0.00110424215193
0.00331272221425
0.00110423668166
0.00331271664555
0.00110424447109
0.00331272566019
0.00110424009924
0.00331272040613
0.00110423591001
0.00331271548352
0.00110424330161
0.00331272378509
0.00110423672294
0.00331271672677
0.00110424254841
0.00331272269849
0.00110423855555
0.00331271908815
0.00110424205579
0.00331272218752
0.00110423808455
0.00331271812818
0.00110424170879
0.0033127214238
0.00110423724222
0.00331271698625
0.00110424262269
0.00331272262877
0.00110423769358
0.00331271793671
0.00110424324022
0.00331272351126
0.00110423671354
0.0033127168394
0.00110424308123
0.00331272334
0.00110423596706
0.003312715576
0.00110423991118
0.00331272002885
0.00110424369756
0.00331272481608
0.00110423799329
0.003312718827
0.00110424276753
0.00331272353037
0.0011042380827
0.00331271912523
0.00110424334336
0.00331272472618
0.00110423895988
0.00331272085765
0.00110424526654
0.00331272740785
0.00110423976992
0.00331271971282
0.00110423515203
0.00331271370821
0.0011042427477
0.00331272248408
0.00110423670165
0.00331271671123
0.00110424237859
0.00331272269751
0.00110423775498
0.00331271789606
0.00110424353365
0.00331272395768
0.00110423696497
0.00331271699211
0.00110424307113
0.00331272311099
0.00110423715822
0.0033127175921
0.00110424348245
0.00331272439674
0.00110423755249
0.00331271885309
0.00110424438069
0.00331272636618
0.00110423834625
0.00331272004266
0.00110424293467
0.00331272382298
0.00110424036297
0.00331272112748
0.00110424031323
0.00331272101534
0.00110424036079
0.00331272113229
0.00110424032476
0.00331272104451
0.00110424023395
0.00331272070245
0.00110423775689
0.00331271814273
0.00110424256774
0.00331272239817
0.00110423662071
0.00331271632239
0.00110424324249
0.00331272339101
0.00110423700308
0.00331271708817
0.00110424317874
0.00331272348756
0.00110423625152
0.00331271637835
0.00110424049249
0.00331272159327
0.00110424450593
0.00331272615946
0.00110423726326
0.0033127181073
0.00110424413123
0.00331272557769
0.00110423820843
0.00331271950523
0.0011042428159
0.00331272340221
0.00110424022438
0.00331272075013
0.00110424007721
0.00331272042348
0.00110423758445
0.00331271799777
0.00110424248395
0.0033127225706
0.00110423686754
0.00331271726795
0.00110424382458
0.00331272504146
0.00110423757494
0.00331271861781
0.00110424402519
0.00331272525798
0.00110423843142
0.00331271952265
0.00110424243537
0.00331272261673
0.00110423687222
0.00331271631606
0.00110424149648
0.00331272098689
0.00110423802121
0.00331271777538
0.00110424136082
0.00331272068086
0.00110423696054
0.00331271654799
0.00110424316438
0.00331272377927
0.00110424033952
0.00331272101573
0.00110423789119
0.00331271886594
0.00110424405705
0.00331272538053
0.00110423755062
0.00331271859273
0.00110424359708
0.00331272462261
0.00110423726037
0.00331271811084
0.00110424441813
0.00331272587828
0.00110424043659
0.00331272129691
0.00110423630639
0.00331271634229
0.00110424319921
0.00331272343399
0.00110423702995
0.00331271707775
0.00110424444787
0.00331272556187
0.00110424087958
0.00331272199981
0.00110423701432
0.00331271738513
0.00110424264761
0.00331272337406
0.00110423800575
0.00331271911488
0.00110424343038
0.00331272495352
0.00110423796367
0.00331271925957
0.00110424301126
0.00331272398728
0.00110423810835
0.00331271923394
0.00110424282214
0.00331272324758
0.00110423660423
0.00331271650654
0.00110424296908
0.00331272289552
0.00110423691608
0.00331271675873
0.0011042443212
0.00331272516036
0.0011042400712
0.00331272021077
0.00110423550069
0.00331271466379
0.00110424319389
0.00331272351846
0.00110423789552
0.0033127185052
0.00110424237359
0.00331272250752
0.00110423711556
0.00331271762128
0.00110424351669
0.00331272416005
0.00110423585279
0.00331271521179
0.00110424003854
0.00331272008338
0.00110424439073
0.00331272536442
0.00110423713659
0.00331271735414
0.00110424318596
0.00331272334173
0.00110423645221
0.0033127161363
0.00110424225524
0.00331272206577
0.00110423893367
0.00331271986093
0.00110424356985
0.00331272488525
0.00110423776545
0.00331271864622
0.0011042428382
0.00331272352145
0.00110424042602
0.00331272127202
0.00110424042133
0.00331272123518
0.00110424037256
0.00331272109516
0.00110424030947
0.00331272091668
0.00110424029578
0.00331272086385
0.00110423795837
0.00331271877885
0.00110424277476
0.00331272317485
0.00110423676025
0.00331271698444
0.00110424352281
0.00331272420631
0.00110423707644
0.00331271734979
0.00110424281157
0.00331272248732
0.00110423652273
0.00331271616578
0.00110424348812
0.00331272393438
0.00110423809837
0.00331271884902
0.00110424231164
0.00331272232879
0.00110423672827
0.0033127168209
0.00110424343021
0.00331272397642
0.00110423665324
0.00331271661205
0.00110424259407
0.00331272255461
0.00110423769298
0.00331271796428
0.00110424009349
0.00331272028115
0.0011042426605
0.00331272304403
0.00110423772188
0.00331271866055
0.00110424334328
0.00331272471698
0.00110423808394
0.00331271909624
0.00110424274852
0.00331272324237
0.00110423746926
0.00331271752671
0.00110424245181
0.00331272239098
0.00110423761972
0.00331271789451
0.00110424292194
0.00331272367469
0.00110423797518
0.00331271907052
0.00110424356566
0.00331272518103
0.00110423898661
0.00331272050514
0.00110424226528
0.00331272300409
0.00110423810696
0.00331271850889
0.0011042416494
0.0033127217486
0.00110423736346
0.00331271777653
0.00110424365835
0.00331272509543
0.00110424085079
0.00331272219287
0.00110423800159
0.00331271899869
0.00110424336459
0.0033127235453
0.00110423824753
0.00331271925011
0.00110424315422
0.00331272404325
0.00110423774356
0.00331271806345
0.00110424253316
0.00331272257735
0.00110423791054
0.00331271838802
0.00110424329919
0.00331272368874
0.00110423568386
0.00331271512291
0.00110424030796
0.00331272093218
0.00110424464394
0.00331272608001
0.00110423723631
0.003312717571
0.00110424327585
0.00331272344261
0.00110423699019
0.00331271704148
0.0011042428123
0.00331272244442
0.00110423664455
0.00331271634862
0.00110424357113
0.00331272400544
0.00110423742592
0.00331271731402
0.00110424107621
0.00331272015642
0.00110423811475
0.00331271801813
0.00110424292681
0.00331272328152
0.00110423773327
0.00331271795816
0.00110424280245
0.00331272305712
0.00110423727305
0.0033127172628
0.00110424257025
0.00331272270055
0.00110423790554
0.00331271873082
0.00110424270356
0.00331272319858
0.001104236778
0.0033127171113
0.00110424346233
0.00331272412802
0.00110423733457
0.00331271783492
0.00110424438621
0.00331272546467
0.00110423999918
0.003312720171
0.00110423582689
0.00331271529243
0.00110424324642
0.00331272365729
0.00110423698304
0.0033127172054
0.0011042433263
0.00331272361574
0.00110423768775
0.00331271809018
0.00110424228644
0.00331272297495
0.00110423886925
0.00331271998247
0.00110424180804
0.00331272205572
0.00110423699613
0.00331271679824
0.00110424248377
0.00331272279531
0.00110423784339
0.00331271831184
0.00110424305375
0.00331272352217
0.00110423833701
0.00331271843801
0.00110424191669
0.00331272170396
0.00110423803268
0.00331271796554
0.00110424177935
0.0033127216634
0.00110423837693
0.00331271875511
0.00110424314011
0.00331272389333
0.00110423724915
0.00331271734749
0.0011042423694
0.00331272219319
0.00110424007093
0.00331272015307
0.00110423775042
0.00331271809681
0.00110424246747
0.00331272236473
0.00110423662743
0.0033127166758
0.00110424386094
0.00331272505967
0.00110423766849
0.00331271888599
0.00110424326582
0.00331272370008
0.00110423664254
0.00331271660111
0.00110424340557
0.00331272384745
0.00110423772522
0.00331271818701
0.0011042419956
0.00331272230349
0.00110423822734
0.00331271857993
0.00110424110196
0.00331272050273
0.00110423618598
0.00331271551311
0.00110424122065
0.00331272281815
0.00110424529243
0.00331272772763
0.00110423752119
0.00331271856372
0.0011042436721
0.00331272456415
0.00110423785454
0.00331271866216
0.00110424293301
0.00331272349901
0.0011042404466
0.00331272107118
0.00110424018206
0.00331272050074
0.00110424004296
0.0033127201545
0.00110423758207
0.00331271778676
0.00110424242284
0.00331272224166
0.00110423667098
0.00331271669779
0.00110424353987
0.00331272441906
0.00110423736527
0.00331271829448
0.00110424397586
0.00331272535155
0.00110423803
0.00331271925828
0.00110424049673
0.00331272142012
0.00110424287695
0.00331272338143
0.00110423672725
0.00331271683372
0.00110424322871
0.00331272354032
0.00110423693141
0.00331271692726
0.0011042433536
0.00331272352586
0.0011042405601
0.00331272360643
0.0011042657527
0.00331276113258
0.00110424695793
0.00331279035062
0.00110444836073
0.0033131215149
0.00110414209364
0.00331314687262
0.00110500417542
0.00331455381119
0.00110335549987
0.00331370036575
0.00110603569764
0.00331614204411
0.00109960297453
0.00330675749748
0.00110202913427
0.0032960878273
0.00108197652582
0.00325277529733
0.00108227741988
0.00323266145773
0.00107321860363
0.00322958885862
0.00667522360327
0.011382377729
0.0163960106876
0.0216189759539
0.0268695826329
0.0321383539596
0.0373023393781
0.0424166153559
0.0474662866142
0.0524902643986
0.0574971418009
0.0624996306428
0.0675000268275
0.0725000216909
0.0775000024224
0.0824999947769
0.0874999952014
0.0925000323632
0.0974999968194
0.102499998776
0.107500012691
0.11250001326
0.117500010421
0.12250000804
0.127500007516
0.132500016832
0.137500014765
0.142499998792
0.1474999842
0.152499982528
0.157499985852
0.162499990853
0.167499993799
0.172499993626
0.177499984555
0.182499945302
0.187499997545
0.192500002364
0.197499991625
0.202500006141
0.207500014162
0.212500013841
0.217500007814
0.222500001878
0.227500001264
0.232500004129
0.237500006738
0.242500006125
0.247499998256
0.252499972115
0.25749993067
0.262499988858
0.267500003023
0.272500007246
0.277500015216
0.282500013142
0.287500014005
0.292500019004
0.2975000189
0.297500003022
0.292500005377
0.287500006241
0.282500004825
0.277499990183
0.272499983526
0.267499986546
0.262500003052
0.257500007992
0.252500008627
0.247500004109
0.242499992564
0.237499992566
0.232499959245
0.227499960706
0.222499962705
0.217499963663
0.212499962687
0.207499960888
0.202499993197
0.197499991501
0.192500000737
0.187500003727
0.182500003353
0.177500002701
0.17250000458
0.167500016482
0.162500016634
0.157500005396
0.152500004745
0.147500006508
0.142500007749
0.1375000058
0.132499997171
0.127500032229
0.122499995233
0.117499996048
0.112500010449
0.107500012782
0.102500016038
0.0975000273492
0.0925000169037
0.0875000139064
0.0825000114616
0.0774999965545
0.0724999937113
0.0674999783129
0.0624997871452
0.0574974272573
0.0524916455304
0.0474681381452
0.0424220381675
0.0373087431941
0.0321503772382
0.0268826387126
0.0216349904605
0.0164119694619
0.0113939378835
0.00668528396654
0.00107450030335
0.00323271462764
0.0010824847555
0.00323431566038
0.00108289184541
0.00325461048966
0.00110172163997
0.00329639596243
0.00110022261104
0.00330779120361
0.00110574788117
0.003316128415
0.00110367192897
0.00331416254886
0.00110486896524
0.00331451208351
0.00110424529812
0.00331329835895
0.00110441522036
0.00331311167179
0.00110426342017
0.00331281456895
0.00110426289112
0.00331276140912
0.00110424225525
0.00331272705147
0.0011042447868
0.00331272683873
0.00110423740917
0.00331271836123
0.00110424259301
0.00331272305287
0.00110423819423
0.00331271923075
0.00110424376966
0.00331272483748
0.00110423723558
0.0033127180428
0.0011042445027
0.00331272599965
0.0011042403778
0.00331272113877
0.00110423643606
0.00331271669809
0.00110424372302
0.00331272471618
0.0011042366269
0.00331271666001
0.00110424228495
0.0033127220971
0.00110423765904
0.00331271813623
0.00110424037489
0.00331272106426
0.00110424044854
0.00331272133761
0.00110424280608
0.00331272356246
0.00110423772
0.00331271881841
0.00110424378833
0.00331272567519
0.0011042394595
0.0033127213151
0.00110424312943
0.00331272414375
0.00110423756607
0.00331271801682
0.00110424238271
0.00331272249997
0.0011042369813
0.00331271727017
0.00110424354978
0.00331272411466
0.00110423656527
0.00331271642801
0.00110424258072
0.00331272270692
0.00110424031219
0.00331272092735
0.00110423792279
0.00331271889868
0.00110424396946
0.00331272515212
0.0011042374177
0.00331271826969
0.00110424364541
0.00331272459599
0.00110423679657
0.00331271706614
0.0011042426009
0.0033127228195
0.00110423780461
0.00331271854597
0.00110424033733
0.00331272110284
0.00110424044321
0.00331272134723
0.00110424047652
0.00331272141127
0.00110424049747
0.0033127214631
0.00110424053508
0.0033127215677
0.00110424056228
0.00331272168074
0.0011042429939
0.00331272402588
0.00110423792886
0.00331271926666
0.00110424348401
0.00331272513229
0.00110423813639
0.00331271942484
0.00110424342759
0.00331272480947
0.00110423884389
0.0033127200677
0.00110424221857
0.00331272276924
0.00110423826373
0.00331271866773
0.00110424168095
0.00331272174492
0.00110423723793
0.00331271735925
0.00110424290561
0.00331272380561
0.00110423872484
0.00331272022209
0.00110424356338
0.00331272432133
0.00110423547229
0.00331271466105
0.00110424046848
0.00331272129038
0.00110424643735
0.00331272950598
0.00110424083164
0.00331272194224
0.00110423548065
0.0033127147381
0.00110424215219
0.00331272210064
0.00110423774464
0.00331271822577
0.00110424260757
0.00331272291978
0.00110423738032
0.00331271749138
0.00110424300576
0.00331272362011
0.00110423806783
0.00331271917834
0.00110424299777
0.00331272398415
0.00110423825681
0.00331271981018
0.00110424419107
0.00331272584782
0.00110423765362
0.00331271890775
0.00110424492196
0.00331272687692
0.00110424028118
0.00331272087867
0.00110423527617
0.00331271429711
0.00110424306552
0.00331272395467
0.001104243615
0.00331272921971
0.00110426405812
0.00331276384976
0.00110426389959
0.00331281576594
0.00110441565804
0.00331311266915
0.00110424528816
0.00331329900526
0.00110486850039
0.00331451239816
0.00110366819471
0.00331416004777
0.00110574183056
0.00331612066427
0.00110021006026
0.00330777645351
0.00110171023283
0.00329637147309
0.0010828800706
0.00325458338435
0.00108247440351
0.00323428230561
0.00107447367587
0.00323261923656
0.000860297605195
0.00284632087301
0.00103376050177
0.00317345877115
0.00106789890716
0.00321570764596
0.0010777697002
0.00323767236074
0.00109070195836
0.00326681745612
0.00109559029847
0.00328636179538
0.00110178439957
0.00330232210643
0.00110277745714
0.00330812877806
0.00110411062759
0.00331137130262
0.0011040756333
0.00331196057978
0.00110424866716
0.00331231651596
0.00110425151057
0.00331237630857
0.00110427233193
0.00331241210864
0.00110427111851
0.00331241406466
0.00110427503001
0.00331241886013
0.00110427844006
0.00331242274886
0.00110427275753
0.00331241673622
0.00110427778533
0.0033124219165
0.00110427314998
0.00331241785613
0.0011042792588
0.00331242447985
0.00110427336239
0.00331241854606
0.00110427789776
0.00331242265887
0.00110427235315
0.00331241717179
0.00110427876549
0.00331242361905
0.00110427227637
0.00331241668494
0.00110427825691
0.00331242246545
0.00110427223191
0.00331241655548
0.00110427912521
0.00331242426377
0.00110427334096
0.00331241865704
0.0011042782076
0.0033124231813
0.00110427570067
0.00331242069743
0.00110427563159
0.00331242050594
0.00110427570105
0.0033124206528
0.00110427337283
0.00331241857901
0.00110427808219
0.00331242270088
0.00110427196966
0.00331241624569
0.00110427863953
0.00331242333064
0.001104272505
0.00331241710104
0.00110427848243
0.00331242290351
0.00110427174389
0.00331241566748
0.00110427740944
0.00331242160307
0.00110427377347
0.00331241928723
0.00110427945606
0.00331242527212
0.00110427289997
0.00331241848854
0.00110427911247
0.00331242483857
0.00110427277632
0.00331241832989
0.00110427896044
0.00331242444402
0.00110427301272
0.00331241876122
0.00110427920435
0.00331242486545
0.00110427277758
0.00331241808369
0.00110427885114
0.00331242410221
0.00110427286849
0.00331241827456
0.00110427904167
0.00331242450021
0.0011042729078
0.00331241830887
0.00110427893344
0.00331242427197
0.00110427178008
0.00331241663368
0.00110427616561
0.00331242211795
0.00110428031296
0.00331242703153
0.00110427291766
0.00331241865618
0.00110427948126
0.00331242543739
0.001104273469
0.00331241909756
0.00110427821286
0.00331242319149
0.00110427572996
0.00331242073185
0.00110427323669
0.00331241826037
0.00110427788735
0.0033124221985
0.00110427184167
0.00331241587516
0.00110427865805
0.00331242329666
0.00110427149568
0.00331241553925
0.00110427558107
0.00331242032584
0.0011042797126
0.00331242519866
0.001104272544
0.00331241740511
0.00110427868991
0.00331242360098
0.00110427255391
0.00331241739244
0.00110427850427
0.00331242310038
0.00110427237456
0.00331241691309
0.00110427858587
0.00331242327448
0.00110427201557
0.00331241635914
0.00110427801874
0.0033124225249
0.00110427310472
0.00331241787833
0.00110427539424
0.00331241976365
0.00110427533704
0.00331241960387
0.0011042753515
0.00331241963835
0.00110427540673
0.00331241983861
0.00110427793325
0.00331242242682
0.00110427320393
0.00331241834011
0.00110427893144
0.00331242395251
0.00110427127449
0.00331241501808
0.00110427892392
0.00331242631297
0.00110430239981
0.00331246293545
0.00110428231459
0.0033124897513
0.00110448331472
0.00331282016368
0.00110417747338
0.0033128460388
0.00110503991372
0.00331425384396
0.00110339375936
0.00331340411448
0.00110607546029
0.0033158510503
0.00109964760166
0.00330647576503
0.00110207283169
0.00329581566283
0.00108202101073
0.00325251174272
0.00108230814007
0.00323237431993
0.00107321515622
0.00322920227875
0.00110423807941
0.00331271922172
0.00110424295364
0.00331272379677
0.00110424040579
0.00331272120651
0.00110424019441
0.00331272069673
0.00110424020605
0.0033127206831
0.00110424036078
0.00331272102923
0.00110424037495
0.00331272104657
0.00110423770965
0.00331271819085
0.0011042422157
0.0033127217896
0.00110423633466
0.0033127157165
0.00110424326089
0.00331272330017
0.00110423648251
0.00331271596951
0.00110424244571
0.00331272218337
0.00110423787344
0.00331271853532
0.0011042429282
0.00331272368701
0.00110423815036
0.00331271945054
0.00110424378164
0.00331272472181
0.00110423667614
0.00331271649555
0.0011042433491
0.00331272348446
0.00110423749645
0.00331271756723
0.00110424236673
0.00331272206991
0.00110424004446
0.00331272005618
0.0011042376566
0.0033127179304
0.00110424239096
0.0033127221503
0.00110423637327
0.00331271595557
0.00110424325306
0.00331272355156
0.00110423731942
0.0033127178754
0.00110424317145
0.0033127235181
0.00110423566667
0.0033127149608
0.00110424004743
0.00331272036438
0.00110424478315
0.00331272648643
0.0011042372152
0.00331271797582
0.00110424307362
0.00331272396665
0.0011042382057
0.00331271952501
0.00110424290226
0.00331272377396
0.00110423802241
0.00331271926306
0.00110424382498
0.00331272492036
0.0011042369695
0.00331271728142
0.00110424380419
0.00331272466558
0.00110423791341
0.00331271869988
0.00110424018267
0.00331272050148
0.00110424275944
0.00331272286633
0.00110423729603
0.00331271720789
0.00110424209065
0.00331272194419
0.00110423549144
0.00331271472365
0.00110424032063
0.00331272088428
0.00110424481343
0.00331272649471
0.00110423712795
0.00331271770736
0.00110424296134
0.00331272366909
0.0011042381216
0.00331271927748
0.00110424040709
0.00331272114033
0.00110424016373
0.00331272048547
0.0011042423321
0.00331272206161
0.00110423736543
0.00331271737908
0.00110424336907
0.0033127235932
0.00110423683837
0.00331271683768
0.00110424381346
0.00331272461599
0.00110423780825
0.00331271839174
0.00110424237588
0.00331272212215
0.00110423980782
0.00331271949543
0.00110423738188
0.00331271717402
0.0011042424151
0.00331272188883
0.00110423660598
0.00331271554957
0.0011042411214
0.0033127203514
0.0011042372918
0.00331271709296
0.00110424295496
0.00331272308858
0.00110423744627
0.00331271736565
0.00110423976178
0.00331271944211
0.00110423992236
0.00331271979084
0.00110424004903
0.00331272004806
0.00110424001272
0.00331271986128
0.00110423973619
0.00331271916631
0.00110424191288
0.00331272084448
0.00110423683365
0.00331271608502
0.00110424257737
0.00331272251494
0.00110423740124
0.00331271732842
0.00110424264918
0.00331272274844
0.00110423867349
0.00331271907086
0.00110424321209
0.00331272329803
0.00110423904395
0.00331271777471
0.00110423553839
0.00331271419879
0.00110424343889
0.00331272343251
0.00110423701777
0.00331271617106
0.00110424032049
0.00331271837829
0.00110423717853
0.00331271652281
0.00110424333155
0.00331272322339
0.00110423524252
0.00331271350915
0.00110423946092
0.00331271848057
0.00110424415097
0.00331272453496
0.00110423658312
0.00331271610128
0.00110424247274
0.00331272223968
0.00110423771337
0.00331271806022
0.00110424011833
0.00331272033699
0.00110424017458
0.00331272047538
0.00110424019314
0.00331272057215
0.00110424019693
0.00331272065239
0.00110424021174
0.00331272074859
0.00110424023812
0.00331272079706
0.00110424018405
0.00331272063137
0.00110424009787
0.00331272033247
0.00110424003886
0.00331272007768
0.00110424000068
0.00331271988737
0.00110424226549
0.00331272175356
0.00110423722914
0.00331271691612
0.00110424315481
0.0033127229444
0.00110423669509
0.0033127162625
0.00110424311293
0.00331272299362
0.001104236951
0.00331271673668
0.00110424273109
0.00331272209048
0.00110423647533
0.00331271568396
0.00110424270595
0.00331272213643
0.00110423682343
0.00331271662727