# vtk DataFile Version 2.0
track0
ASCII
DATASET POLYDATA
POINTS 11376 double
-0.0205 0.001 1e-05
-0.0202034 0.00100002 1e-05
-0.0199069 0.00100023 1e-05
-0.0196103 0.00100066 1e-05
-0.0193137 0.0010013 1e-05
-0.0190172 0.00100215 1e-05
-0.0187132 0.00100341 1e-05
-0.0184093 0.00100432 1e-05
-0.0181054 0.00100523 1e-05
-0.0178015 0.00100615 1e-05
-0.0174976 0.00100706 1e-05
-0.0172058 0.00100824 1e-05
-0.016914 0.00100896 1e-05
-0.0166222 0.00100963 1e-05
-0.0163305 0.00101026 1e-05
-0.0160387 0.00101084 1e-05
-0.0157586 0.0010117 1e-05
-0.0154784 0.00101211 1e-05
-0.0151983 0.00101249 1e-05
-0.0149182 0.00101284 1e-05
-0.0146381 0.00101316 1e-05
-0.0143692 0.00101378 1e-05
-0.0141002 0.00101398 1e-05
-0.0138313 0.00101416 1e-05
-0.0135624 0.00101431 1e-05
-0.0132934 0.00101444 1e-05
-0.0130353 0.00101489 1e-05
-0.0127771 0.00101494 1e-05
-0.0125189 0.00101498 1e-05
-0.0122607 0.001015 1e-05
-0.0120025 0.001015 1e-05
-0.0117547 0.00101532 1e-05
-0.0115068 0.00101528 1e-05
-0.0112589 0.00101521 1e-05
-0.0110111 0.00101514 1e-05
-0.0107632 0.00101505 1e-05
-0.0105252 0.0010153 1e-05
-0.0102873 0.00101518 1e-05
-0.0100493 0.00101504 1e-05
-0.00981133 0.0010149 1e-05
-0.00957337 0.00101474 1e-05
-0.00934491 0.00101494 1e-05
-0.00911645 0.00101476 1e-05
-0.008888 0.00101457 1e-05
-0.00865954 0.00101437 1e-05
-0.00843108 0.00101416 1e-05
-0.00821175 0.00101432 1e-05
-0.00799242 0.00101409 1e-05
-0.00777309 0.00101385 1e-05
-0.00755376 0.0010136 1e-05
-0.00733443 0.00101334 1e-05
-0.00712387 0.00101347 1e-05
-0.0069133 0.0010132 1e-05
-0.00670273 0.00101292 1e-05
-0.00649217 0.00101262 1e-05
-0.0062816 0.00101231 1e-05
-0.00607944 0.00101243 1e-05
-0.00587729 0.00101211 1e-05
-0.00567514 0.00101179 1e-05
-0.00547298 0.00101145 1e-05
-0.00527083 0.0010111 1e-05
-0.00507675 0.00101119 1e-05
-0.00488268 0.00101084 1e-05
-0.0046886 0.00101047 1e-05
-0.00449452 0.00101009 1e-05
-0.00430044 0.00100969 1e-05
-0.00411412 0.00100977 1e-05
-0.0039278 0.00100937 1e-05
-0.00374147 0.00100896 1e-05
-0.00355515 0.00100853 1e-05
-0.00336883 0.00100808 1e-05
-0.00318995 0.00100814 1e-05
-0.00301107 0.00100769 1e-05
-0.00283219 0.00100722 1e-05
-0.00265331 0.00100673 1e-05
-0.00247443 0.00100623 1e-05
-0.0023027 0.00100625 1e-05
-0.00213097 0.00100573 1e-05
-0.00195924 0.00100519 1e-05
-0.00178751 0.00100462 1e-05
-0.00161577 0.00100404 1e-05
-0.0014509 0.00100401 1e-05
-0.00128603 0.00100341 1e-05
-0.00112116 0.00100276 1e-05
-0.000956293 0.00100208 1e-05
-0.000791418 0.00100137 1e-05
-0.000633135 0.00100125 1e-05
-0.000474853 0.00100049 1e-05
-0.000316571 0.000999688 1e-05
-0.00015829 0.000998847 1e-05
0 0.000997965 1e-05
0.000105677 0.000997811 1e-05
0.000211353 0.000997177 1e-05
0.000317029 0.000996518 1e-05
0.000422704 0.000995832 1e-05
0.000528387 0.00099512 1e-05
0.000634886 0.000994966 1e-05
0.000741383 0.000994236 1e-05
0.00084788 0.000993489 1e-05
0.000954376 0.000992724 1e-05
0.00106088 0.000991942 1e-05
0.00116821 0.000991822 1e-05
0.00127553 0.000991045 1e-05
0.00138286 0.000990253 1e-05
0.00149018 0.000989445 1e-05
0.00159752 0.00098862 1e-05
0.00170568 0.000988529 1e-05
0.00181384 0.000987731 1e-05
0.001922 0.000986918 1e-05
0.00203015 0.000986089 1e-05
0.00213833 0.000985245 1e-05
0.00224733 0.000985181 1e-05
0.00235633 0.00098438 1e-05
0.00246533 0.000983563 1e-05
0.00257433 0.000982732 1e-05
0.00268334 0.000981885 1e-05
0.00279319 0.000981839 1e-05
0.00290303 0.000981056 1e-05
0.00301288 0.000980241 1e-05
0.00312273 0.00097941 1e-05
0.00323259 0.000978636 1e-05
0.00334329 0.000978594 1e-05
0.00345399 0.000977891 1e-05
0.00356469 0.000977079 1e-05
0.00367539 0.000976249 1e-05
0.00378611 0.000975546 1e-05
0.00389767 0.000975496 1e-05
0.00400923 0.000974854 1e-05
0.0041208 0.000974042 1e-05
0.00423236 0.000973212 1e-05
0.00434393 0.000972562 1e-05
0.00445636 0.000972495 1e-05
0.00456879 0.000971895 1e-05
0.00468122 0.00097108 1e-05
0.00479365 0.000970247 1e-05
0.00490609 0.000969633 1e-05
0.0050194 0.000969541 1e-05
0.0051327 0.000968967 1e-05
0.005246 0.000968143 1e-05
0.00535931 0.000967301 1e-05
0.00547262 0.000966707 1e-05
0.00558681 0.000966583 1e-05
0.00570099 0.000966021 1e-05
0.00581518 0.000965182 1e-05
0.00592936 0.000964325 1e-05
0.00604356 0.000963739 1e-05
0.00615863 0.000963577 1e-05
0.00627371 0.000963016 1e-05
0.00638878 0.000962159 1e-05
0.00650385 0.000961283 1e-05
0.00661893 0.000960696 1e-05
0.0067349 0.000960491 1e-05
0.00685087 0.000959923 1e-05
0.00696684 0.000959044 1e-05
0.0070828 0.000958147 1e-05
0.00719878 0.000957551 1e-05
0.00731565 0.0009573 1e-05
0.00743252 0.000956717 1e-05
0.00754939 0.000955814 1e-05
0.00766626 0.000954893 1e-05
0.00778313 0.000954281 1e-05
0.00790091 0.000953981 1e-05
0.00801869 0.000953377 1e-05
0.00813647 0.000952473 1e-05
0.00825425 0.000951558 1e-05
0.00837203 0.000950925 1e-05
0.00849073 0.000950573 1e-05
0.00860942 0.000949945 1e-05
0.00872812 0.000949041 1e-05
0.00884681 0.000948125 1e-05
0.00896551 0.000947465 1e-05
0.00908513 0.000947061 1e-05
0.00920475 0.000946403 1e-05
0.00932436 0.000945492 1e-05
0.00944398 0.00094457 1e-05
0.0095636 0.00094388 1e-05
0.00968415 0.000943422 1e-05
0.0098047 0.00094273 1e-05
0.00992524 0.000941808 1e-05
0.0100458 0.000940873 1e-05
0.0101663 0.00094015 1e-05
0.0102878 0.000939636 1e-05
0.0104093 0.000938909 1e-05
0.0105308 0.000937969 1e-05
0.0106523 0.000937017 1e-05
0.0107738 0.000936258 1e-05
0.0108962 0.000935688 1e-05
0.0110186 0.000934922 1e-05
0.0111411 0.000933961 1e-05
0.0112635 0.000932988 1e-05
0.0113859 0.000932189 1e-05
0.0115093 0.000931563 1e-05
0.0116327 0.000930756 1e-05
0.0117561 0.00092977 1e-05
0.0118794 0.000928772 1e-05
0.0120028 0.000927932 1e-05
0.0121272 0.000927249 1e-05
0.0122515 0.000926399 1e-05
0.0123759 0.000925383 1e-05
0.0125002 0.000924357 1e-05
0.0126245 0.000923475 1e-05
0.0127498 0.000922734 1e-05
0.0128752 0.000921839 1e-05
0.0130005 0.000920799 1e-05
0.0131258 0.000919751 1e-05
0.0132511 0.000918825 1e-05
0.0133774 0.000918026 1e-05
0.0135036 0.000917085 1e-05
0.0136299 0.000916026 1e-05
0.0137562 0.00091496 1e-05
0.0138825 0.000913988 1e-05
0.0140098 0.00091313 1e-05
0.014137 0.000912142 1e-05
0.0142643 0.00091106 1e-05
0.0143915 0.000909971 1e-05
0.0145188 0.000908952 1e-05
0.0146471 0.000908037 1e-05
0.0147753 0.000907 1e-05
0.0149036 0.000905891 1e-05
0.0150318 0.000904775 1e-05
0.0151601 0.000903708 1e-05
0.0152893 0.000902734 1e-05
0.0154186 0.000901649 1e-05
0.0155478 0.000900509 1e-05
0.0156771 0.000899362 1e-05
0.0158063 0.000898247 1e-05
0.0159366 0.000897215 1e-05
0.0160668 0.00089608 1e-05
0.0161971 0.000894907 1e-05
0.0163273 0.000893727 1e-05
0.0164576 0.000892562 1e-05
0.0165889 0.000891473 1e-05
0.0167201 0.000890287 1e-05
0.0168514 0.000889078 1e-05
0.0169827 0.000887862 1e-05
0.0171139 0.000886648 1e-05
0.0172462 0.000885501 1e-05
0.0173785 0.000884265 1e-05
0.0175108 0.000883017 1e-05
0.0176431 0.000881762 1e-05
0.0177754 0.0008805 1e-05
0.0179087 0.000879296 1e-05
0.018042 0.000878016 1e-05
0.0181753 0.000876727 1e-05
0.0183087 0.000875432 1e-05
0.018442 0.00087413 1e-05
0.0185763 0.000872869 1e-05
0.0187107 0.000871546 1e-05
0.018845 0.000870216 1e-05
0.0189794 0.000868879 1e-05
0.0191137 0.000867535 1e-05
0.0192491 0.000866218 1e-05
0.0193845 0.000864852 1e-05
0.0195199 0.000863479 1e-05
0.0196553 0.000862099 1e-05
0.0197907 0.000860711 1e-05
0.0199272 0.000859339 1e-05
0.0200636 0.000857928 1e-05
0.0202001 0.000856511 1e-05
0.0203365 0.000855086 1e-05
0.020473 0.000853655 1e-05
0.0206105 0.000852227 1e-05
0.020748 0.000850771 1e-05
0.0208855 0.000849309 1e-05
0.021023 0.000847839 1e-05
0.0211606 0.000846362 1e-05
0.0212991 0.00084488 1e-05
0.0214377 0.000843379 1e-05
0.0215763 0.000841871 1e-05
0.0217149 0.000840355 1e-05
0.0218535 0.000838833 1e-05
0.0219476 0.000837798 1e-05
0.0220418 0.000836756 1e-05
0.0221359 0.000835711 1e-05
0.0222301 0.000834663 1e-05
0.0223219 0.000833638 1e-05
0.0223679 0.000833123 1e-05
0.0224139 0.000832608 1e-05
0.0224598 0.000832092 1e-05
0.0225058 0.000831575 1e-05
0.0225517 0.000831057 1e-05
0.0226925 0.000829468 1e-05
0.0228332 0.000827874 1e-05
0.022974 0.000826272 1e-05
0.0231147 0.000824664 1e-05
0.0232555 0.000823048 1e-05
0.0233973 0.000821406 1e-05
0.0235391 0.000819763 1e-05
0.023681 0.000818113 1e-05
0.0238228 0.000816455 1e-05
0.0239647 0.000814791 1e-05
0.0241076 0.000813098 1e-05
0.0242505 0.000811407 1e-05
0.0243935 0.000809708 1e-05
0.0245364 0.000808004 1e-05
0.0246794 0.000806293 1e-05
0.0248234 0.000804552 1e-05
0.0249675 0.000802814 1e-05
0.0251115 0.00080107 1e-05
0.0252556 0.000799319 1e-05
0.0253996 0.000797561 1e-05
0.0255448 0.000795771 1e-05
0.02569 0.000793985 1e-05
0.0258351 0.000792192 1e-05
0.0259803 0.000790392 1e-05
0.0261255 0.000788585 1e-05
0.0262718 0.000786743 1e-05
0.0264181 0.000784906 1e-05
0.0265644 0.000783062 1e-05
0.0267107 0.00078121 1e-05
0.026857 0.00077935 1e-05
0.0270044 0.000777457 1e-05
0.0271519 0.000775567 1e-05
0.0272993 0.000773671 1e-05
0.0274468 0.000771767 1e-05
0.0275942 0.000769855 1e-05
0.0277428 0.00076791 1e-05
0.0278914 0.000765968 1e-05
0.0280399 0.00076402 1e-05
0.0281885 0.000762066 1e-05
0.0283371 0.000760102 1e-05
0.0284869 0.000758107 1e-05
0.0286366 0.000756114 1e-05
0.0287863 0.000754116 1e-05
0.0289361 0.000752111 1e-05
0.0290858 0.000750097 1e-05
0.0292367 0.000748055 1e-05
0.0293876 0.000746012 1e-05
0.0295385 0.000743965 1e-05
0.0296894 0.000741911 1e-05
0.0298403 0.000739848 1e-05
0.0299924 0.000737759 1e-05
0.0301445 0.000735667 1e-05
0.0302966 0.000733572 1e-05
0.0304486 0.00073147 1e-05
0.0306007 0.00072936 1e-05
0.030754 0.000727225 1e-05
0.0309072 0.000725086 1e-05
0.0310605 0.000722943 1e-05
0.0312138 0.000720793 1e-05
0.031367 0.000718636 1e-05
0.0315215 0.000716454 1e-05
0.0316759 0.000714268 1e-05
0.0318304 0.000712077 1e-05
0.0319848 0.00070988 1e-05
0.0321393 0.000707676 1e-05
0.0322949 0.000705449 1e-05
0.0324506 0.000703216 1e-05
0.0326062 0.000700977 1e-05
0.0327619 0.000698731 1e-05
0.0329175 0.000696481 1e-05
0.0330744 0.000694208 1e-05
[...]
POINT_DATA 11376
 FIELD attributes 1
U 3 11376 float
10.0023 	0.000538762 	0 10.008 	0.00732837 	0 10.0136 	0.014428 	0 10.0192 	0.0215445 	0 10.0248 	0.0286778 	0 10.0314 	0.0416996 	0 10.035 	0.0301266 	0 10.038 	0.0301193 	0 10.041 	0.0301119 	0 10.044 	0.0301043 	0 10.0461 	0.0407486 	0 10.0442 	0.0247219 	0 10.043 	0.0231614 	0 10.0419 	0.0215774 	0 10.0408 	0.0199695 	0 10.0394 	0.0307772 	0 10.0361 	0.014876 	0 10.0339 	0.0136951 	0 10.0316 	0.0124918 	0 10.0294 	0.0112657 	0 10.0272 	0.0230449 	0 10.024 	0.00759343 	0 10.0216 	0.00667629 	0 10.0192 	0.00573908 	0 10.0167 	0.00478135 	0 10.0144 	0.0172939 	0 10.0113 	0.00212815 	0 10.0087 	0.00141753 	0 10.0061 	0.000689975 	0 10.0036 	-5.49195e-05 	0 10.001 	0.0132852 	0 9.99803 	-0.00196238 	0 9.99544 	-0.00251915 	0 9.99284 	-0.00308981 	0 9.99023 	-0.00367474 	0 9.98749 	0.0106578 	0 9.98483 	-0.00511381 	0 9.98229 	-0.00560707 	0 9.97976 	-0.00611295 	0 9.97722 	-0.00663177 	0 9.97436 	0.00883868 	0 9.972 	-0.00782765 	0 9.96955 	-0.00831325 	0 9.96709 	-0.00881136 	0 9.96463 	-0.00932231 	0 9.96164 	0.00747249 	0 9.9596 	-0.0103955 	0 9.95722 	-0.0108931 	0 9.95484 	-0.0114034 	0 9.95246 	-0.0119268 	0 9.94931 	0.00641958 	0 9.94762 	-0.0129257 	0 9.94535 	-0.0134441 	0 9.94307 	-0.0139756 	0 9.94079 	-0.0145207 	0 9.93747 	0.00560549 	0 9.9362 	-0.0154863 	0 9.93405 	-0.0160429 	0 9.9319 	-0.0166134 	0 9.92974 	-0.0171982 	0 9.92621 	0.00492095 	0 9.92542 	-0.0181918 	0 9.92342 	-0.0188282 	0 9.92141 	-0.0194801 	0 9.9194 	-0.0201478 	0 9.91566 	0.00415222 	0 9.91541 	-0.0212812 	0 9.91356 	-0.022041 	0 9.9117 	-0.0228189 	0 9.90983 	-0.0236152 	0 9.90579 	0.00310323 	0 9.90612 	-0.025001 	0 9.90442 	-0.0259838 	0 9.90271 	-0.0269892 	0 9.90099 	-0.0280177 	0 9.89662 	0.00133921 	0 9.89764 	-0.0299246 	0 9.89609 	-0.0311977 	0 9.89454 	-0.0324992 	0 9.89297 	-0.0338297 	0 9.88813 	-0.00139796 	0 9.88966 	-0.0365309 	0 9.88792 	-0.038583 	0 9.88617 	-0.040679 	0 9.88441 	-0.0428201 	0 9.8785 	-0.00734485 	0 9.8799 	-0.0475879 	1.6955e-21 9.87796 	-0.0500131 	4.27289e-21 9.876 	-0.0524898 	6.84889e-21 9.87403 	-0.0550191 	9.42347e-21 9.86754 	-0.014369 	1.136e-20 9.86949 	-0.0591717 	-5.39639e-21 9.8675 	-0.0615701 	-9.63658e-21 9.86548 	-0.0640024 	-1.38897e-20 9.86346 	-0.0664692 	-1.81558e-20 9.85527 	-0.014278 	-1.12426e-21 9.86042 	-0.0675537 	-3.68166e-21 9.85869 	-0.0691562 	-6.08971e-21 9.85696 	-0.0707806 	-8.49668e-21 9.85522 	-0.0724271 	-1.09026e-20 9.84361 	-0.0110087 	-1.23985e-20 9.85345 	-0.0712422 	-1.08596e-20 9.85174 	-0.0727156 	-7.52939e-21 9.85002 	-0.0742082 	-4.19851e-21 9.84829 	-0.07572 	-8.66915e-22 9.83098 	-0.00820381 	-4.3175e-21 9.84616 	-0.0726774 	-2.42491e-21 9.84417 	-0.0740344 	-1.29314e-20 9.84217 	-0.0754078 	-2.34357e-20 9.84017 	-0.0767978 	-3.39377e-20 9.81563 	-0.00571011 	-4.33466e-20 9.83692 	-0.0723139 	-6.41213e-20 9.83468 	-0.0736612 	-5.8093e-20 9.83243 	-0.0750236 	-5.20684e-20 9.83018 	-0.076401 	-4.60476e-20 9.79768 	-0.00409017 	-1.29183e-20 9.82526 	-0.070032 	-1.26302e-20 9.8234 	-0.07286 	-3.31736e-21 9.82089 	-0.0743056 	6.19491e-21 9.81488 	-0.0691586 	1.58663e-20 9.77709 	-0.003724 	2.69927e-20 9.8078 	-0.0622594 	8.36457e-20 9.80977 	-0.0719869 	8.87109e-20 9.80689 	-0.0734858 	8.50791e-20 9.79556 	-0.0622433 	6.89138e-20 9.75344 	-0.0043326 	6.83587e-21 9.78688 	-0.0563656 	-6.65758e-20 9.7933 	-0.0712606 	-9.10189e-20 9.79004 	-0.0727885 	-9.78424e-20 9.77268 	-0.0569924 	-8.27981e-20 9.72669 	-0.00571949 	-2.29926e-20 9.76251 	-0.0521097 	-1.47494e-20 9.7739 	-0.0708519 	-1.88008e-20 9.77024 	-0.0724091 	-3.04945e-20 9.74632 	-0.0532712 	-4.6598e-20 9.6969 	-0.00780813 	-6.83497e-20 9.73476 	-0.049329 	-8.03353e-20 9.75155 	-0.0709143 	-8.3112e-20 9.74748 	-0.0724939 	-7.66938e-20 9.71659 	-0.05092 	-6.17596e-20 9.66419 	-0.0104956 	-3.99294e-20 9.70377 	-0.0477765 	-2.7191e-20 9.72631 	-0.0714193 	-1.50122e-20 9.72182 	-0.0729939 	-3.78939e-21 9.68368 	-0.0496552 	-1.93554e-21 9.62871 	-0.0135937 	-4.84773e-21 9.66968 	-0.0471433 	-2.04899e-21 9.69824 	-0.0722253 	0 9.69333 	-0.0737763 	0 9.64777 	-0.049208 	-2.26132e-21 9.59067 	-0.0169597 	-5.17506e-21 9.63272 	-0.0472044 	-2.37649e-21 9.66747 	-0.0732342 	-1.58123e-21 9.66216 	-0.0747546 	-1.23106e-20 9.60915 	-0.0493984 	-2.20794e-20 9.55032 	-0.020516 	-3.17709e-20 9.59315 	-0.0478289 	-5.63133e-20 9.63418 	-0.0744192 	-8.01627e-20 9.6285 	-0.0759074 	-8.23484e-20 9.5681 	-0.0501175 	-6.78741e-20 9.50793 	-0.0242165 	-5.33673e-20 9.55127 	-0.0489163 	-1.01305e-19 9.5942 	-0.0736377 	-1.49221e-19 9.58651 	-0.0744899 	-1.33271e-19 9.52499 	-0.0512564 	-6.58537e-20 9.46385 	-0.0280004 	1.60719e-21 9.50744 	-0.0503597 	2.20605e-21 9.55065 	-0.072739 	2.76757e-21 9.54225 	-0.0735958 	5.20467e-21 9.48011 	-0.0527145 	1.18301e-20 9.41832 	-0.0318128 	1.84777e-20 9.46192 	-0.0520743 	1.15593e-20 9.50515 	-0.0723542 	4.61947e-21 9.49615 	-0.0732039 	-9.65805e-22 9.43368 	-0.054421 	-3.83416e-21 9.37156 	-0.0356198 	-6.69468e-21 9.41494 	-0.054002 	-3.95964e-21 9.45797 	-0.0724009 	-1.23273e-21 9.44846 	-0.0732366 	-3.61644e-21 9.38595 	-0.0563264 	-1.02362e-20 9.32375 	-0.0393998 	-1.68743e-20 9.36672 	-0.0560946 	-9.94981e-21 9.40937 	-0.0728047 	-3.00739e-21 9.39944 	-0.073621 	-9.70194e-21 9.33713 	-0.0583857 	-2.99661e-20 9.27511 	-0.0431355 	-5.02443e-20 9.3175 	-0.058312 	-1.32478e-19 9.35958 	-0.0735024 	-2.14697e-19 9.34933 	-0.0742952 	-2.12897e-19 9.28744 	-0.0605623 	-1.23609e-19 9.22581 	-0.0468161 	-3.43107e-20 9.26748 	-0.0606257 	-2.07988e-20 9.30886 	-0.074448 	-7.29064e-21 9.29838 	-0.075214 	0 9.23708 	-0.062829 	0 9.17603 	-0.050432 	0 9.21684 	-0.0630112 	0 9.25739 	-0.0756021 	0 9.24676 	-0.0763393 	0 9.18622 	-0.0651628 	0 9.1259 	-0.0539756 	0 9.16576 	-0.0654485 	0 9.20292 	-0.0764011 	3.68121e-22 9.19093 	-0.0768087 	8.05653e-21 9.13503 	-0.0675419 	2.09994e-20 9.07557 	-0.0574375 	3.43908e-20 9.11441 	-0.0679118 	1.22498e-19 9.14439 	-0.0766672 	1.95152e-19 9.13256 	-0.0770765 	1.93106e-19 9.08368 	-0.0699395 	1.22902e-19 9.02519 	-0.0608063 	3.4724e-20 9.06292 	-0.0703779 	2.14363e-20 9.08591 	-0.0772389 	1.24066e-20 9.07424 	-0.0776469 	1.3486e-20 9.03228 	-0.0723354 	2.03882e-20 8.97484 	-0.0640741 	3.02829e-20 9.01141 	-0.0728289 	8.7189e-20 9.02761 	-0.0780585 	1.17103e-19 9.0161 	-0.078463 	1.10109e-19 8.98093 	-0.0747137 	7.31459e-20 8.92462 	-0.0672363 	9.30735e-21 8.95999 	-0.0752533 	-5.93373e-20 8.96963 	-0.0790811 	-9.95677e-20 8.95829 	-0.0794803 	-1.16559e-19 8.92973 	-0.0770642 	-1.09868e-19 8.87461 	-0.0702911 	-6.65438e-20 8.90876 	-0.0776415 	-1.43563e-19 8.9121 	-0.0802666 	-1.63169e-19 8.90091 	-0.0806587 	-1.5565e-19 8.87877 	-0.0793769 	-1.2857e-19 8.82488 	-0.0732356 	-4.47247e-20 8.8578 	-0.0799835 	-2.92818e-20 8.85512 	-0.0815785 	-1.84184e-20 8.84409 	-0.0819627 	-8.63117e-21 8.82813 	-0.0816436 	0 8.77551 	-0.0760699 	0 8.80718 	-0.082274 	0 8.79879 	-0.0829889 	2.37458e-21 8.7879 	-0.0833649 	4.89593e-21 8.777 	-0.0837408 	7.41749e-21 8.72655 	-0.0787963 	9.94817e-21 8.7539 	-0.084106 	7.75414e-21 8.74318 	-0.0844731 	7.88715e-21 8.73244 	-0.0848401 	8.02056e-21 8.72169 	-0.0852072 	8.15438e-21 8.67809 	-0.0814143 	1.02949e-20 8.69897 	-0.0856498 	9.48387e-21 8.68839 	-0.0860073 	1.45844e-20 8.6778 	-0.0863648 	1.96858e-20 8.6672 	-0.0867224 	2.47879e-20 8.63018 	-0.0839238 	3.51164e-20 8.6449 	-0.0872242 	8.90897e-20 8.63447 	-0.0875716 	8.69093e-20 8.62402 	-0.0879191 	8.47222e-20 8.61356 	-0.0882666 	8.25286e-20 8.58284 	-0.0863259 	3.56825e-20 8.59174 	-0.0888119 	2.69296e-20 8.58144 	-0.0891483 	2.21823e-20 8.57114 	-0.0894848 	1.74358e-20 8.56081 	-0.0898214 	1.269e-20 8.53612 	-0.0886197 	1.08154e-20 8.53951 	-0.0903957 	4.72697e-21 8.52935 	-0.0907203 	-3.67514e-21 8.51918 	-0.0910451 	-1.20775e-20 8.509 	-0.0913699 	-2.04802e-20 8.49005 	-0.0908039 	-2.76027e-20 8.48825 	-0.0919608 	-3.64587e-20 8.47823 	-0.0922734 	-3.94764e-20 8.46819 	-0.092586 	-4.24929e-20 8.45814 	-0.0928987 	-4.55082e-20 8.44465 	-0.0928795 	-4.56774e-20 8.44119 	-0.0933991 	-3.55825e-20 8.43452 	-0.0936027 	-3.1395e-20 8.42785 	-0.0938063 	-2.72099e-20 8.42118 	-0.09401 	-2.30275e-20 8.41466 	-0.0942088 	-1.89496e-20 8.41131 	-0.0943091 	-1.68164e-20 8.40796 	-0.0944094 	-1.46838e-20 8.40461 	-0.0945097 	-1.25517e-20 8.40126 	-0.0946101 	-1.04202e-20 8.39741 	-0.0947967 	-5.57562e-21 8.38805 	-0.0950271 	-8.16027e-21 8.37805 	-0.0953384 	-1.14265e-20 8.36804 	-0.0956498 	-1.46923e-20 8.35801 	-0.0959613 	-1.79577e-20 8.34607 	-0.0965769 	-2.13357e-20 8.33861 	-0.0966065 	-3.37169e-20 8.3287 	-0.0969049 	-4.08965e-20 8.31878 	-0.0972034 	-4.80777e-20 8.30885 	-0.0975021 	-5.52605e-20 8.29578 	-0.098246 	-4.77359e-20 8.29001 	-0.0981063 	-1.19228e-20 8.28015 	-0.0983644 	2.45189e-21 8.27028 	-0.0986227 	1.68324e-20 8.2604 	-0.0988812 	3.12189e-20 8.24631 	-0.0996792 	8.15416e-21 8.24206 	-0.0994158 	2.8541e-21 8.23227 	-0.0996766 	2.12039e-21 8.22248 	-0.0999377 	1.38662e-21 8.21267 	-0.100199 	6.52784e-22 8.19773 	-0.10109 	4.7625e-22 8.19491 	-0.100806 	-1.75656e-21 8.18523 	-0.101095 	-9.0533e-21 8.17553 	-0.101383 	-1.63494e-20 8.16582 	-0.101672 	-2.36449e-20 8.15015 	-0.102595 	-3.08729e-20 8.14868 	-0.102314 	-2.32213e-20 8.1391 	-0.102608 	-1.55437e-20 8.1295 	-0.102903 	-7.86548e-21 8.11989 	-0.103197 	-1.8665e-22 8.10358 	-0.104078 	0 8.10304 	-0.103838 	0 8.09392 	-0.104101 	-3.85481e-21 8.08443 	-0.104385 	-7.86929e-21 8.07407 	-0.10473 	-1.18308e-20 8.05808 	-0.105464 	-1.54512e-20 8.05733 	-0.105326 	-4.46925e-20 8.04977 	-0.105509 	-5.52287e-20 8.04041 	-0.105777 	-6.08064e-20 8.02924 	-0.10614 	-5.97703e-20 8.01372 	-0.106728 	-4.27887e-20 8.01279 	-0.106678 	-1.23419e-19 8.00672 	-0.106815 	-1.53765e-19 7.99749 	-0.107068 	-1.53201e-19 7.98561 	-0.107416 	-1.1859e-19 7.97053 	-0.107877 	-4.29461e-20 7.96945 	-0.107905 	-8.55801e-20 7.96479 	-0.108029 	-1.07883e-19 7.95569 	-0.108268 	-1.05021e-19 7.94318 	-0.108577 	-7.03025e-20 7.92851 	-0.108929 	-1.56119e-20 7.92731 	-0.109029 	-7.20693e-21 7.92399 	-0.109165 	-8.98187e-22 7.91503 	-0.109395 	-1.64005e-22 7.90194 	-0.109648 	0 7.88765 	-0.109908 	0 7.88635 	-0.110073 	0 7.88431 	-0.110244 	0 7.87548 	-0.110469 	0 7.86186 	-0.110653 	0 7.84791 	-0.110836 	0 7.84654 	-0.111061 	0 7.84516 	-0.111287 	0 7.83652 	-0.111499 	0 7.82291 	-0.111617 	0 7.80928 	-0.111735 	0 7.80785 	-0.112017 	0 7.8064 	-0.112299 	0 7.79837 	-0.112495 	0 7.78505 	-0.112561 	0 7.77171 	-0.112626 	0 7.77023 	-0.112961 	0 7.76873 	-0.113295 	0 7.76129 	-0.113481 	0 7.74823 	-0.113504 	0 7.73516 	-0.113528 	0 7.73364 	-0.113912 	0 7.7321 	-0.114297 	0 7.72524 	-0.114476 	0 7.71242 	-0.114466 	0 7.6996 	-0.114456 	0 7.69804 	-0.114888 	0 7.69647 	-0.11532 	0 7.69016 	-0.115498 	-1.35312e-21 7.67756 	-0.115463 	-7.68983e-21 7.66496 	-0.115427 	-1.40264e-20 7.66339 	-0.115903 	-7.24406e-21 7.66179 	-0.11638 	-4.61046e-22 7.65601 	-0.116559 	-2.21851e-22 7.64362 	-0.116506 	-6.60298e-21 7.63122 	-0.116453 	-1.2984e-20 7.62962 	-0.116971 	-6.14883e-21 7.62759 	-0.117456 	0 7.62182 	-0.117638 	0 7.61054 	-0.117609 	0 7.59833 	-0.117544 	0 7.59671 	-0.118102 	0 7.59398 	-0.118564 	6.51465e-23 7.58826 	-0.118764 	3.06706e-22 7.57828 	-0.118782 	-1.76342e-21 7.56624 	-0.118712 	-4.95088e-21 7.56461 	-0.119309 	-2.98426e-20 7.5612 	-0.11974 	-4.33726e-20 7.55553 	-0.119959 	-4.24224e-20 7.5468 	-0.120036 	-3.55298e-20 7.5349 	-0.119965 	-2.25059e-20 7.53326 	-0.1206 	-5.95166e-21 7.52919 	-0.120994 	-4.05407e-21 7.52356 	-0.121235 	-1.1508e-20 7.51604 	-0.121381 	-2.18011e-20 7.50428 	-0.121314 	-3.84465e-20 7.50263 	-0.121985 	-4.84767e-20 7.4979 	-0.122338 	-5.03414e-20 7.49231 	-0.122602 	-4.99327e-20 7.48596 	-0.122825 	-4.67749e-20 7.47433 	-0.122766 	-2.4242e-20 7.47266 	-0.123473 	-2.06424e-20 7.46729 	-0.12378 	-1.39967e-20 7.46173 	-0.124068 	-7.20824e-21 7.45616 	-0.124356 	-4.20437e-22 7.44501 	-0.124329 	0 7.44283 	-0.125015 	0 7.43731 	-0.125329 	0 7.43178 	-0.125642 	0 7.42623 	-0.125955 	0 7.41627 	-0.126008 	0 7.41343 	-0.126652 	0 7.40793 	-0.126991 	0 7.40241 	-0.12733 	0 7.39688 	-0.12767 	0 7.38809 	-0.12781 	-6.48953e-21 7.38458 	-0.128407 	-8.45707e-23 7.37909 	-0.128774 	-2.60583e-22 7.37359 	-0.129141 	-4.36613e-22 7.36808 	-0.129508 	-6.12661e-22 7.36043 	-0.129741 	2.95753e-22 7.35625 	-0.13029 	7.54944e-21 7.35077 	-0.130686 	6.58604e-21 7.34528 	-0.131081 	5.61963e-21 7.33977 	-0.131477 	4.6502e-21 7.33325 	-0.131808 	1.80646e-21 7.32894 	-0.132266 	4.15713e-21 7.32401 	-0.13265 	1.01366e-20 7.31907 	-0.133034 	1.61166e-20 7.31411 	-0.133418 	2.20973e-20 7.30929 	-0.133791 	2.78951e-20 7.30869 	-0.133836 	2.854e-20 7.3081 	-0.13388 	2.91848e-20 7.3075 	-0.133925 	2.98296e-20 7.3069 	-0.133969 	3.04744e-20 7.30629 	-0.133997 	3.11179e-20 7.30073 	-0.134471 	3.05358e-20 7.29509 	-0.13493 	3.0081e-20 7.28942 	-0.135388 	2.96244e-20 7.28374 	-0.135847 	2.91662e-20 7.27792 	-0.136129 	2.85552e-20 7.27292 	-0.136787 	2.80719e-20 7.26727 	-0.13728 	2.73835e-20 7.2616 	-0.137772 	2.66934e-20 7.2559 	-0.138265 	2.60015e-20 7.25003 	-0.13843 	2.64991e-20 7.24551 	-0.139266 	2.49475e-20 7.23984 	-0.139794 	2.44861e-20 7.23416 	-0.140322 	2.40228e-20 7.22845 	-0.140851 	2.35576e-20 7.22258 	-0.140908 	2.48122e-20 7.21846 	-0.141916 	2.05164e-20 7.21278 	-0.14248 	1.41224e-20 7.20707 	-0.143045 	7.72735e-21 7.20134 	-0.14361 	1.33133e-21 7.19552 	-0.143566 	-2.77822e-21 7.19174 	-0.144741 	0 7.18603 	-0.145342 	0 7.1803 	-0.145944 	0 7.17454 	-0.146546 	0 7.1688 	-0.146406 	0 7.16515 	-0.147694 	0 7.15957 	-0.148381 	0 7.15381 	-0.14902 	0 7.14805 	-0.149519 	-6.40975e-22 7.14239 	-0.149428 	-3.98546e-21 7.13858 	-0.150735 	-9.09142e-22 7.13337 	-0.151597 	3.78306e-21 7.12757 	-0.152273 	9.15258e-21 7.12185 	-0.152667 	1.32713e-20 7.11626 	-0.15263 	1.54798e-20 7.11229 	-0.153957 	-1.14684e-20 7.10741 	-0.154988 	-2.36953e-20 7.10157 	-0.155701 	-1.99629e-20 7.09591 	-0.155995 	7.58676e-22 7.09038 	-0.156012 	3.26992e-20 7.08626 	-0.157358 	-5.80326e-24 7.08167 	-0.158555 	-2.63934e-20 7.07578 	-0.159304 	-3.39096e-20 7.07021 	-0.159503 	-1.42052e-20 7.06471 	-0.159574 	1.17933e-20 7.06045 	-0.160941 	8.78325e-21 7.05611 	-0.162298 	5.8117e-21 7.05019 	-0.163069 	5.41033e-21 7.04472 	-0.163195 	1.38307e-20 7.03924 	-0.16332 	2.22513e-20 7.03485 	-0.16471 	1.36286e-20 7.03041 	-0.1661 	5.00508e-21 7.02489 	-0.166895 	5.65195e-21 7.01943 	-0.167076 	1.7147e-20 7.01396 	-0.167257 	2.86425e-20 7.00944 	-0.168671 	3.98288e-20 7.00487 	-0.170085 	5.10151e-20 6.99977 	-0.170915 	4.67801e-20 6.99431 	-0.171153 	2.71291e-20 6.98884 	-0.17139 	7.4774e-21 6.9842 	-0.172831 	4.7094e-21 6.97951 	-0.174272 	1.94251e-21 6.97483 	-0.175138 	0 6.96936 	-0.175433 	0 6.96387 	-0.175728 	0 6.95912 	-0.177199 	0 6.95432 	-0.178669 	0 6.95005 	-0.179572 	2.35196e-21 6.94455 	-0.179925 	-4.58226e-21 6.93903 	-0.180279 	-1.15151e-20 6.93418 	-0.181781 	-3.28094e-21 6.92939 	-0.183194 	4.19255e-21 6.92514 	-0.184111 	7.39377e-21 6.91989 	-0.184637 	1.25557e-20 6.91434 	-0.185051 	1.82745e-20 6.90939 	-0.186586 	1.31684e-20 6.90467 	-0.187898 	1.02339e-20 6.90034 	-0.188862 	1.06867e-20 6.89536 	-0.189575 	1.896e-20 6.88977 	-0.190051 	3.46114e-20 6.88473 	-0.191622 	1.84922e-20 6.8801 	-0.192838 	7.67225e-21 6.8757 	-0.19385 	-8.62496e-23 6.87098 	-0.194747 	-6.58897e-21 6.86534 	-0.195287 	-9.18622e-21 6.86021 	-0.196896 	-4.8068e-20 6.85569 	-0.198023 	-5.82568e-20 6.85121 	-0.199085 	-6.46044e-20 6.84669 	-0.200148 	-7.0943e-20 6.84103 	-0.200769 	-4.18623e-20 6.83593 	-0.202347 	-6.79261e-20 6.83142 	-0.203463 	-6.39335e-20 6.82686 	-0.204578 	-5.99334e-20 6.82227 	-0.205693 	-5.59257e-20 6.81687 	-0.206509 	-3.24826e-20 6.81189 	-0.207997 	-4.96933e-20 6.8073 	-0.209169 	-4.29827e-20 6.80267 	-0.210341 	-3.62618e-20 6.79801 	-0.211512 	-2.95305e-20 6.79287 	-0.21252 	-1.1006e-20 6.78801 	-0.213926 	-8.75204e-21 6.78335 	-0.215158 	-6.51777e-21 6.77865 	-0.216389 	-4.28438e-21 6.7739 	-0.21762 	-2.05186e-21 6.76902 	-0.218818 	0 6.76775 	-0.219191 	0 6.76653 	-0.219529 	0 6.7653 	-0.219866 	0 6.76407 	-0.220204 	0 6.76286 	-0.220535 	0 6.75909 	-0.221489 	0 6.75529 	-0.222442 	0 6.75146 	-0.223396 	0 6.74761 	-0.224348 	0 6.74388 	-0.225188 	0 6.73899 	-0.226647 	-1.5568e-21 6.73382 	-0.228003 	-3.62076e-21 6.7286 	-0.229358 	-5.68375e-21 6.72333 	-0.230713 	-7.74577e-21 6.71837 	-0.231797 	-9.78935e-21 6.71371 	-0.233469 	3.67905e-21 6.70845 	-0.234898 	5.25346e-21 6.70314 	-0.236326 	6.83881e-21 6.69777 	-0.237753 	8.43515e-21 6.69294 	-0.238744 	-1.32903e-20 6.68851 	-0.240638 	-6.53882e-21 6.68316 	-0.242145 	1.29239e-23 6.67776 	-0.243651 	6.5635e-21 6.67241 	-0.24508 	1.27569e-20 6.6676 	-0.246052 	1.68279e-20 6.66314 	-0.248051 	1.21407e-20 6.658 	-0.249769 	1.17286e-20 6.6525 	-0.251359 	1.32573e-20 6.64728 	-0.252696 	1.94353e-20 6.64239 	-0.253747 	3.0872e-20 6.63785 	-0.255834 	3.76603e-20 6.63297 	-0.257797 	4.18653e-20 6.6274 	-0.259478 	4.01694e-20 6.62231 	-0.260722 	2.45543e-20 6.61732 	-0.261859 	5.54986e-21 6.61272 	-0.264042 	2.28794e-20 6.60804 	-0.266224 	4.02024e-20 6.60257 	-0.267961 	3.40586e-20 6.59752 	-0.269191 	9.18104e-21 6.59242 	-0.27042 	-1.57006e-20 6.58776 	-0.272709 	-9.43098e-21 6.58303 	-0.274995 	-3.1633e-21 6.57809 	-0.276807 	4.16949e-22 6.57294 	-0.278141 	1.15013e-21 6.56773 	-0.279474 	1.88732e-21 6.56303 	-0.28188 	2.51951e-21 6.55824 	-0.284283 	3.15835e-21 6.55385 	-0.286177 	4.10994e-21 6.5486 	-0.287629 	8.84474e-21 6.54329 	-0.28908 	1.35824e-20 6.53855 	-0.29162 	9.57584e-21 6.53386 	-0.294016 	5.56862e-21 6.52954 	-0.295984 	1.55189e-21 6.52456 	-0.297709 	0 6.51913 	-0.299281 	0 6.51435 	-0.301956 	0 6.50983 	-0.304264 	0 6.50544 	-0.306365 	0 6.50083 	-0.308409 	0 6.49529 	-0.310125 	0 6.49049 	-0.312925 	1.84901e-22 6.48611 	-0.315183 	4.59142e-21 6.48166 	-0.317438 	9.00086e-21 6.47712 	-0.319692 	1.34132e-20 6.47184 	-0.321708 	1.78382e-20 6.46724 	-0.324456 	1.61807e-20 6.46281 	-0.326894 	1.69099e-20 6.45829 	-0.329328 	1.76456e-20 6.45369 	-0.331761 	1.83877e-20 6.44886 	-0.334141 	1.9394e-20 6.44766 	-0.334896 	1.64506e-20 6.44651 	-0.335585 	1.47744e-20 6.44535 	-0.336274 	1.30992e-20 6.44418 	-0.336963 	1.14249e-20 6.44304 	-0.337635 	9.79227e-21 6.43995 	-0.33958 	4.97307e-21 6.43681 	-0.341523 	1.61123e-22 6.43363 	-0.343465 	-4.64356e-21 6.43039 	-0.345405 	-9.44098e-21 6.42678 	-0.347272 	-1.76831e-20 6.42354 	-0.350142 	-2.80393e-20 6.41934 	-0.352991 	-2.68531e-20 6.41504 	-0.355837 	-2.56916e-20 6.41065 	-0.358679 	-2.45549e-20 6.40531 	-0.361351 	-6.83655e-21 6.40331 	-0.36449 	2.83443e-20 6.39905 	-0.367587 	2.83028e-20 6.39468 	-0.37068 	2.82953e-20 6.38994 	-0.373721 	1.89011e-20 6.38415 	-0.376586 	-2.39871e-20 6.38234 	-0.379995 	-7.35544e-20 6.37922 	-0.383386 	-1.03088e-19 6.37477 	-0.386757 	-1.12358e-19 6.3693 	-0.389974 	-7.19494e-20 6.36332 	-0.393121 	-9.73872e-21 6.3615 	-0.396831 	-7.92779e-21 6.35957 	-0.400537 	-6.09978e-21 6.35504 	-0.404187 	2.28109e-21 6.34897 	-0.407662 	1.46052e-20 6.34278 	-0.411134 	2.69465e-20 6.34095 	-0.415195 	4.61162e-20 6.33899 	-0.419251 	6.52992e-20 6.33523 	-0.423157 	6.6425e-20 6.32893 	-0.426994 	4.95149e-20 6.3225 	-0.430827 	3.26121e-20 6.32063 	-0.435289 	2.321e-20 6.31824 	-0.439695 	1.76945e-20 6.31449 	-0.443942 	2.43306e-20 6.30913 	-0.448183 	3.95664e-20 6.30242 	-0.452419 	6.19087e-20 6.3005 	-0.457331 	9.78252e-20 6.29704 	-0.462077 	9.86981e-20 6.29308 	-0.466775 	9.08761e-20 6.28898 	-0.471466 	8.3007e-20 6.28247 	-0.476154 	5.53824e-20 6.27973 	-0.481498 	8.14237e-20 6.2757 	-0.486715 	5.71733e-20 6.27149 	-0.491924 	3.27974e-20 6.26711 	-0.497122 	8.29584e-21 6.26254 	-0.502316 	-1.66442e-20 6.26252 	-0.502353 	-1.66756e-20 6.26249 	-0.502389 	-1.67068e-20 6.26247 	-0.502426 	-1.67381e-20 6.26244 	-0.502462 	-1.67694e-20 6.26242 	-0.502499 	-1.68007e-20 6.2587 	-0.508201 	-2.64044e-20 6.25481 	-0.513891 	-3.60857e-20 6.25074 	-0.519571 	-4.58448e-20 6.2465 	-0.525239 	-5.56817e-20 6.24158 	-0.530562 	-3.91384e-20 6.2392 	-0.53711 	-2.11136e-20 6.23494 