# vtk DataFile Version 2.0
track0
ASCII
DATASET POLYDATA
POINTS 11376 double
-0.0205 0.001 1e-05
-0.0202034 0.00100002 1e-05
-0.0199069 0.00100023 1e-05
-0.0196103 0.00100066 1e-05
-0.0193137 0.0010013 1e-05
-0.0190172 0.00100215 1e-05
-0.0187132 0.00100341 1e-05
-0.0184093 0.00100432 1e-05
-0.0181054 0.00100523 1e-05
-0.0178015 0.00100615 1e-05
-0.0174976 0.00100706 1e-05
-0.0172058 0.00100824 1e-05
-0.016914 0.00100896 1e-05
-0.0166222 0.00100963 1e-05
-0.0163305 0.00101026 1e-05
-0.0160387 0.00101084 1e-05
-0.0157586 0.0010117 1e-05
-0.0154784 0.00101211 1e-05
-0.0151983 0.00101249 1e-05
-0.0149182 0.00101284 1e-05
-0.0146381 0.00101316 1e-05
-0.0143692 0.00101378 1e-05
-0.0141002 0.00101398 1e-05
-0.0138313 0.00101416 1e-05
-0.0135624 0.00101431 1e-05
-0.0132934 0.00101444 1e-05
-0.0130353 0.00101489 1e-05
-0.0127771 0.00101494 1e-05
-0.0125189 0.00101498 1e-05
-0.0122607 0.001015 1e-05
-0.0120025 0.001015 1e-05
-0.0117547 0.00101532 1e-05
-0.0115068 0.00101528 1e-05
-0.0112589 0.00101521 1e-05
-0.0110111 0.00101514 1e-05
-0.0107632 0.00101505 1e-05
-0.0105252 0.0010153 1e-05
-0.0102873 0.00101518 1e-05
-0.0100493 0.00101504 1e-05
-0.00981133 0.0010149 1e-05
-0.00957337 0.00101474 1e-05
-0.00934491 0.00101494 1e-05
-0.00911645 0.00101476 1e-05
-0.008888 0.00101457 1e-05
-0.00865954 0.00101437 1e-05
-0.00843108 0.00101416 1e-05
-0.00821175 0.00101432 1e-05
-0.00799242 0.00101409 1e-05
-0.00777309 0.00101385 1e-05
-0.00755376 0.0010136 1e-05
-0.00733443 0.00101334 1e-05
-0.00712387 0.00101347 1e-05
-0.0069133 0.0010132 1e-05
-0.00670273 0.00101292 1e-05
-0.00649217 0.00101262 1e-05
-0.0062816 0.00101231 1e-05
-0.00607944 0.00101243 1e-05
-0.00587729 0.00101211 1e-05
-0.00567514 0.00101179 1e-05
-0.00547298 0.00101145 1e-05
-0.00527083 0.0010111 1e-05
-0.00507675 0.00101119 1e-05
-0.00488268 0.00101084 1e-05
-0.0046886 0.00101047 1e-05
-0.00449452 0.00101009 1e-05
-0.00430044 0.00100969 1e-05
-0.00411412 0.00100977 1e-05
-0.0039278 0.00100937 1e-05
-0.00374147 0.00100896 1e-05
-0.00355515 0.00100853 1e-05
-0.00336883 0.00100808 1e-05
-0.00318995 0.00100814 1e-05
-0.00301107 0.00100769 1e-05
-0.00283219 0.00100722 1e-05
-0.00265331 0.00100673 1e-05
-0.00247443 0.00100623 1e-05
-0.0023027 0.00100625 1e-05
-0.00213097 0.00100573 1e-05
-0.00195924 0.00100519 1e-05
-0.00178751 0.00100462 1e-05
-0.00161577 0.00100404 1e-05
-0.0014509 0.00100401 1e-05
-0.00128603 0.00100341 1e-05
-0.00112116 0.00100276 1e-05
-0.000956293 0.00100208 1e-05
-0.000791418 0.00100137 1e-05
-0.000633135 0.00100125 1e-05
-0.000474853 0.00100049 1e-05
-0.000316571 0.000999688 1e-05
-0.00015829 0.000998847 1e-05
0 0.000997965 1e-05
0.000105677 0.000997811 1e-05
0.000211353 0.000997177 1e-05
0.000317029 0.000996518 1e-05
0.000422704 0.000995832 1e-05
0.000528387 0.00099512 1e-05
0.000634886 0.000994966 1e-05
0.000741383 0.000994236 1e-05
0.00084788 0.000993489 1e-05
0.000954376 0.000992724 1e-05
0.00106088 0.000991942 1e-05
0.00116821 0.000991822 1e-05
0.00127553 0.000991045 1e-05
0.00138286 0.000990253 1e-05
0.00149018 0.000989445 1e-05
0.00159752 0.00098862 1e-05
0.00170568 0.000988529 1e-05
0.00181384 0.000987731 1e-05
0.001922 0.000986918 1e-05
0.00203015 0.000986089 1e-05
0.00213833 0.000985245 1e-05
0.00224733 0.000985181 1e-05
0.00235633 0.00098438 1e-05
0.00246533 0.000983563 1e-05
0.00257433 0.000982732 1e-05
0.00268334 0.000981885 1e-05
0.00279319 0.000981839 1e-05
0.00290303 0.000981056 1e-05
0.00301288 0.000980241 1e-05
0.00312273 0.00097941 1e-05
0.00323259 0.000978636 1e-05
0.00334329 0.000978594 1e-05
0.00345399 0.000977891 1e-05
0.00356469 0.000977079 1e-05
0.00367539 0.000976249 1e-05
0.00378611 0.000975546 1e-05
0.00389767 0.000975496 1e-05
0.00400923 0.000974854 1e-05
0.0041208 0.000974042 1e-05
0.00423236 0.000973212 1e-05
0.00434393 0.000972562 1e-05
0.00445636 0.000972495 1e-05
0.00456879 0.000971895 1e-05
0.00468122 0.00097108 1e-05
0.00479365 0.000970247 1e-05
0.00490609 0.000969633 1e-05
0.0050194 0.000969541 1e-05
0.0051327 0.000968967 1e-05
0.005246 0.000968143 1e-05
0.00535931 0.000967301 1e-05
0.00547262 0.000966707 1e-05
0.00558681 0.000966583 1e-05
0.00570099 0.000966021 1e-05
0.00581518 0.000965182 1e-05
0.00592936 0.000964325 1e-05
0.00604356 0.000963739 1e-05
0.00615863 0.000963577 1e-05
0.00627371 0.000963016 1e-05
0.00638878 0.000962159 1e-05
0.00650385 0.000961283 1e-05
0.00661893 0.000960696 1e-05
0.0067349 0.000960491 1e-05
0.00685087 0.000959923 1e-05
0.00696684 0.000959044 1e-05
0.0070828 0.000958147 1e-05
0.00719878 0.000957551 1e-05
0.00731565 0.0009573 1e-05
0.00743252 0.000956717 1e-05
0.00754939 0.000955814 1e-05
0.00766626 0.000954893 1e-05
0.00778313 0.000954281 1e-05
0.00790091 0.000953981 1e-05
0.00801869 0.000953377 1e-05
0.00813647 0.000952473 1e-05
0.00825425 0.000951558 1e-05
0.00837203 0.000950925 1e-05
0.00849073 0.000950573 1e-05
0.00860942 0.000949945 1e-05
0.00872812 0.000949041 1e-05
0.00884681 0.000948125 1e-05
0.00896551 0.000947465 1e-05
0.00908513 0.000947061 1e-05
0.00920475 0.000946403 1e-05
0.00932436 0.000945492 1e-05
0.00944398 0.00094457 1e-05
0.0095636 0.00094388 1e-05
0.00968415 0.000943422 1e-05
0.0098047 0.00094273 1e-05
0.00992524 0.000941808 1e-05
0.0100458 0.000940873 1e-05
0.0101663 0.00094015 1e-05
0.0102878 0.000939636 1e-05
0.0104093 0.000938909 1e-05
0.0105308 0.000937969 1e-05
0.0106523 0.000937017 1e-05
0.0107738 0.000936258 1e-05
0.0108962 0.000935688 1e-05
0.0110186 0.000934922 1e-05
0.0111411 0.000933961 1e-05
0.0112635 0.000932988 1e-05
0.0113859 0.000932189 1e-05
0.0115093 0.000931563 1e-05
0.0116327 0.000930756 1e-05
0.0117561 0.00092977 1e-05
0.0118794 0.000928772 1e-05
0.0120028 0.000927932 1e-05
0.0121272 0.000927249 1e-05
0.0122515 0.000926399 1e-05
0.0123759 0.000925383 1e-05
0.0125002 0.000924357 1e-05
0.0126245 0.000923475 1e-05
0.0127498 0.000922734 1e-05
0.0128752 0.000921839 1e-05
0.0130005 0.000920799 1e-05
0.0131258 0.000919751 1e-05
0.0132511 0.000918825 1e-05
0.0133774 0.000918026 1e-05
0.0135036 0.000917085 1e-05
0.0136299 0.000916026 1e-05
0.0137562 0.00091496 1e-05
0.0138825 0.000913988 1e-05
0.0140098 0.00091313 1e-05
0.014137 0.000912142 1e-05
0.0142643 0.00091106 1e-05
0.0143915 0.000909971 1e-05
0.0145188 0.000908952 1e-05
0.0146471 0.000908037 1e-05
0.0147753 0.000907 1e-05
0.0149036 0.000905891 1e-05
0.0150318 0.000904775 1e-05
0.0151601 0.000903708 1e-05
0.0152893 0.000902734 1e-05
0.0154186 0.000901649 1e-05
0.0155478 0.000900509 1e-05
0.0156771 0.000899362 1e-05
0.0158063 0.000898247 1e-05
0.0159366 0.000897215 1e-05
0.0160668 0.00089608 1e-05
0.0161971 0.000894907 1e-05
0.0163273 0.000893727 1e-05
0.0164576 0.000892562 1e-05
0.0165889 0.000891473 1e-05
0.0167201 0.000890287 1e-05
0.0168514 0.000889078 1e-05
0.0169827 0.000887862 1e-05
0.0171139 0.000886648 1e-05
0.0172462 0.000885501 1e-05
0.0173785 0.000884265 1e-05
0.0175108 0.000883017 1e-05
0.0176431 0.000881762 1e-05
0.0177754 0.0008805 1e-05
0.0179087 0.000879296 1e-05
0.018042 0.000878016 1e-05
0.0181753 0.000876727 1e-05
0.0183087 0.000875432 1e-05
0.018442 0.00087413 1e-05
0.0185763 0.000872869 1e-05
0.0187107 0.000871546 1e-05
0.018845 0.000870216 1e-05
0.0189794 0.000868879 1e-05
0.0191137 0.000867535 1e-05
0.0192491 0.000866218 1e-05
0.0193845 0.000864852 1e-05
0.0195199 0.000863479 1e-05
0.0196553 0.000862099 1e-05
0.0197907 0.000860711 1e-05
0.0199272 0.000859339 1e-05
0.0200636 0.000857928 1e-05
0.0202001 0.000856511 1e-05
0.0203365 0.000855086 1e-05
0.020473 0.000853655 1e-05
0.0206105 0.000852227 1e-05
0.020748 0.000850771 1e-05
0.0208855 0.000849309 1e-05
0.021023 0.000847839 1e-05
0.0211606 0.000846362 1e-05
0.0212991 0.00084488 1e-05
0.0214377 0.000843379 1e-05
0.0215763 0.000841871 1e-05
0.0217149 0.000840355 1e-05
0.0218535 0.000838833 1e-05
0.0219476 0.000837798 1e-05
0.0220418 0.000836756 1e-05
0.0221359 0.000835711 1e-05
0.0222301 0.000834663 1e-05
0.0223219 0.000833638 1e-05
0.0223679 0.000833123 1e-05
0.0224139 0.000832608 1e-05
0.0224598 0.000832092 1e-05
0.0225058 0.000831575 1e-05
0.0225517 0.000831057 1e-05
0.0226925 0.000829468 1e-05
0.0228332 0.000827874 1e-05
0.022974 0.000826272 1e-05
0.0231147 0.000824664 1e-05
0.0232555 0.000823048 1e-05
0.0233973 0.000821406 1e-05
0.0235391 0.000819763 1e-05
0.023681 0.000818113 1e-05
0.0238228 0.000816455 1e-05
0.0239647 0.000814791 1e-05
0.0241076 0.000813098 1e-05
0.0242505 0.000811407 1e-05
0.0243935 0.000809708 1e-05
0.0245364 0.000808004 1e-05
0.0246794 0.000806293 1e-05
0.0248234 0.000804552 1e-05
0.0249675 0.000802814 1e-05
0.0251115 0.00080107 1e-05
0.0252556 0.000799319 1e-05
0.0253996 0.000797561 1e-05
0.0255448 0.000795771 1e-05
0.02569 0.000793985 1e-05
0.0258351 0.000792192 1e-05
0.0259803 0.000790392 1e-05
0.0261255 0.000788585 1e-05
0.0262718 0.000786743 1e-05
0.0264181 0.000784906 1e-05
0.0265644 0.000783062 1e-05
0.0267107 0.00078121 1e-05
0.026857 0.00077935 1e-05
0.0270044 0.000777457 1e-05
0.0271519 0.000775567 1e-05
0.0272993 0.000773671 1e-05
0.0274468 0.000771767 1e-05
0.0275942 0.000769855 1e-05
0.0277428 0.00076791 1e-05
0.0278914 0.000765968 1e-05
0.0280399 0.00076402 1e-05
0.0281885 0.000762066 1e-05
0.0283371 0.000760102 1e-05
0.0284869 0.000758107 1e-05
0.0286366 0.000756114 1e-05
0.0287863 0.000754116 1e-05
0.0289361 0.000752111 1e-05
0.0290858 0.000750097 1e-05
0.0292367 0.000748055 1e-05
0.0293876 0.000746012 1e-05
0.0295385 0.000743965 1e-05
0.0296894 0.000741911 1e-05
0.0298403 0.000739848 1e-05
0.0299924 0.000737759 1e-05
0.0301445 0.000735667 1e-05
0.0302966 0.000733572 1e-05
0.0304486 0.00073147 1e-05
0.0306007 0.00072936 1e-05
0.030754 0.000727225 1e-05
0.0309072 0.000725086 1e-05
0.0310605 0.000722943 1e-05
0.0312138 0.000720793 1e-05
0.031367 0.000718636 1e-05
0.0315215 0.000716454 1e-05
0.0316759 0.000714268 1e-05
0.0318304 0.000712077 1e-05
0.0319848 0.00070988 1e-05
0.0321393 0.000707676 1e-05
0.0322949 0.000705449 1e-05
0.0324506 0.000703216 1e-05
0.0326062 0.000700977 1e-05
0.0327619 0.000698731 1e-05
0.0329175 0.000696481 1e-05
0.0330744 0.000694208 1e-05
[...]
POINT_DATA 11376
 FIELD attributes 2
p 1 11376 float
-7.18018 -7.23059 -7.29337 -7.35682 -7.42096 -7.56502 -7.63012 -7.70913 -7.78814 -7.86714 -7.957 -7.94943 -7.96799 -7.9865 -8.00493 -8.04299 -8.02863 -8.04078 -8.05287 -8.0649 -8.09895 -8.09126 -8.10566 -8.12001 -8.13432 -8.16875 -8.15996 -8.17137 -8.18273 -8.19406 -8.22507 -8.21546 -8.22537 -8.23526 -8.24511 -8.275 -8.26552 -8.27543 -8.28532 -8.29519 -8.32571 -8.31569 -8.32554 -8.33537 -8.34518 -8.37666 -8.36554 -8.37528 -8.385 -8.3947 -8.42753 -8.41507 -8.42489 -8.43469 -8.44447 -8.4792 -8.46533 -8.47555 -8.48574 -8.49592 -8.53325 -8.51791 -8.52874 -8.53954 -8.55032 -8.59078 -8.57368 -8.58526 -8.59681 -8.60833 -8.65251 -8.63341 -8.64575 -8.65806 -8.67033 -8.71863 -8.69675 -8.7097 -8.7226 -8.73546 -8.78859 -8.76301 -8.77611 -8.78913 -8.80209 -8.86076 -8.82238 -8.82761 -8.83276 -8.83782 -8.89376 -8.82242 -8.81607 -8.80965 -8.80316 -8.87766 -8.79853 -8.79446 -8.79035 -8.78621 -8.87191 -8.80623 -8.80637 -8.80647 -8.80655 -8.88756 -8.8293 -8.82902 -8.82872 -8.8284 -8.89943 -8.84864 -8.84931 -8.84995 -8.85058 -8.91724 -8.87711 -8.87908 -8.88196 -8.89015 -8.94691 -8.91666 -8.91584 -8.92 -8.93377 -8.98279 -8.95868 -8.95618 -8.96146 -8.97961 -9.02411 -9.00424 -9.00058 -9.00701 -9.02896 -9.07065 -9.0535 -9.04856 -9.05585 -9.08103 -9.12073 -9.10526 -9.09873 -9.10658 -9.13453 -9.17269 -9.15834 -9.15002 -9.15824 -9.18873 -9.22566 -9.21212 -9.2019 -9.21034 -9.24309 -9.2789 -9.26598 -9.25379 -9.26235 -9.29712 -9.33187 -9.31954 -9.30733 -9.31684 -9.35064 -9.38432 -9.37252 -9.36083 -9.37059 -9.40337 -9.43604 -9.42475 -9.41356 -9.42344 -9.4552 -9.48685 -9.47614 -9.46554 -9.47543 -9.50609 -9.53665 -9.52657 -9.51659 -9.52642 -9.55593 -9.58534 -9.57591 -9.56659 -9.5763 -9.60463 -9.63288 -9.62413 -9.61548 -9.62502 -9.65221 -9.67931 -9.67128 -9.66333 -9.67269 -9.69874 -9.72471 -9.7174 -9.71097 -9.72053 -9.74425 -9.76912 -9.76253 -9.7587 -9.76796 -9.78875 -9.81254 -9.80665 -9.80519 -9.81417 -9.83227 -9.85502 -9.84982 -9.85053 -9.85926 -9.87487 -9.89662 -9.89212 -9.89478 -9.90328 -9.9166 -9.93736 -9.93355 -9.93796 -9.94625 -9.9575 -9.97731 -9.97419 -9.98016 -9.98826 -9.99765 -10.0165 -10.0141 -10.0214 -10.0294 -10.0373 -10.0551 -10.0541 -10.0619 -10.0697 -10.0775 -10.0932 -10.0939 -10.1016 -10.1093 -10.117 -10.1307 -10.133 -10.1406 -10.1482 -10.1558 -10.1679 -10.1716 -10.1791 -10.1866 -10.1942 -10.2047 -10.2097 -10.2171 -10.2246 -10.2321 -10.2414 -10.2474 -10.2549 -10.2623 -10.2698 -10.278 -10.2825 -10.2875 -10.2926 -10.2976 -10.3025 -10.305 -10.3075 -10.31 -10.3125 -10.3148 -10.3225 -10.3301 -10.3376 -10.3452 -10.3522 -10.3602 -10.3677 -10.3753 -10.3829 -10.3894 -10.3976 -10.405 -10.4124 -10.4199 -10.4256 -10.434 -10.4413 -10.4486 -10.456 -10.4609 -10.4696 -10.4768 -10.4839 -10.4911 -10.4949 -10.5039 -10.5107 -10.5175 -10.5243 -10.527 -10.536 -10.5426 -10.5491 -10.5551 -10.5574 -10.5664 -10.5733 -10.5797 -10.5849 -10.587 -10.5961 -10.6035 -10.6098 -10.6143 -10.6164 -10.6256 -10.6335 -10.6399 -10.6437 -10.6458 -10.6552 -10.6637 -10.6701 -10.6732 -10.6755 -10.6849 -10.6941 -10.7005 -10.7031 -10.7055 -10.715 -10.7246 -10.731 -10.7334 -10.7359 -10.7456 -10.7553 -10.7616 -10.7642 -10.7668 -10.7766 -10.7864 -10.7928 -10.7955 -10.7981 -10.8081 -10.8181 -10.8244 -10.8272 -10.83 -10.8401 -10.8502 -10.8565 -10.8594 -10.8624 -10.8726 -10.8827 -10.8891 -10.8922 -10.8952 -10.9055 -10.9154 -10.9217 -10.9253 -10.9285 -10.9389 -10.9482 -10.9546 -10.9589 -10.9622 -10.9726 -10.9814 -10.9879 -10.9929 -10.9963 -11.0068 -11.0149 -11.0216 -11.0272 -11.0307 -11.0413 -11.0488 -11.0555 -11.0619 -11.0654 -11.076 -11.083 -11.0897 -11.0965 -11.1004 -11.1105 -11.1173 -11.1242 -11.131 -11.1355 -11.145 -11.1519 -11.1588 -11.1656 -11.1708 -11.1796 -11.1865 -11.1934 -11.2004 -11.2062 -11.2143 -11.2212 -11.2282 -11.2351 -11.2415 -11.2484 -11.2546 -11.2609 -11.2671 -11.2732 -11.2739 -11.2747 -11.2754 -11.2761 -11.2767 -11.2838 -11.2908 -11.2978 -11.3047 -11.3106 -11.3186 -11.3256 -11.3325 -11.3395 -11.3444 -11.3532 -11.3601 -11.3671 -11.374 -11.3779 -11.3876 -11.3945 -11.4013 -11.4082 -11.4111 -11.4217 -11.4285 -11.4353 -11.4421 -11.444 -11.4551 -11.4621 -11.4688 -11.4746 -11.4765 -11.4874 -11.4953 -11.5019 -11.5066 -11.5084 -11.5192 -11.5279 -11.5344 -11.5381 -11.5399 -11.5504 -11.56 -11.5663 -11.5689 -11.5707 -11.5811 -11.5914 -11.5975 -11.5992 -11.6008 -11.611 -11.6212 -11.6271 -11.6287 -11.6303 -11.6403 -11.6503 -11.6561 -11.6575 -11.659 -11.6688 -11.6786 -11.6842 -11.6855 -11.6868 -11.6964 -11.706 -11.7115 -11.7127 -11.7139 -11.7232 -11.7319 -11.737 -11.7389 -11.7399 -11.7491 -11.7565 -11.7614 -11.7642 -11.765 -11.7739 -11.7801 -11.7847 -11.7884 -11.7891 -11.7977 -11.8026 -11.807 -11.8114 -11.8121 -11.8199 -11.824 -11.8282 -11.8324 -11.8339 -11.8403 -11.8442 -11.8482 -11.8521 -11.8545 -11.8596 -11.8632 -11.8669 -11.8705 -11.8739 -11.8751 -11.8759 -11.8768 -11.8777 -11.8785 -11.8811 -11.8837 -11.8863 -11.8888 -11.8907 -11.8946 -11.8978 -11.901 -11.9042 -11.9056 -11.9104 -11.9133 -11.9162 -11.9191 -11.9192 -11.9248 -11.9273 -11.9299 -11.932 -11.9312 -11.9366 -11.9399 -11.9421 -11.9428 -11.9417 -11.9468 -11.9509 -11.9528 -11.952 -11.9506 -11.9552 -11.9599 -11.9613 -11.9595 -11.9577 -11.9619 -11.9662 -11.9673 -11.9651 -11.9629 -11.9668 -11.9706 -11.9714 -11.9688 -11.9661 -11.9695 -11.972 -11.9721 -11.9703 -11.9672 -11.9701 -11.9709 -11.9704 -11.9695 -11.9659 -11.9681 -11.9671 -11.9661 -11.9651 -11.962 -11.9622 -11.9606 -11.959 -11.9574 -11.9553 -11.9551 -11.9545 -11.9539 -11.9533 -11.9527 -11.9511 -11.9494 -11.9477 -11.946 -11.9432 -11.9415 -11.9385 -11.9354 -11.9324 -11.9266 -11.926 -11.9221 -11.9182 -11.9134 -11.9058 -11.9045 -11.9014 -11.8964 -11.8889 -11.8802 -11.8777 -11.8753 -11.8689 -11.859 -11.849 -11.8453 -11.8416 -11.8343 -11.8229 -11.8115 -11.8063 -11.8001 -11.7909 -11.7797 -11.7666 -11.7596 -11.7493 -11.7383 -11.7273 -11.7131 -11.7024 -11.6891 -11.6759 -11.6628 -11.6496 -11.6496 -11.6495 -11.6494 -11.6493 -11.6492 -11.6337 -11.6183 -11.6029 -11.5876 -11.5698 -11.5551 -11.5367 -11.5183 -11.4988 -11.476 -11.459 -11.4407 -11.4189 -11.3926 -11.366 -11.3454 -11.3248 -11.2994 -11.2684 -11.2374 -11.2124 -11.1852 -11.1547 -11.1232 -11.0872 -11.0562 -11.0204 -10.9846 -10.9489 -10.9186 -10.9173 -10.916 -10.9147 -10.9134 -10.9119 -10.8709 -10.8297 -10.7886 -10.7476 -10.7002 -10.659 -10.6134 -10.5653 -10.5111 -10.4552 -10.4063 -10.3575 -10.3017 -10.2371 -10.1725 -10.1146 -10.0501 -9.98336 -9.91679 -9.84746 -9.83526 -9.82146 -9.80748 -9.79351 -9.78001 -9.71877 -9.65771 -9.59685 -9.53538 -9.46626 -9.38888 -9.30895 -9.2231 -9.12737 -9.03141 -8.942 -8.84981 -8.7499 -8.65032 -8.54307 -8.51058 -8.47577 -8.43982 -8.40391 -8.37035 -8.29663 -8.22317 -8.14995 -8.07419 -7.99279 -7.88101 -7.76976 -7.64902 -7.52091 -7.39194 -7.29696 -7.19853 -7.09641 -6.99469 -6.90933 -6.87837 -6.84745 -6.81659 -6.78415 -6.75038 -6.62064 -6.48601 -6.3519 -6.20678 -6.05992 -5.95603 -5.85101 -5.74205 -5.63365 -5.5426 -5.50355 -5.46459 -5.42572 -5.38457 -5.34254 -5.19917 -5.05647 -4.90948 -4.75741 -4.60209 -4.54798 -4.49398 -4.4375 -4.38119 -4.32932 -4.23404 -4.13931 -4.04512 -3.94561 -3.84411 -3.72148 -3.59977 -3.47444 -3.34964 -3.24441 -3.21142 -3.1785 -3.1454 -3.11065 -3.07561 -2.92124 -2.76815 -2.61329 -2.45768 -2.29594 -2.28754 -2.27914 -2.2707 -2.26224 -2.25386 -2.10404 -1.95517 -1.80686 -1.65828 -1.50366 -1.47015 -1.4367 -1.40347 -1.3704 -1.33835 -1.21251 -1.08717 -0.96237 -0.838072 -0.709512 -0.660614 -0.611802 -0.56353 -0.515654 -0.46946 -0.35776 -0.246337 -0.137273 -0.030652 0.0789592 0.125542 0.17207 0.217536 0.261749 0.304802 0.417695 0.530415 0.641003 0.749979 0.861335 0.896019 0.930686 0.964917 0.998458 1.03156 1.15624 1.28082 1.40035 1.51689 1.63504 1.65357 1.67211 1.69023 1.70758 1.72486 1.86195 1.99903 2.13373 2.26723 2.40064 2.40096 2.40128 2.40159 2.4019 2.40221 2.53771 2.67316 2.80395 2.9255 3.05096 3.06845 3.08595 3.10355 3.12121 3.1388 3.24996 3.36114 3.47294 3.5858 3.70609 3.73692 3.76775 3.79558 3.82113 3.8464 3.95412 4.06187 4.16101 4.24909 4.34593 4.37408 4.40222 4.43191 4.46346 4.49449 4.58886 4.68297 4.78364 4.8895 5.01333 5.03126 5.04917 5.06528 5.07709 5.08879 5.21487 5.34075 5.44043 5.51598 5.58582 5.59991 5.614 5.62312 5.63175 5.64066 5.70612 5.77129 5.83749 5.93672 6.03053 6.06663 6.10435 6.16493 6.22509 6.3001 6.32415 6.34814 6.37205 6.38117 6.38553 6.48349 6.56969 6.63152 6.63378 6.63471 6.70048 6.73943 6.74985 6.76038 6.77335 6.77585 6.77835 6.78085 6.78697 6.80001 6.7898 6.79348 6.79702 6.83416 6.90765 6.85944 6.80936 6.81155 6.8664 6.92074 6.85552 6.83412 6.83132 6.82824 6.84431 6.82032 6.81442 6.8087 6.80296 6.79645 6.78509 6.77357 6.76188 6.75003 6.67777 6.69716 6.66836 6.6355 6.55032 6.42964 6.4327 6.43673 6.37484 6.24511 6.11276 6.10337 6.08132 5.99858 5.8871 5.74907 5.7329 5.66195 5.57899 5.49605 5.36984 5.33369 5.258 5.1823 5.1066 5.01437 4.96865 4.90812 4.84754 4.78694 4.72398 4.71792 4.71015 4.70238 4.69461 4.68459 4.65423 4.62394 4.59371 4.56356 4.54247 4.52518 4.51802 4.51105 4.50425 4.50493 4.51565 4.5341 4.55264 4.56382 4.58052 4.59721 4.6139 4.63058 4.64076 4.71219 4.7784 4.8445 4.91047 4.95386 5.06112 5.15664 5.25177 5.34651 5.40557 5.52837 5.64228 5.75116 5.84433 5.93039 6.05673 6.18189 6.29619 6.3914 6.4867 6.59264 6.6907 6.78549 6.87977 6.95076 6.97207 6.99335 7.0146 7.03567 7.05656 7.17664 7.27815 7.37963 7.44767 7.50204 7.58513 7.65639 7.6833 7.70949 7.71839 7.72159 7.72268 7.72045 7.71818 7.71601 7.71776 7.7193 7.72059 7.68895 7.64088 7.62162 7.60007 7.55905 7.51126 7.50076 7.46342 7.42332 7.36991 7.31323 7.21262 7.20485 7.19705 7.18919 7.18112 7.17288 7.09968 7.02213 6.94249 6.85785 6.78701 6.70736 6.62247 6.53315 6.43568 6.34218 6.25273 6.1629 6.06341 5.95444 5.84772 5.74624 5.64474 5.53881 5.42908 5.31937 5.21246 5.1057 4.9989 4.88953 4.77768 4.66623 4.55768 4.45367 4.35101 4.24036 4.14998 4.06825 3.98847 3.91081 3.87969 3.84942 3.81954 3.79005 3.76232 3.73526 3.63692 3.54867 3.46701 3.40834 3.31932 3.29183 3.26669 3.25004 3.23943 3.23181 3.20795 3.19452 3.20598 3.2301 3.27721 3.30881 3.35505 3.40343 3.45379 3.57954 3.65838 3.74211 3.82749 3.91443 4.00355 4.09205 4.18886 4.28669 4.38581 4.48728 4.58754 4.68847 4.78791 4.89037 4.99448 5.06373 5.1341 5.20521 5.27646 5.33438 5.37072 5.40709 5.44349 5.48105 5.51999 5.62473 5.73073 5.83724 5.9408 6.04545 6.12315 6.20409 6.29105 6.37811 6.45627 6.48093 6.5056 6.53027 6.55615 6.58256 6.69649 6.80777 6.91484 7.00622 7.09824 7.15279 7.21 7.27821 7.34645 7.41182 7.45361 7.49541 7.53719 7.58883 7.64252 7.76312 7.88376 7.98146 8.07411 8.16578 8.16788 8.16999 8.17259 8.1753 8.17802 8.26987 8.36173 8.45623 8.56201 8.66769 8.70167 8.73564 8.76599 8.79517 8.82461 8.90149 8.97835 9.05469 9.12939 9.2038 9.25512 9.30642 9.35944 9.41313 9.46945 9.52068 9.5719 9.62156 9.6666 9.71143 9.789 9.86652 9.93487 9.99952 10.0705 10.0951 10.1196 10.1446 10.1713 10.1979 10.2843 10.3704 10.4615 10.5544 10.655 10.6576 10.6603 10.663 10.6658 10.6686 10.7593 10.8495 10.935 10.9948 11.0535 11.0906 11.1276 11.1517 11.1753 11.2018 11.2374 11.273 11.3084 11.354 11.4002 11.4464 11.4916 11.5533 11.6162 11.6832 11.6889 11.6953 11.7043 11.7132 11.723 11.768 11.8126 11.8568 11.8731 11.8771 11.9314 11.9858 11.9924 11.9928 11.9785 11.9926 11.9945 11.9896 11.9848 11.9795 11.9763 11.9731 11.9698 11.9708 11.9897 11.9448 11.9131 11.8876 11.8888 11.8988 11.8312 11.7619 11.7206 11.7079 11.6963 11.6063 11.5342 11.4751 11.416 11.378 11.3013 11.2463 11.1913 11.1364 11.0461 11.0283 11.0106 10.9928 10.975 10.9466 10.8563 10.7559 10.6555 10.5519 10.3904 10.2972 10.1904 10.0672 9.89521 9.7168 9.60586 9.49689 9.3308 9.10798 8.88379 8.72504 8.55626 8.36364 8.16245 7.94454 7.79247 7.55803 7.31188 7.06673 6.76148 6.50799 6.27073 6.03305 5.79501 5.56691 5.31175 4.9502 4.59031 4.23185 3.80633 3.46019 3.20548 2.95071 2.69589 2.50908 2.16877 1.64641 1.12295 0.598535 0