# vtk DataFile Version 2.0
track0
ASCII
DATASET POLYDATA
POINTS 11265 double
-0.0205 0.001 1e-05
-0.0204991 0.00100536 1e-05
-0.0204976 0.00101063 1e-05
-0.0204947 0.00101518 1e-05
-0.0204905 0.00101864 1e-05
-0.0204746 0.00102682 1e-05
-0.0201831 0.00105563 1e-05
-0.0203616 0.00128794 1e-05
-0.0204488 0.00141936 1e-05
-0.0201625 0.0014444 1e-05
-0.0201519 0.00173163 1e-05
-0.0202219 0.00184007 1e-05
-0.0200496 0.00193025 1e-05
-0.0200808 0.00212222 1e-05
-0.0201294 0.00229098 1e-05
-0.0200088 0.00238763 1e-05
-0.0199911 0.00254122 1e-05
-0.0200041 0.00269528 1e-05
-0.0199827 0.00277425 1e-05
-0.019869 0.00287784 1e-05
-0.0198179 0.00302292 1e-05
-0.0198054 0.00317623 1e-05
-0.0197599 0.00329221 1e-05
-0.0196347 0.00340323 1e-05
-0.0195486 0.00354672 1e-05
-0.0194776 0.00369829 1e-05
-0.019391 0.00384148 1e-05
-0.0193841 0.00384734 1e-05
-0.0193107 0.00390807 1e-05
-0.0192438 0.0039759 1e-05
-0.019179 0.0040457 1e-05
-0.0191112 0.00411263 1e-05
-0.0190172 0.00419779 1e-05
-0.0189564 0.00424669 1e-05
-0.0188939 0.00429331 1e-05
-0.0188297 0.00433761 1e-05
-0.0187639 0.0043796 1e-05
-0.0186584 0.00444232 1e-05
-0.0184262 0.00456523 1e-05
-0.0181851 0.00466946 1e-05
-0.0179369 0.00475565 1e-05
-0.0176828 0.00482199 1e-05
-0.0174976 0.00485355 1e-05
-0.0172058 0.00488427 1e-05
-0.0169124 0.00488602 1e-05
-0.0166199 0.00486367 1e-05
-0.0163297 0.00482048 1e-05
-0.0160387 0.00475639 1e-05
-0.0158292 0.00469358 1e-05
-0.0156234 0.00461967 1e-05
-0.0154217 0.00453504 1e-05
-0.0152229 0.00444393 1e-05
-0.0152197 0.00444232 1e-05
-0.0151033 0.00438406 1e-05
-0.0149898 0.00432055 1e-05
-0.0148794 0.00425171 1e-05
-0.0147714 0.00417927 1e-05
-0.0146381 0.00408404 1e-05
-0.0145772 0.0040367 1e-05
-0.0145171 0.00398826 1e-05
-0.0144579 0.00393871 1e-05
-0.0143997 0.00388804 1e-05
-0.0143538 0.00384734 1e-05
-0.0142297 0.00373631 1e-05
-0.0141121 0.00361838 1e-05
-0.014002 0.00349339 1e-05
-0.0138979 0.0033634 1e-05
-0.0138435 0.00329221 1e-05
-0.0137663 0.00318862 1e-05
-0.0136966 0.00307983 1e-05
-0.0136333 0.00296725 1e-05
-0.0135738 0.00285261 1e-05
-0.0135366 0.00277425 1e-05
-0.0134935 0.0026776 1e-05
-0.0134576 0.00257807 1e-05
-0.0134256 0.00247718 1e-05
-0.0133983 0.00237497 1e-05
-0.0133802 0.00229098 1e-05
-0.0133652 0.0022008 1e-05
-0.0133561 0.00210982 1e-05
-0.0133523 0.00201846 1e-05
-0.0133546 0.00192705 1e-05
-0.0133631 0.00184007 1e-05
-0.0133778 0.00175593 1e-05
-0.0134003 0.0016735 1e-05
-0.0134296 0.00159326 1e-05
-0.0134659 0.00151595 1e-05
-0.0135224 0.00141936 1e-05
-0.0135798 0.00134085 1e-05
-0.0136482 0.00127163 1e-05
-0.0137223 0.00120864 1e-05
-0.0138009 0.00115139 1e-05
-0.0139946 0.00102682 1e-05
-0.0141233 0.000957336 1e-05
-0.0142588 0.000902224 1e-05
-0.0143975 0.000855969 1e-05
-0.0145369 0.000811761 1e-05
-0.0146381 0.000781371 1e-05
-0.0147218 0.00075721 1e-05
-0.014806 0.000734383 1e-05
-0.0148904 0.000712685 1e-05
-0.0149753 0.000693 1e-05
-0.0151485 0.000660566 1e-05
-0.0153265 0.000637977 1e-05
-0.015505 0.000618813 1e-05
-0.0156837 0.000602312 1e-05
-0.0158625 0.000587806 1e-05
-0.0160387 0.000568106 1e-05
-0.016283 0.000518253 1e-05
-0.0165311 0.000493521 1e-05
-0.0167801 0.000482472 1e-05
-0.0170293 0.000475657 1e-05
-0.0174976 0.000406275 1e-05
-0.0174976 0.000406275 1e-05
-0.0174976 0.000406275 1e-05
-0.0174976 0.000406275 1e-05
-0.0174976 0.000406275 1e-05
-0.0174976 0.000406275 1e-05
-0.0174951 0.000388788 1e-05
-0.0174897 0.00037198 1e-05
-0.0174821 0.000356089 1e-05
-0.0174727 0.000341144 1e-05
-0.0174557 0.000318841 1e-05
-0.0173838 0.000255072 1e-05
-0.0172967 0.000214399 1e-05
-0.0172047 0.000186605 1e-05
-0.0171106 0.000167064 1e-05
-0.0160387 4.4592e-06 1e-05
-0.0160287 3.56736e-06 1e-05
-0.0160188 3.11152e-06 1e-05
-0.0160088 2.69753e-06 1e-05
-0.0159989 2.28354e-06 1e-05
-0.0159439 0 1e-05
-0.0205 0.00367778 1e-05
-0.0203955 0.00371169 1e-05
-0.0203045 0.0037732 1e-05
-0.0202171 0.00383976 1e-05
-0.0201979 0.00384734 1e-05
-0.0199618 0.00393431 1e-05
-0.019766 0.00409242 1e-05
-0.0196201 0.00429749 1e-05
-0.0194752 0.00444232 1e-05
-0.0193836 0.00449614 1e-05
-0.0192963 0.00455663 1e-05
-0.0192132 0.00462285 1e-05
-0.0191277 0.00468596 1e-05
-0.0190172 0.00476144 1e-05
-0.0189141 0.00482515 1e-05
-0.0188083 0.00488434 1e-05
-0.0187001 0.00493906 1e-05
-0.0185899 0.00498945 1e-05
-0.0183685 0.00508 1e-05
-0.0181943 0.00513501 1e-05
-0.0180181 0.00518306 1e-05
-0.0178401 0.0052243 1e-05
-0.0176607 0.00525861 1e-05
-0.0174976 0.00528161 1e-05
-0.0172058 0.00530952 1e-05
-0.0169127 0.00531437 1e-05
-0.0166201 0.00529738 1e-05
-0.0163294 0.0052602 1e-05
-0.0160387 0.00520523 1e-05
-0.0159404 0.00518018 1e-05
-0.0158426 0.00515315 1e-05
-0.0157453 0.0051242 1e-05
-0.0156485 0.00509404 1e-05
-0.0156053 0.00508 1e-05
-0.0154119 0.00501581 1e-05
-0.0152218 0.00494219 1e-05
-0.0150358 0.00485877 1e-05
-0.0148542 0.00476632 1e-05
-0.0146381 0.00464658 1e-05
-0.0145718 0.00460572 1e-05
-0.0145061 0.00456399 1e-05
-0.0144409 0.00452136 1e-05
-0.0143763 0.00447793 1e-05
-0.0143238 0.00444232 1e-05
-0.0141503 0.00432332 1e-05
-0.0139833 0.00419531 1e-05
-0.013824 0.00405779 1e-05
-0.0136694 0.00391504 1e-05
-0.013599 0.00384734 1e-05
-0.0135379 0.00378744 1e-05
-0.0134789 0.00372547 1e-05
-0.0134214 0.0036621 1e-05
-0.0133647 0.00359794 1e-05
-0.0132934 0.00351478 1e-05
-0.0132568 0.00347027 1e-05
-0.0132205 0.00342538 1e-05
-0.0131848 0.00338013 1e-05
-0.0131495 0.00333448 1e-05
-0.0131174 0.00329221 1e-05
-0.0130393 0.00318862 1e-05
-0.0129631 0.0030836 1e-05
-0.0128897 0.00297659 1e-05
-0.0128196 0.00286744 1e-05
-0.0127622 0.00277425 1e-05
-0.0127045 0.0026776 1e-05
-0.0126482 0.00258012 1e-05
-0.0125934 0.00248176 1e-05
-0.0125401 0.0023826 1e-05
-0.0124933 0.00229098 1e-05
-0.0124496 0.0022008 1e-05
-0.0124063 0.00211048 1e-05
-0.0123632 0.00202004 1e-05
-0.0123203 0.00192948 1e-05
-0.0122793 0.00184007 1e-05
-0.0122443 0.00175593 1e-05
-0.0122077 0.00167242 1e-05
-0.0121699 0.00158949 1e-05
-0.0121306 0.00150725 1e-05
-0.0120863 0.00141936 1e-05
-0.0120695 0.00138714 1e-05
-0.0120515 0.00135562 1e-05
-0.0120324 0.00132475 1e-05
-0.0120122 0.0012946 1e-05
-0.0120025 0.00128133 1e-05
-0.0119641 0.00123042 1e-05
-0.0119223 0.00118215 1e-05
-0.0118774 0.00113686 1e-05
-0.0118294 0.00109488 1e-05
-0.0117391 0.00102682 1e-05
-0.0116236 0.000953567 1e-05
-0.0115002 0.000894573 1e-05
-0.0113723 0.000846345 1e-05
-0.0112414 0.000806532 1e-05
-0.0107632 0.000722289 1e-05
-0.0105252 0.000731002 1e-05
-0.0102871 0.000726684 1e-05
-0.010049 0.000724315 1e-05
-0.00981091 0.000723133 1e-05
-0.00957337 0.0007227 1e-05
-0.00934491 0.000732187 1e-05
-0.00911628 0.000728613 1e-05
-0.00888764 0.000726166 1e-05
-0.00865899 0.000724492 1e-05
-0.00843108 0.00072336 1e-05
-0.00821175 0.000732423 1e-05
-0.00799227 0.000728365 1e-05
-0.00777278 0.000725326 1e-05
-0.00755327 0.000723022 1e-05
-0.00733443 0.000721256 1e-05
-0.00712387 0.000729682 1e-05
-0.00691317 0.000725525 1e-05
-0.00670246 0.000722288 1e-05
-0.00649174 0.000719734 1e-05
-0.0062816 0.000717694 1e-05
-0.00607944 0.000725414 1e-05
-0.00587718 0.000721521 1e-05
-0.0056749 0.000718419 1e-05
-0.00547262 0.000715916 1e-05
-0.00527083 0.000713875 1e-05
-0.00507675 0.000720895 1e-05
-0.00488258 0.000717405 1e-05
-0.0046884 0.000714574 1e-05
-0.00449421 0.000712255 1e-05
-0.00430044 0.000710337 1e-05
-0.00411412 0.00071671 1e-05
-0.00392771 0.000713643 1e-05
-0.0037413 0.000711117 1e-05
-0.00355488 0.000709017 1e-05
-0.00336883 0.000707257 1e-05
-0.00318995 0.000713039 1e-05
-0.003011 0.00071034 1e-05
-0.00283204 0.000708095 1e-05
-0.00265308 0.000706212 1e-05
-0.00247443 0.000704622 1e-05
-0.0023027 0.000709898 1e-05
-0.0021309 0.000707563 1e-05
-0.0019591 0.000705603 1e-05
-0.0017873 0.000703947 1e-05
-0.00161577 0.00070254 1e-05
-0.0014509 0.000707399 1e-05
-0.00128597 0.000705445 1e-05
-0.00112104 0.000703874 1e-05
-0.000956098 0.000702616 1e-05
-0.000791418 0.000701617 1e-05
-0.000633135 0.000706455 1e-05
-0.000474782 0.000705158 1e-05
-0.000316427 0.000704364 1e-05
-0.00015807 0.000703987 1e-05
0 0.000703957 1e-05
0.000105677 0.000708007 1e-05
0.000211432 0.000708148 1e-05
0.000317187 0.000708447 1e-05
0.000422941 0.000708888 1e-05
0.000528387 0.000709453 1e-05
0.000634886 0.000713944 1e-05
0.000741479 0.000714466 1e-05
0.000848071 0.000714967 1e-05
0.000954664 0.000715449 1e-05
0.00106088 0.000715912 1e-05
0.00116821 0.000720239 1e-05
0.00127562 0.000720836 1e-05
0.00138303 0.00072148 1e-05
0.00149045 0.000722164 1e-05
0.00159752 0.000722885 1e-05
0.00170568 0.000727412 1e-05
0.00181393 0.000728506 1e-05
0.00192218 0.000729707 1e-05
0.00203043 0.000731007 1e-05
0.00213833 0.000732394 1e-05
0.00224733 0.00073758 1e-05
0.00235644 0.000739546 1e-05
0.00246554 0.000741645 1e-05
0.00257464 0.00074387 1e-05
0.00268334 0.000746204 1e-05
0.00279319 0.000752405 1e-05
0.00290317 0.000755439 1e-05
0.00301315 0.000758606 1e-05
0.00312313 0.000761899 1e-05
0.00323259 0.000765387 1e-05
0.00334329 0.000772801 1e-05
0.00345415 0.000777442 1e-05
0.00356501 0.000781765 1e-05
0.00367588 0.000786213 1e-05
0.00378611 0.000791621 1e-05
0.00389767 0.000800377 1e-05
0.00400939 0.000806941 1e-05
0.00412116 0.000812498 1e-05
0.00423292 0.000818177 1e-05
0.00434393 0.000825519 1e-05
0.00445636 0.000835694 1e-05
0.00456893 0.000844191 1e-05
0.00468161 0.000851122 1e-05
0.00479428 0.000858194 1e-05
0.00490609 0.000867445 1e-05
0.0050194 0.000879057 1e-05
0.00513282 0.000889418 1e-05
0.00524636 0.000898521 1e-05
0.00535987 0.000907878 1e-05
0.00547262 0.000918947 1e-05
0.00558681 0.00093196 1e-05
0.0057011 0.000944048 1e-05
0.00581547 0.000955317 1e-05
0.0059298 0.000966968 1e-05
0.00604356 0.000979714 1e-05
0.00615863 0.000994051 1e-05
0.00627379 0.00100772 1e-05
0.00638894 0.00102145 1e-05
0.00650404 0.00103553 1e-05
0.00661893 0.00104995 1e-05
0.00670486 0.00106147 1e-05
0.0067908 0.00107283 1e-05
0.00687673 0.00108435 1e-05
0.00696263 0.00109604 1e-05
0.00704593 0.00110753 1e-05
0.0070765 0.00111181 1e-05
0.00710707 0.00111611 1e-05
0.00713763 0.00112043 1e-05
[...]
POINT_DATA 11265
 FIELD attributes 1
U 3 11265 float
1.13299 	6.39884 	0 1.59187 	5.97925 	0 3.06066 	4.6599 	0 4.29071 	3.52875 	0 5.18158 	2.68004 	0 7.15406 	0.707106 	0 -4.22519 	5.50171 	0 -5.18611 	7.8109 	0 7.56535 	0.661798 	0 0.171578 	4.6663 	0 -9.04906 	14.0256 	0 5.93251 	3.10454 	0 -2.52815 	15.5165 	0 -6.42009 	22.2979 	0 7.16731 	5.74113 	0 1.97854 	17.2213 	0 -2.24837 	26.6782 	0 4.2933 	15.8507 	0 9.07768 	8.27019 	0 6.22524 	17.6658 	0 2.39208 	29.3755 	0 7.49011 	19.1148 	0 11.9523 	10.597 	0 10.9791 	18.2855 	0 10.8658 	23.2134 	0 12.8655 	21.2661 	0 16.0841 	13.7044 	0 16.2328 	13.4318 	0 16.3934 	16.6294 	0 16.8108 	18.101 	0 17.5802 	17.361 	0 18.3622 	16.6192 	0 19.4189 	15.6305 	0 20.185 	15.0468 	0 20.9596 	14.4657 	0 21.7415 	13.8879 	0 22.0871 	13.1242 	0 22.0712 	11.685 	0 24.273 	10.4921 	0 26.355 	9.15342 	0 27.0764 	7.06696 	0 27.231 	4.64002 	0 27.3578 	2.88094 	0 28.0773 	0.167348 	0 28.3341 	-2.16475 	0 28.2616 	-4.20662 	0 27.2055 	-5.99173 	0 25.8116 	-7.73963 	0 25.2024 	-9.04871 	0 24.562 	-10.308 	0 23.3536 	-10.7015 	0 22.1349 	-11.071 	0 22.1146 	-11.0767 	0 21.4873 	-12.0211 	0 20.8632 	-13.0113 	0 20.0252 	-13.4256 	0 19.1162 	-13.6568 	0 17.9699 	-13.9609 	0 17.5327 	-14.1384 	0 17.0942 	-14.3191 	0 16.6544 	-14.5031 	0 16.3218 	-14.4519 	0 16.0728 	-14.3772 	0 14.8176 	-14.8636 	0 13.5203 	-15.3559 	0 12.3312 	-15.397 	0 11.4587 	-14.9746 	0 10.9848 	-14.7471 	0 9.65776 	-15.0827 	0 8.54708 	-15.1952 	0 7.77325 	-14.9737 	0 6.96001 	-14.6559 	0 6.36781 	-14.2898 	0 5.15846 	-14.2843 	0 4.41371 	-13.9474 	0 3.64693 	-13.6207 	0 2.85693 	-13.3059 	0 2.16766 	-12.9668 	0 1.25954 	-12.6069 	0 0.499002 	-12.1966 	0 -0.292127 	-11.8003 	0 -1.11424 	-11.4214 	0 -1.93507 	-11.0387 	0 -2.86982 	-10.5416 	0 -3.683 	-10.0782 	0 -4.5312 	-9.64408 	0 -5.40965 	-9.24401 	0 -6.42022 	-8.78149 	0 -8.00544 	-8.11029 	0 -8.97624 	-7.63271 	0 -9.92663 	-7.22754 	0 -10.7177 	-6.89284 	0 -11.6252 	-6.27605 	0 -13.1426 	-5.34635 	0 -14.0342 	-4.6785 	0 -13.1744 	-4.1774 	0 -12.3569 	-3.71231 	0 -11.7983 	-3.40339 	0 -12.3992 	-3.3642 	0 -13.0323 	-3.34925 	0 -13.85 	-3.21044 	0 -15.034 	-2.8161 	0 -17.5184 	-2.22258 	0 -18.2269 	-1.95755 	0 -19.2678 	-1.77905 	0 -20.5665 	-1.6678 	0 -19.9111 	-2.22701 	0 -16.3468 	-3.33607 	0 -24.5104 	-2.44349 	0 -37.1326 	-1.64718 	0 -49.5324 	-1.3546 	0 -35.3562 	-5.23911 	0 1.81205 	-13.0836 	0 1.81205 	-13.0836 	0 1.81205 	-13.0836 	0 1.81205 	-13.0836 	0 1.81205 	-13.0836 	0 1.81205 	-13.0836 	0 4.21302 	-13.1211 	0 6.3433 	-13.1077 	0 8.20757 	-13.0534 	0 9.83566 	-12.9674 	0 14.8278 	-13.1454 	0 23.0783 	-10.7772 	0 30.0044 	-9.06268 	0 38.013 	-7.89227 	0 46.6089 	-7.07051 	0 0.354462 	-0.0318245 	0 1.19008 	-0.0544504 	0 1.49469 	-0.0620977 	0 1.29582 	-0.0538356 	0 1.09695 	-0.0455734 	0 0 	0 	0
9.83305 	3.19117 	0 9.6586 	6.52582 	0 10.0783 	7.67568 	0 11.816 	4.68119 	0 12.061 	4.44157 	0 12.9629 	10.4686 	0 13.4052 	18.8461 	0 15.3411 	15.334 	0 17.3401 	10.1873 	0 17.853 	12.3622 	0 18.3302 	14.6078 	0 18.9082 	13.9588 	0 19.5036 	13.3197 	0 20.2745 	12.5279 	0 21.1499 	11.8341 	0 22.049 	11.1574 	0 22.9692 	10.4983 	0 23.0569 	9.43091 	0 23.1846 	7.32237 	0 24.2108 	6.60062 	0 25.2173 	5.8439 	0 26.0673 	4.98401 	0 26.099 	3.67943 	0 26.1683 	2.50347 	0 26.7788 	0.443332 	0 27.5067 	-1.59681 	0 27.2085 	-3.47989 	0 26.2666 	-4.96714 	0 25.3067 	-6.44654 	0 25.1428 	-6.95178 	0 24.9597 	-7.4288 	0 24.5393 	-7.64063 	0 24.1207 	-7.84962 	0 23.9343 	-7.94177 	0 23.2948 	-9.02443 	0 22.7001 	-10.1825 	0 22.013 	-11.2042 	0 20.8981 	-11.5784 	0 19.5683 	-12.059 	0 19.2604 	-12.2286 	0 18.9546 	-12.4013 	0 18.6622 	-12.5374 	0 18.4178 	-12.5125 	0 18.2198 	-12.4927 	0 17.0615 	-13.0776 	0 15.8955 	-13.7261 	0 14.964 	-13.8157 	0 14.1111 	-13.562 	0 13.7157 	-13.4452 	0 13.0568 	-13.7148 	0 12.5274 	-13.8067 	0 12.12 	-13.7312 	0 11.7106 	-13.6595 	0 11.1837 	-13.5729 	0 10.9388 	-13.5525 	0 10.6926 	-13.5338 	0 10.445 	-13.5167 	0 10.2286 	-13.4737 	0 10.0914 	-13.3817 	0 9.61046 	-13.2461 	0 8.93742 	-13.0368 	0 8.24809 	-12.8345 	0 7.70184 	-12.5149 	0 7.28883 	-12.2055 	0 6.90277 	-11.9474 	0 6.51061 	-11.6929 	0 6.09256 	-11.3321 	0 5.55486 	-10.8623 	0 5.05009 	-10.4352 	0 4.82586 	-10.049 	0 4.60398 	-9.66185 	0 4.38701 	-9.27297 	0 4.06521 	-8.85531 	0 3.48569 	-8.37405 	0 3.47967 	-7.95521 	0 3.40128 	-7.46359 	0 3.33056 	-6.97117 	0 3.26894 	-6.47796 	0 3.0582 	-5.88055 	0 3.22976 	-5.65351 	0 3.37566 	-5.45462 	0 3.52761 	-5.25743 	0 3.68568 	-5.06228 	0 3.75993 	-4.97514 	0 3.98402 	-4.61022 	0 4.21939 	-4.25165 	0 4.46553 	-3.90144 	0 4.72157 	-3.56159 	0 5.30495 	-3.36466 	0 6.46874 	-3.09291 	0 7.55174 	-2.84589 	0 8.57672 	-2.60983 	0 10.2348 	-1.80291 	0 15.2547 	0.558581 	0 15.3155 	-0.277804 	0 16.13 	-0.160418 	0 16.8972 	-0.0838759 	0 17.6355 	-0.032172 	0 18.8674 	0.783525 	0 18.7334 	-0.292864 	0 19.2674 	-0.206197 	0 19.7764 	-0.144784 	0 20.2682 	-0.100685 	0 21.1811 	0.875181 	0 20.9488 	-0.387318 	0 21.3433 	-0.295462 	0 21.7165 	-0.228007 	0 22.0744 	-0.178119 	0 22.7882 	0.911955 	0 22.5233 	-0.444426 	0 22.8379 	-0.350817 	0 23.134 	-0.280448 	0 23.4163 	-0.227301 	0 24.005 	0.916725 	0 23.7277 	-0.456654 	0 23.9872 	-0.367892 	0 24.231 	-0.299831 	0 24.4628 	-0.247467 	0 24.9724 	0.903386 	0 24.6853 	-0.443798 	0 24.9034 	-0.362961 	0 25.1082 	-0.299866 	0 25.3029 	-0.250492 	0 25.7624 	0.881139 	0 25.4669 	-0.418964 	0 25.6514 	-0.347576 	0 25.8249 	-0.290936 	0 25.9898 	-0.245909 	0 26.4145 	0.85382 	0 26.1116 	-0.39375 	0 26.2748 	-0.329658 	0 26.4284 	-0.278063 	0 26.5746 	-0.236459 	0 26.9807 	0.828851 	0 26.6708 	-0.362442 	0 26.8178 	-0.305972 	0 26.9568 	-0.259872 	0 27.0893 	-0.222188 	0 27.4838 	0.80991 	0 27.1626 	-0.321705 	0 27.3235 	-0.260347 	0 27.4757 	-0.209587 	0 27.6208 	-0.167523 	0 28.046 	0.857259 	0 27.6762 	-0.22672 	-2.49659e-22 27.8557 	-0.139655 	-9.30169e-22 28.0224 	-0.0666731 	-1.6061e-21 28.1784 	-0.00536306 	-2.27823e-21 28.6856 	1.0995 	2.66814e-21 28.2678 	0.0376404 	-3.80532e-20 28.4102 	0.0803881 	-3.15107e-20 28.5483 	0.118898 	-2.51064e-20 28.6825 	0.153629 	-1.88252e-20 29.2433 	1.23312 	2.3419e-20 28.7817 	0.140939 	1.40166e-20 28.886 	0.135772 	1.16584e-20 28.9909 	0.131136 	9.30441e-21 29.0964 	0.126979 	6.95434e-21 29.6642 	1.19587 	6.92166e-21 29.1902 	0.162361 	7.68993e-21 29.2707 	0.175272 	-8.4623e-22 29.3499 	0.187132 	-9.38064e-21 29.428 	0.198033 	-1.79135e-20 29.9814 	1.25497 	-2.45101e-20 29.5182 	0.298304 	-1.89447e-20 29.5827 	0.328235 	-1.45456e-20 29.6443 	0.355982 	-1.01366e-20 29.7032 	0.381714 	-5.71839e-21 30.2447 	1.43899 	-1.95819e-20 29.7823 	0.536484 	-4.00928e-20 29.8269 	0.574011 	-3.82136e-20 29.868 	0.609164 	-3.64159e-20 29.9059 	0.6421 	-3.46946e-20 30.4494 	1.71876 	-5.7014e-22 29.9878 	0.827258 	4.37244e-21 30.0053 	0.8641 	9.87262e-21 30.0195 	0.898927 	1.5358e-20 30.0431 	0.95739 	2.09779e-20 30.566 	2.04692 	3.2566e-20 30.1771 	1.26333 	9.26034e-20 30.1056 	1.17409 	1.01323e-19 30.0872 	1.20716 	1.0098e-19 30.1772 	1.48029 	8.22212e-20 30.548 	2.39761 	1.39242e-20 30.277 	1.77909 	-4.89713e-20 30.1278 	1.49788 	-8.53251e-20 30.0742 	1.52795 	-9.7108e-20 30.1897 	1.99683 	-7.00688e-20 30.391 	2.75028 	-1.74905e-20 30.2481 	2.28326 	-1.09568e-20 30.1317 	1.85346 	-4.75143e-21 30.0466 	1.88578 	-2.59064e-21 30.1031 	2.49071 	-2.79445e-20 30.128 	3.08784 	-5.36606e-20 30.1187 	2.75103 	-5.13781e-20 30.127 	2.41565 	-4.87783e-20 30.0768 	2.47919 	-4.48311e-20 29.9454 	2.9399 	-3.99879e-20 29.794 	3.39529 	-3.54178e-20 29.9118 	3.16361 	-2.41044e-20 30.0289 	2.95881 	-1.27604e-20 30.0167 	3.05894 	-2.542e-21 29.7856 	3.33732 	-1.0987e-21 29.4741 	3.67205 	-2.53165e-21 29.7087 	3.52607 	-5.5383e-22 29.7414 	3.54673 	0 29.6915 	3.63268 	0 29.6371 	3.71916 	0 29.2626 	3.92408 	-1.14097e-21 29.4405 	3.89059 	-3.54399e-21 29.3866 	3.94018 	-1.88299e-20 29.3309 	3.98991 	-3.41489e-20 29.2733 	4.03979 	-4.95015e-20 29.2158 	4.0883 	-6.44252e-20 29.1977 	4.10664 	-6.82133e-20 29.1794 	4.125 	-7.19965e-20 29.1608 	4.14338 	-7.57747e-20 29.1421 	4.16178 	-7.95479e-20 29.122 	4.13406 	-8.62841e-20 29.0889 	4.22147 	-1.12273e-19 29.0135 	4.27003 	-1.23086e-19 28.9362 	4.31874 	-1.34069e-19 28.8569 	4.3676 	-1.45221e-19 28.7014 	4.23565 	-8.10199e-20 28.8225 	4.37602 	6.18399e-20 28.8335 	4.45525 	1.57296e-19 28.7539 	4.48385 	2.13412e-19 28.5566 	4.39403 	1.43968e-19 28.3308 	4.27404 	4.24042e-20 28.5144 	4.38089 	1.5342e-19 28.6955 	4.48739 	2.64316e-19 28.6593 	4.48557 	2.61623e-19 28.3667 	4.36951 	1.43729e-19 28.0749 	4.25333 	2.55491e-20 28.3123 	4.32969 	7.40568e-21 28.4244 	4.35854 	-2.14771e-21 28.3819 	4.32863 	-1.0213e-21 28.3122 	4.29071 	0 27.9736 	4.17465 	0 28.1809 	4.20641 	2.09713e-22 28.1411 	4.16731 	1.23597e-21 28.1023 	4.12839 	2.26097e-21 28.0645 	4.08967 	3.28471e-21 28.0258 	4.04912 	4.36057e-21 28.0242 	4.047 	4.40472e-21 28.0225 	4.04488 	4.44888e-21 28.0209 	4.04276 	4.49304e-21 28.0193 	4.04064 	4.53721e-21 28.0144 	4.03916 	5.91357e-21 27.9893 	3.98902 	7.85243e-20 27.9574 	3.93863 	1.43258e-19 27.9266 	3.88842 	2.07617e-19 27.897 	3.83839 	2.716e-19 27.7811 	3.79265 	1.26551e-19 27.9159 	3.74219 	1.03539e-19 27.8949 	3.67979 	6.80701e-20 27.8661 	3.61688 	3.19947e-20 27.771 	3.55356 	-9.88271e-21 27.5932 	3.48985 	-5.88831e-20 27.7582 	3.43068 	-2.54078e-19 27.9143 	3.37082 	-4.41599e-19 27.8741 	3.29539 	-4.83613e-19 27.6644 	3.21526 	-2.76558e-19 27.4566 	3.13552 	-7.02158e-20 27.6473 	3.06662 	-3.98388e-20 27.8402 	2.99795 	-9.58707e-21 27.8311 	2.91945 	0 27.5972 	2.82602 	0 27.3655 	2.73303 	0 27.5752 	2.6532 	0 27.7473 	2.57236 	0 27.7294 	2.48599 	0 27.554 	2.38798 	-3.0876e-20 27.3052 	2.28482 	-7.64214e-20 27.527 	2.19302 	-2.15733e-20 27.6024 	2.09874 	-4.52976e-20 27.5837 	2.00288 	-1.19872e-19 27.5164 	1.90408 	-2.03913e-19 27.2567 	1.79396 	-3.24486e-19 27.4837 	1.68921 	-2.06483e-19 27.4746 	1.58486 	-2.06267e-19 27.4552 	1.48061 	-2.11961e-19 27.4389 	1.37642 	-2.16959e-19 27.2013 	1.26334 	-4.00085e-19 27.3804 	1.14644 	-7.43293e-19 27.3569 	1.03498 	-5.74253e-19 27.3365 	0.923516 	-4.08928e-19 27.3194 	0.812045 	-2.47334e-19 27.1234 	0.697472 	2.84105e-19 27.2677 	0.570781 	2.85755e-19 27.2428 	0.453694 	2.83591e-19 27.2213 	0.336502 	2.80513e-19 27.2032 	0.219204 	2.76516e-19 27.0139 	0.103195 	4.17135e-19 27.1531 	-0.0321843 	2.51127e-19 27.1269 	-0.154045 	1.71998e-19 27.1042 	-0.276112 	9.23968e-20 27.0851 	-0.398385 	1.23237e-20 26.8723 	-0.515639 	5.33876e-20 27.036 	-0.662158 	1.64169e-22 27.0083 	-0.788249 	2.51849e-21 26.9844 	-0.914657 	4.85638e-21 26.9384 	-1.04019 	-3.73118e-21 26.7043 	-1.15737 	-9.33022e-20 26.8545 	-1.30962 	-7.05153e-19 26.8835 	-1.44629 	-9.4281e-19 26.8586 	-1.57599 	-1.01053e-18 26.7354 	-1.70021 	-7.30394e-19 26.5227 	-1.81981 	-1.33345e-19 26.6456 	-1.97159 	-6.17411e-20 26.7608 	-2.12231 	4.01044e-21 26.7253 	-2.25363 	0 26.5329 	-2.37726 	0 26.3431 	-2.50188 	0 26.4398 	-2.6521 	0 26.5397 	-2.8028 	0 26.5121 	-2.94602 	2.20005e-20 26.3416 	-3.07329 	5.04689e-20 26.1739 	-3.20188 	7.93112e-20 26.2419 	-3.3504 	7.02862e-19 26.2521 	-3.49715 	9.1228e-19 26.2033 	-3.64211 	6.99601e-19 26.1574 	-3.78766 	4.8177e-19 26.018 	-3.91926 	-2.10499e-19 26.0408 	-4.0139 	-5.65516e-19 26.004 	-4.10795 	-5.07704e-19 25.9687 	-4.20232 	-4.48194e-19 25.9348 	-4.29702 	-3.86983e-19 25.9089 	-4.37303 	-3.36656e-19 25.8961 	-4.42869 	-3.34433e-19 25.8837 	-4.48447 	-3.32056e-19 25.872 	-4.54038 	-3.29524e-19 25.855 	-4.59562 	-3.28607e-19 25.7674 	-4.6414 	-3.495e-19 25.8208 	-4.80957 	-2.40118e-19 25.7788 	-4.95683 	-1.06873e-19 25.7409 	-5.10516 	2.65054e-20 25.6165 	-5.24044 	1.23308e-19 25.4151 	-5.3659 	1.8897e-19 25.4727 	-5.53372 	4.7755e-19 25.5333 	-5.7024 	7.65583e-19 25.4904 	-5.85699 	7.55786e-19 25.3305 	-5.98722 	4.86445e-19 25.1639 	-6.11831 	1.96994e-19 25.1823 	-6.22084 	-5.88386e-20 25.1576 	-6.31838 	-8.77228e-20 25.1082 	-6.41317 	1.67986e-20 25.0602 	-6.50841 	1.22805e-19 25.0202 	-6.59056 	2.15092e-19 25.0025 	-6.65021 	2.67514e-19 24.9854 	-6.71005 	3.20358e-19 24.9688 	-6.77007 	3.73623e-19 24.9215 	-6.82219 	3.313e-19 24.8436 	-6.86689 	1.94864e-19 24.8805 	-7.04747 	1.28014e-19 24.873 	-7.2147 	7.06252e-20 24.8104 	-7.36628 	2.55079e-20 24.6298 	-7.48927 	9.38973e-21 24.4499 	-7.61596 	-7.67536e-21 24.4585 	-7.74097 	-3.96699e-20 24.4411 	-7.85993 	-8.10513e-20 24.3703 	-7.96626 	-1.40723e-19 24.3012 	-8.07324 	-2.00821e-19 24.2429 	-8.16613 	-2.53061e-19 24.2274 	-8.21336 	-2.80635e-19 24.2122 	-8.26073 	-3.08298e-19 24.1973 	-8.30822 	-3.36049e-19 24.1501 	-8.34465 	-2.88752e-19 24.0951 	-8.37881 	-2.23485e-19 24.0964 	-8.5591 	1.75105e-19 24.0988 	-8.74006 	5.71499e-19 24.0021 	-8.88607 	6.62831e-19 23.8318 	-9.00813 	4.08562e-19 23.6614 	-9.1349 	1.49401e-19 23.6551 	-9.19559 	1.46284e-19 23.6475 	-9.25593 	1.43147e-19 23.6071 	-9.30481 	1.38139e-19 23.5671 	-9.35387 	1.332e-19 23.5298 	-9.40024 	1.28615e-19 23.4895 	-9.50811 	8.50009e-20 23.451 	-9.61683 	4.12324e-20 23.4092 	-9.7245 	0 23.2933 	-9.80378 	0 23.1767 	-9.88531 	0 23.1535 	-10.012 	0 23.132 	-10.1395 	0 23.0473 	-10.2422 	0 22.9553 	-10.3422 	0 22.8749 	-10.4318 	0 22.8545 	-10.4816 	0 22.8345 	-10.5315 	0 22.8084 	-10.579 	0 22.7514 	-10.6134 	0 22.6942 	-10.6483 	0 22.6458 	-10.8188 	0 22.5997 	-10.9908 	0 22.4742 	-11.1299 	-3.07004e-20 22.3312 	-11.2622 	-6.89053e-20 22.2101 	-11.3768 	-1.01846e-19 22.2065 	-11.3849 	-1.0205e-19 22.2028 	-11.3929 	-1.02252e-19 22.1978 	-11.4003 	-1.01578e-19 22.1878 	-11.4053 	-9.75603e-20 22.1777 	-11.4104 	-9.35337e-20 22.1152 	-11.5824 	-1.54522e-19 22.0287 	-11.7429 	-1.93924e-19 21.9093 	-11.8888 	-1.42837e-19 21.7177 	-12.0019 	9.58258e-20 21.5226 	-12.122 	3.44469e-19 21.5102 	-12.1466 	3.38034e-19 21.4978 	-12.1713 	3.31641e-19 21.4783 	-12.1925 	3.48974e-19 21.4554 	-12.2122 	3.78008e-19 21.433 	-12.2315 	4.06525e-19 21.351 	-12.3673 	5.11734e-19 21.2717 	-12.5051 	6.18302e-19 21.1685 	-12.6307 	6.12236e-19 20.9889 	-12.7167 	2.68402e-19 20.805 	-12.8079 	-8.85485e-20 20.7762 	-12.86 	-7.51092e-20 20.7476 	-12.9124 	-6.18927e-20 20.702 	-12.9556 	-9.4523e-20 20.6476 	-12.9942 	-1.50927e-19 20.5956 	-13.0315 	-2.05379e-19 20.5246 	-13.1418 	-2.96724e-19 20.4553 	-13.2534 	-3.89185e-19 20.3625 	-13.3515 	-4.17566e-19 20.206 	-13.4122 	-2.76284e-19 20.0454 	-13.4763 	-1.30722e-19 19.9989 	-13.552 	-1.16166e-19 19.953 	-13.6283 	-1.0172e-19 19.8785 	-13.688 	-7.76713e-20 19.789 	-13.7389 	-4.85065e-20 19.705 	-13.7875 	-2.10368e-20 19.6433 	-13.8753 	1.56529e-20 19.5825 	-13.9639 	5.22493e-20 19.5006 	-14.0387 	8.11456e-20 19.3676 	-14.0798 	9.20699e-20 19.2313 	-14.1232 	1.03209e-19 19.1644 	-14.219 	6.77224e-20 19.0983 	-14.3156 	3.22436e-20 18.9929 	-14.3863 	-7.90643e-20 18.8657 	-14.4428 	-2.33007e-19 18.7477 	-14.4963 	-3.76793e-19 18.6949 	-14.5646 	-5.91827e-19 18.6427 	-14.6334 	-8.07459e-19 18.5721 	-14.6888 	-9.26119e-19 18.462 	-14.7153 	-8.38289e-19 18.3491 	-14.7431 	-7.48334e-19 18.2592 	-14.8544 	-1.09559e-18 18.1701 	-14.967 	-1.44155e-18 18.0311 	-15.0443 	-1.38375e-18 17.863 	-15.1014 	-1.08639e-18 17.7085 	-15.1552 	-8.09673e-19 17.6634 	-15.2073 	-7.24989e-19 17.6186 	-15.2598 	-6.40055e-19 17.5588 	-15.3 	-5.81113e-19 17.4703 	-15.3165 	-5.71928e-19 17.3797 	-15.3337 	-5.62269e-19 17.264 	-15.4583 	-1.05447e-18 17.1494 	-15.5844 	-1.5418e-18 16.9778 	-15.6659 	-1.3702e-18 16.7705 	-15.7197 	-7.78617e-19 16.5814 	-15.7705 	-2.30846e-19 16.5434 	-15.8104 	-1.39329e-19 16.5056 	-15.8506 	-4.75092e-20 16.4559 	-15.8797 	-1.89535e-20 16.3858 	-15.8901 	-9.68785e-20 16.3143 	-15.9009 	-1.76307e-19 16.1739 	-16.0368 	-8.20919e-20 16.0346 	-16.1747 	1.2937e-20 15.8352 	-16.2581 	4.60119e-20 15.5941 	-16.3039 	3.59349e-20 15.3753 	-16.3477 	2.75269e-20 15.3422 	-16.3804 	7.90575e-21 15.3093 	-16.4132 	-1.17079e-20 15.2662 	-16.4354 	-1.72362e-20 15.2086 	-16.4421 	-2.44708e-21 15.1497 	-16.4491 	1.26734e-20 14.9893 	-16.5919 	3.15469e-19 14.8301 	-16.7372 	6.15889e-19 14.6125 	-16.8194 	5.95269e-19 14.3481 	-16.8512 	3.15282e-19 14.1081 	-16.8826 	5.80914e-20 14.0753 	-16.914 	4.42927e-20 14.0426 	-16.9456 	3.04956e-20 14 	-16.9649 	2.80666e-20 13.9453 	-16.9692 	3.93279e-20 13.8895 	-16.9738 	5.08614e-20 13.7191 	-17.1152 	-2.17719e-19 13.5498 	-17.2594 	-4.8245e-19 13.3284 	-17.3367 	-4.26554e-19 13.0562 	-17.349 	-5.79167e-20 12.8074 	-17.3631 	2.83061e-19 12.7676 	-17.4007 	3.83835e-19 12.7279 	-17.4386 	4.84777e-19 12.676 	-17.458 	4.8256e-19 12.6121 	-17.4594 	3.79422e-19 12.5462 	-17.4611 	2.73049e-19 12.3792 	-17.5911 	3.50284e-19 12.2135 	-17.7239 	4.25839e-19 12.0056 	-17.7924 	4.0775e-19 11.7449 	-17.7798 	2.73072e-19 11.5037 	-17.7711 	1.46804e-19 11.4474 	-17.8222 	1.3338e-19 11.3914 	-17.8738 	1.19913e-19 11.3207 	-17.8944 	1.07759e-19 11.2385 	-17.891 	9.66142e-20 11.1522 	-17.8881 	8.48137e-20 11.0034 	-17.9917 	-1.95409e-19 10.8557 	-18.0979 	-4.72482e-19 10.6845 	-18.1536 	-5.5986e-19 10.4725 	-18.1211 	-3.24887e-19 10.2728 	-18.093 	-1.01134e-19 10.2006 	-18.1801 	6.86924e-21 10.1291 	-18.2686 	1.15191e-19 10.027 	-18.2801 	1.09908e-19 9.91801 	-18.2739 	7.73658e-20 9.79993 	-18.2686 	4.25192e-20 9.71562 	-18.3275 	1.15241e-19 9.6318 	-18.3875 	1.87667e-19 9.54445 	-18.4384 	2.47108e-19 9.42369 	-18.4034 	1.99455e-19 9.30661 	-18.3705 	1.53042e-19 9.2029 	-18.5123 	8.7668e-20 9.10114 	-18.6584 	2.23296e-20 8.94155 	-18.6432 	1.60074e-20 8.78099 	-18.6244 	1.23779e-20 8.59813 	-18.6078 	7.99147e-21 8.59113 	-18.6124 	9.62075e-21 8.58413 	-18.6169 	1.12477e-20 8.57714 	-18.6215 	1.28724e-20 8.56742 	-18.6182 	9.46992e-21 8.55749 	-18.6141 	5.63959e-21 8.45959 	-18.6934 	2.61648e-21 8.33707 	-18.7301 	1.5782e-21 8.214 	-18.766 	5.68793e-22 8.03549 	-18.6317 	8.05547e-22 7.86233 	-18.503 	1.04123e-21 7.82134 	-18.5605 	4.69693e-22 7.77532 	-18.5997 	0 7.70494 	-18.5512 	0 7.63479 	-18.5034 	0 7.56023 	-18.4533 	0 7.53299 	-18.4553 	0 7.50579 	-18.4576 	0 7.47862 	-18.46 	0 7.43914 	-18.4218 	-2.25643e-22 7.39618 	-18.3717 	-5.18093e-22 7.37994 	-18.4245 	-2.71117e-22 7.36396 	-18.4782 	-2.25002e-23 7.27719 	-18.3765 	1.02485e-21 7.15821 	-18.169 	3.74447e-21 7.04003 	-17.9634 	6.44078e-21 7.02903 	-17.9569 	5.99904e-21 7.01292 	-17.929 	4.35411e-21 6.98372 	-17.8464 	-3.62251e-22 6.95453 	-17.7637 	-5.07877e-21 6.92519 	-17.6806 	-9.81865e-21 6.91169 	-17.6378 	-7.73977e-21 6.89818 	-17.595 	-5.65842e-21 6.88469 	-17.5521 	-3.5746e-21 6.85822 	-17.4638 	-1.28839e-20 6.8264 	-17.3567 	-2.68887e-20 6.85233 	-17.2982 	-7.78334e-20 6.87828 	-17.2388 	-1.28728e-19 6.86342 	-17.0706 	-1.25103e-19 6.7989 	-16.7824 	-6.65498e-20 6.7342 	-16.4911 	-7.46126e-21 6.7413 	-16.4368 	1.43487e-20 6.74539 	-16.3696 	2.61166e-20 6.74005 	-16.2625 	7.06879e-21 6.73483 	-16.1552 	-1.20462e-20 6.72994 	-16.0521 	-3.04359e-20 6.74039 	-15.9366 	-3.2453e-20 6.75122 	-15.8208 	-3.44267e-20 6.76244 	-15.705 	-3.6356e-20 6.75797 	-15.5331 	-5.29837e-20 6.7493 	-15.3426 	-7.40066e-20 6.81134 	-15.1554 	-1.97604e-19 6.8746 	-14.9666 	-3.20836e-19 6.90675 	-14.6654 	-2.46198e-19 6.93591 	-14.3471 	-1.44039e-19 6.93235 	-13.9597 	7.1008e-21 6.93788 	-13.9335 	2.29082e-20 6.94333 	-13.907 	3.8078e-20 6.94532 	-13.8693 	3.08299e-20 6.94734 	-13.8317 	2.35589e-20 6.94935 	-13.7948 	1.64261e-20 7.01156 	-13.5126 	2.05916e-20 7.07786 	-13.2311 	2.43466e-20 7.14846 	-12.9505 	2.76711e-20 7.18512 	-12.5704 	3.27227e-20 7.22933 	-12.1644 	3.75971e-20 7.28198 	-12.0011 	2.03577e-20 7.3361 	-11.8379 	3.05648e-21 7.37352 	-11.6205 	0 7.40867 	-11.3912 	0 7.43992 	-11.1967 	0 7.52587 	-10.9931 	0 7.61511 	-10.7906 	0 7.69894 	-10.5657 	3.41925e-21 7.7675 	-10.2914 	1.41849e-20 7.84744 	-9.98971 	2.61348e-20 7.94596 	-9.75837 	2.62102e-20 8.04795 	-9.52785 	2.64774e-20 8.13576 	-9.28086 	2.07366e-20 8.20863 	-9.01674 	8.71334e-21 8.26932 	-8.80759 	-7.14543e-22 8.43721 	-8.5489 	-1.1815e-20 8.61239 	-8.29321 	-2.25882e-20 8.75601 	-8.01981 	-3.47469e-20 8.89251 	-7.74211 	-4.71944e-20 9.07521 	-7.3928 	-6.26077e-20 9.14216 	-7.29451 	-7.61824e-20 9.21008 	-7.19673 	-8.9587e-