# vtk DataFile Version 2.0
track0
ASCII
DATASET POLYDATA
POINTS 11265 double
-0.0205 0.001 1e-05
-0.0204991 0.00100536 1e-05
-0.0204976 0.00101063 1e-05
-0.0204947 0.00101518 1e-05
-0.0204905 0.00101864 1e-05
-0.0204746 0.00102682 1e-05
-0.0201831 0.00105563 1e-05
-0.0203616 0.00128794 1e-05
-0.0204488 0.00141936 1e-05
-0.0201625 0.0014444 1e-05
-0.0201519 0.00173163 1e-05
-0.0202219 0.00184007 1e-05
-0.0200496 0.00193025 1e-05
-0.0200808 0.00212222 1e-05
-0.0201294 0.00229098 1e-05
-0.0200088 0.00238763 1e-05
-0.0199911 0.00254122 1e-05
-0.0200041 0.00269528 1e-05
-0.0199827 0.00277425 1e-05
-0.019869 0.00287784 1e-05
-0.0198179 0.00302292 1e-05
-0.0198054 0.00317623 1e-05
-0.0197599 0.00329221 1e-05
-0.0196347 0.00340323 1e-05
-0.0195486 0.00354672 1e-05
-0.0194776 0.00369829 1e-05
-0.019391 0.00384148 1e-05
-0.0193841 0.00384734 1e-05
-0.0193107 0.00390807 1e-05
-0.0192438 0.0039759 1e-05
-0.019179 0.0040457 1e-05
-0.0191112 0.00411263 1e-05
-0.0190172 0.00419779 1e-05
-0.0189564 0.00424669 1e-05
-0.0188939 0.00429331 1e-05
-0.0188297 0.00433761 1e-05
-0.0187639 0.0043796 1e-05
-0.0186584 0.00444232 1e-05
-0.0184262 0.00456523 1e-05
-0.0181851 0.00466946 1e-05
-0.0179369 0.00475565 1e-05
-0.0176828 0.00482199 1e-05
-0.0174976 0.00485355 1e-05
-0.0172058 0.00488427 1e-05
-0.0169124 0.00488602 1e-05
-0.0166199 0.00486367 1e-05
-0.0163297 0.00482048 1e-05
-0.0160387 0.00475639 1e-05
-0.0158292 0.00469358 1e-05
-0.0156234 0.00461967 1e-05
-0.0154217 0.00453504 1e-05
-0.0152229 0.00444393 1e-05
-0.0152197 0.00444232 1e-05
-0.0151033 0.00438406 1e-05
-0.0149898 0.00432055 1e-05
-0.0148794 0.00425171 1e-05
-0.0147714 0.00417927 1e-05
-0.0146381 0.00408404 1e-05
-0.0145772 0.0040367 1e-05
-0.0145171 0.00398826 1e-05
-0.0144579 0.00393871 1e-05
-0.0143997 0.00388804 1e-05
-0.0143538 0.00384734 1e-05
-0.0142297 0.00373631 1e-05
-0.0141121 0.00361838 1e-05
-0.014002 0.00349339 1e-05
-0.0138979 0.0033634 1e-05
-0.0138435 0.00329221 1e-05
-0.0137663 0.00318862 1e-05
-0.0136966 0.00307983 1e-05
-0.0136333 0.00296725 1e-05
-0.0135738 0.00285261 1e-05
-0.0135366 0.00277425 1e-05
-0.0134935 0.0026776 1e-05
-0.0134576 0.00257807 1e-05
-0.0134256 0.00247718 1e-05
-0.0133983 0.00237497 1e-05
-0.0133802 0.00229098 1e-05
-0.0133652 0.0022008 1e-05
-0.0133561 0.00210982 1e-05
-0.0133523 0.00201846 1e-05
-0.0133546 0.00192705 1e-05
-0.0133631 0.00184007 1e-05
-0.0133778 0.00175593 1e-05
-0.0134003 0.0016735 1e-05
-0.0134296 0.00159326 1e-05
-0.0134659 0.00151595 1e-05
-0.0135224 0.00141936 1e-05
-0.0135798 0.00134085 1e-05
-0.0136482 0.00127163 1e-05
-0.0137223 0.00120864 1e-05
-0.0138009 0.00115139 1e-05
-0.0139946 0.00102682 1e-05
-0.0141233 0.000957336 1e-05
-0.0142588 0.000902224 1e-05
-0.0143975 0.000855969 1e-05
-0.0145369 0.000811761 1e-05
-0.0146381 0.000781371 1e-05
-0.0147218 0.00075721 1e-05
-0.014806 0.000734383 1e-05
-0.0148904 0.000712685 1e-05
-0.0149753 0.000693 1e-05
-0.0151485 0.000660566 1e-05
-0.0153265 0.000637977 1e-05
-0.015505 0.000618813 1e-05
-0.0156837 0.000602312 1e-05
-0.0158625 0.000587806 1e-05
-0.0160387 0.000568106 1e-05
-0.016283 0.000518253 1e-05
-0.0165311 0.000493521 1e-05
-0.0167801 0.000482472 1e-05
-0.0170293 0.000475657 1e-05
-0.0174976 0.000406275 1e-05
-0.0174976 0.000406275 1e-05
-0.0174976 0.000406275 1e-05
-0.0174976 0.000406275 1e-05
-0.0174976 0.000406275 1e-05
-0.0174976 0.000406275 1e-05
-0.0174951 0.000388788 1e-05
-0.0174897 0.00037198 1e-05
-0.0174821 0.000356089 1e-05
-0.0174727 0.000341144 1e-05
-0.0174557 0.000318841 1e-05
-0.0173838 0.000255072 1e-05
-0.0172967 0.000214399 1e-05
-0.0172047 0.000186605 1e-05
-0.0171106 0.000167064 1e-05
-0.0160387 4.4592e-06 1e-05
-0.0160287 3.56736e-06 1e-05
-0.0160188 3.11152e-06 1e-05
-0.0160088 2.69753e-06 1e-05
-0.0159989 2.28354e-06 1e-05
-0.0159439 0 1e-05
-0.0205 0.00367778 1e-05
-0.0203955 0.00371169 1e-05
-0.0203045 0.0037732 1e-05
-0.0202171 0.00383976 1e-05
-0.0201979 0.00384734 1e-05
-0.0199618 0.00393431 1e-05
-0.019766 0.00409242 1e-05
-0.0196201 0.00429749 1e-05
-0.0194752 0.00444232 1e-05
-0.0193836 0.00449614 1e-05
-0.0192963 0.00455663 1e-05
-0.0192132 0.00462285 1e-05
-0.0191277 0.00468596 1e-05
-0.0190172 0.00476144 1e-05
-0.0189141 0.00482515 1e-05
-0.0188083 0.00488434 1e-05
-0.0187001 0.00493906 1e-05
-0.0185899 0.00498945 1e-05
-0.0183685 0.00508 1e-05
-0.0181943 0.00513501 1e-05
-0.0180181 0.00518306 1e-05
-0.0178401 0.0052243 1e-05
-0.0176607 0.00525861 1e-05
-0.0174976 0.00528161 1e-05
-0.0172058 0.00530952 1e-05
-0.0169127 0.00531437 1e-05
-0.0166201 0.00529738 1e-05
-0.0163294 0.0052602 1e-05
-0.0160387 0.00520523 1e-05
-0.0159404 0.00518018 1e-05
-0.0158426 0.00515315 1e-05
-0.0157453 0.0051242 1e-05
-0.0156485 0.00509404 1e-05
-0.0156053 0.00508 1e-05
-0.0154119 0.00501581 1e-05
-0.0152218 0.00494219 1e-05
-0.0150358 0.00485877 1e-05
-0.0148542 0.00476632 1e-05
-0.0146381 0.00464658 1e-05
-0.0145718 0.00460572 1e-05
-0.0145061 0.00456399 1e-05
-0.0144409 0.00452136 1e-05
-0.0143763 0.00447793 1e-05
-0.0143238 0.00444232 1e-05
-0.0141503 0.00432332 1e-05
-0.0139833 0.00419531 1e-05
-0.013824 0.00405779 1e-05
-0.0136694 0.00391504 1e-05
-0.013599 0.00384734 1e-05
-0.0135379 0.00378744 1e-05
-0.0134789 0.00372547 1e-05
-0.0134214 0.0036621 1e-05
-0.0133647 0.00359794 1e-05
-0.0132934 0.00351478 1e-05
-0.0132568 0.00347027 1e-05
-0.0132205 0.00342538 1e-05
-0.0131848 0.00338013 1e-05
-0.0131495 0.00333448 1e-05
-0.0131174 0.00329221 1e-05
-0.0130393 0.00318862 1e-05
-0.0129631 0.0030836 1e-05
-0.0128897 0.00297659 1e-05
-0.0128196 0.00286744 1e-05
-0.0127622 0.00277425 1e-05
-0.0127045 0.0026776 1e-05
-0.0126482 0.00258012 1e-05
-0.0125934 0.00248176 1e-05
-0.0125401 0.0023826 1e-05
-0.0124933 0.00229098 1e-05
-0.0124496 0.0022008 1e-05
-0.0124063 0.00211048 1e-05
-0.0123632 0.00202004 1e-05
-0.0123203 0.00192948 1e-05
-0.0122793 0.00184007 1e-05
-0.0122443 0.00175593 1e-05
-0.0122077 0.00167242 1e-05
-0.0121699 0.00158949 1e-05
-0.0121306 0.00150725 1e-05
-0.0120863 0.00141936 1e-05
-0.0120695 0.00138714 1e-05
-0.0120515 0.00135562 1e-05
-0.0120324 0.00132475 1e-05
-0.0120122 0.0012946 1e-05
-0.0120025 0.00128133 1e-05
-0.0119641 0.00123042 1e-05
-0.0119223 0.00118215 1e-05
-0.0118774 0.00113686 1e-05
-0.0118294 0.00109488 1e-05
-0.0117391 0.00102682 1e-05
-0.0116236 0.000953567 1e-05
-0.0115002 0.000894573 1e-05
-0.0113723 0.000846345 1e-05
-0.0112414 0.000806532 1e-05
-0.0107632 0.000722289 1e-05
-0.0105252 0.000731002 1e-05
-0.0102871 0.000726684 1e-05
-0.010049 0.000724315 1e-05
-0.00981091 0.000723133 1e-05
-0.00957337 0.0007227 1e-05
-0.00934491 0.000732187 1e-05
-0.00911628 0.000728613 1e-05
-0.00888764 0.000726166 1e-05
-0.00865899 0.000724492 1e-05
-0.00843108 0.00072336 1e-05
-0.00821175 0.000732423 1e-05
-0.00799227 0.000728365 1e-05
-0.00777278 0.000725326 1e-05
-0.00755327 0.000723022 1e-05
-0.00733443 0.000721256 1e-05
-0.00712387 0.000729682 1e-05
-0.00691317 0.000725525 1e-05
-0.00670246 0.000722288 1e-05
-0.00649174 0.000719734 1e-05
-0.0062816 0.000717694 1e-05
-0.00607944 0.000725414 1e-05
-0.00587718 0.000721521 1e-05
-0.0056749 0.000718419 1e-05
-0.00547262 0.000715916 1e-05
-0.00527083 0.000713875 1e-05
-0.00507675 0.000720895 1e-05
-0.00488258 0.000717405 1e-05
-0.0046884 0.000714574 1e-05
-0.00449421 0.000712255 1e-05
-0.00430044 0.000710337 1e-05
-0.00411412 0.00071671 1e-05
-0.00392771 0.000713643 1e-05
-0.0037413 0.000711117 1e-05
-0.00355488 0.000709017 1e-05
-0.00336883 0.000707257 1e-05
-0.00318995 0.000713039 1e-05
-0.003011 0.00071034 1e-05
-0.00283204 0.000708095 1e-05
-0.00265308 0.000706212 1e-05
-0.00247443 0.000704622 1e-05
-0.0023027 0.000709898 1e-05
-0.0021309 0.000707563 1e-05
-0.0019591 0.000705603 1e-05
-0.0017873 0.000703947 1e-05
-0.00161577 0.00070254 1e-05
-0.0014509 0.000707399 1e-05
-0.00128597 0.000705445 1e-05
-0.00112104 0.000703874 1e-05
-0.000956098 0.000702616 1e-05
-0.000791418 0.000701617 1e-05
-0.000633135 0.000706455 1e-05
-0.000474782 0.000705158 1e-05
-0.000316427 0.000704364 1e-05
-0.00015807 0.000703987 1e-05
0 0.000703957 1e-05
0.000105677 0.000708007 1e-05
0.000211432 0.000708148 1e-05
0.000317187 0.000708447 1e-05
0.000422941 0.000708888 1e-05
0.000528387 0.000709453 1e-05
0.000634886 0.000713944 1e-05
0.000741479 0.000714466 1e-05
0.000848071 0.000714967 1e-05
0.000954664 0.000715449 1e-05
0.00106088 0.000715912 1e-05
0.00116821 0.000720239 1e-05
0.00127562 0.000720836 1e-05
0.00138303 0.00072148 1e-05
0.00149045 0.000722164 1e-05
0.00159752 0.000722885 1e-05
0.00170568 0.000727412 1e-05
0.00181393 0.000728506 1e-05
0.00192218 0.000729707 1e-05
0.00203043 0.000731007 1e-05
0.00213833 0.000732394 1e-05
0.00224733 0.00073758 1e-05
0.00235644 0.000739546 1e-05
0.00246554 0.000741645 1e-05
0.00257464 0.00074387 1e-05
0.00268334 0.000746204 1e-05
0.00279319 0.000752405 1e-05
0.00290317 0.000755439 1e-05
0.00301315 0.000758606 1e-05
0.00312313 0.000761899 1e-05
0.00323259 0.000765387 1e-05
0.00334329 0.000772801 1e-05
0.00345415 0.000777442 1e-05
0.00356501 0.000781765 1e-05
0.00367588 0.000786213 1e-05
0.00378611 0.000791621 1e-05
0.00389767 0.000800377 1e-05
0.00400939 0.000806941 1e-05
0.00412116 0.000812498 1e-05
0.00423292 0.000818177 1e-05
0.00434393 0.000825519 1e-05
0.00445636 0.000835694 1e-05
0.00456893 0.000844191 1e-05
0.00468161 0.000851122 1e-05
0.00479428 0.000858194 1e-05
0.00490609 0.000867445 1e-05
0.0050194 0.000879057 1e-05
0.00513282 0.000889418 1e-05
0.00524636 0.000898521 1e-05
0.00535987 0.000907878 1e-05
0.00547262 0.000918947 1e-05
0.00558681 0.00093196 1e-05
0.0057011 0.000944048 1e-05
0.00581547 0.000955317 1e-05
0.0059298 0.000966968 1e-05
0.00604356 0.000979714 1e-05
0.00615863 0.000994051 1e-05
0.00627379 0.00100772 1e-05
0.00638894 0.00102145 1e-05
0.00650404 0.00103553 1e-05
0.00661893 0.00104995 1e-05
0.00670486 0.00106147 1e-05
0.0067908 0.00107283 1e-05
0.00687673 0.00108435 1e-05
0.00696263 0.00109604 1e-05
0.00704593 0.00110753 1e-05
0.0070765 0.00111181 1e-05
0.00710707 0.00111611 1e-05
0.00713763 0.00112043 1e-05
[...]
POINT_DATA 11265
 FIELD attributes 2
p 1 11265 float
131.898 147.135 151.481 154.081 154.795 152.656 141.846 779.498 758.091 595.171 664.445 303.992 289.748 266.019 -41.2898 19.4547 112.022 -28.3921 -139.658 -48.6884 123.704 -21.7237 -162.733 -96.3223 -37.4004 -63.0045 -204.503 -211.162 -193.033 -188.097 -203.998 -221.651 -247.475 -265.001 -283.67 -303.437 -303.046 -276.698 -322.388 -369.866 -382.826 -384.722 -390.794 -394.358 -397.677 -401.747 -384.443 -362.408 -345.832 -331.186 -309.975 -290.079 -289.774 -277.155 -265.533 -251.064 -236.004 -217.779 -209.944 -202.327 -194.938 -194.301 -194.832 -160.841 -128.965 -119.484 -127.777 -132.709 -97.7637 -73.8783 -65.614 -64.5287 -74.3095 -45.2299 -37.8926 -30.8203 -24.0583 -27.1885 -12.4852 -6.86736 -1.64194 3.12333 0.102019 10.8682 13.2776 15.1205 16.3539 -7.4022 15.1351 14.2035 10.8112 -1.94622 -80.7641 -77.521 -89.1509 -129.761 -170.472 -199.939 -222.079 -244.258 -270.496 -304.927 -372.57 -428.275 -484.528 -541.192 -604.942 -674.653 -787.708 -899.772 -1013.14 -1155.24 -1424.63 -1424.63 -1424.63 -1424.63 -1424.63 -1424.63 -1423.1 -1419.85 -1415.29 -1409.76 -1403.22 -1354.28 -1302.48 -1250.6 -1199.22 -696.658 -692.092 -688.107 -684.649 -681.19 -662.113
115.658 115.553 90.8603 12.7694 1.4761 -6.80315 39.1717 -28.5093 -128.055 -124.253 -117.769 -131.628 -146.505 -166.495 -184.272 -203.271 -223.412 -219.889 -212.67 -232.133 -252.31 -270.947 -277.336 -284.877 -291.358 -302.77 -299.187 -289.325 -281.166 -277.407 -273.584 -266.471 -259.522 -256.489 -244.014 -233.008 -221.358 -203.724 -183.356 -177.11 -170.994 -165.917 -164.691 -163.748 -133.608 -103.219 -91.6819 -94.4091 -96.0801 -78.5082 -67.5046 -62.5816 -57.7094 -51.542 -48.5134 -45.5096 -42.5316 -40.6246 -40.9134 -26.6643 -17.9552 -9.39673 -7.92374 -9.23725 6.23481 21.7528 28.1008 25.7929 23.5538 39.0225 50.2474 54.3687 56.4184 53.2689 67.1266 69.7424 72.3398 74.9146 74.7072 78.2388 78.3735 78.4973 78.6097 78.655 79.1596 79.6555 80.1401 80.6105 76.969 77.922 78.278 78.1347 72.4672 53.6548 49.4614 43.3528 37.3468 31.4034 24.2749 21.1757 16.8072 12.4882 8.20308 3.12802 2.22733 -0.435855 -3.04951 -5.62748 -9.43055 -9.16982 -10.8914 -12.5668 -14.208 -17.2559 -16.4911 -17.635 -18.7405 -19.8169 -22.2643 -21.1829 -21.884 -22.5543 -23.2007 -25.1558 -23.857 -24.2521 -24.6227 -24.974 -26.5995 -25.2071 -25.3637 -25.5008 -25.6222 -26.939 -25.423 -25.3825 -25.3263 -25.2573 -26.3644 -24.7261 -24.293 -23.8459 -23.3873 -24.0074 -22.0484 -21.3935 -20.7202 -20.0319 -20.6647 -18.7139 -18.7141 -18.7068 -18.6931 -20.4417 -18.9001 -19.0564 -19.2135 -19.3714 -21.1057 -19.5546 -19.1826 -18.8092 -18.4345 -19.4321 -18.0661 -17.6033 -17.1385 -16.6717 -17.3385 -16.3161 -16.0431 -15.7686 -15.4926 -16.1089 -15.2882 -15.1149 -14.9407 -14.7831 -15.3385 -14.5766 -14.322 -14.1571 -14.164 -14.634 -13.9102 -13.4976 -13.3749 -13.6431 -14.1693 -13.5344 -12.9411 -12.9163 -13.5475 -14.1745 -13.6579 -13.1404 -13.2537 -13.9993 -14.7393 -14.34 -13.9958 -14.2981 -15.061 -15.9706 -15.7253 -15.9974 -16.4727 -16.9501 -17.9474 -18.0362 -18.5198 -19.004 -19.4888 -19.9596 -20.1219 -20.2842 -20.4465 -20.6088 -20.7513 -21.4848 -22.2631 -23.0407 -23.8177 -24.5705 -25.2321 -26.0298 -26.9408 -27.8902 -28.8548 -29.5479 -30.2391 -31.0975 -32.2127 -33.3337 -34.073 -34.8661 -35.7275 -36.6191 -37.7935 -38.5273 -39.3379 -40.1502 -40.964 -41.822 -41.8725 -41.9231 -41.9736 -42.0241 -42.0734 -42.9251 -43.793 -44.6639 -45.5378 -46.436 -47.0255 -47.863 -48.7189 -49.6143 -50.5543 -51.0929 -51.6529 -52.4787 -53.4099 -54.3428 -54.8289 -55.3229 -55.9824 -56.8743 -57.7698 -58.205 -58.6723 -59.2572 -60.0178 -60.864 -61.2537 -61.7341 -62.2759 -62.8749 -63.6633 -64.0067 -64.4849 -64.981 -65.4879 -66.1906 -66.5057 -66.9452 -67.3969 -67.8608 -68.475 -68.7553 -69.1524 -69.5628 -69.9865 -70.5509 -70.7859 -71.1412 -71.5106 -71.8944 -72.4307 -72.6065 -72.9224 -73.2534 -73.6168 -74.1244 -74.2866 -74.5343 -74.8295 -75.1951 -75.6272 -75.783 -75.9616 -76.2203 -76.5486 -76.896 -77.0111 -77.1444 -77.3406 -77.6193 -77.9182 -77.9921 -78.1029 -78.2516 -78.42 -78.6767 -78.6993 -78.7501 -78.8095 -78.8773 -78.9384 -79.009 -79.0828 -79.1596 -79.2391 -79.3186 -79.3697 -79.4839 -79.6197 -79.7679 -79.9319 -79.9317 -79.9536 -79.9801 -80.0806 -80.2108 -80.1813 -80.1583 -80.1433 -80.1379 -80.1416 -80.182 -80.226 -80.2736 -80.3038 -80.317 -80.2927 -80.31 -80.3549 -80.3398 -80.35 -80.2873 -80.2246 -80.1488 -80.0869 -80.0454 -80.0625 -80.082 -80.1038 -80.0866 -80.0618 -79.9689 -79.904 -79.8405 -79.7215 -79.6271 -79.5728 -79.5207 -79.4458 -79.3742 -79.3101 -79.2592 -79.2207 -79.1905 -79.1067 -79.0342 -78.8887 -78.7589 -78.6098 -78.4719 -78.3635 -78.3219 -78.283 -78.2459 -78.2077 -78.1718 -77.8508 -77.5605 -77.3272 -77.1322 -76.9925 -76.9826 -76.9728 -76.9632 -76.9541 -76.9451 -76.4979 -76.121 -75.7983 -75.5556 -75.3369 -75.2628 -75.1895 -75.1265 -75.069 -75.0135 -74.6072 -74.2242 -73.8792 -73.6013 -73.3385 -73.1509 -72.9671 -72.8136 -72.6777 -72.551 -72.1727 -71.8105 -71.4792 -71.2027 -70.9341 -70.6186 -70.3116 -70.0647 -69.8542 -69.6639 -69.3267 -69.0003 -68.6988 -68.4413 -68.1871 -67.7377 -67.303 -66.9595 -66.6741 -66.4224 -66.13 -65.8446 -65.5805 -65.3537 -65.1278 -64.5359 -63.9662 -63.5358 -63.1977 -62.9073 -62.6699 -62.4368 -62.2208 -62.0331 -61.8453 -61.1443 -60.4739 -59.9762 -59.6004 -59.286 -59.1008 -58.9183 -58.7473 -58.5936 -58.4393 -57.6708 -56.9414 -56.4034 -56.0124 -55.6933 -55.5437 -55.3959 -55.2557 -55.1255 -54.9944 -54.2172 -53.4856 -52.9485 -52.5775 -52.2821 -52.1439 -52.0075 -51.8757 -51.7492 -51.6214 -50.9065 -50.239 -49.7436 -49.4172 -49.1613 -49.0023 -48.8458 -48.6919 -48.5405 -48.3864 -47.7871 -47.23 -46.807 -46.5407 -46.3317 -46.1157 -45.9047 -45.6626 -45.3973 -45.1222 -44.6662 -44.2398 -43.847 -43.4897 -43.177 -42.8064 -42.4456 -42.0148 -41.5734 -41.1021 -40.818 -40.5429 -40.2765 -40.0148 -39.7679 -38.8981 -38.0508 -37.1644 -36.295 -35.3156 -35.281 -35.2464 -35.2119 -35.1789 -35.1461 -34.0687 -32.9943 -31.9329 -30.8021 -29.715 -28.7479 -27.7658 -26.698 -25.6336 -24.502 -24.0471 -23.5927 -23.139 -22.6555 -22.1658 -20.3499 -18.5362 -16.577 -14.5139 -12.468 -11.1661 -9.84026 -8.45309 -7.06586 -5.67172 -4.60341 -3.53511 -2.46683 -1.3432 -0.195945 2.66422 5.52379 8.49348 11.5839 14.7045 16.2028 17.7086 19.2379 20.7666 22.2314 24.1774 26.1202 28.0597 30.0576 32.0973 36.0718 40.0307 43.9485 47.8434 51.868 52.3221 52.7753 53.2048 53.6341 54.0536 57.759 61.4303 65.0654 68.5281 72.1811 74.367 76.5353 78.3998 80.1811 81.6712 83.7647 85.8247 87.7437 89.3969 91.1752 93.0224 94.8196 96.3777 97.6868 98.6823 100.146 101.523 102.573 103.447 104.445 104.81 105.159 105.493 105.375 105.224 106.014 106.634 106.149 104.498 103.007 102.652 101.554 99.9596 98.284 95.4784 95.4538 95.4291 95.4045 95.3801 95.3654 93.1409 90.8588 88.508 86.0931 84.5809 81.2493 78.4189 75.9049 73.9656 72.3746 69.0102 65.563 63.1784 61.6338 60.1535 56.9618 53.71 51.3586 50.0645 48.8124 45.9041 42.9513 40.8114 39.7816 38.8085 36.2291 33.806 32.0091 31.0025 30.305 28.0513 26.0975 24.6103 23.6958 23.2429 21.287 19.7174 18.4995 17.7077 17.4549 15.756 14.4868 13.4921 12.8314 12.735 11.2518 10.2109 9.39733 8.86558 8.8888 7.5802 6.70833 6.04195 5.63544 5.7558 4.58384 3.83411 3.28949 3.00823 3.21806 2.15751 1.49437 1.05343 0.899964 1.19515 0.236345 -0.364703 -0.714109 -0.737905 -0.367028 -1.22802 -1.78462 -2.0513 -1.9452 -1.5102 -2.27611 -2.8016 -2.99337 -2.7609 -2.27482 -2.95069 -3.45669 -3.58239 -3.23179 -2.70848 -3.30206 -3.79914 -3.86817 -3.41024 -2.86198 -3.38211 -3.87943 -3.90163 -3.34922 -2.78738 -3.24467 -3.70406 -3.6641 -3.09998 -2.53253 -2.93497 -3.33907 -3.26734 -2.70684 -2.14333 -2.50092 -2.85984 -2.76605 -2.21485 -1.66091 -1.98023 -2.30061 -2.19244 -1.65623 -1.11752 -1.40465 -1.69264 -1.57632 -1.05899 -0.53935 -0.79962 -1.06062 -0.940137 -0.442768 0.0567557 -0.180703 -0.398519 -0.261691 0.176672 0.653186 0.432511 0.287677 0.418177 0.777539 1.22868 1.01946 0.934953 1.05603 1.34188 1.76645 1.56471 1.53034 1.64035 1.85859 2.25674 2.05939 2.06685 2.16489 2.32144 2.69417 2.49871 2.54147 2.62757 2.72841 3.07785 2.88287 2.95617 3.03101 3.10571 3.41059 3.24998 3.31419 3.37824 3.44214 3.69439 3.56334 3.61668 3.66986 3.7229 3.92857 3.82109 3.86365 3.90606 3.94834 4.1131 4.02442 4.05659 4.08863 4.12055 4.24973 4.17599 4.19811 4.22012 4.24201 4.3401 4.27788 4.29074 4.30351 4.31617 4.38771 4.33445 4.33918 4.34384 4.34841 4.39769 4.35141 4.34927 4.34706 4.34478 4.37577 4.33547 4.32783 4.32014 4.3124 4.32834 4.2933 4.2814 4.26947 4.25751 4.26113 4.23091 4.216 4.20107 4.1861 4.17993 4.15484 4.13849 4.12212 4.10573 4.09238 4.07916 4.06894 4.05872 4.0485 4.03921 4.03221 4.02521 4.01821 4.01121 4.00222 3.98627 3.96834 3.95041 3.93247 3.90805 3.89548 3.87659 3.85769 3.83878 3.8095 3.80036 3.78107 3.76177 3.74247 3.70952 3.70379 3.68456 3.66531 3.64606 3.61025 3.6064 3.58605 3.5657 3.54533 3.5057 3.50142 3.47825 3.45508 3.43189 3.38765 3.38247 3.3565 3.33052 3.30453 3.25634 3.2504 3.22159 3.19277 3.16394 3.1112 3.10223 3.06878 3.03532 3.00185 2.94289 2.92807 2.88781 2.84755 2.80728 2.74081 2.71867 2.67052 2.62237 2.57421 2.49983 2.47082 2.41532 2.35981 2.3043 2.22238 2.18771 2.12622 2.06473 2.00324 1.91483 1.87539 1.80838 1.74137 1.67437 1.57923 1.53498 1.46232 1.38967 1.31703 1.21473 1.1652 1.08574 1.0063 0.926874 0.815333 0.758062 0.66948 0.580918 0.492375 0.369625 0.304697 0.207306 0.109937 0.012589 -0.120393 -0.188524 -0.290159 -0.391772 -0.493363 -0.631916 -0.697573 -0.799031 -0.900466 -1.00188 -1.1432 -1.20416 -1.3034 -1.40262 -1.50181 -1.64386 -1.6968 -1.79083 -1.88484 -1.97882 -2.11908 -2.16 -2.24627 -2.33252 -2.41875 -2.55692 -2.58509 -2.66434 -2.74358 -2.8228 -2.96071 -2.97712 -3.04923 -3.12134 -3.19342 -3.3285 -3.32944 -3.39094 -3.45242 -3.51389 -3.64298 -3.62452 -3.67266 -3.72079 -3.76891 -3.8912 -3.85176 -3.8864 -3.92103 -3.95798 -4.07193 -4.01726 -4.03299 -4.05478 -4.08751 -4.188 -4.12117 -4.11501 -4.12385 -4.15251 -4.23857 -4.15878 -4.12881 -4.12292 -4.14559 -4.21469 -4.11929 -4.06318 -4.04062 -4.05596 -4.10759 -3.99587 -3.91326 -3.87453 -3.88417 -3.9203 -3.79412 -3.68655 -3.63399 -3.6406 -3.66338 -3.52476 -3.3938 -3.32901 -3.33382 -3.34404 -3.19361 -3.0432 -2.96807 -2.96598 -2.96384 -2.80216 -2.64051 -2.5535 -2.54001 -2.52647 -2.35543 -2.18444 -2.0879 -2.06513 -2.04231 -1.86408 -1.6859 -1.58163 -1.55107 -1.52044 -1.33591 -1.15144 -1.03996 -1.00158 -0.963146 -0.772573 -0.582074 -0.464026 -0.419206 -0.374311 -0.178824 0.0165739 0.139216 0.187037 0.23495 0.433301 0.624703 0.747602 0.80502 0.853715 1.05341 1.23562 1.35919 1.4276 1.47645 1.67688 1.84939 1.97315 2.05211 2.1009 2.30166 2.46412 2.58748 2.67597 2.72375 2.92411 3.07563 3.19738 3.29387 3.33908 3.53698 3.67671 3.79627 3.9003 3.94378 4.13881 4.26687 4.38391 4.49447 4.53557 4.72721 4.84345 4.95724 5.07103 5.11114 5.2934 5.40458 5.51577 5.62696 5.67401 5.84656 5.95563 6.06471 6.1738 6.22618 6.38863 6.49479 6.60096 6.70714 6.76332 6.91458 7.01718 7.11979 7.22241 7.28223 7.42245 7.52105 7.61966 7.71829 7.78083 7.91054 8.00498 8.09944 8.19391 8.25839 8.37843 8.46915 8.55988 8.65062 8.71694 8.82808 8.91531 9.00254 9.08977 9.15743 9.26013 9.34372 9.42732 9.51092 9.5793 9.67407 9.75422 9.83437 9.91452 9.98364 10.0708 10.1472 10.2237 10.3001 10.3692 10.4493 10.5224 10.5955 10.6685 10.7377 10.8129 10.8844 10.9558 11.0273 11.0979 11.1209 11.1432 11.1654 11.1876 11.2115 11.2612 11.3109 11.3606 11.4102 11.4607 11.5349 11.6099 11.6849 11.7598 11.8367 11.9139 11.9934 12.0727 12.1521 12.2346 12.3152 12.4 12.4848 12.5694 12.6591 12.7478 12.8459 12.9439 13.0417 13.1478 13.2481 13.3713 13.4941 13.6163 13.756 13.8648 13.9958 14.1258 14.253 14.3446 14.3668 14.3799 14.3911 14.401 14.3915 14.2619 14.0984 13.9342 13.7693 13.6288 13.4452 13.2574 13.0694 12.8813 12.7368 12.6144 12.4942 12.3741 12.2539 12.1611 12.109 12.0574 12.0058 11.9543 11.911 11.9094 11.903 11.8966 11.8902 11.8741 11.8957 11.9061 11.9165 11.9269 11.9134 11.9326 11.9357 11.9387 11.9418 11.9137 11.9136 11.8944 11.8752 11.8561 11.8036 11.7751 11.7285 11.6818 11.6345 11.5597 11.5029 11.4347 11.3658 11.2949 11.2094 11.1354 11.0528 10.9686 10.8818 10.7861 10.6968 10.604 10.5097 10.414 10.3157 10.2194 10.1226 10.0255 9.92957 9.83472 9.73847 9.6423 9.54626 9.45295 9.3607 9.26525 9.16956 9.07228 8.9758 8.87925 8.77833 8.67748 8.574 8.46947 8.36478 8.25448 8.14427 8.03069 7.91407 7.79724 7.67355 7.54998 7.42187 7.28855 7.15498 7.01319 6.87123 6.72346 6.57032 6.41599 6.25196 6.08282 5.90605 5.72454 5.53628 5.33628 5.12865 4.91891 4.70917 4.49149 4.25219 3.98181 3.71146 3.44112 3.15682 2.8831 2.62607 2.36896 2.11178 1.89114 1.8644 1.83766 1.81092 1.78419 1.75901 1.42374 1.08341 0.742869 0.402128 0