# vtk DataFile Version 2.0
track0
ASCII
DATASET POLYDATA
POINTS 11337 double
-0.0205 0.001 1e-05
-0.0202034 0.000999919 1e-05
-0.0199069 0.000999763 1e-05
-0.0196103 0.000999543 1e-05
-0.0193137 0.000999257 1e-05
-0.0190172 0.000998907 1e-05
-0.0187132 0.000998703 1e-05
-0.0184093 0.000997903 1e-05
-0.0181054 0.000996897 1e-05
-0.0178015 0.000995686 1e-05
-0.0174976 0.000994269 1e-05
-0.0172058 0.000993217 1e-05
-0.016914 0.000991193 1e-05
-0.0166222 0.000988839 1e-05
-0.0163305 0.000986155 1e-05
-0.0160387 0.000983138 1e-05
-0.0157586 0.000980827 1e-05
-0.0154785 0.000977097 1e-05
-0.0151984 0.000972928 1e-05
-0.0149183 0.000968318 1e-05
-0.0146381 0.000963262 1e-05
-0.0143692 0.00095946 1e-05
-0.0141003 0.000953761 1e-05
-0.0138314 0.000947649 1e-05
-0.0135625 0.000941122 1e-05
-0.0132934 0.000934483 1e-05
-0.0130353 0.000929607 1e-05
-0.0127771 0.000922968 1e-05
-0.012519 0.000915586 1e-05
-0.0122609 0.000908006 1e-05
-0.0120025 0.000901266 1e-05
-0.0117547 0.00089638 1e-05
-0.0115068 0.000890022 1e-05
-0.011259 0.000882461 1e-05
-0.0110112 0.000874983 1e-05
-0.0107632 0.000869283 1e-05
-0.0105252 0.000865559 1e-05
-0.0102873 0.00086043 1e-05
-0.0100494 0.000853941 1e-05
-0.00981146 0.000848007 1e-05
-0.00957337 0.000844493 1e-05
-0.00934491 0.000843443 1e-05
-0.00911646 0.000841298 1e-05
-0.00888802 0.000838083 1e-05
-0.00865957 0.00083597 1e-05
-0.00843108 0.000837115 1e-05
-0.00821175 0.000841331 1e-05
-0.00799242 0.000845639 1e-05
-0.0077731 0.00085004 1e-05
-0.00755381 0.000856104 1e-05
-0.00733443 0.000865394 1e-05
-0.00712387 0.000877426 1e-05
-0.00691338 0.000890775 1e-05
-0.00670298 0.000905514 1e-05
-0.00649275 0.000922345 1e-05
-0.0062816 0.000941462 1e-05
-0.00611373 0.000958533 1e-05
-0.00594596 0.000976662 1e-05
-0.00577831 0.000995793 1e-05
-0.00561078 0.00101594 1e-05
-0.00552488 0.00102682 1e-05
-0.00547407 0.00103342 1e-05
-0.00542328 0.00104014 1e-05
-0.0053725 0.00104698 1e-05
-0.00532174 0.00105395 1e-05
-0.00527083 0.00106105 1e-05
-0.00507675 0.00108847 1e-05
-0.00488287 0.00111726 1e-05
-0.00468915 0.00114709 1e-05
-0.0044956 0.00117801 1e-05
-0.00430044 0.00120994 1e-05
-0.00411412 0.00124095 1e-05
-0.00392789 0.00127253 1e-05
-0.00374177 0.00130469 1e-05
-0.00355569 0.00133718 1e-05
-0.00336883 0.00137015 1e-05
-0.00331323 0.00137999 1e-05
-0.00325763 0.00138983 1e-05
-0.00320203 0.00139966 1e-05
-0.00314642 0.00140948 1e-05
-0.00309041 0.00141936 1e-05
-0.00296722 0.00144106 1e-05
-0.00284402 0.00146276 1e-05
-0.00272082 0.00148445 1e-05
-0.00259762 0.00150613 1e-05
-0.00247443 0.00152769 1e-05
-0.0023027 0.00155732 1e-05
-0.00213087 0.00158636 1e-05
-0.00195893 0.00161476 1e-05
-0.00178685 0.00164229 1e-05
-0.00161577 0.00166806 1e-05
-0.0014509 0.00169128 1e-05
-0.00128579 0.00171271 1e-05
-0.00112041 0.00173197 1e-05
-0.000954739 0.00174853 1e-05
-0.000791418 0.00176207 1e-05
-0.000633135 0.00177263 1e-05
-0.000474674 0.00178008 1e-05
-0.000316087 0.00178401 1e-05
-0.000157452 0.00178433 1e-05
0 0.00178095 1e-05
0.000105677 0.00177627 1e-05
0.000211202 0.00176891 1e-05
0.000316469 0.00175849 1e-05
0.000421387 0.00174501 1e-05
0.000528387 0.00172806 1e-05
0.000634886 0.00170787 1e-05
0.000740694 0.00168432 1e-05
0.000845714 0.00165747 1e-05
0.000949644 0.00162667 1e-05
0.00106088 0.00158883 1e-05
0.00113733 0.00155928 1e-05
0.00121295 0.00152766 1e-05
0.00128778 0.0014942 1e-05
0.00136189 0.00145919 1e-05
0.0013997 0.00144039 1e-05
0.00143927 0.00142023 1e-05
0.0014786 0.00139961 1e-05
0.00151769 0.00137855 1e-05
0.00155656 0.00135707 1e-05
0.00159752 0.00133385 1e-05
0.00169497 0.00127722 1e-05
0.00179094 0.00121813 1e-05
0.00188545 0.00115671 1e-05
0.00197862 0.00109329 1e-05
0.00203925 0.00105018 1e-05
0.00205906 0.00103569 1e-05
0.00207881 0.0010211 1e-05
0.00209848 0.00100641 1e-05
0.00211808 0.000991633 1e-05
0.00213833 0.000976204 1e-05
0.0022152 0.000916988 1e-05
0.00229088 0.000856247 1e-05
0.00236536 0.000794034 1e-05
0.00243864 0.000730422 1e-05
0.00249473 0.000679908 1e-05
0.00253245 0.000644941 1e-05
0.00256978 0.000609552 1e-05
0.00260671 0.000573752 1e-05
0.00264324 0.000537544 1e-05
0.00268334 0.000496915 1e-05
0.00271548 0.000463537 1e-05
0.00274728 0.000429836 1e-05
0.00277874 0.000395815 1e-05
0.00280986 0.000361481 1e-05
0.00283789 0.00033 1e-05
0.00289571 0.000264 1e-05
0.00295203 0.000196724 1e-05
0.00300688 0.000128234 1e-05
0.00306036 5.8674e-05 1e-05
0.00310383 0 1e-05
0.00312958 -3.58626e-05 1e-05
0.00315497 -7.1982e-05 1e-05
0.00318001 -0.000108346 1e-05
0.00320471 -0.000144942 1e-05
0.00323259 -0.000187097 1e-05
0.00325618 -0.000223604 1e-05
0.00327943 -0.000260325 1e-05
0.00330235 -0.000297256 1e-05
0.00332493 -0.000334394 1e-05
0.00334597 -0.000369617 1e-05
0.00339445 -0.000452001 1e-05
0.00344122 -0.00053536 1e-05
0.00348638 -0.000619611 1e-05
0.00353016 -0.000704582 1e-05
0.00356856 -0.00078143 1e-05
0.00361207 -0.000870993 1e-05
0.00365405 -0.000961281 1e-05
0.00369481 -0.00105213 1e-05
0.00373453 -0.00114344 1e-05
0.0037752 -0.00123991 1e-05
0.00377738 -0.00124525 1e-05
0.00377956 -0.00125059 1e-05
0.00378173 -0.00125594 1e-05
0.00378391 -0.00126129 1e-05
0.00378611 -0.00126671 1e-05
0.00382526 -0.00136342 1e-05
0.00386349 -0.00146049 1e-05
0.00390081 -0.00155792 1e-05
0.00393721 -0.00165569 1e-05
0.00397164 -0.00175012 1e-05
0.00401278 -0.00186369 1e-05
0.00405262 -0.00197773 1e-05
0.0040912 -0.00209219 1e-05
0.00412905 -0.0022069 1e-05
0.00416538 -0.00231783 1e-05
0.00420109 -0.00242771 1e-05
0.00423575 -0.00253792 1e-05
0.00426966 -0.00264836 1e-05
0.00430295 -0.00275899 1e-05
0.00434393 -0.00289798 1e-05
0.00434689 -0.00290827 1e-05
0.00434984 -0.00291857 1e-05
0.00435278 -0.00292886 1e-05
0.00435572 -0.00293916 1e-05
0.00435866 -0.00294944 1e-05
0.00439872 -0.00308998 1e-05
0.0044375 -0.00323089 1e-05
0.00447498 -0.00337214 1e-05
0.00451115 -0.00351374 1e-05
0.00454524 -0.00365197 1e-05
0.00458273 -0.00380826 1e-05
0.00461795 -0.00396508 1e-05
0.00465088 -0.0041224 1e-05
0.00468185 -0.00428012 1e-05
0.00471001 -0.0044331 1e-05
0.00473981 -0.00460683 1e-05
0.00476602 -0.00478114 1e-05
0.00478973 -0.00495581 1e-05
0.00481154 -0.00513072 1e-05
0.00483078 -0.00530132 1e-05
0.00484584 -0.00545467 1e-05
0.00485911 -0.00560818 1e-05
0.00487191 -0.00576174 1e-05
0.00488418 -0.00591533 1e-05
0.00490609 -0.00620395 1e-05
0.00490693 -0.00621648 1e-05
0.00490777 -0.00622901 1e-05
0.0049086 -0.00624153 1e-05
0.00490942 -0.00625406 1e-05
0.00491023 -0.00626658 1e-05
0.0049241 -0.00648137 1e-05
0.00494027 -0.00669601 1e-05
0.0049592 -0.00691041 1e-05
0.00498149 -0.00712449 1e-05
0.00500826 -0.00734097 1e-05
0.00504364 -0.00758032 1e-05
0.00509134 -0.00781752 1e-05
0.00515435 -0.00805112 1e-05
0.00523586 -0.00827892 1e-05
0.00534446 -0.00853989 1e-05
0.00537009 -0.00859148 1e-05
0.00539688 -0.00864249 1e-05
0.00542483 -0.00869286 1e-05
0.00545344 -0.00874287 1e-05
0.00547262 -0.00877607 1e-05
0.00557679 -0.0089553 1e-05
0.00568726 -0.0091307 1e-05
0.00580388 -0.00930209 1e-05
0.00592088 -0.00947321 1e-05
0.00604356 -0.00965679 1e-05
0.00604567 -0.00966003 1e-05
0.00604778 -0.00966326 1e-05
0.00604989 -0.0096665 1e-05
0.006052 -0.00966973 1e-05
0.00605411 -0.00967297 1e-05
0.00616708 -0.00984609 1e-05
0.00627748 -0.0100209 1e-05
0.00638543 -0.0101971 1e-05
0.00649131 -0.0103747 1e-05
0.00661893 -0.0105908 1e-05
0.00664388 -0.0106335 1e-05
0.00666881 -0.0106763 1e-05
0.00669372 -0.0107191 1e-05
0.00671865 -0.0107618 1e-05
0.00674361 -0.0108045 1e-05
0.00683464 -0.01096 1e-05
0.00692548 -0.0111155 1e-05
0.00701613 -0.0112712 1e-05
0.00710696 -0.0114268 1e-05
0.00719878 -0.0115819 1e-05
0.00724117 -0.0116524 1e-05
0.00728371 -0.0117228 1e-05
0.00732641 -0.0117932 1e-05
0.00736931 -0.0118634 1e-05
0.0074131 -0.0119346 1e-05
0.00748711 -0.0120539 1e-05
0.0075618 -0.0121728 1e-05
0.00763719 -0.0122912 1e-05
0.00771329 -0.0124092 1e-05
0.00778313 -0.012516 1e-05
0.00785574 -0.0126256 1e-05
0.00792903 -0.0127347 1e-05
0.00800301 -0.0128434 1e-05
0.0080777 -0.0129516 1e-05
0.00815644 -0.0130642 1e-05
0.00819956 -0.0131249 1e-05
0.00824291 -0.0131854 1e-05
0.00828651 -0.0132458 1e-05
0.00833035 -0.013306 1e-05
0.00837203 -0.0133626 1e-05
0.00849073 -0.0135224 1e-05
0.00861109 -0.0136809 1e-05
0.00873316 -0.0138381 1e-05
0.00885719 -0.0139938 1e-05
0.00896551 -0.0141261 1e-05
0.00897682 -0.0141396 1e-05
0.00898814 -0.0141531 1e-05
0.00899948 -0.0141665 1e-05
0.00901084 -0.01418 1e-05
0.00902231 -0.0141935 1e-05
0.00913057 -0.0143211 1e-05
0.00924027 -0.0144475 1e-05
0.00935142 -0.0145725 1e-05
0.00946403 -0.0146963 1e-05
0.0095636 -0.0148033 1e-05
0.00966208 -0.0149072 1e-05
0.0097616 -0.0150101 1e-05
0.00986217 -0.0151119 1e-05
0.0099637 -0.0152128 1e-05
0.0100766 -0.0153228 1e-05
0.0100945 -0.01534 1e-05
0.0101125 -0.0153571 1e-05
0.0101305 -0.0153741 1e-05
0.0101486 -0.0153912 1e-05
0.0101663 -0.0154079 1e-05
0.0102878 -0.0155218 1e-05
0.0104105 -0.0156345 1e-05
0.0105344 -0.0157457 1e-05
0.0106596 -0.0158556 1e-05
0.0107738 -0.0159533 1e-05
0.010893 -0.016053 1e-05
0.0110133 -0.0161516 1e-05
0.0111345 -0.0162489 1e-05
0.0112568 -0.016345 1e-05
0.0113859 -0.0164441 1e-05
0.0113881 -0.0164457 1e-05
0.0113902 -0.0164473 1e-05
0.0113924 -0.0164489 1e-05
0.0113945 -0.0164505 1e-05
0.0113967 -0.0164522 1e-05
0.0115179 -0.0165429 1e-05
0.0116401 -0.0166323 1e-05
0.0117632 -0.0167205 1e-05
0.0118871 -0.0168075 1e-05
0.0120028 -0.016887 1e-05
0.0121272 -0.0169711 1e-05
0.0122524 -0.017054 1e-05
0.0123785 -0.0171354 1e-05
0.0125054 -0.0172158 1e-05
0.0126245 -0.0172901 1e-05
0.0127195 -0.0173484 1e-05
0.012815 -0.0174059 1e-05
0.0129108 -0.0174629 1e-05
0.013007 -0.0175192 1e-05
0.0131148 -0.0175816 1e-05
0.0131421 -0.0175972 1e-05
0.0131693 -0.0176126 1e-05
0.0131966 -0.0176281 1e-05
0.013224 -0.0176435 1e-05
0.0132511 -0.0176587 1e-05
0.0133774 -0.0177292 1e-05
0.0135041 -0.0177989 1e-05
0.0136314 -0.0178676 1e-05
0.0137592 -0.0179354 1e-05
0.0138825 -0.0179996 1e-05
0.0140098 -0.0180645 1e-05
0.0141374 -0.0181287 1e-05
0.0142654 -0.0181921 1e-05
[...]
POINT_DATA 11337
 FIELD attributes 1
U 3 11337 float
10.0061 	-0.0027364 	0 10.0238 	-0.0052573 	0 10.0415 	-0.00746738 	0 10.0593 	-0.00968306 	0 10.077 	-0.0119043 	0 10.0931 	-0.00677037 	0 10.1191 	-0.0266486 	0 10.1417 	-0.033546 	0 10.1644 	-0.0405036 	0 10.187 	-0.0475217 	0 10.2008 	-0.0367602 	0 10.2333 	-0.0710088 	0 10.261 	-0.0827533 	0 10.2887 	-0.0946457 	0 10.3163 	-0.106687 	0 10.3304 	-0.0852223 	0 10.3798 	-0.138232 	0 10.4209 	-0.155097 	0 10.4618 	-0.172191 	0 10.5026 	-0.189516 	0 10.5222 	-0.14875 	0 10.6001 	-0.224663 	0 10.6584 	-0.242285 	0 10.7165 	-0.260129 	0 10.7695 	-0.265767 	0 10.7949 	-0.203857 	0 10.9028 	-0.280411 	0 10.9867 	-0.31418 	0 11.0578 	-0.324758 	0 11.1013 	-0.289611 	0 11.1241 	-0.219272 	0 11.2557 	-0.288739 	0 11.3772 	-0.347162 	0 11.4462 	-0.345406 	0 11.4399 	-0.262924 	0 11.4328 	-0.178927 	0 11.5624 	-0.249221 	0 11.6909 	-0.318879 	0 11.7353 	-0.292684 	0 11.7035 	-0.172731 	0 11.6729 	-0.0536521 	0 11.764 	-0.110456 	0 11.8546 	-0.166824 	0 11.8957 	-0.110047 	0 11.8832 	0.059576 	0 11.8704 	0.228123 	0 11.944 	0.234637 	0 12.0175 	0.241118 	0 12.0285 	0.332667 	0 11.9771 	0.507184 	0 11.9253 	0.681428 	0 12.0057 	0.761378 	0 12.0701 	0.845542 	0 12.0173 	0.962104 	0 11.8785 	1.07543 	0 11.6737 	1.1871 	0 11.7083 	1.26522 	0 11.599 	1.3236 	0 11.4736 	1.38 	0 11.3474 	1.43652 	0 11.2821 	1.46558 	0 11.2545 	1.48924 	0 11.227 	1.51303 	0 11.1996 	1.53696 	0 11.1662 	1.55783 	0 11.1163 	1.57043 	0 11.0133 	1.63557 	0 10.8383 	1.66893 	0 10.6657 	1.70406 	0 10.4202 	1.70442 	0 10.1347 	1.68676 	0 10.0089 	1.69767 	0 9.87503 	1.70627 	0 9.65404 	1.68567 	0 9.42761 	1.66335 	0 9.13172 	1.61621 	0 9.08215 	1.60666 	0 9.02361 	1.59505 	0 8.95813 	1.58184 	0 8.89263 	1.56861 	0 8.82664 	1.55527 	0 8.67865 	1.5285 	0 8.53066 	1.50171 	0 8.38265 	1.4749 	0 8.22902 	1.44023 	0 8.06543 	1.39158 	0 7.89386 	1.33405 	0 7.72139 	1.27571 	0 7.54502 	1.20703 	0 7.38409 	1.11245 	0 7.22197 	1.01689 	0 7.09934 	0.921355 	0 6.99068 	0.814247 	0 6.90415 	0.690094 	0 6.81491 	0.565054 	0 6.73855 	0.449614 	0 6.68661 	0.314046 	-2.36355e-21 6.63035 	0.16438 	-1.53338e-20 6.56886 	0.0131948 	-2.78169e-20 6.50204 	-0.139475 	-3.97925e-20 6.43788 	-0.285053 	-5.64429e-20 6.40761 	-0.44689 	-1.57754e-19 6.37039 	-0.63043 	-1.67568e-19 6.32931 	-0.813203 	-1.82176e-19 6.28515 	-0.995486 	-1.75426e-19 6.23972 	-1.18323 	-4.33002e-20 6.21834 	-1.38401 	-2.51244e-20 6.19278 	-1.58321 	-7.28583e-21 6.19873 	-1.83677 	1.11461e-21 6.23158 	-2.11988 	4.62481e-22 6.26026 	-2.42038 	-4.72517e-22 6.28781 	-2.62868 	1.77935e-20 6.30729 	-2.82064 	2.76881e-20 6.31395 	-2.98241 	2.04339e-20 6.31779 	-3.14089 	1.26633e-20 6.31836 	-3.22087 	8.40405e-21 6.31599 	-3.31087 	9.78696e-21 6.31275 	-3.39999 	1.11474e-20 6.3093 	-3.48832 	1.23971e-20 6.3121 	-3.57664 	1.27062e-20 6.31423 	-3.6694 	1.30067e-20 6.32777 	-3.89638 	7.16748e-21 6.33634 	-4.11794 	1.26698e-21 6.28007 	-4.27486 	-2.42786e-21 6.2028 	-4.41041 	-5.53525e-21 6.14882 	-4.49647 	-7.60011e-21 6.14956 	-4.54368 	-7.57374e-21 6.15018 	-4.59074 	-7.54373e-21 6.14089 	-4.63129 	-7.61679e-21 6.12474 	-4.66734 	-7.75944e-21 6.10785 	-4.70454 	-7.90383e-21 6.05521 	-4.85995 	-9.95571e-21 6.00023 	-5.0124 	-1.19299e-20 5.91757 	-5.13654 	-1.07168e-20 5.78716 	-5.21228 	-3.85042e-21 5.68385 	-5.26872 	1.57756e-21 5.66989 	-5.37572 	8.19106e-21 5.65584 	-5.4825 	1.4874e-20 5.59608 	-5.54618 	1.16127e-20 5.53434 	-5.60782 	8.00044e-21 5.46562 	-5.67584 	4.03768e-21 5.41129 	-5.73433 	3.63949e-21 5.3568 	-5.79247 	3.24695e-21 5.30217 	-5.85026 	2.86007e-21 5.23178 	-5.87657 	2.86964e-21 5.16625 	-5.89743 	2.91777e-21 5.09108 	-6.08061 	1.65677e-21 5.01649 	-6.26471 	3.96448e-22 4.90071 	-6.37403 	-3.10077e-22 4.7428 	-6.40087 	-1.0548e-21 4.61062 	-6.42116 	-1.68996e-21 4.58696 	-6.52555 	-1.13009e-21 4.55034 	-6.60871 	-9.44312e-22 4.49188 	-6.65631 	-1.38682e-21 4.43357 	-6.70386 	-1.82793e-21 4.36701 	-6.75821 	-2.33124e-21 4.31027 	-6.80627 	-2.55683e-21 4.25368 	-6.85424 	-2.78387e-21 4.19727 	-6.90212 	-3.01235e-21 4.14015 	-6.93191 	-3.06143e-21 4.08557 	-6.94357 	-2.94418e-21 3.99708 	-7.12284 	-7.304e-22 3.90587 	-7.28808 	1.51718e-21 3.79758 	-7.37045 	3.9076e-21 3.6796 	-7.36375 	6.51257e-21 3.57395 	-7.35686 	8.86239e-21 3.52256 	-7.57509 	1.43354e-20 3.45567 	-7.70361 	1.40699e-20 3.37698 	-7.76339 	9.40957e-21 3.29922 	-7.82394 	4.80314e-21 3.21243 	-7.87005 	-2.98118e-22 3.21183 	-7.8841 	-1.1243e-21 3.20933 	-7.89093 	-1.38784e-21 3.20573 	-7.8936 	-1.32724e-21 3.20213 	-7.89627 	-1.26687e-21 3.19848 	-7.89898 	-1.20585e-21 3.13354 	-7.9567 	-4.6083e-21 3.06931 	-8.01451 	-7.98401e-21 3.0058 	-8.07239 	-1.13331e-20 2.95061 	-8.09283 	-1.23435e-20 2.91251 	-8.04099 	-8.88661e-21 2.86721 	-8.2069 	-5.2891e-21 2.82281 	-8.37446 	-1.69284e-21 2.77228 	-8.40089 	1.24736e-21 2.71316 	-8.28487 	3.50093e-21 2.65615 	-8.17273 	5.67636e-21 2.63205 	-8.3689 	4.75742e-21 2.58782 	-8.42903 	5.99204e-21 2.53316 	-8.41801 	8.35207e-21 2.47894 	-8.40822 	1.06891e-20 2.41151 	-8.39752 	1.35912e-20 2.4072 	-8.39712 	1.40961e-20 2.40289 	-8.39673 	1.46004e-20 2.39858 	-8.39635 	1.5104e-20 2.39464 	-8.39531 	1.52379e-20 2.39202 	-8.39191 	1.40552e-20 2.30752 	-8.38352 	5.76603e-21 2.22123 	-8.37052 	-3.87208e-21 2.13517 	-8.35969 	-1.36505e-20 2.05141 	-8.31808 	-2.49445e-20 1.97332 	-8.2273 	-3.82421e-20 1.85507 	-8.26031 	-5.29413e-20 1.7371 	-8.2986 	-6.78321e-20 1.61622 	-8.22943 	-6.19827e-20 1.48342 	-8.05814 	-3.42067e-20 1.35428 	-7.89636 	-7.21441e-21 1.1867 	-7.89207 	2.7195e-20 1.05539 	-7.77375 	3.44048e-20 0.945979 	-7.58714 	2.51544e-20 0.835225 	-7.40755 	1.65612e-20 0.702235 	-7.14926 	-1.5925e-20 0.604182 	-6.98697 	-4.69587e-20 0.562367 	-6.74684 	-3.83776e-20 0.519721 	-6.5084 	-3.00441e-20 0.476145 	-6.27185 	-2.19887e-20 0.392319 	-5.83153 	-7.44482e-21 0.387788 	-5.81391 	-7.09694e-21 0.38325 	-5.79632 	-6.75088e-21 0.378706 	-5.77874 	-6.40664e-21 0.374155 	-5.76118 	-6.06423e-21 0.370989 	-5.74546 	-6.53728e-21 0.405388 	-5.38153 	-1.97315e-21 0.442768 	-5.01366 	2.85958e-21 0.48307 	-4.64057 	7.62515e-21 0.526909 	-4.26124 	1.23082e-20 0.5879 	-3.97725 	1.57294e-20 0.721296 	-3.58665 	1.06926e-20 0.864385 	-3.20457 	4.50757e-21 1.0163 	-2.84033 	-1.74226e-21 1.12049 	-2.69243 	-2.97316e-21 1.25321 	-2.5226 	-4.149e-21 1.29329 	-2.46317 	-7.06846e-21 1.33418 	-2.40439 	-9.93145e-21 1.36176 	-2.3799 	-9.45361e-21 1.3776 	-2.38488 	-6.10387e-21 1.38818 	-2.3884 	-3.85596e-21 1.47593 	-2.34347 	9.71113e-21 1.5676 	-2.30392 	2.42032e-20 1.60769 	-2.35138 	2.13178e-20 1.6255 	-2.43236 	1.10559e-20 1.64242 	-2.51689 	-1.0034e-21 1.64315 	-2.51757 	-1.05973e-21 1.64389 	-2.51825 	-1.11606e-21 1.64405 	-2.51874 	-1.12592e-21 1.64408 	-2.51919 	-1.12499e-21 1.6441 	-2.51964 	-1.12406e-21 1.64606 	-2.60576 	-7.24203e-22 1.64736 	-2.69004 	-3.27735e-22 1.6463 	-2.7606 	0 1.63607 	-2.7703 	0 1.62344 	-2.78165 	0 1.62266 	-2.78309 	0 1.62187 	-2.78452 	0 1.62077 	-2.77966 	0 1.61951 	-2.77156 	0 1.61827 	-2.76348 	0 1.61113 	-2.75919 	0 1.60394 	-2.75486 	0 1.59956 	-2.73979 	5.25378e-23 1.60097 	-2.70329 	2.10465e-22 1.6027 	-2.66684 	3.69053e-22 1.60105 	-2.65136 	3.63617e-22 1.59943 	-2.6359 	3.58001e-22 1.59966 	-2.61866 	3.9865e-22 1.60076 	-2.60062 	4.60122e-22 1.60194 	-2.58234 	5.2237e-22 1.60389 	-2.55263 	8.6295e-22 1.60603 	-2.52297 	1.20222e-21 1.60845 	-2.49337 	1.33399e-21 1.61128 	-2.46383 	9.36425e-22 1.61405 	-2.43705 	5.71372e-22 1.61694 	-2.40848 	1.29232e-21 1.62003 	-2.37996 	2.01989e-21 1.62367 	-2.3527 	1.72314e-21 1.62761 	-2.32579 	1.17415e-21 1.63195 	-2.29776 	6.03274e-22 1.63453 	-2.28248 	4.15067e-22 1.63719 	-2.26723 	2.27359e-22 1.64014 	-2.25186 	8.42145e-23 1.64478 	-2.23545 	2.59152e-22 1.64924 	-2.21997 	4.25795e-22 1.65645 	-2.18151 	2.27638e-22 1.66411 	-2.14328 	2.85368e-23 1.67577 	-2.10302 	2.61054e-23 1.68862 	-2.06264 	5.82354e-23 1.70079 	-2.02726 	7.75434e-23 1.70161 	-2.02404 	6.07129e-23 1.70245 	-2.02081 	4.59333e-23 1.70362 	-2.01739 	6.08523e-23 1.70478 	-2.01398 	7.57561e-23 1.70596 	-2.01053 	9.07817e-23 1.71747 	-1.97819 	2.74565e-22 1.72939 	-1.94606 	4.56527e-22 1.74172 	-1.91415 	6.3661e-22 1.75502 	-1.88697 	3.45977e-22 1.76701 	-1.8637 	6.06172e-23 1.77764 	-1.83701 	-8.89101e-23 1.78865 	-1.81127 	-2.01052e-22 1.80027 	-1.78884 	-1.59663e-22 1.81215 	-1.76657 	-1.19087e-22 1.82555 	-1.74221 	-7.53018e-23 1.82776 	-1.73843 	-7.83263e-23 1.82998 	-1.73466 	-8.13587e-23 1.83221 	-1.73089 	-8.43989e-23 1.83458 	-1.72681 	-8.40021e-23 1.83698 	-1.72266 	-8.20872e-23 1.85078 	-1.69917 	-5.91986e-23 1.86533 	-1.67457 	-3.07281e-23 1.88024 	-1.65018 	-2.18478e-24 1.89656 	-1.62304 	1.60552e-23 1.91169 	-1.59858 	3.19052e-23 1.9254 	-1.57859 	1.6792e-25 1.93971 	-1.55747 	-6.96999e-25 1.95473 	-1.53488 	3.77847e-23 1.97004 	-1.51254 	7.60007e-23 1.98641 	-1.48927 	1.17086e-22 1.98666 	-1.48895 	1.16851e-22 1.98691 	-1.4886 	1.16763e-22 1.98717 	-1.48823 	1.16798e-22 1.98743 	-1.48785 	1.16833e-22 1.98769 	-1.48748 	1.16868e-22 2.00257 	-1.46655 	1.77462e-22 2.0177 	-1.44584 	2.3694e-22 2.03309 	-1.42535 	2.95297e-22 2.04812 	-1.40798 	2.26453e-22 2.06156 	-1.39525 	2.25923e-23 2.07707 	-1.37356 	1.10419e-23 2.09284 	-1.35205 	-4.38506e-25 2.10793 	-1.3354 	-2.11672e-26 2.12253 	-1.32262 	-1.0367e-23 2.13636 	-1.31082 	-2.0245e-23 2.14808 	-1.29545 	-4.30561e-24 2.15934 	-1.28344 	2.77501e-23 2.17048 	-1.27272 	6.57733e-23 2.18173 	-1.26207 	1.03801e-22 2.19442 	-1.25026 	1.46304e-22 2.19767 	-1.24733 	1.51868e-22 2.20094 	-1.24441 	1.57447e-22 2.20421 	-1.24149 	1.63041e-22 2.20734 	-1.23833 	1.71146e-22 2.20985 	-1.23421 	1.8904e-22 2.22525 	-1.22272 	1.5692e-22 2.23997 	-1.20952 	1.71611e-22 2.25486 	-1.19644 	1.87061e-22 2.26829 	-1.18092 	2.02821e-22 2.27946 	-1.16311 	2.18226e-22 2.29586 	-1.1544 	1.67543e-22 2.3124 	-1.14582 	1.17259e-22 2.32631 	-1.13265 	5.32373e-23 2.33769 	-1.11487 	-1.72463e-23 2.34888 	-1.09777 	-8.47613e-23 2.36539 	-1.08989 	-1.55121e-22 2.37984 	-1.07875 	-6.01647e-23 2.39302 	-1.0656 	1.39949e-22 2.40637 	-1.05259 	3.40533e-22 2.41824 	-1.03758 	5.46171e-22 2.42459 	-1.03481 	4.65547e-22 2.4296 	-1.02999 	4.30302e-22 2.43463 	-1.02518 	3.94954e-22 2.43968 	-1.0204 	3.59505e-22 2.44503 	-1.01538 	3.22045e-22 2.45316 	-1.00789 	3.63532e-22 2.46133 	-1.00045 	4.03863e-22 2.46956 	-0.993059 	4.43043e-22 2.47784 	-0.985716 	4.81078e-22 2.48245 	-0.983497 	-8.62619e-23 2.49907 	-0.967239 	-9.04291e-22 2.51239 	-0.955509 	-1.10067e-21 2.52583 	-0.943901 	-1.29377e-21 2.5363 	-0.936685 	-9.09744e-22 2.54363 	-0.93383 	1.80782e-23 2.56064 	-0.917708 	1.01044e-21 2.57786 	-0.901698 	2.00564e-21 2.59024 	-0.892362 	1.99498e-21 2.59779 	-0.889786 	9.10498e-22 2.60521 	-0.887301 	-1.49266e-22 2.62231 	-0.87163 	-1.8059e-22 2.63845 	-0.857652 	-2.04001e-22 2.64996 	-0.850402 	-1.98474e-22 2.65957 	-0.845663 	-2.52285e-22 2.66706 	-0.84353 	-3.64917e-22 2.68423 	-0.828262 	-2.86626e-22 2.6958 	-0.821081 	-3.9985e-22 2.70736 	-0.814091 	-5.16065e-22 2.71901 	-0.807145 	-6.31795e-22 2.72906 	-0.802218 	-6.98236e-22 2.73458 	-0.797711 	-4.57762e-22 2.7386 	-0.795321 	-5.49597e-22 2.74262 	-0.792936 	-6.4105e-22 2.74666 	-0.790556 	-7.32121e-22 2.75093 	-0.788052 	-8.27758e-22 2.75842 	-0.783716 	-1.06624e-21 2.76594 	-0.779397 	-1.30288e-21 2.7735 	-0.775095 	-1.53771e-21 2.7811 	-0.77081 	-1.77071e-21 2.78198 	-0.761641 	-8.22955e-22 2.80023 	-0.760419 	-5.48383e-22 2.81181 	-0.753885 	-3.54791e-22 2.82348 	-0.747388 	-1.61381e-22 2.83288 	-0.739168 	0 2.83049 	-0.722209 	0 2.85251 	-0.72432 	0 2.87025 	-0.72297 	-1.47177e-23 2.88192 	-0.716693 	-5.04084e-23 2.88204 	-0.70158 	-1.45418e-22 2.87994 	-0.684808 	-2.5208e-22 2.90202 	-0.687327 	8.00887e-22 2.92414 	-0.689864 	1.85409e-21 2.93414 	-0.682712 	1.76669e-21 2.93212 	-0.665977 	5.14169e-22 2.93027 	-0.649389 	-7.33471e-22 2.9524 	-0.652311 	-2.47099e-21 2.97356 	-0.654452 	-4.07771e-21 2.9822 	-0.646634 	-4.03694e-21 2.98307 	-0.632301 	-3.00462e-21 2.98144 	-0.615885 	-1.64144e-21 3.00359 	-0.619208 	-4.1762e-21 3.01705 	-0.615471 	-4.40393e-21 3.02598 	-0.608027 	-3.40946e-21 3.03484 	-0.600498 	-2.38377e-21 3.03341 	-0.584241 	7.17638e-22 3.05288 	-0.585742 	3.11986e-21 3.06195 	-0.578592 	2.69055e-21 3.07113 	-0.571507 	2.26616e-21 3.08042 	-0.564485 	1.84664e-21 3.08614 	-0.5544 	6.54799e-22 3.09466 	-0.553703 	7.14841e-22 3.09966 	-0.550015 	5.08786e-22 3.10469 	-0.546345 	3.03244e-22 3.10975 	-0.542692 	9.82124e-23 3.11517 	-0.538814 	-1.19903e-22 3.11947 	-0.535789 	-3.98112e-22 3.12379 	-0.532776 	-6.75223e-22 3.12813 	-0.529775 	-9.51239e-22 3.13249 	-0.526786 	-1.22617e-21 3.13273 	-0.527349 	-5.3644e-22 3.14634 	-0.517382 	7.48958e-22 3.15587 	-0.510921 	1.38019e-21 3.16549 	-0.504515 	2.00615e-21 3.17521 	-0.498165 	2.62691e-21 3.17239 	-0.503026 	9.2004e-22 3.19475 	-0.485981 	4.47191e-22 3.20444 	-0.479843 	2.91087e-22 3.21422 	-0.473757 	1.35148e-22 3.22172 	-0.469884 	0 3.21382 	-0.480133 	0 3.23847 	-0.461076 	0 3.25374 	-0.450458 	1.24266e-22 3.26364 	-0.444675 	3.19748e-22 3.26404 	-0.447984 	6.39701e-22 3.25666 	-0.458553 	1.05773e-21 3.28106 	-0.439534 	2.38273e-21 3.30353 	-0.422608 	3.525e-21 3.31351 	-0.417108 	3.63431e-21 3.30758 	-0.427315 	1.96346e-21 3.30073 	-0.438207 	2.12605e-22 3.32481 	-0.419206 	1.56098e-22 3.34922 	-0.400274 	1.01365e-22 3.35823 	-0.396438 	1.12752e-23 3.35204 	-0.407769 	-5.17369e-22 3.34572 	-0.418986 	-1.04639e-21 3.36941 	-0.4 	1.1618e-21 3.39342 	-0.381078 	3.37835e-21 3.40288 	-0.377649 	3.99909e-21 3.39724 	-0.389289 	2.65835e-21 3.39147 	-0.40082 	1.32364e-21 3.4147 	-0.381849 	-1.30553e-21 3.43761 	-0.363644 	-3.78548e-21 3.44645 	-0.361565 	-2.87522e-21 3.44304 	-0.371804 	-2.41027e-22 3.43784 	-0.383626 	2.6152e-21 3.46055 	-0.364669 	-2.00635e-22 3.4782 	-0.352072 	-2.2742e-21 3.48709 	-0.350072 	-3.09955e-21 3.48924 	-0.355197 	-2.6165e-21 3.48463 	-0.36729 	-8.47842e-22 3.50676 	-0.34834 	-6.80816e-22 3.51975 	-0.341179 	-5.72739e-22 3.52867 	-0.33925 	-4.90919e-22 3.53575 	-0.339394 	-4.55273e-22 3.53176 	-0.351739 	-6.93087e-22 3.55326 	-0.332794 	1.58649e-21 3.56218 	-0.330901 	1.72118e-21 3.57111 	-0.329038 	1.85313e-21 3.58008 	-0.327175 	1.98619e-21 3.57911 	-0.336909 	5.98314e-22 3.59638 	-0.322992 	1.58116e-21 3.60527 	-0.321193 	6.33932e-22 3.61419 	-0.319393 	-3.12017e-22 3.62316 	-0.317593 	-1.25669e-21 3.62651 	-0.322738 	-2.88212e-21 3.64005 	-0.313758 	-4.45154e-21 3.64891 	-0.312021 	-4.28769e-21 3.65781 	-0.310282 	-4.12517e-21 3.66675 	-0.308543 	-3.96399e-21 3.67388 	-0.309192 	-3.21038e-21 3.68003 	-0.305825 	-2.6341e-21 3.68465 	-0.304944 	-2.29701e-21 3.68929 	-0.304063 	-1.95957e-21 3.69393 	-0.303181 	-1.62178e-21 3.69895 	-0.30223 	-1.25704e-21 3.7031 	-0.301446 	-9.61074e-22 3.70726 	-0.300661 	-6.64811e-22 3.71142 	-0.299876 	-3.6825e-22 3.71559 	-0.299091 	-7.13917e-23 3.71698 	-0.2947 	5.37155e-22 3.72881 	-0.296767 	7.05523e-22 3.7376 	-0.295146 	8.50531e-22 3.74641 	-0.293523 	9.95684e-22 3.75526 	-0.291899 	1.14098e-21 3.75514 	-0.279084 	1.14441e-21 3.77369 	-0.288957 	1.00066e-21 3.78241 	-0.287392 	7.03163e-22 3.79115 	-0.285826 	4.05773e-22 3.79993 	-0.284259 	1.08491e-22 3.79328 	-0.264165 	0 3.81876 	-0.281582 	4.60016e-23 3.82739 	-0.280073 	2.00514e-22 3.83605 	-0.278563 	3.551e-22 3.84474 	-0.277051 	5.09759e-22 3.83131 	-0.249911 	1.07536e-21 3.86391 	-0.274629 	3.95098e-21 3.87246 	-0.273176 	4.11541e-21 3.88102 	-0.271722 	4.27858e-21 3.88665 	-0.266947 	4.14114e-21 3.86919 	-0.2363 	1.66737e-21 3.90345 	-0.262035 	6.47431e-22 3.91763 	-0.266685 	2.86074e-22 3.9261 	-0.265288 	1.13644e-22 3.92538 	-0.25394 	1.58278e-22 3.90701 	-0.22334 	6.2265e-22 3.94216 	-0.249248 	1.97625e-22 3.96291 	-0.260586 	7.00001e-23 3.97128 	-0.259247 	2.01138e-22 3.96403 	-0.241569 	-4.20309e-22 3.94469 	-0.210999 	-1.63404e-21 3.98078 	-0.237091 	-4.09374e-21 4.00827 	-0.254867 	-5.96229e-21 4.01653 	-0.253589 	-6.4538e-21 4.00255 	-0.229805 	-5.75371e-21 3.98216 	-0.199251 	-4.68294e-21 4.01926 	-0.225532 	-9.70018e-21 4.05368 	-0.249521 	-1.4322e-20 4.06184 	-0.248303 	-1.43159e-20 4.04087 	-0.218618 	-8.38231e-21 4.01938 	-0.18807 	-2.23821e-21 4.05753 	-0.214548 	2.65361e-21 4.09527 	-0.24092 	7.53725e-21 4.10217 	-0.23861 	7.91053e-21 4.07907 	-0.208006 	4.18589e-21 4.05638 	-0.17745 	4.58029e-22 4.09566 	-0.204134 	3.32447e-22 4.13453 	-0.230713 	2.02876e-22 4.14148 	-0.228578 	-1.72128e-22 4.1171 	-0.197945 	-2.44115e-22 4.09313 	-0.167362 	-3.2096e-22 4.1336 	-0.19426 	-4.02944e-21 4.17365 	-0.221055 	-7.73285e-21 4.18061 	-0.21908 	-7.70095e-21 4.15487 	-0.188398 	-3.9355e-21 4.12953 	-0.157767 	-1.67606e-22 4.17124 	-0.184882 	-3.68248e-23 4.21255 	-0.211895 	9.80548e-23 4.21948 	-0.21007 	-8.99888e-22 4.19229 	-0.179331 	-2.12133e-21 4.16551 	-0.148644 	-3.3368e-21 4.20853 	-0.17597 	-5.9216e-21 4.25114 	-0.203195 	-8.51298e-21 4.25802 	-0.201515 	-8.77331e-21 4.2293 	-0.170724 	-7.42999e-21 4.20099 	-0.139987 	-6.08185e-21 4.24538 	-0.167502 	-7.6582e-21 4.28934 	-0.194912 	-9.2357e-21 4.29481 	-0.192327 	-6.83058e-21 4.26583 	-0.162548 	-2.80847e-21 4.23592 	-0.131776 	1.27336e-21 4.28174 	-0.159468 	8.9026e-21 4.32138 	-0.182713 	1.56131e-20 4.32679 	-0.180276 	1.6882e-20 4.30194 	-0.154819 	1.24513e-20 4.27036 	-0.124024 	6.66887e-21 4.31768 	-0.151885 	8.66544e-21 4.35292 	-0.171183 	9.96501e-21 4.35826 	-0.168891 	9.46759e-21 4.33759 	-0.147531 	7.49943e-21 4.30424 	-0.116716 	4.7873e-21 4.35311 	-0.144742 	3.82992e-21 4.38387 	-0.160301 	2.52366e-21 4.38912 	-0.158141 	7.0748e-22 4.37267 	-0.14065 	-6.8082e-22 4.3375 	-0.109804 	-1.69944e-21 4.38799 	-0.138011 	-8.49369e-21 4.41415 	-0.150036 	-1.17958e-20 4.41931 	-0.147996 	-1.20557e-20 4.40715 	-0.134157 	-9.60902e-21 4.37008 	-0.103255 	-3.24193e-21 4.42224 	-0.131655 	-1.73634e-21 4.44373 	-0.140333 	-1.59592e-21 4.44878 	-0.138404 	-2.19174e-21 4.44098 	-0.128018 	-3.17519e-21 4.40193 	-0.097037 	-5.10355e-21 4.45584 	-0.125643 	-1.51977e-20 4.47255 	-0.131151 	-1.78771e-20 4.47749 	-0.129335 	-1.82009e-20 4.47411 	-0.12223 	-1.69173e-20 4.43301 	-0.0911632 	-8.35283e-21 4.48874 	-0.11996 	-1.28923e-20 4.50057 	-0.122458 	-1.3363e-20 4.5054 	-0.120749 	-1.31819e-20 4.50652 	-0.116759 	-1.26169e-20 4.46328 	-0.0856116 	-7.49273e-21 4.52088 	-0.11458 	-1.26724e-20 4.52773 	-0.114208 	-1.17236e-20 4.53245 	-0.112588 	-1.0513e-20 4.5372 	-0.110983 	-9.30439e-21 4.49273 	-0.080313 	-1.84478e-21 4.54954 	-0.107936 	6.28667e-21 4.55409 	-0.106396 	6.48048e-21 4.55868 	-0.104871 	6.67701e-21 4.56331 	-0.10336 	6.87623e-21 4.52138 	-0.0753056 	-1.44226e-21 4.57527 	-0.100495 	-1.10114e-20 4.57969 	-0.0990476 	-1.1355e-20 4.58415 	-0.0976135 	-1.17021e-20 4.58866 	-0.0961928 	-1.20525e-20 4.54922 	-0.0705838 	-3.92904e-21 4.60021 	-0.0935042 	-1.97473e-21 4.6045 	-0.0921382 	-8.65749e-22 4.60883 	-0.0907849 	2.43286e-22 4.6132 	-0.0894441 	1.35238e-21 4.57622 	-0.0661088 	1.50729e-21 4.62434 	-0.0869201 	1.9747e-21 4.62851 	-0.0856324 	3.04168e-21 4.63271 	-0.0843564 	4.10815e-21 4.63694 	-0.0830922 	5.17411e-21 4.60237 	-0.0618708 	6.31755e-21 4.64768 	-0.0807287 	1.0801e-20 4.65171 	-0.0795208 	1.04537e-20 4.65578 	-0.078324 	1.01078e-20 4.65988 	-0.0771382 	9.76327e-21 4.62766 	-0.05788 	5.74849e-21 4.6702 	-0.0749187 	1.15648e-20 4.6741 	-0.0737829 	1.03813e-20 4.67803 	-0.0726576 	9.20036e-21 4.682 	-0.0715425 	8.02202e-21 4.65207 	-0.0541048 	9.63794e-22 4.69189 	-0.069455 	1.08724e-21 4.69565 	-0.0683819 	1.75615e-21 4.69945 	-0.0673186 	2.42484e-21 4.70328 	-0.0662651 	3.0933e-21 4.67559 	-0.0505077 	3.93207e-21 4.71274 	-0.0642933 	1.72684e-21 4.71637 	-0.0632783 	2.27808e-21 4.72003 	-0.0622726 	2.82797e-21 4.72372 	-0.0612761 	3.37653e-21 4.69821 	-0.0470729 	6.16616e-21 4.73276 	-0.0594149 	5.73814e-21 4.73625 	-0.0584573 	6.08028e-21 4.73978 	-0.0575084 	6.42183e-21 4.74333 	-0.0565682 	6.76281e-21 4.71992 	-0.0438014 	7.66421e-21 4.75196 	-0.0548144 	1.09078e-20 4.75532 	-0.0539166 	9.45645e-21 4.75871 	-0.0530271 	8.00715e-21 4.76212 	-0.0521456 	6.55986