# vtk DataFile Version 2.0
track0
ASCII
DATASET POLYDATA
POINTS 11337 double
-0.0205 0.001 1e-05
-0.0202034 0.000999919 1e-05
-0.0199069 0.000999763 1e-05
-0.0196103 0.000999543 1e-05
-0.0193137 0.000999257 1e-05
-0.0190172 0.000998907 1e-05
-0.0187132 0.000998703 1e-05
-0.0184093 0.000997903 1e-05
-0.0181054 0.000996897 1e-05
-0.0178015 0.000995686 1e-05
-0.0174976 0.000994269 1e-05
-0.0172058 0.000993217 1e-05
-0.016914 0.000991193 1e-05
-0.0166222 0.000988839 1e-05
-0.0163305 0.000986155 1e-05
-0.0160387 0.000983138 1e-05
-0.0157586 0.000980827 1e-05
-0.0154785 0.000977097 1e-05
-0.0151984 0.000972928 1e-05
-0.0149183 0.000968318 1e-05
-0.0146381 0.000963262 1e-05
-0.0143692 0.00095946 1e-05
-0.0141003 0.000953761 1e-05
-0.0138314 0.000947649 1e-05
-0.0135625 0.000941122 1e-05
-0.0132934 0.000934483 1e-05
-0.0130353 0.000929607 1e-05
-0.0127771 0.000922968 1e-05
-0.012519 0.000915586 1e-05
-0.0122609 0.000908006 1e-05
-0.0120025 0.000901266 1e-05
-0.0117547 0.00089638 1e-05
-0.0115068 0.000890022 1e-05
-0.011259 0.000882461 1e-05
-0.0110112 0.000874983 1e-05
-0.0107632 0.000869283 1e-05
-0.0105252 0.000865559 1e-05
-0.0102873 0.00086043 1e-05
-0.0100494 0.000853941 1e-05
-0.00981146 0.000848007 1e-05
-0.00957337 0.000844493 1e-05
-0.00934491 0.000843443 1e-05
-0.00911646 0.000841298 1e-05
-0.00888802 0.000838083 1e-05
-0.00865957 0.00083597 1e-05
-0.00843108 0.000837115 1e-05
-0.00821175 0.000841331 1e-05
-0.00799242 0.000845639 1e-05
-0.0077731 0.00085004 1e-05
-0.00755381 0.000856104 1e-05
-0.00733443 0.000865394 1e-05
-0.00712387 0.000877426 1e-05
-0.00691338 0.000890775 1e-05
-0.00670298 0.000905514 1e-05
-0.00649275 0.000922345 1e-05
-0.0062816 0.000941462 1e-05
-0.00611373 0.000958533 1e-05
-0.00594596 0.000976662 1e-05
-0.00577831 0.000995793 1e-05
-0.00561078 0.00101594 1e-05
-0.00552488 0.00102682 1e-05
-0.00547407 0.00103342 1e-05
-0.00542328 0.00104014 1e-05
-0.0053725 0.00104698 1e-05
-0.00532174 0.00105395 1e-05
-0.00527083 0.00106105 1e-05
-0.00507675 0.00108847 1e-05
-0.00488287 0.00111726 1e-05
-0.00468915 0.00114709 1e-05
-0.0044956 0.00117801 1e-05
-0.00430044 0.00120994 1e-05
-0.00411412 0.00124095 1e-05
-0.00392789 0.00127253 1e-05
-0.00374177 0.00130469 1e-05
-0.00355569 0.00133718 1e-05
-0.00336883 0.00137015 1e-05
-0.00331323 0.00137999 1e-05
-0.00325763 0.00138983 1e-05
-0.00320203 0.00139966 1e-05
-0.00314642 0.00140948 1e-05
-0.00309041 0.00141936 1e-05
-0.00296722 0.00144106 1e-05
-0.00284402 0.00146276 1e-05
-0.00272082 0.00148445 1e-05
-0.00259762 0.00150613 1e-05
-0.00247443 0.00152769 1e-05
-0.0023027 0.00155732 1e-05
-0.00213087 0.00158636 1e-05
-0.00195893 0.00161476 1e-05
-0.00178685 0.00164229 1e-05
-0.00161577 0.00166806 1e-05
-0.0014509 0.00169128 1e-05
-0.00128579 0.00171271 1e-05
-0.00112041 0.00173197 1e-05
-0.000954739 0.00174853 1e-05
-0.000791418 0.00176207 1e-05
-0.000633135 0.00177263 1e-05
-0.000474674 0.00178008 1e-05
-0.000316087 0.00178401 1e-05
-0.000157452 0.00178433 1e-05
0 0.00178095 1e-05
0.000105677 0.00177627 1e-05
0.000211202 0.00176891 1e-05
0.000316469 0.00175849 1e-05
0.000421387 0.00174501 1e-05
0.000528387 0.00172806 1e-05
0.000634886 0.00170787 1e-05
0.000740694 0.00168432 1e-05
0.000845714 0.00165747 1e-05
0.000949644 0.00162667 1e-05
0.00106088 0.00158883 1e-05
0.00113733 0.00155928 1e-05
0.00121295 0.00152766 1e-05
0.00128778 0.0014942 1e-05
0.00136189 0.00145919 1e-05
0.0013997 0.00144039 1e-05
0.00143927 0.00142023 1e-05
0.0014786 0.00139961 1e-05
0.00151769 0.00137855 1e-05
0.00155656 0.00135707 1e-05
0.00159752 0.00133385 1e-05
0.00169497 0.00127722 1e-05
0.00179094 0.00121813 1e-05
0.00188545 0.00115671 1e-05
0.00197862 0.00109329 1e-05
0.00203925 0.00105018 1e-05
0.00205906 0.00103569 1e-05
0.00207881 0.0010211 1e-05
0.00209848 0.00100641 1e-05
0.00211808 0.000991633 1e-05
0.00213833 0.000976204 1e-05
0.0022152 0.000916988 1e-05
0.00229088 0.000856247 1e-05
0.00236536 0.000794034 1e-05
0.00243864 0.000730422 1e-05
0.00249473 0.000679908 1e-05
0.00253245 0.000644941 1e-05
0.00256978 0.000609552 1e-05
0.00260671 0.000573752 1e-05
0.00264324 0.000537544 1e-05
0.00268334 0.000496915 1e-05
0.00271548 0.000463537 1e-05
0.00274728 0.000429836 1e-05
0.00277874 0.000395815 1e-05
0.00280986 0.000361481 1e-05
0.00283789 0.00033 1e-05
0.00289571 0.000264 1e-05
0.00295203 0.000196724 1e-05
0.00300688 0.000128234 1e-05
0.00306036 5.8674e-05 1e-05
0.00310383 0 1e-05
0.00312958 -3.58626e-05 1e-05
0.00315497 -7.1982e-05 1e-05
0.00318001 -0.000108346 1e-05
0.00320471 -0.000144942 1e-05
0.00323259 -0.000187097 1e-05
0.00325618 -0.000223604 1e-05
0.00327943 -0.000260325 1e-05
0.00330235 -0.000297256 1e-05
0.00332493 -0.000334394 1e-05
0.00334597 -0.000369617 1e-05
0.00339445 -0.000452001 1e-05
0.00344122 -0.00053536 1e-05
0.00348638 -0.000619611 1e-05
0.00353016 -0.000704582 1e-05
0.00356856 -0.00078143 1e-05
0.00361207 -0.000870993 1e-05
0.00365405 -0.000961281 1e-05
0.00369481 -0.00105213 1e-05
0.00373453 -0.00114344 1e-05
0.0037752 -0.00123991 1e-05
0.00377738 -0.00124525 1e-05
0.00377956 -0.00125059 1e-05
0.00378173 -0.00125594 1e-05
0.00378391 -0.00126129 1e-05
0.00378611 -0.00126671 1e-05
0.00382526 -0.00136342 1e-05
0.00386349 -0.00146049 1e-05
0.00390081 -0.00155792 1e-05
0.00393721 -0.00165569 1e-05
0.00397164 -0.00175012 1e-05
0.00401278 -0.00186369 1e-05
0.00405262 -0.00197773 1e-05
0.0040912 -0.00209219 1e-05
0.00412905 -0.0022069 1e-05
0.00416538 -0.00231783 1e-05
0.00420109 -0.00242771 1e-05
0.00423575 -0.00253792 1e-05
0.00426966 -0.00264836 1e-05
0.00430295 -0.00275899 1e-05
0.00434393 -0.00289798 1e-05
0.00434689 -0.00290827 1e-05
0.00434984 -0.00291857 1e-05
0.00435278 -0.00292886 1e-05
0.00435572 -0.00293916 1e-05
0.00435866 -0.00294944 1e-05
0.00439872 -0.00308998 1e-05
0.0044375 -0.00323089 1e-05
0.00447498 -0.00337214 1e-05
0.00451115 -0.00351374 1e-05
0.00454524 -0.00365197 1e-05
0.00458273 -0.00380826 1e-05
0.00461795 -0.00396508 1e-05
0.00465088 -0.0041224 1e-05
0.00468185 -0.00428012 1e-05
0.00471001 -0.0044331 1e-05
0.00473981 -0.00460683 1e-05
0.00476602 -0.00478114 1e-05
0.00478973 -0.00495581 1e-05
0.00481154 -0.00513072 1e-05
0.00483078 -0.00530132 1e-05
0.00484584 -0.00545467 1e-05
0.00485911 -0.00560818 1e-05
0.00487191 -0.00576174 1e-05
0.00488418 -0.00591533 1e-05
0.00490609 -0.00620395 1e-05
0.00490693 -0.00621648 1e-05
0.00490777 -0.00622901 1e-05
0.0049086 -0.00624153 1e-05
0.00490942 -0.00625406 1e-05
0.00491023 -0.00626658 1e-05
0.0049241 -0.00648137 1e-05
0.00494027 -0.00669601 1e-05
0.0049592 -0.00691041 1e-05
0.00498149 -0.00712449 1e-05
0.00500826 -0.00734097 1e-05
0.00504364 -0.00758032 1e-05
0.00509134 -0.00781752 1e-05
0.00515435 -0.00805112 1e-05
0.00523586 -0.00827892 1e-05
0.00534446 -0.00853989 1e-05
0.00537009 -0.00859148 1e-05
0.00539688 -0.00864249 1e-05
0.00542483 -0.00869286 1e-05
0.00545344 -0.00874287 1e-05
0.00547262 -0.00877607 1e-05
0.00557679 -0.0089553 1e-05
0.00568726 -0.0091307 1e-05
0.00580388 -0.00930209 1e-05
0.00592088 -0.00947321 1e-05
0.00604356 -0.00965679 1e-05
0.00604567 -0.00966003 1e-05
0.00604778 -0.00966326 1e-05
0.00604989 -0.0096665 1e-05
0.006052 -0.00966973 1e-05
0.00605411 -0.00967297 1e-05
0.00616708 -0.00984609 1e-05
0.00627748 -0.0100209 1e-05
0.00638543 -0.0101971 1e-05
0.00649131 -0.0103747 1e-05
0.00661893 -0.0105908 1e-05
0.00664388 -0.0106335 1e-05
0.00666881 -0.0106763 1e-05
0.00669372 -0.0107191 1e-05
0.00671865 -0.0107618 1e-05
0.00674361 -0.0108045 1e-05
0.00683464 -0.01096 1e-05
0.00692548 -0.0111155 1e-05
0.00701613 -0.0112712 1e-05
0.00710696 -0.0114268 1e-05
0.00719878 -0.0115819 1e-05
0.00724117 -0.0116524 1e-05
0.00728371 -0.0117228 1e-05
0.00732641 -0.0117932 1e-05
0.00736931 -0.0118634 1e-05
0.0074131 -0.0119346 1e-05
0.00748711 -0.0120539 1e-05
0.0075618 -0.0121728 1e-05
0.00763719 -0.0122912 1e-05
0.00771329 -0.0124092 1e-05
0.00778313 -0.012516 1e-05
0.00785574 -0.0126256 1e-05
0.00792903 -0.0127347 1e-05
0.00800301 -0.0128434 1e-05
0.0080777 -0.0129516 1e-05
0.00815644 -0.0130642 1e-05
0.00819956 -0.0131249 1e-05
0.00824291 -0.0131854 1e-05
0.00828651 -0.0132458 1e-05
0.00833035 -0.013306 1e-05
0.00837203 -0.0133626 1e-05
0.00849073 -0.0135224 1e-05
0.00861109 -0.0136809 1e-05
0.00873316 -0.0138381 1e-05
0.00885719 -0.0139938 1e-05
0.00896551 -0.0141261 1e-05
0.00897682 -0.0141396 1e-05
0.00898814 -0.0141531 1e-05
0.00899948 -0.0141665 1e-05
0.00901084 -0.01418 1e-05
0.00902231 -0.0141935 1e-05
0.00913057 -0.0143211 1e-05
0.00924027 -0.0144475 1e-05
0.00935142 -0.0145725 1e-05
0.00946403 -0.0146963 1e-05
0.0095636 -0.0148033 1e-05
0.00966208 -0.0149072 1e-05
0.0097616 -0.0150101 1e-05
0.00986217 -0.0151119 1e-05
0.0099637 -0.0152128 1e-05
0.0100766 -0.0153228 1e-05
0.0100945 -0.01534 1e-05
0.0101125 -0.0153571 1e-05
0.0101305 -0.0153741 1e-05
0.0101486 -0.0153912 1e-05
0.0101663 -0.0154079 1e-05
0.0102878 -0.0155218 1e-05
0.0104105 -0.0156345 1e-05
0.0105344 -0.0157457 1e-05
0.0106596 -0.0158556 1e-05
0.0107738 -0.0159533 1e-05
0.010893 -0.016053 1e-05
0.0110133 -0.0161516 1e-05
0.0111345 -0.0162489 1e-05
0.0112568 -0.016345 1e-05
0.0113859 -0.0164441 1e-05
0.0113881 -0.0164457 1e-05
0.0113902 -0.0164473 1e-05
0.0113924 -0.0164489 1e-05
0.0113945 -0.0164505 1e-05
0.0113967 -0.0164522 1e-05
0.0115179 -0.0165429 1e-05
0.0116401 -0.0166323 1e-05
0.0117632 -0.0167205 1e-05
0.0118871 -0.0168075 1e-05
0.0120028 -0.016887 1e-05
0.0121272 -0.0169711 1e-05
0.0122524 -0.017054 1e-05
0.0123785 -0.0171354 1e-05
0.0125054 -0.0172158 1e-05
0.0126245 -0.0172901 1e-05
0.0127195 -0.0173484 1e-05
0.012815 -0.0174059 1e-05
0.0129108 -0.0174629 1e-05
0.013007 -0.0175192 1e-05
0.0131148 -0.0175816 1e-05
0.0131421 -0.0175972 1e-05
0.0131693 -0.0176126 1e-05
0.0131966 -0.0176281 1e-05
0.013224 -0.0176435 1e-05
0.0132511 -0.0176587 1e-05
0.0133774 -0.0177292 1e-05
0.0135041 -0.0177989 1e-05
0.0136314 -0.0178676 1e-05
0.0137592 -0.0179354 1e-05
0.0138825 -0.0179996 1e-05
0.0140098 -0.0180645 1e-05
0.0141374 -0.0181287 1e-05
0.0142654 -0.0181921 1e-05
[...]
POINT_DATA 11337
 FIELD attributes 2
p 1 11337 float
0.776289 0.679599 0.56622 0.453139 0.340356 0.0965027 -0.077026 -0.295179 -0.513023 -0.730555 -1.0036 -1.147 -1.37539 -1.60296 -1.82972 -2.174 -2.36302 -2.69899 -3.03354 -3.36665 -3.92279 -4.19764 -4.71269 -5.22624 -5.78653 -6.60931 -7.07109 -7.67598 -8.35871 -9.18518 -10.1244 -10.7039 -11.3082 -12.0552 -12.9758 -13.9026 -14.4377 -14.9724 -15.646 -16.4451 -17.2467 -17.6151 -17.9827 -18.4187 -18.9323 -19.4513 -19.5781 -19.705 -19.8276 -19.9421 -20.0649 -19.9074 -19.7543 -19.6125 -19.4731 -19.3365 -19.0573 -18.8433 -18.6397 -18.4399 -18.3394 -18.2815 -18.2242 -18.1673 -18.1014 -18.0108 -17.7054 -17.4468 -17.1896 -16.931 -16.6695 -16.3831 -16.0984 -15.823 -15.5527 -15.3386 -15.2707 -15.2066 -15.1455 -15.0844 -15.0229 -14.855 -14.687 -14.5191 -14.363 -14.2278 -14.0195 -13.8132 -13.6667 -13.5247 -13.3869 -13.2689 -13.1257 -12.943 -12.77 -12.6252 -12.5189 -12.3817 -12.257 -12.1453 -12.0769 -12.074 -12.0396 -12.0201 -12.02 -12.0565 -12.1892 -12.3388 -12.3963 -12.388 -12.4062 -12.4903 -12.5571 -12.5729 -12.5971 -12.6137 -12.6709 -12.7313 -12.7884 -12.7791 -12.772 -12.8499 -12.9428 -12.7563 -12.5001 -12.3372 -12.3594 -12.3826 -12.3627 -12.3133 -12.2631 -12.0943 -11.9392 -11.7277 -11.404 -11.1614 -11.1372 -11.1186 -10.947 -10.7742 -10.5882 -10.4701 -10.3559 -10.2457 -10.1572 -10.0814 -9.81434 -9.56172 -9.4412 -9.43712 -9.44601 -9.38285 -9.35168 -9.37154 -9.39483 -9.42539 -9.43514 -9.44846 -9.46535 -9.57574 -9.76483 -9.74263 -9.7608 -9.97876 -10.4791 -10.9376 -11.0205 -11.2681 -11.6423 -12.0223 -12.4421 -12.4505 -12.4654 -12.4841 -12.5028 -12.5218 -12.8762 -13.235 -13.598 -14.0039 -14.4715 -14.7595 -15.0515 -15.4276 -15.8887 -16.3354 -16.5864 -16.8643 -17.157 -17.4516 -17.8234 -17.8514 -17.8794 -17.9073 -17.9342 -17.9568 -18.203 -18.4837 -18.7712 -19.0648 -19.3556 -19.2965 -19.2475 -19.2855 -19.4496 -19.621 -19.1909 -18.8431 -18.5473 -18.262 -18.0879 -17.465 -16.9547 -16.4468 -15.9418 -14.9991 -14.9618 -14.9245 -14.8872 -14.8499 -14.8124 -13.9632 -13.1087 -12.2515 -11.3913 -10.5917 -9.70014 -8.89435 -8.15674 -7.85682 -7.51421 -7.43782 -7.3624 -7.30964 -7.27618 -7.25411 -6.99699 -6.74094 -6.57872 -6.45418 -6.32638 -6.32178 -6.31719 -6.31382 -6.31074 -6.30765 -6.15706 -6.00485 -5.85609 -5.73064 -5.5777 -5.53223 -5.48676 -5.448 -5.41267 -5.37738 -5.2576 -5.13778 -5.01637 -4.89189 -4.76755 -4.70458 -4.64161 -4.57768 -4.51333 -4.448 -4.34999 -4.25195 -4.14811 -4.02944 -3.92149 -3.81934 -3.7172 -3.59566 -3.46927 -3.3372 -3.27037 -3.20352 -3.13898 -3.09124 -3.04616 -2.83342 -2.61959 -2.4569 -2.30239 -2.18048 -2.15952 -2.139 -2.12485 -2.11069 -2.09639 -1.96375 -1.83035 -1.6962 -1.47874 -1.28287 -1.19019 -1.08232 -0.912982 -0.743723 -0.557389 -0.528198 -0.499011 -0.469827 -0.453377 -0.442859 -0.218096 -0.0241884 0.169504 0.236877 0.289236 0.509522 0.673135 0.76446 0.856446 0.950425 0.954261 0.956805 0.958281 0.959757 0.961236 1.04583 1.13102 1.21681 1.36314 1.56544 1.57885 1.59148 1.70515 1.91927 2.1203 2.12288 2.19844 2.30084 2.40293 2.51669 2.54546 2.5742 2.60292 2.62381 2.61366 2.78523 2.91176 3.03777 3.08334 3.03248 3.24384 3.45561 3.53136 3.4741 3.41814 3.62402 3.72609 3.76247 3.79936 3.77424 3.85041 3.86353 3.87672 3.88998 3.90403 3.92563 3.94739 3.96932 3.99142 4.11212 4.04437 4.07809 4.11224 4.23264 4.43275 4.35293 4.27264 4.33496 4.53651 4.73347 4.65047 4.59923 4.68214 4.82192 5.01625 4.9303 5.00618 5.08465 5.16277 5.28268 5.26627 5.29253 5.31874 5.34492 5.37248 5.42056 5.4685 5.5163 5.56397 5.52507 5.68142 5.7524 5.82306 5.86309 5.75018 5.94994 6.09492 6.16184 6.07806 5.96379 6.16047 6.35719 6.39759 6.28187 6.16641 6.3601 6.54081 6.55805 6.47505 6.35856 6.54931 6.62638 6.64324 6.65808 6.54075 6.69359 6.70983 6.72631 6.74305 6.7135 6.76834 6.77685 6.78544 6.7941 6.8034 6.81083 6.81831 6.82584 6.83341 6.88295 6.85644 6.8721 6.88799 6.90409 7.05035 6.93541 6.9507 6.96619 7.00676 7.2091 7.06874 7.0272 7.04231 7.16007 7.35974 7.21898 7.10147 7.1162 7.30563 7.50274 7.36166 7.22027 7.24807 7.4439 7.63863 7.4973 7.35567 7.38197 7.57541 7.76786 7.62635 7.49202 7.52807 7.70059 7.89087 7.74923 7.67331 7.70776 7.8199 8.00813 7.86645 7.84569 7.87865 7.93379 8.12003 7.97837 8.00974 8.04131 8.07278 8.22697 8.13597 8.16634 8.19661 8.22678 8.32935 8.2869 8.31605 8.34511 8.37407 8.42751 8.4179 8.43264 8.44734 8.46203 8.47784 8.49085 8.50385 8.51682 8.52977 8.52265 8.56947 8.59645 8.62334 8.65015 8.61529 8.70197 8.72796 8.75386 8.77968 8.70458 8.82897 8.85403 8.87901 8.90391 8.79077 8.95083 8.97504 8.99917 9.00556 8.8741 9.03659 9.09103 9.11438 9.08534 8.95476 9.1153 9.20226 9.22489 9.16264 9.03298 9.19165 9.30914 9.33112 9.23772 9.10901 9.26589 9.41205 9.43344 9.3108 9.18305 9.33819 9.4935 9.50823 9.38198 9.25521 9.40869 9.56233 9.5767 9.45142 9.32565 9.47753 9.62957 9.64361 9.51932 9.39455 9.5449 9.69543 9.70918 9.58587 9.46209 9.61102 9.76014 9.77363 9.65126 9.52843 9.67598 9.82368 9.83218 9.71555 9.59369 9.73992 9.86631 9.87491 9.77881 9.65789 9.80279 9.90935 9.91807 9.84107 9.72114 9.86475 9.95293 9.96177 9.9025 9.78357 9.92592 9.99707 10.006 9.96319 9.84524 9.98638 10.0417 10.0508 10.0232 9.90628 10.0463 10.0871 10.0962 10.0828 9.96673 10.1056 10.1328 10.1421 10.1418 10.0267 10.1646 10.1793 10.1887 10.1981 10.0863 10.2168 10.2263 10.2358 10.2454 10.1454 10.2642 10.2738 10.2834 10.2931 10.2043 10.3123 10.3221 10.3319 10.3416 10.2629 10.361 10.3709 10.3808 10.3907 10.3211 10.4103 10.4203 10.4302 10.4402 10.3791 10.46 10.47 10.4801 10.4902 10.4368 10.5102 10.5204 10.5305 10.5407 10.4944 10.5609 10.5711 10.5814 10.5916 10.5518 10.6121 10.6224 10.6327 10.643 10.609 10.6637 10.674 10.6844 10.6948 10.6661 10.7156 10.7261 10.7365 10.747 10.723 10.7679 10.7784 10.7889 10.7994 10.7797 10.8205 10.831 10.8415 10.8521 10.8362 10.8732 10.8838 10.8944 10.905 10.8926 10.9262 10.9368 10.9474 10.9581 10.9487 10.9793 10.9899 11.0005 11.0112 11.0045 11.0324 11.043 11.0537 11.0643 11.06 11.0855 11.0961 11.1067 11.1174 11.1151 11.1386 11.1491 11.1597 11.1703 11.1698 11.1915 11.202 11.2126 11.2231 11.2242 11.2442 11.2547 11.2653 11.2758 11.2781 11.2968 11.3073 11.3178 11.3282 11.3316 11.3491 11.3595 11.3699 11.3803 11.3846 11.4011 11.4114 11.4218 11.4321 11.437 11.4527 11.4629 11.4732 11.4835 11.4889 11.5039 11.5141 11.5243 11.5344 11.5402 11.5547 11.5648 11.5749 11.585 11.591 11.605 11.615 11.625 11.635 11.641 11.6549 11.6647 11.6746 11.6845 11.6904 11.7041 11.7139 11.7236 11.7334 11.7392 11.7528 11.7624 11.772 11.7817 11.7871 11.8008 11.8103 11.8198 11.8293 11.8343 11.8481 11.8575 11.8668 11.8762 11.8807 11.8947 11.9039 11.9131 11.9223 11.9264 11.9406 11.9496 11.9587 11.9678 11.9712 11.9858 11.9947 12.0036 12.0125 12.0153 12.0303 12.0391 12.0479 12.0567 12.0587 12.0742 12.0828 12.0915 12.1002 12.1015 12.1175 12.126 12.1346 12.1431 12.1436 12.1602 12.1686 12.1771 12.1856 12.1851 12.2024 12.2108 12.2191 12.2275 12.2261 12.2442 12.2525 12.2608 12.2691 12.2668 12.2857 12.294 12.3022 12.3105 12.307 12.3269 12.3351 12.3433 12.3515 12.347 12.3679 12.3761 12.3842 12.3924 12.3866 12.4087 12.4168 12.425 12.4331 12.4261 12.4495 12.4576 12.4657 12.4738 12.4653 12.49 12.4981 12.5061 12.5142 12.5041 12.5303 12.5384 12.5464 12.5544 12.5428 12.5706 12.5787 12.5867 12.5948 12.5814 12.611 12.619 12.627 12.635 12.6197 12.6511 12.6591 12.667 12.675 12.6578 12.6911 12.6991 12.707 12.715 12.696 12.7312 12.7391 12.747 12.7549 12.7339 12.7709 12.7787 12.7865 12.7943 12.7712 12.81 12.8177 12.8255 12.8332 12.8082 12.8488 12.8565 12.8641 12.8718 12.8449 12.8872 12.8947 12.9022 12.9097 12.8809 12.9248 12.9322 12.9395 12.9469 12.9161 12.9618 12.969 12.9763 12.9836 12.951 12.9985 13.0057 13.013 13.0203 12.986 13.0352 13.0425 13.0498 13.057 13.021 13.072 13.0792 13.0865 13.0937 13.056 13.1086 13.1158 13.1231 13.1303 13.091 13.1452 13.1523 13.1595 13.1667 13.1257 13.1814 13.1886 13.1957 13.2028 13.1602 13.2175 13.2246 13.2318 13.2389 13.1947 13.2535 13.2606 13.2677 13.2748 13.2292 13.2894 13.2965 13.3035 13.3105 13.2634 13.3248 13.3317 13.3386 13.3455 13.2971 13.3595 13.3662 13.3728 13.3795 13.3298 13.393 13.3994 13.4058 13.4122 13.3614 13.4253 13.4315 13.4378 13.444 13.3923 13.4568 13.4629 13.4689 13.475 13.4225 13.4877 13.4936 13.4996 13.5055 13.4521 13.5182 13.524 13.5298 13.5357 13.4815 13.5486 13.5544 13.5603 13.5662 13.5113 13.5791 13.585 13.591 13.5969 13.5416 13.6099 13.6158 13.6218 13.6277 13.5721 13.6407 13.6468 13.6528 13.6589 13.6033 13.6719 13.6781 13.6843 13.6905 13.6351 13.7035 13.7096 13.7158 13.7219 13.6669 13.7346 13.7407 13.7467 13.7527 13.6983 13.7652 13.7711 13.777 13.7829 13.7293 13.7951 13.8008 13.8065 13.8123 13.7595 13.824 13.8291 13.8343 13.8394 13.7871 13.8503 13.855 13.8597 13.8644 13.8125 13.8753 13.8808 13.8863 13.8918 13.8416 13.9049 13.9121 13.9193 13.9266 13.8786 13.9423 13.9513 13.9603 13.9693 13.9229 13.9873 13.9974 14.0076 14.0179 13.9721 14.0377 14.0483 14.0589 14.0696 14.0226 14.0906 14.101 14.1113 14.1216 14.0716 14.143 14.153 14.163 14.173 14.119 14.1948 14.2048 14.2148 14.2247 14.1667 14.2472 14.2579 14.2686 14.2793 14.2185 14.3039 14.3159 14.3279 14.3399 14.2767 14.3668 14.3807 14.3947 14.4087 14.3447 14.4406 14.4567 14.4728 14.4889 14.4234 14.5242 14.5436 14.5631 14.5826 14.5186 14.6281 14.6509 14.6737 14.6965 14.6298 14.7455 14.7754 14.8054 14.8355 14.7761 14.9109 14.9468 14.9828 15.0176 14.9497 15.0857 15.1457 15.2014 15.2492 15.216 15.3947 15.4807 15.5494 15.5893 15.5248 15.6591 15.7717 15.8727 15.9417 15.9707 16.2054 16.2724 16.2089 16.0905 15.7832 15.6873 15.5444 15.3939 15.2428 15.0709 15.1095 15.0585 15.0077 14.9569 14.8289 14.8757 14.8286 14.7817 14.7349 14.601 14.6261 14.5708 14.5157 14.4605 14.3309 14.3621 14.3139 14.2657 14.2176 14.0919 14.1306 14.0809 14.0311 13.9815 13.8431 13.873 13.8197 13.7664 13.7131 13.5753 13.6074 13.5482 13.489 13.4288 13.2773 13.2854 13.2265 13.1633 13.0948 12.9596 12.9711 12.9089 12.8359 12.7521 12.5938 12.5767 12.5082 12.4286 12.3392 12.1962 12.2007 12.1233 12.0257 11.9133 11.7149 11.6739 11.5805 11.4759 11.3642 11.1956 11.2015 11.0881 10.9573 10.822 10.5607 10.4851 10.3596 10.232 10.1044 9.92807 9.93998 9.78295 9.62632 9.47004 9.17034 9.03813 8.90854 8.77888 8.64915 8.51992 8.54593 8.3646 8.18392 8.00384 7.63873 7.41335 7.28239 7.15137 7.02027 6.97763 7.08314 6.84123 6.60068 6.36136 5.81517 5.39962 5.27813 5.15695 5.03604 5.20033 5.5308 5.15311 4.77922 4.40868 3.45469 2.62572 2.55008 2.48166 2.41978 3.05617 3.75577 2.99626 2.22862 1.45394 0