# vtk DataFile Version 2.0
track0
ASCII
DATASET POLYDATA
POINTS 10994 double
-0.0205 0.001 1e-05
-0.0202034 0.00100002 1e-05
-0.0199069 0.00100023 1e-05
-0.0196103 0.00100066 1e-05
-0.0193137 0.0010013 1e-05
-0.0190172 0.00100215 1e-05
-0.0187132 0.00100341 1e-05
-0.0184093 0.00100432 1e-05
-0.0181054 0.00100523 1e-05
-0.0178015 0.00100614 1e-05
-0.0174976 0.00100705 1e-05
-0.0172058 0.00100823 1e-05
-0.016914 0.00100895 1e-05
-0.0166222 0.00100962 1e-05
-0.0163305 0.00101025 1e-05
-0.0160387 0.00101083 1e-05
-0.0157586 0.00101168 1e-05
-0.0154784 0.0010121 1e-05
-0.0151983 0.00101248 1e-05
-0.0149182 0.00101282 1e-05
-0.0146381 0.00101313 1e-05
-0.0143692 0.00101375 1e-05
-0.0141002 0.00101395 1e-05
-0.0138313 0.00101413 1e-05
-0.0135624 0.00101428 1e-05
-0.0132934 0.0010144 1e-05
-0.0130353 0.00101484 1e-05
-0.0127771 0.00101489 1e-05
-0.0125189 0.00101492 1e-05
-0.0122607 0.00101494 1e-05
-0.0120025 0.00101493 1e-05
-0.0117547 0.00101526 1e-05
-0.0115068 0.0010152 1e-05
-0.0112589 0.00101513 1e-05
-0.0110111 0.00101505 1e-05
-0.0107632 0.00101495 1e-05
-0.0105252 0.0010152 1e-05
-0.0102873 0.00101507 1e-05
-0.0100493 0.00101493 1e-05
-0.00981133 0.00101477 1e-05
-0.00957337 0.00101461 1e-05
-0.00934491 0.0010148 1e-05
-0.00911645 0.00101461 1e-05
-0.008888 0.00101441 1e-05
-0.00865954 0.0010142 1e-05
-0.00843108 0.00101397 1e-05
-0.00821175 0.00101413 1e-05
-0.00799242 0.00101389 1e-05
-0.00777309 0.00101364 1e-05
-0.00755376 0.00101337 1e-05
-0.00733443 0.00101309 1e-05
-0.00712387 0.00101322 1e-05
-0.0069133 0.00101293 1e-05
-0.00670273 0.00101263 1e-05
-0.00649217 0.00101232 1e-05
-0.0062816 0.00101199 1e-05
-0.00607944 0.00101209 1e-05
-0.00587729 0.00101176 1e-05
-0.00567514 0.00101141 1e-05
-0.00547298 0.00101105 1e-05
-0.00527083 0.00101068 1e-05
-0.00507675 0.00101076 1e-05
-0.00488268 0.00101038 1e-05
-0.0046886 0.00100998 1e-05
-0.00449452 0.00100957 1e-05
-0.00430044 0.00100915 1e-05
-0.00411412 0.00100921 1e-05
-0.0039278 0.00100878 1e-05
-0.00374147 0.00100833 1e-05
-0.00355515 0.00100787 1e-05
-0.00336883 0.00100739 1e-05
-0.00318995 0.00100743 1e-05
-0.00301107 0.00100693 1e-05
-0.00283219 0.00100642 1e-05
-0.00265331 0.00100589 1e-05
-0.00247443 0.00100534 1e-05
-0.0023027 0.00100533 1e-05
-0.00213097 0.00100476 1e-05
-0.00195924 0.00100417 1e-05
-0.00178751 0.00100355 1e-05
-0.00161577 0.0010029 1e-05
-0.0014509 0.00100284 1e-05
-0.00128603 0.00100216 1e-05
-0.00112116 0.00100145 1e-05
-0.000956294 0.00100069 1e-05
-0.000791418 0.000999891 1e-05
-0.000633135 0.000999724 1e-05
-0.000474853 0.000998866 1e-05
-0.000316572 0.000997963 1e-05
-0.000158291 0.000997011 1e-05
0 0.000996011 1e-05
0.000105677 0.000995806 1e-05
0.000211353 0.000995083 1e-05
0.000317028 0.000994331 1e-05
0.000422702 0.000993547 1e-05
0.000528387 0.000992731 1e-05
0.000634886 0.000992507 1e-05
0.000741382 0.000991667 1e-05
0.000847878 0.000990806 1e-05
0.000954374 0.000989922 1e-05
0.00106088 0.000989017 1e-05
0.00116821 0.00098881 1e-05
0.00127553 0.000987906 1e-05
0.00138286 0.000986982 1e-05
0.00149018 0.000986037 1e-05
0.00159752 0.000985071 1e-05
0.00170568 0.00098488 1e-05
0.00181384 0.000983938 1e-05
0.00192199 0.000982978 1e-05
0.00203015 0.000981998 1e-05
0.00213833 0.000980999 1e-05
0.00224733 0.000980823 1e-05
0.00235633 0.000979866 1e-05
0.00246532 0.000978891 1e-05
0.00257432 0.000977897 1e-05
0.00268334 0.00097692 1e-05
0.00279319 0.000976751 1e-05
0.00290303 0.000975853 1e-05
0.00301288 0.000974872 1e-05
0.00312273 0.000973872 1e-05
0.00323259 0.000972977 1e-05
0.00334329 0.000972803 1e-05
0.00345399 0.000971979 1e-05
0.00356469 0.000970995 1e-05
0.00367539 0.000969991 1e-05
0.00378611 0.000969162 1e-05
0.00389767 0.000968974 1e-05
0.00400923 0.000968204 1e-05
0.00412079 0.000967217 1e-05
0.00423235 0.00096621 1e-05
0.00434393 0.000965428 1e-05
0.00445636 0.000965217 1e-05
0.00456879 0.000964484 1e-05
0.00468122 0.000963491 1e-05
0.00479365 0.000962478 1e-05
0.00490609 0.000961727 1e-05
0.0050194 0.000961485 1e-05
0.0051327 0.000960774 1e-05
0.005246 0.000959769 1e-05
0.0053593 0.000958744 1e-05
0.00547262 0.00095801 1e-05
0.00558681 0.00095773 1e-05
0.00570099 0.000957026 1e-05
0.00581518 0.000956005 1e-05
0.00592936 0.000954963 1e-05
0.00604356 0.000954233 1e-05
0.00615863 0.00095391 1e-05
0.0062737 0.000953202 1e-05
0.00638878 0.000952161 1e-05
0.00650385 0.000951099 1e-05
0.00661893 0.000950363 1e-05
0.0067349 0.000949993 1e-05
0.00685087 0.000949273 1e-05
0.00696683 0.000948209 1e-05
0.0070828 0.000947131 1e-05
0.00719878 0.000946381 1e-05
0.00731565 0.00094596 1e-05
0.00743252 0.000945221 1e-05
0.00754939 0.000944166 1e-05
0.00766625 0.0009431 1e-05
0.00778313 0.000942329 1e-05
0.00790091 0.000941855 1e-05
0.00801869 0.00094109 1e-05
0.00813647 0.000940038 1e-05
0.00825424 0.000938975 1e-05
0.00837203 0.000938177 1e-05
0.00849073 0.000937647 1e-05
0.00860942 0.000936852 1e-05
0.00872811 0.000935794 1e-05
0.00884681 0.000934725 1e-05
0.00896551 0.000933897 1e-05
0.00908513 0.000933308 1e-05
0.00920475 0.000932478 1e-05
0.00932436 0.000931409 1e-05
0.00944398 0.000930327 1e-05
0.0095636 0.000929463 1e-05
0.00968415 0.000928815 1e-05
0.0098047 0.000927947 1e-05
0.00992524 0.000926859 1e-05
0.0100458 0.000925759 1e-05
0.0101663 0.000924856 1e-05
0.0102878 0.000924148 1e-05
0.0104093 0.000923237 1e-05
0.0105308 0.000922126 1e-05
0.0106523 0.000921003 1e-05
0.0107738 0.000920058 1e-05
0.0108962 0.000919287 1e-05
0.0110186 0.000918332 1e-05
0.0111411 0.000917193 1e-05
0.0112635 0.000916041 1e-05
0.0113859 0.000915051 1e-05
0.0115093 0.000914217 1e-05
0.0116327 0.000913214 1e-05
0.0117561 0.000912045 1e-05
0.0118794 0.000910869 1e-05
0.0120028 0.000909831 1e-05
0.0121272 0.000908933 1e-05
0.0122515 0.00090788 1e-05
0.0123759 0.000906694 1e-05
0.0125002 0.0009055 1e-05
0.0126245 0.000904412 1e-05
0.0127498 0.000903449 1e-05
0.0128752 0.000902344 1e-05
0.0130005 0.000901134 1e-05
0.0131258 0.000899916 1e-05
0.0132511 0.000898775 1e-05
0.0133774 0.000897747 1e-05
0.0135036 0.000896588 1e-05
0.0136299 0.000895348 1e-05
0.0137562 0.0008941 1e-05
0.0138825 0.000892906 1e-05
0.0140098 0.000891811 1e-05
0.014137 0.000890596 1e-05
0.0142643 0.000889322 1e-05
0.0143915 0.000888039 1e-05
0.0145188 0.000886789 1e-05
0.0146471 0.000885627 1e-05
0.0147753 0.000884354 1e-05
0.0149036 0.00088304 1e-05
0.0150318 0.000881717 1e-05
0.0151601 0.00088041 1e-05
0.0152893 0.00087918 1e-05
0.0154186 0.000877848 1e-05
0.0155478 0.00087649 1e-05
0.0156771 0.000875124 1e-05
0.0158063 0.000873757 1e-05
0.0159366 0.000872459 1e-05
0.0160668 0.000871066 1e-05
0.0161971 0.00086966 1e-05
0.0163273 0.000868246 1e-05
0.0164576 0.000866822 1e-05
0.0165889 0.000865454 1e-05
0.0167201 0.000864007 1e-05
0.0168514 0.000862551 1e-05
0.0169827 0.000861085 1e-05
0.0171139 0.000859609 1e-05
0.0172462 0.000858171 1e-05
0.0173785 0.00085667 1e-05
0.0175108 0.000855159 1e-05
0.0176431 0.000853639 1e-05
0.0177754 0.000852108 1e-05
0.0179087 0.0008506 1e-05
0.018042 0.000849041 1e-05
0.0181753 0.000847473 1e-05
0.0183087 0.000845895 1e-05
0.018442 0.000844307 1e-05
0.0185763 0.000842726 1e-05
0.0187107 0.000841108 1e-05
0.018845 0.00083948 1e-05
0.0189794 0.000837842 1e-05
0.0191137 0.000836194 1e-05
0.0192491 0.000834541 1e-05
0.0193845 0.00083286 1e-05
0.0195199 0.00083117 1e-05
0.0196553 0.000829469 1e-05
0.0197907 0.000827758 1e-05
0.0199255 0.000826054 1e-05
0.0200602 0.000824331 1e-05
0.0201949 0.000822599 1e-05
0.0203296 0.000820856 1e-05
0.020458 0.000819186 1e-05
0.020461 0.000819147 1e-05
0.020464 0.000819107 1e-05
0.020467 0.000819068 1e-05
0.02047 0.000819029 1e-05
0.020473 0.00081899 1e-05
0.0206105 0.000817189 1e-05
0.020748 0.000815378 1e-05
0.0208855 0.000813556 1e-05
0.021023 0.000811724 1e-05
0.0211606 0.00080988 1e-05
0.0212991 0.000808006 1e-05
0.0214377 0.000806127 1e-05
0.0215763 0.000804236 1e-05
0.0217149 0.000802334 1e-05
0.0218535 0.000800421 1e-05
0.0219931 0.000798473 1e-05
0.0221328 0.000796523 1e-05
0.0222724 0.000794561 1e-05
0.0224121 0.000792589 1e-05
0.0225517 0.000790604 1e-05
0.0226925 0.000788581 1e-05
0.0228332 0.000786559 1e-05
0.022974 0.000784524 1e-05
0.0231147 0.000782477 1e-05
0.0232555 0.000780419 1e-05
0.0233973 0.000778319 1e-05
0.0235391 0.00077622 1e-05
0.023681 0.000774109 1e-05
0.0238228 0.000771985 1e-05
0.0239647 0.00076985 1e-05
0.0241076 0.000767672 1e-05
0.0242505 0.000765495 1e-05
0.0243935 0.000763306 1e-05
0.0245364 0.000761106 1e-05
0.0246794 0.000758894 1e-05
0.0248234 0.000756638 1e-05
0.0249675 0.000754384 1e-05
0.0251115 0.000752119 1e-05
0.0252556 0.000749842 1e-05
0.0253996 0.00074755 1e-05
0.0255448 0.000745216 1e-05
0.02569 0.000742879 1e-05
0.0258351 0.000740533 1e-05
0.0259803 0.000738173 1e-05
0.0261255 0.000735797 1e-05
0.0262718 0.000733379 1e-05
0.0264181 0.000730956 1e-05
0.0265644 0.000728524 1e-05
0.0267107 0.000726078 1e-05
0.026857 0.000723615 1e-05
0.0270044 0.000721112 1e-05
0.0271519 0.000718602 1e-05
0.0272993 0.000716082 1e-05
0.0274468 0.000713548 1e-05
0.0275942 0.000710997 1e-05
0.0277428 0.000708408 1e-05
0.0278914 0.00070581 1e-05
0.0280399 0.000703202 1e-05
0.0281885 0.00070058 1e-05
0.0283371 0.000697942 1e-05
0.0284869 0.000695267 1e-05
0.0286366 0.000692581 1e-05
0.0287863 0.000689884 1e-05
0.0289361 0.000687173 1e-05
0.0290858 0.000684448 1e-05
0.0292367 0.000681687 1e-05
0.0293876 0.000678913 1e-05
0.0295385 0.000676127 1e-05
0.0296894 0.000673328 1e-05
0.0298403 0.000670515 1e-05
0.0299924 0.000667668 1e-05
0.0301445 0.000664807 1e-05
0.0302966 0.000661931 1e-05
0.0304486 0.000659043 1e-05
0.0306007 0.000656143 1e-05
0.030754 0.000653209 1e-05
0.0309072 0.000650259 1e-05
0.0310605 0.000647294 1e-05
0.0312138 0.000644316 1e-05
0.031367 0.000641328 1e-05
0.0315215 0.000638306 1e-05
0.0316759 0.000635266 1e-05
0.0318304 0.00063221 1e-05
0.0319848 0.000629142 1e-05
0.0321393 0.000626064 1e-05
0.0322949 0.000622952 1e-05
0.0324506 0.000619821 1e-05
0.0326062 0.000616674 1e-05
0.0327619 0.000613514 1e-05
0.0329175 0.000610344 1e-05
0.0330744 0.00060714 1e-05
[...]
POINT_DATA 10994
 FIELD attributes 2
p 1 10994 float
-4.35106 -4.40149 -4.46428 -4.52776 -4.59191 -4.73599 -4.80116 -4.88024 -4.95933 -5.03841 -5.12835 -5.12091 -5.13961 -5.15825 -5.17682 -5.21504 -5.20084 -5.21318 -5.22546 -5.23768 -5.27197 -5.26447 -5.27912 -5.29371 -5.30826 -5.34302 -5.33446 -5.34617 -5.35784 -5.36947 -5.40091 -5.39156 -5.40184 -5.4121 -5.42232 -5.45275 -5.44355 -5.45391 -5.46425 -5.47456 -5.50577 -5.49606 -5.50644 -5.51681 -5.52714 -5.55949 -5.54868 -5.55906 -5.56941 -5.57974 -5.61364 -5.60152 -5.61209 -5.62264 -5.63316 -5.66922 -5.65569 -5.66679 -5.67788 -5.68893 -5.72791 -5.7129 -5.72479 -5.73665 -5.74848 -5.79097 -5.77422 -5.78707 -5.7999 -5.81269 -5.8594 -5.84065 -5.85454 -5.8684 -5.88221 -5.93368 -5.91214 -5.92698 -5.94176 -5.95648 -6.01363 -5.98828 -6.00355 -6.01873 -6.03383 -6.09749 -6.05869 -6.06582 -6.07287 -6.07982 -6.14122 -6.06638 -6.06018 -6.0539 -6.04755 -6.12632 -6.04142 -6.03585 -6.03023 -6.02456 -6.11331 -6.04261 -6.04094 -6.03922 -6.03747 -6.12048 -6.05793 -6.05568 -6.0534 -6.05109 -6.1229 -6.06809 -6.06665 -6.0652 -6.06653 -6.13085 -6.09022 -6.08741 -6.08835 -6.09819 -6.15167 -6.12097 -6.11603 -6.11847 -6.13374 -6.17986 -6.15536 -6.14914 -6.15292 -6.17258 -6.21453 -6.19427 -6.18715 -6.19225 -6.21583 -6.25531 -6.23779 -6.22952 -6.23563 -6.26261 -6.3004 -6.28459 -6.27477 -6.28158 -6.31154 -6.34804 -6.33335 -6.32171 -6.32902 -6.36175 -6.39726 -6.38339 -6.36978 -6.37793 -6.41265 -6.44726 -6.43402 -6.42088 -6.42983 -6.46368 -6.49743 -6.48476 -6.4722 -6.4816 -6.51458 -6.54745 -6.53528 -6.52323 -6.53291 -6.56505 -6.59708 -6.58541 -6.57386 -6.58369 -6.61497 -6.64615 -6.6351 -6.62416 -6.63405 -6.66435 -6.69457 -6.6842 -6.67394 -6.6838 -6.71306 -6.74224 -6.73258 -6.72302 -6.73279 -6.76098 -6.78908 -6.78016 -6.77159 -6.78173 -6.80807 -6.83512 -6.82695 -6.82147 -6.83131 -6.8544 -6.8804 -6.87302 -6.87038 -6.87996 -6.9 -6.92496 -6.91834 -6.91831 -6.92765 -6.94485 -6.9688 -6.96292 -6.96526 -6.97439 -6.98897 -7.01195 -7.00682 -7.0113 -7.02024 -7.03242 -7.05445 -7.05006 -7.05647 -7.06521 -7.07519 -7.09628 -7.09261 -7.10072 -7.10929 -7.11787 -7.13745 -7.13568 -7.14409 -7.1525 -7.16092 -7.17799 -7.17834 -7.18661 -7.19488 -7.20316 -7.21794 -7.22019 -7.22832 -7.23646 -7.24461 -7.25733 -7.26125 -7.26926 -7.27729 -7.28531 -7.29619 -7.30157 -7.30948 -7.3174 -7.32532 -7.33456 -7.34112 -7.34884 -7.35657 -7.3643 -7.37167 -7.37185 -7.37202 -7.3722 -7.37237 -7.37254 -7.38036 -7.38819 -7.39603 -7.40387 -7.41144 -7.41931 -7.42709 -7.43488 -7.44267 -7.4498 -7.45785 -7.46559 -7.47334 -7.4811 -7.48772 -7.49607 -7.50379 -7.51151 -7.51925 -7.52528 -7.53398 -7.54163 -7.54928 -7.55695 -7.56233 -7.57151 -7.57895 -7.58639 -7.59375 -7.59812 -7.60719 -7.61463 -7.62188 -7.62845 -7.63244 -7.64138 -7.64896 -7.65596 -7.66152 -7.66485 -7.67354 -7.68115 -7.68769 -7.69202 -7.69471 -7.70312 -7.71085 -7.717 -7.72024 -7.72258 -7.73085 -7.73891 -7.74483 -7.74716 -7.7493 -7.75754 -7.76578 -7.77132 -7.77333 -7.77536 -7.78358 -7.79181 -7.79709 -7.79906 -7.80103 -7.80927 -7.81751 -7.8226 -7.82456 -7.82653 -7.8348 -7.84308 -7.84804 -7.85002 -7.85201 -7.86032 -7.86864 -7.8735 -7.87553 -7.87756 -7.88591 -7.89379 -7.89855 -7.90115 -7.90323 -7.91163 -7.91882 -7.92366 -7.92692 -7.92908 -7.93751 -7.94402 -7.94894 -7.95289 -7.95511 -7.96358 -7.96942 -7.97441 -7.97906 -7.98136 -7.98986 -7.99503 -8.00009 -8.00516 -8.00782 -8.01573 -8.02086 -8.026 -8.03114 -8.03452 -8.04173 -8.04694 -8.05214 -8.05736 -8.06145 -8.06798 -8.07326 -8.07853 -8.08382 -8.08864 -8.09293 -8.0967 -8.10047 -8.10425 -8.10792 -8.10953 -8.11114 -8.11276 -8.11437 -8.11558 -8.12141 -8.12688 -8.13235 -8.13782 -8.14159 -8.14874 -8.15426 -8.1598 -8.16534 -8.1679 -8.17633 -8.18192 -8.18752 -8.19313 -8.19452 -8.20421 -8.20986 -8.21553 -8.22102 -8.22145 -8.23172 -8.2381 -8.24382 -8.24811 -8.24869 -8.25894 -8.26662 -8.2724 -8.27549 -8.27622 -8.28646 -8.29542 -8.30126 -8.30318 -8.30403 -8.31427 -8.3245 -8.33016 -8.33113 -8.33211 -8.34233 -8.35257 -8.35825 -8.35933 -8.36041 -8.37062 -8.38083 -8.38656 -8.38772 -8.38888 -8.39906 -8.40925 -8.41501 -8.41623 -8.41746 -8.42759 -8.43715 -8.44265 -8.44478 -8.44604 -8.45612 -8.46432 -8.46979 -8.47326 -8.47453 -8.48451 -8.49132 -8.49673 -8.50153 -8.50276 -8.51264 -8.518 -8.52332 -8.52864 -8.53057 -8.53898 -8.54414 -8.54931 -8.55449 -8.55772 -8.56452 -8.56947 -8.57443 -8.5794 -8.58392 -8.58579 -8.58722 -8.58865 -8.59008 -8.59148 -8.59479 -8.59811 -8.60143 -8.60477 -8.60715 -8.61259 -8.61699 -8.62141 -8.62584 -8.62791 -8.63448 -8.63841 -8.64236 -8.64633 -8.64647 -8.65382 -8.65747 -8.66083 -8.66302 -8.66221 -8.66887 -8.67355 -8.67617 -8.67602 -8.67444 -8.68025 -8.68591 -8.68744 -8.68486 -8.6823 -8.68707 -8.69188 -8.69237 -8.68859 -8.68483 -8.68835 -8.6919 -8.69135 -8.68611 -8.68091 -8.68292 -8.68363 -8.6811 -8.67617 -8.66922 -8.66944 -8.66617 -8.66169 -8.65724 -8.64831 -8.64537 -8.63855 -8.63177 -8.62503 -8.6165 -8.61222 -8.60638 -8.60056 -8.59476 -8.5894 -8.58574 -8.58208 -8.57842 -8.57478 -8.5702 -8.55898 -8.54659 -8.53426 -8.52198 -8.50626 -8.49486 -8.47898 -8.46316 -8.44616 -8.4254 -8.41067 -8.39397 -8.37422 -8.35033 -8.32552 -8.30646 -8.28748 -8.26318 -8.23383 -8.20453 -8.1807 -8.15675 -8.12771 -8.09468 -8.06052 -8.03151 -7.99878 -7.96452 -7.93034 -7.89186 -7.86188 -7.82872 -7.79564 -7.76262 -7.73381 -7.72648 -7.71915 -7.71182 -7.7045 -7.69637 -7.65271 -7.60808 -7.56358 -7.51921 -7.46973 -7.42474 -7.37612 -7.32607 -7.27229 -7.21675 -7.16593 -7.11527 -7.05966 -6.99896 -6.93828 -6.88191 -6.82364 -6.76254 -6.70135 -6.63607 -6.59386 -6.54873 -6.50368 -6.45871 -6.41847 -6.39718 -6.3759 -6.35464 -6.33341 -6.3105 -6.24334 -6.1744 -6.10566 -6.03562 -5.9622 -5.89302 -5.82405 -5.75157 -5.67581 -5.59994 -5.52796 -5.45458 -5.37942 -5.30445 -5.22781 -5.20159 -5.17455 -5.14737 -5.1202 -5.09419 -5.04476 -4.9954 -4.94613 -4.89662 -4.84519 -4.76912 -4.69281 -4.61639 -4.5378 -4.45883 -4.38292 -4.30694 -4.22964 -4.15252 -4.07549 -4.03811 -4.00044 -3.96269 -3.92495 -3.88803 -3.84964 -3.81125 -3.77288 -3.73433 -3.69504 -3.61952 -3.54533 -3.47144 -3.39663 -3.32156 -3.24921 -3.17677 -3.10388 -3.03202 -2.96169 -2.91824 -2.87504 -2.83182 -2.78853 -2.74079 -2.71629 -2.69178 -2.66725 -2.6427 -2.61816 -2.55102 -2.48679 -2.42239 -2.35801 -2.29429 -2.23151 -2.16853 -2.11182 -2.05849 -2.00558 -1.95344 -1.90131 -1.85225 -1.81024 -1.77054 -1.73193 -1.69589 -1.66228 -1.6337 -1.61254 -1.59279 -1.57714 -1.56487 -1.56221 -1.56645 -1.57239 -1.57866 -1.59671 -1.63104 -1.66619 -1.703 -1.74328 -1.80267 -1.86544 -1.93547 -1.97546 -2.02547 -2.07875 -2.13215 -2.17521 -2.21429 -2.25338 -2.29247 -2.33552 -2.38504 -2.49532 -2.60958 -2.73032 -2.87044 -3.012 -3.14269 -3.28192 -3.43063 -3.57936 -3.72102 -3.7368 -3.75258 -3.76835 -3.78529 -3.80302 -3.9803 -4.16101 -4.34173 -4.53401 -4.72958 -4.92908 -5.1321 -5.34191 -5.55172 -5.76254 -5.77961 -5.79684 -5.81424 -5.83165 -5.84926 -6.0501 -6.25108 -6.4522 -6.65511 -6.85811 -7.08229 -7.30665 -7.52859 -7.75337 -7.97834 -8.09867 -8.21583 -8.33124 -8.44675 -8.5794 -8.68014 -8.78094 -8.88179 -8.98128 -9.07717 -9.28957 -9.50197 -9.71466 -9.91391 -10.1091 -10.3075 -10.5064 -10.6849 -10.8593 -11.032 -11.2072 -11.3588 -11.5086 -11.6593 -11.806 -11.8639 -11.9132 -11.9626 -12.0123 -12.0804 -12.1456 -12.211 -12.2765 -12.3422 -12.4004 -12.4856 -12.5655 -12.6459 -12.727 -12.7907 -12.8403 -12.8758 -12.9119 -12.9486 -12.966 -12.9743 -12.9647 -12.9558 -12.9475 -12.9252 -12.8861 -12.8331 -12.7808 -12.729 -12.6738 -12.6478 -12.6177 -12.5877 -12.5577 -12.5352 -12.4754 -12.4161 -12.3573 -12.299 -12.2288 -12.115 -11.9957 -11.8773 -11.7534 -11.6122 -11.4716 -11.3317 -11.1827 -11.0183 -10.8535 -10.6901 -10.5223 -10.3436 -10.1654 -9.98348 -9.90825 -9.82901 -9.74861 -9.66828 -9.5961 -9.48432 -9.37271 -9.26129 -9.14809 -9.02925 -8.82943 -8.63023 -8.43098 -8.22416 -8.01613 -7.81042 -7.60209 -7.39108 -7.18038 -6.96849 -6.96441 -6.96028 -6.95612 -6.95196 -6.94781 -6.73847 -6.52938 -6.32054 -6.11034 -5.89721 -5.68271 -5.46838 -5.25252 -5.03689 -4.82113 -4.77576 -4.73033 -4.6848 -4.63927 -4.59486 -4.4246 -4.25446 -4.08443 -3.91442 -3.74343 -3.52916 -3.31506 -3.1014 -2.88797 -2.67405 -2.63498 -2.59594 -2.55697 -2.518 -2.47976 -2.30586 -2.13206 -1.95837 -1.78538 -1.61158 -1.40113 -1.19102 -0.98186 -0.772873 -0.562338 -0.560514 -0.558691 -0.556875 -0.555059 -0.553244 -0.346328 -0.139559 0.0670591 0.272687 0.479803 0.628773 0.77757 0.925734 1.07381 1.21229 1.2719 1.3315 1.39109 1.45035 1.50972 1.71457 1.91925 2.12311 2.32613 2.53117 2.59488 2.65856 2.72188 2.78519 2.84663 2.98638 3.12605 3.26564 3.40453 3.5445 3.71174 3.87883 4.04487 4.21077 4.36392 4.40077 4.43762 4.47445 4.51098 4.54759 4.74721 4.94662 5.14475 5.34139 5.54089 5.58704 5.63317 5.67868 5.7241 5.76847 5.91958 6.07057 6.22124 6.37018 6.52104 6.63182 6.7425 6.85145 6.96 7.06253 7.1474 7.23223 7.31659 7.39948 7.48309 7.63109 7.77893 7.92336 8.06645 8.1989 8.24403 8.28915 8.33386 8.37775 8.42187 8.5864 8.75073 8.91112 9.06929 9.21524 9.23875 9.26226 9.28531 9.30775 9.33024 9.49628 9.66212 9.82231 9.97819 10.1236 10.139 10.1544 10.1695 10.1844 10.1993 10.3535 10.5077 10.6584 10.8057 10.9467 10.9633 10.9798 10.9958 11.0111 11.0265 11.1675 11.3085 11.444 11.573 11.7005 11.7219 11.7433 11.7644 11.7852 11.806 11.9286 12.0511 12.1717 12.2898 12.4121 12.4384 12.4648 12.4892 12.5118 12.5343 12.6503 12.7664 12.8736 12.971 13.0768 13.0991 13.1214 13.1442 13.1676 13.1908 13.2946 13.3983 13.5053 13.6148 13.7442 13.754 13.7639 13.7729 13.7801 13.7872 13.9095 14.0316 14.1333 14.2143 14.2916 14.3113 14.331 14.3448 14.3579 14.3717 14.4364 14.501 14.5662 14.6552 14.7408 14.7847 14.8304 14.8972 14.9637 15.0522 15.0682 15.0843 15.1003 15.109 15.1147 15.2107 15.2892 15.3669 15.3885 15.4078 15.4926 15.5506 15.5817 15.6132 15.6378 15.6462 15.6502 15.6529 15.6556 15.6584 15.6816 15.7049 15.7283 15.7599 15.8382 15.8197 15.8113 15.8312 15.9117 15.9917 15.9654 15.9376 15.9599 16.0339 16.1078 16.0756 16.0771 16.1019 16.1276 16.1967 16.1755 16.1967 16.2179 16.2389 16.2669 16.2637 16.2673 16.271 16.2746 16.2787 16.294 16.3092 16.3244 16.3395 16.3251 16.3691 16.387 16.4049 16.4194 16.3778 16.4375 16.4688 16.4868 16.4703 16.4293 16.4882 16.5459 16.5616 16.5265 16.4897 16.5512 16.6139 16.6293 16.5962 16.5616 16.624 16.6875 16.711 16.6913 16.6701 16.7447 16.8154 16.8433 16.8321 16.8089 16.8753 16.938 16.9867 17.0104 17.0201 17.1189 17.1494 17.1113 17.0599 16.9222 16.8708 16.7705 16.6703 16.57 16.4535 16.4159 16.3569 16.2979 16.239 16.1684 16.1434 16.0978 16.0522 16.0067 15.9488 15.9034 15.8465 15.7897 15.7329 15.6694 15.6161 15.5564 15.4967 15.437 15.3729 15.3179 15.2579 15.198 15.1382 15.074 15.0151 14.9516 14.8881 14.8247 14.7564 14.6931 14.6248 14.5564 14.4881 14.414 14.3466 14.273 14.1995 14.126 14.0453 13.9733 13.8936 13.8139 13.7343 13.6458 13.5684 13.4815 13.3947 13.3078 13.2107 13.1267 13.0315 12.9363 12.8412 12.7341 12.6424 12.5379 12.4334 12.329 12.2113 12.1106 11.995 11.8795 11.764 11.6337 11.522 11.3947 11.2675 11.1402 10.9976 10.8738 10.7313 10.5888 10.4463 10.2859 10.1463 9.98987 9.83347 9.67708 9.50486 9.35032 9.17092 8.99156 8.81224 8.60976 8.42991 8.23757 8.04524 7.85293 7.64917 7.45582 7.22016 6.98465 6.74928 6.47568 6.23072 5.99808 5.76542 5.53276 5.31165 5.07566 4.73559 4.39624 4.05751 3.62907 3.25958 3.00949 2.76002 2.51108 2.37146 2.1642 1.66848 1.17146 0.673349 0