# vtk DataFile Version 2.0
track0
ASCII
DATASET POLYDATA
POINTS 10994 double
-0.0205 0.001 1e-05
-0.0202034 0.00100002 1e-05
-0.0199069 0.00100023 1e-05
-0.0196103 0.00100066 1e-05
-0.0193137 0.0010013 1e-05
-0.0190172 0.00100215 1e-05
-0.0187132 0.00100341 1e-05
-0.0184093 0.00100432 1e-05
-0.0181054 0.00100523 1e-05
-0.0178015 0.00100614 1e-05
-0.0174976 0.00100705 1e-05
-0.0172058 0.00100823 1e-05
-0.016914 0.00100895 1e-05
-0.0166222 0.00100962 1e-05
-0.0163305 0.00101025 1e-05
-0.0160387 0.00101083 1e-05
-0.0157586 0.00101168 1e-05
-0.0154784 0.0010121 1e-05
-0.0151983 0.00101248 1e-05
-0.0149182 0.00101282 1e-05
-0.0146381 0.00101313 1e-05
-0.0143692 0.00101375 1e-05
-0.0141002 0.00101395 1e-05
-0.0138313 0.00101413 1e-05
-0.0135624 0.00101428 1e-05
-0.0132934 0.0010144 1e-05
-0.0130353 0.00101484 1e-05
-0.0127771 0.00101489 1e-05
-0.0125189 0.00101492 1e-05
-0.0122607 0.00101494 1e-05
-0.0120025 0.00101493 1e-05
-0.0117547 0.00101526 1e-05
-0.0115068 0.0010152 1e-05
-0.0112589 0.00101513 1e-05
-0.0110111 0.00101505 1e-05
-0.0107632 0.00101495 1e-05
-0.0105252 0.0010152 1e-05
-0.0102873 0.00101507 1e-05
-0.0100493 0.00101493 1e-05
-0.00981133 0.00101477 1e-05
-0.00957337 0.00101461 1e-05
-0.00934491 0.0010148 1e-05
-0.00911645 0.00101461 1e-05
-0.008888 0.00101441 1e-05
-0.00865954 0.0010142 1e-05
-0.00843108 0.00101397 1e-05
-0.00821175 0.00101413 1e-05
-0.00799242 0.00101389 1e-05
-0.00777309 0.00101364 1e-05
-0.00755376 0.00101337 1e-05
-0.00733443 0.00101309 1e-05
-0.00712387 0.00101322 1e-05
-0.0069133 0.00101293 1e-05
-0.00670273 0.00101263 1e-05
-0.00649217 0.00101232 1e-05
-0.0062816 0.00101199 1e-05
-0.00607944 0.00101209 1e-05
-0.00587729 0.00101176 1e-05
-0.00567514 0.00101141 1e-05
-0.00547298 0.00101105 1e-05
-0.00527083 0.00101068 1e-05
-0.00507675 0.00101076 1e-05
-0.00488268 0.00101038 1e-05
-0.0046886 0.00100998 1e-05
-0.00449452 0.00100957 1e-05
-0.00430044 0.00100915 1e-05
-0.00411412 0.00100921 1e-05
-0.0039278 0.00100878 1e-05
-0.00374147 0.00100833 1e-05
-0.00355515 0.00100787 1e-05
-0.00336883 0.00100739 1e-05
-0.00318995 0.00100743 1e-05
-0.00301107 0.00100693 1e-05
-0.00283219 0.00100642 1e-05
-0.00265331 0.00100589 1e-05
-0.00247443 0.00100534 1e-05
-0.0023027 0.00100533 1e-05
-0.00213097 0.00100476 1e-05
-0.00195924 0.00100417 1e-05
-0.00178751 0.00100355 1e-05
-0.00161577 0.0010029 1e-05
-0.0014509 0.00100284 1e-05
-0.00128603 0.00100216 1e-05
-0.00112116 0.00100145 1e-05
-0.000956294 0.00100069 1e-05
-0.000791418 0.000999891 1e-05
-0.000633135 0.000999724 1e-05
-0.000474853 0.000998866 1e-05
-0.000316572 0.000997963 1e-05
-0.000158291 0.000997011 1e-05
0 0.000996011 1e-05
0.000105677 0.000995806 1e-05
0.000211353 0.000995083 1e-05
0.000317028 0.000994331 1e-05
0.000422702 0.000993547 1e-05
0.000528387 0.000992731 1e-05
0.000634886 0.000992507 1e-05
0.000741382 0.000991667 1e-05
0.000847878 0.000990806 1e-05
0.000954374 0.000989922 1e-05
0.00106088 0.000989017 1e-05
0.00116821 0.00098881 1e-05
0.00127553 0.000987906 1e-05
0.00138286 0.000986982 1e-05
0.00149018 0.000986037 1e-05
0.00159752 0.000985071 1e-05
0.00170568 0.00098488 1e-05
0.00181384 0.000983938 1e-05
0.00192199 0.000982978 1e-05
0.00203015 0.000981998 1e-05
0.00213833 0.000980999 1e-05
0.00224733 0.000980823 1e-05
0.00235633 0.000979866 1e-05
0.00246532 0.000978891 1e-05
0.00257432 0.000977897 1e-05
0.00268334 0.00097692 1e-05
0.00279319 0.000976751 1e-05
0.00290303 0.000975853 1e-05
0.00301288 0.000974872 1e-05
0.00312273 0.000973872 1e-05
0.00323259 0.000972977 1e-05
0.00334329 0.000972803 1e-05
0.00345399 0.000971979 1e-05
0.00356469 0.000970995 1e-05
0.00367539 0.000969991 1e-05
0.00378611 0.000969162 1e-05
0.00389767 0.000968974 1e-05
0.00400923 0.000968204 1e-05
0.00412079 0.000967217 1e-05
0.00423235 0.00096621 1e-05
0.00434393 0.000965428 1e-05
0.00445636 0.000965217 1e-05
0.00456879 0.000964484 1e-05
0.00468122 0.000963491 1e-05
0.00479365 0.000962478 1e-05
0.00490609 0.000961727 1e-05
0.0050194 0.000961485 1e-05
0.0051327 0.000960774 1e-05
0.005246 0.000959769 1e-05
0.0053593 0.000958744 1e-05
0.00547262 0.00095801 1e-05
0.00558681 0.00095773 1e-05
0.00570099 0.000957026 1e-05
0.00581518 0.000956005 1e-05
0.00592936 0.000954963 1e-05
0.00604356 0.000954233 1e-05
0.00615863 0.00095391 1e-05
0.0062737 0.000953202 1e-05
0.00638878 0.000952161 1e-05
0.00650385 0.000951099 1e-05
0.00661893 0.000950363 1e-05
0.0067349 0.000949993 1e-05
0.00685087 0.000949273 1e-05
0.00696683 0.000948209 1e-05
0.0070828 0.000947131 1e-05
0.00719878 0.000946381 1e-05
0.00731565 0.00094596 1e-05
0.00743252 0.000945221 1e-05
0.00754939 0.000944166 1e-05
0.00766625 0.0009431 1e-05
0.00778313 0.000942329 1e-05
0.00790091 0.000941855 1e-05
0.00801869 0.00094109 1e-05
0.00813647 0.000940038 1e-05
0.00825424 0.000938975 1e-05
0.00837203 0.000938177 1e-05
0.00849073 0.000937647 1e-05
0.00860942 0.000936852 1e-05
0.00872811 0.000935794 1e-05
0.00884681 0.000934725 1e-05
0.00896551 0.000933897 1e-05
0.00908513 0.000933308 1e-05
0.00920475 0.000932478 1e-05
0.00932436 0.000931409 1e-05
0.00944398 0.000930327 1e-05
0.0095636 0.000929463 1e-05
0.00968415 0.000928815 1e-05
0.0098047 0.000927947 1e-05
0.00992524 0.000926859 1e-05
0.0100458 0.000925759 1e-05
0.0101663 0.000924856 1e-05
0.0102878 0.000924148 1e-05
0.0104093 0.000923237 1e-05
0.0105308 0.000922126 1e-05
0.0106523 0.000921003 1e-05
0.0107738 0.000920058 1e-05
0.0108962 0.000919287 1e-05
0.0110186 0.000918332 1e-05
0.0111411 0.000917193 1e-05
0.0112635 0.000916041 1e-05
0.0113859 0.000915051 1e-05
0.0115093 0.000914217 1e-05
0.0116327 0.000913214 1e-05
0.0117561 0.000912045 1e-05
0.0118794 0.000910869 1e-05
0.0120028 0.000909831 1e-05
0.0121272 0.000908933 1e-05
0.0122515 0.00090788 1e-05
0.0123759 0.000906694 1e-05
0.0125002 0.0009055 1e-05
0.0126245 0.000904412 1e-05
0.0127498 0.000903449 1e-05
0.0128752 0.000902344 1e-05
0.0130005 0.000901134 1e-05
0.0131258 0.000899916 1e-05
0.0132511 0.000898775 1e-05
0.0133774 0.000897747 1e-05
0.0135036 0.000896588 1e-05
0.0136299 0.000895348 1e-05
0.0137562 0.0008941 1e-05
0.0138825 0.000892906 1e-05
0.0140098 0.000891811 1e-05
0.014137 0.000890596 1e-05
0.0142643 0.000889322 1e-05
0.0143915 0.000888039 1e-05
0.0145188 0.000886789 1e-05
0.0146471 0.000885627 1e-05
0.0147753 0.000884354 1e-05
0.0149036 0.00088304 1e-05
0.0150318 0.000881717 1e-05
0.0151601 0.00088041 1e-05
0.0152893 0.00087918 1e-05
0.0154186 0.000877848 1e-05
0.0155478 0.00087649 1e-05
0.0156771 0.000875124 1e-05
0.0158063 0.000873757 1e-05
0.0159366 0.000872459 1e-05
0.0160668 0.000871066 1e-05
0.0161971 0.00086966 1e-05
0.0163273 0.000868246 1e-05
0.0164576 0.000866822 1e-05
0.0165889 0.000865454 1e-05
0.0167201 0.000864007 1e-05
0.0168514 0.000862551 1e-05
0.0169827 0.000861085 1e-05
0.0171139 0.000859609 1e-05
0.0172462 0.000858171 1e-05
0.0173785 0.00085667 1e-05
0.0175108 0.000855159 1e-05
0.0176431 0.000853639 1e-05
0.0177754 0.000852108 1e-05
0.0179087 0.0008506 1e-05
0.018042 0.000849041 1e-05
0.0181753 0.000847473 1e-05
0.0183087 0.000845895 1e-05
0.018442 0.000844307 1e-05
0.0185763 0.000842726 1e-05
0.0187107 0.000841108 1e-05
0.018845 0.00083948 1e-05
0.0189794 0.000837842 1e-05
0.0191137 0.000836194 1e-05
0.0192491 0.000834541 1e-05
0.0193845 0.00083286 1e-05
0.0195199 0.00083117 1e-05
0.0196553 0.000829469 1e-05
0.0197907 0.000827758 1e-05
0.0199255 0.000826054 1e-05
0.0200602 0.000824331 1e-05
0.0201949 0.000822599 1e-05
0.0203296 0.000820856 1e-05
0.020458 0.000819186 1e-05
0.020461 0.000819147 1e-05
0.020464 0.000819107 1e-05
0.020467 0.000819068 1e-05
0.02047 0.000819029 1e-05
0.020473 0.00081899 1e-05
0.0206105 0.000817189 1e-05
0.020748 0.000815378 1e-05
0.0208855 0.000813556 1e-05
0.021023 0.000811724 1e-05
0.0211606 0.00080988 1e-05
0.0212991 0.000808006 1e-05
0.0214377 0.000806127 1e-05
0.0215763 0.000804236 1e-05
0.0217149 0.000802334 1e-05
0.0218535 0.000800421 1e-05
0.0219931 0.000798473 1e-05
0.0221328 0.000796523 1e-05
0.0222724 0.000794561 1e-05
0.0224121 0.000792589 1e-05
0.0225517 0.000790604 1e-05
0.0226925 0.000788581 1e-05
0.0228332 0.000786559 1e-05
0.022974 0.000784524 1e-05
0.0231147 0.000782477 1e-05
0.0232555 0.000780419 1e-05
0.0233973 0.000778319 1e-05
0.0235391 0.00077622 1e-05
0.023681 0.000774109 1e-05
0.0238228 0.000771985 1e-05
0.0239647 0.00076985 1e-05
0.0241076 0.000767672 1e-05
0.0242505 0.000765495 1e-05
0.0243935 0.000763306 1e-05
0.0245364 0.000761106 1e-05
0.0246794 0.000758894 1e-05
0.0248234 0.000756638 1e-05
0.0249675 0.000754384 1e-05
0.0251115 0.000752119 1e-05
0.0252556 0.000749842 1e-05
0.0253996 0.00074755 1e-05
0.0255448 0.000745216 1e-05
0.02569 0.000742879 1e-05
0.0258351 0.000740533 1e-05
0.0259803 0.000738173 1e-05
0.0261255 0.000735797 1e-05
0.0262718 0.000733379 1e-05
0.0264181 0.000730956 1e-05
0.0265644 0.000728524 1e-05
0.0267107 0.000726078 1e-05
0.026857 0.000723615 1e-05
0.0270044 0.000721112 1e-05
0.0271519 0.000718602 1e-05
0.0272993 0.000716082 1e-05
0.0274468 0.000713548 1e-05
0.0275942 0.000710997 1e-05
0.0277428 0.000708408 1e-05
0.0278914 0.00070581 1e-05
0.0280399 0.000703202 1e-05
0.0281885 0.00070058 1e-05
0.0283371 0.000697942 1e-05
0.0284869 0.000695267 1e-05
0.0286366 0.000692581 1e-05
0.0287863 0.000689884 1e-05
0.0289361 0.000687173 1e-05
0.0290858 0.000684448 1e-05
0.0292367 0.000681687 1e-05
0.0293876 0.000678913 1e-05
0.0295385 0.000676127 1e-05
0.0296894 0.000673328 1e-05
0.0298403 0.000670515 1e-05
0.0299924 0.000667668 1e-05
0.0301445 0.000664807 1e-05
0.0302966 0.000661931 1e-05
0.0304486 0.000659043 1e-05
0.0306007 0.000656143 1e-05
0.030754 0.000653209 1e-05
0.0309072 0.000650259 1e-05
0.0310605 0.000647294 1e-05
0.0312138 0.000644316 1e-05
0.031367 0.000641328 1e-05
0.0315215 0.000638306 1e-05
0.0316759 0.000635266 1e-05
0.0318304 0.00063221 1e-05
0.0319848 0.000629142 1e-05
0.0321393 0.000626064 1e-05
0.0322949 0.000622952 1e-05
0.0324506 0.000619821 1e-05
0.0326062 0.000616674 1e-05
0.0327619 0.000613514 1e-05
0.0329175 0.000610344 1e-05
0.0330744 0.00060714 1e-05
[...]
POINT_DATA 10994
 FIELD attributes 1
U 3 10994 float
10.0023 	0.000538016 	0 10.008 	0.00732409 	0 10.0136 	0.0144201 	0 10.0192 	0.0215329 	0 10.0248 	0.0286626 	0 10.0314 	0.0416809 	0 10.035 	0.0301032 	0 10.038 	0.0300914 	0 10.041 	0.0300794 	0 10.044 	0.0300672 	0 10.0462 	0.0407098 	0 10.0442 	0.0246738 	0 10.0431 	0.0231079 	0 10.042 	0.0215184 	0 10.0409 	0.0199048 	0 10.0395 	0.0307172 	0 10.0363 	0.0147966 	0 10.034 	0.0136086 	0 10.0318 	0.0123981 	0 10.0295 	0.0111646 	0 10.0274 	0.0229606 	0 10.0242 	0.0074727 	0 10.0218 	0.00654636 	0 10.0194 	0.00559973 	0 10.017 	0.00463238 	0 10.0147 	0.0171816 	0 10.0116 	0.00195389 	0 10.0091 	0.00123129 	0 10.0065 	0.000491474 	0 10.004 	-0.000265976 	0 10.0014 	0.01314 	0 9.99853 	-0.00220536 	0 9.99597 	-0.00277766 	0 9.9934 	-0.00336426 	0 9.99083 	-0.00396551 	0 9.98812 	0.0104732 	0 9.9855 	-0.00544457 	0 9.98301 	-0.00595791 	0 9.98052 	-0.00648437 	0 9.97802 	-0.0070243 	0 9.9752 	0.00860573 	0 9.97289 	-0.00827016 	0 9.97049 	-0.00878161 	0 9.96808 	-0.00930624 	0 9.96567 	-0.00984439 	0 9.96272 	0.00717929 	0 9.96074 	-0.0109802 	0 9.95843 	-0.0115112 	0 9.95611 	-0.0120558 	0 9.95379 	-0.0126144 	0 9.95067 	0.0060491 	0 9.94908 	-0.0136924 	0 9.94687 	-0.0142541 	0 9.94467 	-0.0148301 	0 9.94246 	-0.0154207 	0 9.93917 	0.00513377 	0 9.93802 	-0.0164869 	0 9.93595 	-0.0170997 	0 9.93388 	-0.0177277 	0 9.9318 	-0.0183714 	0 9.92831 	0.00431556 	0 9.92766 	-0.0194936 	0 9.92576 	-0.0202032 	0 9.92386 	-0.02093 	0 9.92195 	-0.0216746 	0 9.91823 	0.00336689 	0 9.91817 	-0.0229766 	0 9.91644 	-0.0238349 	0 9.9147 	-0.0247135 	0 9.91295 	-0.025613 	0 9.90892 	0.00206114 	0 9.9095 	-0.0272271 	0 9.90794 	-0.0283453 	0 9.90638 	-0.0294892 	0 9.90481 	-0.0306594 	0 9.90043 	-7.97142e-05 	0 9.90177 	-0.0328939 	0 9.9004 	-0.0343685 	0 9.89902 	-0.035876 	0 9.89763 	-0.0374172 	0 9.89274 	-0.00343551 	0 9.89469 	-0.0406187 	0 9.89315 	-0.0429887 	0 9.8916 	-0.0454094 	0 9.89002 	-0.0478822 	0 9.88401 	-0.0104604 	0 9.88585 	-0.0535345 	1.14903e-21 9.88405 	-0.0564353 	2.95117e-21 9.88223 	-0.0593979 	4.75215e-21 9.88039 	-0.0624237 	6.55193e-21 9.87367 	-0.019204 	7.875e-21 9.87601 	-0.0674966 	-4.27915e-21 9.87401 	-0.0703412 	-7.21429e-21 9.87199 	-0.0732263 	-1.016e-20 9.86996 	-0.0761524 	-1.31164e-20 9.86125 	-0.0208025 	-4.67757e-22 9.86684 	-0.0777871 	-2.16963e-21 9.86499 	-0.0797875 	-3.84922e-21 9.86314 	-0.0818152 	-5.52786e-21 9.86127 	-0.0838707 	-7.20552e-21 9.84879 	-0.0189301 	-8.3077e-21 9.85933 	-0.0830518 	-7.32454e-21 9.85746 	-0.0848947 	-5.04709e-21 9.85558 	-0.0867615 	-2.76905e-21 9.85368 	-0.0886524 	-4.90397e-22 9.83507 	-0.0173811 	-3.18762e-21 9.85131 	-0.0857888 	-1.30019e-21 9.84914 	-0.087474 	-8.48955e-21 9.84695 	-0.0891794 	-1.5677e-20 9.84476 	-0.0909053 	-2.28626e-20 9.81843 	-0.015931 	-2.9254e-20 9.84118 	-0.0863872 	-4.45975e-20 9.83874 	-0.0880118 	-4.0479e-20 9.8363 	-0.0896543 	-3.63636e-20 9.83252 	-0.0881306 	-3.14448e-20 9.79906 	-0.0151201 	-8.42121e-21 9.82651 	-0.0803388 	-8.24466e-21 9.82655 	-0.0877593 	-2.30904e-21 9.82384 	-0.0894388 	4.19944e-21 9.81512 	-0.0798965 	1.09047e-20 9.77704 	-0.0153777 	1.85735e-20 9.80757 	-0.0730441 	5.73583e-20 9.81199 	-0.0872034 	6.41317e-20 9.80894 	-0.0888981 	6.17346e-20 9.79429 	-0.0733697 	4.75615e-20 9.75197 	-0.0164732 	5.0989e-21 9.78517 	-0.0675408 	-4.5324e-20 9.79461 	-0.08666 	-6.62002e-20 9.79119 	-0.0883549 	-7.09717e-20 9.76988 	-0.0684479 	-5.66683e-20 9.72376 	-0.018259 	-1.56429e-20 9.75928 	-0.0636198 	-9.97856e-21 9.77429 	-0.086348 	-1.14014e-20 9.77048 	-0.088049 	-1.94089e-20 9.74198 	-0.0650159 	-3.11689e-20 9.69251 	-0.0206842 	-4.61909e-20 9.73001 	-0.0611354 	-5.43832e-20 9.75102 	-0.0864528 	-5.7636e-20 9.74681 	-0.0881563 	-5.32408e-20 9.7107 	-0.0629235 	-4.184e-20 9.65832 	-0.023658 	-2.68187e-20 9.69748 	-0.0598455 	-1.80023e-20 9.72486 	-0.0869582 	-9.45214e-21 9.72023 	-0.0886399 	-1.71749e-21 9.67623 	-0.0618921 	-1.60912e-21 9.62136 	-0.0270033 	-3.66961e-21 9.66186 	-0.0594492 	-1.6972e-21 9.69585 	-0.0877336 	0 9.69082 	-0.0893795 	0 9.6388 	-0.0616643 	-1.85918e-21 9.58184 	-0.0305952 	-3.92085e-21 9.62338 	-0.0597384 	-1.94866e-21 9.66415 	-0.0887012 	-5.48929e-23 9.65771 	-0.0897508 	-7.43973e-21 9.59867 	-0.0620733 	-1.40866e-20 9.54005 	-0.0343688 	-2.07693e-20 9.58232 	-0.0605953 	-3.78526e-20 9.62419 	-0.0868443 	-5.49017e-20 9.61653 	-0.0877248 	-5.66718e-20 9.55625 	-0.0630124 	-4.64826e-20 9.49634 	-0.0382759 	-3.63063e-20 9.53908 	-0.0619149 	-6.94247e-20 9.58142 	-0.0855744 	-1.02529e-19 9.57299 	-0.0864702 	-9.32407e-20 9.51181 	-0.0643759 	-4.66154e-20 9.45099 	-0.0422598 	3.95506e-23 9.49393 	-0.0635911 	3.88341e-22 9.53651 	-0.0849411 	7.12763e-22 9.5274 	-0.0858364 	2.81746e-21 9.46565 	-0.0660648 	7.37858e-21 9.40423 	-0.0462738 	1.19543e-20 9.44714 	-0.0655451 	7.17108e-21 9.4897 	-0.0848336 	2.37386e-21 9.48002 	-0.0857194 	-1.03528e-21 9.41799 	-0.0680147 	-3.07932e-21 9.35627 	-0.0502926 	-5.11817e-21 9.39893 	-0.0677243 	-3.17758e-21 9.44126 	-0.0851716 	-1.24247e-21 9.43111 	-0.0860424 	-1.63332e-21 9.36907 	-0.0701778 	-6.20524e-21 9.30732 	-0.0542977 	-1.0789e-20 9.34954 	-0.0700822 	-5.98524e-21 9.39146 	-0.0858809 	-1.16976e-21 9.38094 	-0.0867316 	-6.02095e-21 9.31914 	-0.0725092 	-2.01083e-20 9.2576 	-0.0582729 	-3.4205e-20 9.29921 	-0.0725788 	-9.16191e-20 9.34054 	-0.0868977 	-1.49024e-19 9.32975 	-0.0877248 	-1.48765e-19 9.2684 	-0.0749731 	-8.64597e-20 9.20728 	-0.062209 	-2.41468e-20 9.24814 	-0.0751892 	-1.47264e-20 9.28798 	-0.088 	-5.37011e-21 9.27558 	-0.0884406 	-2.34354e-22 9.21707 	-0.077547 	0 9.15656 	-0.066101 	0 9.19655 	-0.0778929 	0 9.22878 	-0.0880469 	0 9.21654 	-0.0885031 	0 9.16537 	-0.0802074 	0 9.10561 	-0.0699391 	0 9.14463 	-0.0806636 	0 9.16937 	-0.0885486 	1.49271e-21 9.1573 	-0.0890162 	6.87539e-21 9.11344 	-0.0829301 	1.49706e-20 9.05457 	-0.073716 	2.43574e-20 9.09254 	-0.0834809 	8.61477e-20 9.10994 	-0.0894314 	1.219e-19 9.09803 	-0.0899079 	1.20333e-19 9.06143 	-0.0856985 	8.64572e-20 9.00355 	-0.0774299 	2.46221e-20 9.0404 	-0.0863324 	1.53127e-20 9.05067 	-0.0906376 	1.15225e-20 9.03892 	-0.091122 	1.23153e-20 9.00945 	-0.0885024 	1.55232e-20 8.95264 	-0.0810824 	2.24611e-20 8.98833 	-0.0892097 	6.23301e-20 8.99169 	-0.0921194 	7.1568e-20 8.9801 	-0.092611 	6.6613e-20 8.95759 	-0.0913343 	5.18331e-20 8.90194 	-0.0846764 	7.16946e-21 8.93641 	-0.0921072 	-4.09801e-20 8.93314 	-0.093837 	-5.92861e-20 8.9217 	-0.094335 	-7.11423e-20 8.90596 	-0.0941882 	-7.87941e-20 8.85152 	-0.0882146 	-4.84731e-20 8.88476 	-0.0950199 	-1.02778e-19 8.87512 	-0.0957551 	-9.95992e-20 8.86384 	-0.0962585 	-9.42204e-20 8.85253 	-0.0967617 	-8.88359e-20 8.80145 	-0.0916985 	-3.25314e-20 8.82889 	-0.0973333 	-2.20615e-20 8.81776 	-0.0978411 	-1.51732e-20 8.80662 	-0.0983489 	-8.28574e-21 8.79546 	-0.0988566 	-1.39902e-21 8.75182 	-0.0951269 	0 8.77214 	-0.0995539 	4.55002e-22 8.76116 	-0.100065 	2.27136e-21 8.75015 	-0.100576 	4.08792e-21 8.73913 	-0.101087 	5.90467e-21 8.70268 	-0.098499 	7.72582e-21 8.7162 	-0.101887 	6.7391e-21 8.70535 	-0.102401 	6.84595e-21 8.69448 	-0.102914 	6.9532e-21 8.68359 	-0.103428 	7.06085e-21 8.65408 	-0.101815 	8.00107e-21 8.66111 	-0.104311 	9.18369e-21 8.65039 	-0.104827 	1.27744e-20 8.63966 	-0.105342 	1.63659e-20 8.6289 	-0.105858 	1.99582e-20 8.60603 	-0.105078 	2.52888e-20 8.60691 	-0.106807 	4.20856e-20 8.59632 	-0.107325 	4.03349e-20 8.5857 	-0.107842 	3.85774e-20 8.57507 	-0.10836 	3.68132e-20 8.55857 	-0.108289 	2.57432e-20 8.55376 	-0.109354 	2.16547e-20 8.54342 	-0.109866 	1.8407e-20 8.53305 	-0.110379 	1.51602e-20 8.52267 	-0.110891 	1.19141e-20 8.51276 	-0.11138 	8.82197e-21 8.51252 	-0.111391 	8.73975e-21 8.51228 	-0.111402 	8.65753e-21 8.51205 	-0.111414 	8.57531e-21 8.51181 	-0.111425 	8.49309e-21 8.51152 	-0.111445 	8.42947e-21 8.50097 	-0.111959 	3.17918e-21 8.49034 	-0.112481 	-2.13533e-21 8.47969 	-0.113003 	-7.44781e-21 8.46901 	-0.113525 	-1.27583e-20 8.45625 	-0.114355 	-2.0726e-20 8.44824 	-0.114598 	-2.64288e-20 8.43772 	-0.11512 	-2.94087e-20 8.42717 	-0.115643 	-3.23904e-20 8.41661 	-0.116167 	-3.5374e-20 8.40217 	-0.117204 	-3.4175e-20 8.39649 	-0.117261 	-4.38765e-20 8.38608 	-0.117787 	-3.95115e-20 8.37564 	-0.118312 	-3.51522e-20 8.36518 	-0.118838 	-3.07986e-20 8.34927 	-0.120006 	-6.56118e-21 8.34575 	-0.119956 	-3.90782e-21 8.33544 	-0.120501 	-6.26237e-21 8.32511 	-0.121047 	-8.61638e-21 8.31475 	-0.121593 	-1.09698e-20 8.29752 	-0.122855 	-1.35912e-20 8.29602 	-0.12279 	-3.15089e-20 8.28577 	-0.123336 	-3.66872e-20 8.27549 	-0.123881 	-4.18676e-20 8.26519 	-0.124428 	-4.70499e-20 8.24668 	-0.125673 	-2.66436e-20 8.24705 	-0.125591 	2.09474e-20 8.23681 	-0.126109 	3.15026e-20 8.22655 	-0.126628 	4.20654e-20 8.21599 	-0.127166 	5.10691e-20 8.19653 	-0.128326 	8.77734e-21 8.19738 	-0.128276 	2.27314e-21 8.18836 	-0.128746 	1.11874e-21 8.17813 	-0.129279 	6.06476e-22 8.16607 	-0.129926 	2.16631e-22 8.14707 	-0.131005 	2.91809e-22 8.14756 	-0.131138 	2.1119e-22 8.14061 	-0.131578 	-3.39736e-21 8.13043 	-0.132149 	-8.52796e-21 8.11698 	-0.13287 	-1.36352e-20 8.09839 	-0.133826 	-1.8706e-20 8.0986 	-0.134114 	-1.32595e-20 8.09363 	-0.134551 	-7.80199e-21 8.08351 	-0.135139 	-2.33335e-21 8.06876 	-0.135856 	0 8.05055 	-0.136669 	0 8.05052 	-0.137076 	0 8.04748 	-0.137538 	-8.58781e-22 8.03742 	-0.138125 	-3.71992e-21 8.02146 	-0.138777 	-6.3748e-21 8.00361 	-0.139451 	-8.96395e-21 8.00339 	-0.139955 	-2.99207e-20 8.00223 	-0.140468 	-4.92586e-20 7.99224 	-0.141047 	-5.33417e-20 7.97514 	-0.141597 	-4.19293e-20 7.95763 	-0.142146 	-2.96685e-20 7.95726 	-0.142733 	-8.71171e-20 7.95687 	-0.143321 	-1.44565e-19 7.94702 	-0.143875 	-1.43481e-19 7.92984 	-0.144317 	-8.95553e-20 7.91264 	-0.14476 	-3.56298e-20 7.91215 	-0.145419 	-6.59509e-20 7.91163 	-0.146078 	-9.62729e-20 7.90245 	-0.146603 	-9.25549e-20 7.88556 	-0.146957 	-5.37466e-20 7.86864 	-0.14731 	-1.49384e-20 7.86803 	-0.148033 	-9.03468e-21 7.8674 	-0.148757 	-3.13177e-21 7.8589 	-0.149257 	0 7.84226 	-0.149539 	0 7.8256 	-0.14982 	0 7.8249 	-0.150601 	0 7.82418 	-0.151383 	0 7.81634 	-0.151865 	0 7.79993 	-0.152088 	0 7.7835 	-0.152312 	0 7.78272 	-0.153146 	0 7.78191 	-0.15398 	0 7.77473 	-0.15445 	0 7.75852 	-0.154628 	0 7.7423 	-0.154806 	0 7.74144 	-0.155689 	0 7.7397 	-0.156516 	0 7.73236 	-0.156974 	0 7.71799 	-0.157177 	0 7.70195 	-0.15732 	0 7.70102 	-0.158248 	0 7.69793 	-0.159022 	0 7.69061 	-0.15949 	0 7.67828 	-0.159753 	0 7.66241 	-0.15987 	0 7.66142 	-0.160841 	0 7.65699 	-0.161545 	0 7.64969 	-0.162026 	0 7.63937 	-0.162371 	0 7.62364 	-0.16247 	0 7.62258 	-0.163481 	0 7.61683 	-0.164102 	0 7.60955 	-0.164599 	0 7.60118 	-0.165044 	-5.6386e-22 7.58558 	-0.165132 	-4.94462e-21 7.58447 	-0.16618 	-1.49113e-22 7.57741 	-0.16671 	0 7.57013 	-0.167224 	0 7.56284 	-0.167738 	0 7.54821 	-0.167867 	-3.94701e-21 7.54592 	-0.168849 	0 7.53867 	-0.169382 	0 7.5314 	-0.169915 	0 7.5241 	-0.170448 	0 7.51148 	-0.170686 	0 7.50783 	-0.171578 	6.15893e-23 7.50058 	-0.172131 	2.15304e-22 7.4933 	-0.172685 	3.69043e-22 7.486 	-0.173239 	5.22805e-22 7.47534 	-0.1736 	-3.19953e-22 7.47035 	-0.174394 	-6.38971e-21 7.46309 	-0.17497 	-5.46473e-21 7.45579 	-0.175547 	-4.53634e-21 7.44848 	-0.176123 	-3.60452e-21 7.43977 	-0.176617 	-1.19237e-21 7.43556 	-0.177133 	-2.20558e-21 7.43043 	-0.177557 	-5.88752e-21 7.42527 	-0.177981 	-9.56986e-21 7.42011 	-0.178405 	-1.32526e-20 7.41507 	-0.178818 	-1.68341e-20 7.41281 	-0.178997 	-1.82505e-20 7.41054 	-0.179176 	-1.96669e-20 7.40828 	-0.179354 	-2.10832e-20 7.40601 	-0.179533 	-2.24994e-20 7.40357 	-0.179645 	-2.42921e-20 7.39641 	-0.180334 	-2.55878e-20 7.38886 	-0.180961 	-2.61389e-20 7.38128 	-0.181587 	-2.66922e-20 7.37367 	-0.182213 	-2.72475e-20 7.36538 	-0.182555 	-2.45009e-20 7.35933 	-0.183477 	-1.76899e-20 7.35175 	-0.18413 	-1.25695e-20 7.34414 	-0.184784 	-7.4482e-21 7.3365 	-0.185437 	-2.32588e-21 7.32781 	-0.185598 	0 7.32275 	-0.186745 	0 7.31514 	-0.187427 	0 7.3075 	-0.18811 	0 7.29982 	-0.188792 	0 7.29081 	-0.188782 	0 7.28665 	-0.190149 	0 7.279 	-0.190862 	0 7.27132 	-0.191576 	0 7.26356 	-0.192261 	0 7.25436 	-0.192118 	0 7.25045 	-0.193594 	0 7.24331 	-0.194447 	-7.97614e-23 7.23559 	-0.195195 	-1.73049e-22 7.22747 	-0.195707 	-2.19056e-22 7.2184 	-0.19562 	-1.44596e-22 7.21427 	-0.197113 	-1.89919e-20 7.20805 	-0.198197 	-2.75644e-20 7.20028 	-0.198982 	-2.85894e-20 7.19187 	-0.199333 	-1.75926e-20 7.18291 	-0.199304 	3.92729e-21 7.17858 	-0.200818 	1.54123e-21 7.1732 	-0.20213 	1.06591e-21 7.16538 	-0.202956 	5.19953e-21 7.15674 	-0.203156 	9.31556e-21 7.14786 	-0.203188 	1.34269e-20 7.14333 	-0.204728 	8.87238e-21 7.13873 	-0.206265 	4.33289e-21 7.13083 	-0.207101 	3.83772e-21 7.12202 	-0.207196 	2.8331e-21 7.11321 	-0.207292 	1.82763e-21 7.1085 	-0.208864 	1.83022e-21 7.10373 	-0.210436 	1.82891e-21 7.09647 	-0.211312 	2.00009e-21 7.08771 	-0.211474 	3.40204e-21 7.07894 	-0.211637 	4.80339e-21 7.07406 	-0.213246 	2.669e-21 7.06913 	-0.214855 	5.31742e-22 7.0625 	-0.215778 	2.17809e-22 7.05376 	-0.216011 	1.73156e-21 7.04501 	-0.216244 	3.24459e-21 7.03998 	-0.217895 	9.87146e-22 7.03489 	-0.219547 	-1.27323e-21 7.02888 	-0.220521 	-2.0712e-21 7.02015 	-0.220828 	-4.52151e-21 7.01141 	-0.221136 	-6.97233e-21 7.00622 	-0.222836 	-4.80096e-21 7.00091 	-0.224447 	-2.62927e-21 6.99501 	-0.22544 	-4.48699e-22 6.98685 	-0.225952 	0 6.97809 	-0.226339 	0 6.97277 	-0.228095 	0 6.96716 	-0.229567 	-9.43543e-22 6.96117 	-0.23063 	-3.25657e-21 6.95384 	-0.231412 	-5.57483e-21 6.94504 	-0.231885 	-7.89882e-21 6.93958 	-0.233702 	-5.85363e-21 6.9337 	-0.235048 	-5.3247e-21 6.92761 	-0.236188 	-5.46134e-21 6.92107 	-0.237241 	-5.37589e-21 6.91223 	-0.237808 	-4.01134e-21 6.90663 	-0.239696 	-2.23275e-20 6.90049 	-0.24093 	-2.15894e-20 6.89429 	-0.242155 	-2.0615e-20 6.88804 	-0.243379 	-1.96362e-20 6.87962 	-0.244152 	-2.09382e-21 6.87375 	-0.245935 	-1.78083e-20 6.86748 	-0.247257 	-1.71784e-20 6.86116 	-0.248577 	-1.65437e-20 6.85479 	-0.249898 	-1.59041e-20 6.84717 	-0.250966 	-7.44609e-21 6.84102 	-0.252653 	-5.95469e-21 6.83463 	-0.254081 	-1.92365e-21 6.82818 	-0.255509 	2.10737e-21 6.82167 	-0.256937 	6.13838e-21 6.81483 	-0.258305 	1.03451e-20 6.81289 	-0.258841 	1.02608e-20 6.81089 	-0.259316 	1.09645e-20 6.80889 	-0.259791 	1.16685e-20 6.80689 	-0.260266 	1.23727e-20 6.80492 	-0.260731 	1.30617e-20 6.80016 	-0.261798 	1.48805e-20 6.79537 	-0.262864 	1.67016e-20 6.79055 	-0.26393 	1.85252e-20 6.7857 	-0.264996 	2.03512e-20 6.7808 	-0.265926 	1.665e-20 6.77439 	-0.267722 	1.57269e-20 6.76738 	-0.26939 	1.32663e-20 6.76031 	-0.271057 	1.08027e-20 6.75318 	-0.272723 	8.33594e-21 6.74596 	-0.274062 	5.81635e-21 6.7401 	-0.276185 	6.25648e-21 6.7329 	-0.277998 	4.22425e-21 6.72563 	-0.27981 	2.19094e-21 6.71828 	-0.281622 	1.56555e-22 6.71087 	-0.282919 	3.81365e-21 6.70539 	-0.285346 	2.69604e-22 6.69811 	-0.287355 	1.60376e-21 6.69061 	-0.289329 	3.33844e-21 6.68303 	-0.291148 	7.42433e-21 6.6754 	-0.292578 	1.7426e-20 6.66965 	-0.295171 	2.34157e-20 6.6629 	-0.297546 	2.77574e-20 6.65514 	-0.299699 	3.04016e-20 6.64731 	-0.301505 	2.63827e-20 6.63942 	-0.303131 	1.88914e-20 6.63337 	-0.305908 	2.60802e-20 6.62714 	-0.308667 	3.30022e-20 6.61908 	-0.310996 	3.32225e-20 6.61095 	-0.312838 	2.57756e-20 6.60275 	-0.31468 	1.83273e-20 6.59636 	-0.317664 	2.54522e-20 6.58986 	-0.320647 	3.25769e-20 6.58224 	-0.32318 	2.99328e-20 6.57375 	-0.325261 	1.80671e-20 6.56517 	-0.327341 	6.20255e-21 6.55841 	-0.330556 	4.53076e-21 6.55153 	-0.333769 	2.86429e-21 6.54439 	-0.336556 	-4.0199e-22 6.53546 	-0.3389 	-6.38407e-21 6.52644 	-0.341243 	-1.23623e-20 6.51925 	-0.344713 	-5.13832e-21 6.51191 	-0.348055 	-1.05296e-21 6.5044 	-0.351084 	-4.69469e-21 6.4958 	-0.353897 	-1.06612e-20 6.48625 	-0.356528 	-1.86024e-20 6.47856 	-0.360279 	3.08969e-21 6.47064 	-0.363725 	7.25919e-21 6.46256 	-0.367061 	5.1996e-21 6.45435 	-0.370394 	3.11773e-21 6.44421 	-0.373346 	-1.51145e-20 6.4359 	-0.377325 	-1.08153e-20 6.42729 	-0.380998 	-7.81988e-21 6.41854 	-0.384668 	-4.8287e-21 6.40964 	-0.388335 	-1.84177e-21 6.39989 	-0.391854 	0 6.39432 	-0.394431 	0 6.38861 	-0.3969 	0 6.38284 	-0.399367 	0 6.37702 	-0.401834 	0 6.37157 	-0.404116 	0 6.36795 	-0.405703 	0 6.36431 	-0.407289 	0 6.36064 	-0.408875 	0 6.35695 	-0.41046 	0 6.35299 	-0.411988 	0 6.34411 	-0.416458 	2.4178e-23 6.33441 	-0.420836 	5.61912e-23 6.32455 	-0.42521 	8.81509e-23 6.31453 	-0.429581 	1.20057e-22 6.30339 	-0.433769 	-1.02236e-21 6.29528 	-0.438874 	-1.09076e-20 6.28456 	-0.443641 	-1.48956e-20 6.27366 	-0.448404 	-1.88977e-20 6.26222 	-0.453109 	-1.8415e-20 6.24947 	-0.457646 	-4.22206e-21 6.24054 	-0.463203 	-2.80354e-20 6.23031 	-0.468602 	-4.24632e-20 6.21819 	-0.47376 	-4.24073e-20 6.20455 	-0.47876 	-1.81356e-20 6.1904 	-0.483724 	1.17576e-20 6.18016 	-0.4897 	2.91861e-20 6.16971 	-0.495671 	4.66251e-20 6.15653 	-0.501312 	4.32468e-20 6.14099 	-0.506691 	1.56215e-20 6.12521 	-0.512071 	-1.20442e-20 6.11346 	-0.518453 	-2.00691e-20 6.10139 	-0.524826 	-2.81089e-20 6.08721 	-0.531058 	-3.60309e-20 6.0705 	-0.536928 	-4.31258e-20 6.05287 	-0.542695 	-5.0001e-20 6.03935 	-0.549453 	-6.64915e-20 6.02408 	-0.556114 	-6.54981e-20 6.00792 	-0.562732 	-5.70354e-20 5.99149 	-0.569345 	-4.85469e-20 5.97224 	-0.575531 	-2.96881e-20 5.95877 	-0.581389 	-2.34283e-20 5.94374 	-0.587161 	-1.89129e-20 5.9285 	-0.592931 	-1.44102e-20 5.91306 	-0.598699 	-9.92007e-21 5.89939 	-0.603739 	-6.00548e-21 5.89597 	-0.605047 	-4.56297e-21 5.89254 	-0.606355 	-3.11991e-21 5.88911 	-0.607662 	-1.67628e-21 5.88566 	-0.608969 	-2.32095e-22 5.88206 	-0.610261 	5.549e-22 5.86321 	-0.617547 	-5.98342e-21 5.84362 	-0.6247 	-9.22607e-21 5.82374 	-0.631852 	-1.25192e-20 5.80356 	-0.639001 	-1.58632e-20 5.78196 	-0.646035 	-2.0098e-21 5.76234 	-0.654061 	-4.1751e-22 5.74076 	-0.66155 	-2.30066e-21 5.71818 	-0.668815 	-5.62549e-21 5.69435 	-0.675949 	-1.60647e-20 5.66971 	-0.683034 	-2.98445e-20 5.64725 	-0.691105 	-5.09457e-20 5.62443 	-0.699175 	-7.20579e-20 5.59937 	-0.706704 	-7.0282e-20 5.57199 	-0.713641 	-4.56726e-20 5.54419 	-0.720596 	-2.10122e-20 5.51862 	-0.728511 	-1.26666e-20 5.49201 	-0.736262 	-7.2178e-21 5.46408 	-0.743774 	-5.95818e-21 5.43562 	-0.751234 	-4.7521e-21 5.40447 	-0.757816 	-4.09365e-21 5.3846 	-0.762945 	3.19832e-21 5.36347 	-0.767698 	-2.58055e-21 5.34216 	-0.772454 	-8.39588e-21 5.32066 	-0.777211 	-1.42481e-20 5.30122 	-0.781477 	-1.95263e-20 5.29119 	-0.78384 	-2.23127e-20 5.28111 	-0.786204 	-2.51076e-20 5.27099 	-0.788569 	-2.7911e-20 5.26082 	-0.790934 	-3.07229e-20 5.25039 	-0.793117 	-2.44781e-20 5.21873 	-0.8001 	-3.35108e-20 5.18576 	-0.806451 	-3.30816e-20 5.1524 	-0.812814 	-3.27383e-20 5.11843 	-0.818928 	-2.64044e-20 5.08346 	-0.824493 	-6.63366e-21 5.0492 	-0.831029 	2.09767e-20 5.01453 	-0.837575 	4.85465e-20 4.97788 	-0.842739 	4.48867e-20 4.93995 	-0.846853 	8.82906e-21 4.90151 	-0.850996 	-2.7389e-20 4.86382 	-0.856107 	-2.21155e-20 4.82544 	-0.860588 	-1.78947e-20 4.78631 	-0.864289 	-1.49635e-20 4.74679 	-0.868 	-1.2078e-20 4.70544 	-0.87066 	-1.47876e-20 4.69083 	-0.871833 	-1.31942e-20 4.67604 	-0.872481 	-1.31223e-20 4.66117 	-0.873028 	-1.33464e-20 4.64626 	-0.873578 	-1.35727e-20 4.63193 	-0.874106 	-1.37919e-20 4.60577 	-0.87558 	-1.21707e-20 4.57946 	-0.877064 	-1.05422e-20 4.55301 	-0.878556 	-8.90626e-21 4.52643 	-0.87989 	-7.04868e-21 4.49977 	-0.880233 	-3.9028e-21 4.4583 	-0.881645 	-4.50161e-21 4.41582 	-0.882127 	-3.92243e-21 4.37261 	-0.882022 	-2.58475e-21 4.32945 	-0.879973 	2.13335e-21 4.28592 	-0.877753 	7.19029e-21 4.24214 	-0.876382 	6.66787e-21 4.19815 	-0.874712 	5.12248e-21 4.15437 	-0.870948 	-3.37512e-21 4.11014 	-0.866809 	-1.13164e-20 4.06486 	-0.861524 	-1.7644e-20 4.04206 	-0.859265 	-1.52278e-20 4.0195 	-0.855991 	-1.48385e-20 3.99702 	-0.852376 	-1.51326e-20 3.97451 	-0.848762 	-1.54282e-20 3.95247 	-0.845228 	-1.5719e-20 3.93073 	-0.84219 	-1.90099e-20 3.90896 	-0.839154 	-2.23088e-20 3.88715 	-0.836121 	-2.56158e-20 3.865