# vtk DataFile Version 2.0
track0
ASCII
DATASET POLYDATA
POINTS 10945 double
-0.0205 0.001 1e-05
-0.0202034 0.00100003 1e-05
-0.0199069 0.00100026 1e-05
-0.0196103 0.00100071 1e-05
-0.0193137 0.00100137 1e-05
-0.0190172 0.00100225 1e-05
-0.0187132 0.00100354 1e-05
-0.0184093 0.0010045 1e-05
-0.0181054 0.00100547 1e-05
-0.0178015 0.00100644 1e-05
-0.0174976 0.0010074 1e-05
-0.0172058 0.00100862 1e-05
-0.016914 0.00100939 1e-05
-0.0166222 0.0010101 1e-05
-0.0163305 0.00101075 1e-05
-0.0160387 0.00101135 1e-05
-0.0157586 0.00101219 1e-05
-0.0154784 0.00101259 1e-05
-0.0151983 0.00101296 1e-05
-0.0149182 0.00101327 1e-05
-0.0146381 0.00101355 1e-05
-0.0143692 0.0010141 1e-05
-0.0141002 0.00101424 1e-05
-0.0138313 0.00101434 1e-05
-0.0135624 0.00101441 1e-05
-0.0132934 0.00101445 1e-05
-0.0130353 0.00101479 1e-05
-0.0127771 0.00101473 1e-05
-0.0125189 0.00101465 1e-05
-0.0122607 0.00101453 1e-05
-0.0120025 0.00101439 1e-05
-0.0117547 0.00101459 1e-05
-0.0115068 0.00101438 1e-05
-0.0112589 0.00101415 1e-05
-0.0110111 0.00101389 1e-05
-0.0107632 0.00101361 1e-05
-0.0105252 0.00101373 1e-05
-0.0102873 0.00101341 1e-05
-0.0100493 0.00101306 1e-05
-0.00981133 0.00101269 1e-05
-0.00957337 0.0010123 1e-05
-0.00934491 0.00101237 1e-05
-0.00911645 0.00101195 1e-05
-0.008888 0.00101151 1e-05
-0.00865954 0.00101104 1e-05
-0.00843108 0.00101056 1e-05
-0.00821175 0.0010106 1e-05
-0.00799242 0.00101009 1e-05
-0.00777309 0.00100956 1e-05
-0.00755376 0.00100901 1e-05
-0.00733443 0.00100844 1e-05
-0.00712387 0.00100846 1e-05
-0.0069133 0.00100787 1e-05
-0.00670273 0.00100726 1e-05
-0.00649217 0.00100663 1e-05
-0.0062816 0.00100598 1e-05
-0.00607944 0.00100598 1e-05
-0.00587729 0.00100532 1e-05
-0.00567514 0.00100463 1e-05
-0.00547299 0.00100393 1e-05
-0.00527083 0.0010032 1e-05
-0.00507675 0.00100319 1e-05
-0.00488268 0.00100245 1e-05
-0.0046886 0.00100169 1e-05
-0.00449453 0.0010009 1e-05
-0.00430044 0.00100009 1e-05
-0.00411412 0.00100008 1e-05
-0.0039278 0.000999257 1e-05
-0.00374148 0.000998411 1e-05
-0.00355516 0.000997539 1e-05
-0.00336883 0.000996641 1e-05
-0.00318995 0.00099662 1e-05
-0.00301107 0.000995712 1e-05
-0.0028322 0.000994776 1e-05
-0.00265332 0.000993809 1e-05
-0.00247443 0.000992811 1e-05
-0.0023027 0.000992771 1e-05
-0.00213097 0.00099176 1e-05
-0.00195924 0.000990715 1e-05
-0.00178751 0.000989635 1e-05
-0.00161577 0.000988519 1e-05
-0.0014509 0.000988447 1e-05
-0.00128603 0.000987313 1e-05
-0.00112117 0.000986132 1e-05
-0.000956302 0.000984904 1e-05
-0.000791418 0.000983627 1e-05
-0.000633135 0.000983477 1e-05
-0.000474857 0.000982145 1e-05
-0.000316579 0.000980761 1e-05
-0.000158302 0.000979323 1e-05
0 0.00097783 1e-05
0.000105677 0.000977662 1e-05
0.00021135 0.000976603 1e-05
0.000317022 0.000975509 1e-05
0.000422693 0.000974381 1e-05
0.000528387 0.000973216 1e-05
0.000634886 0.000973043 1e-05
0.000741379 0.000971846 1e-05
0.000847871 0.000970621 1e-05
0.000954363 0.000969368 1e-05
0.00106088 0.000968088 1e-05
0.00116821 0.000967939 1e-05
0.00127553 0.000966656 1e-05
0.00138285 0.000965349 1e-05
0.00149017 0.000964015 1e-05
0.00159752 0.00096274 1e-05
0.00170568 0.000962615 1e-05
0.00181383 0.000961419 1e-05
0.00192199 0.000960068 1e-05
0.00203014 0.000958694 1e-05
0.00213833 0.000957528 1e-05
0.00224733 0.000957427 1e-05
0.00235633 0.00095635 1e-05
0.00246532 0.00095499 1e-05
0.00257431 0.000953606 1e-05
0.00268334 0.000952549 1e-05
0.00279319 0.000952463 1e-05
0.00290303 0.000951492 1e-05
0.00301287 0.000950135 1e-05
0.00312272 0.000948754 1e-05
0.00323259 0.000947789 1e-05
0.00334329 0.000947705 1e-05
0.00345399 0.000946818 1e-05
0.00356469 0.000945471 1e-05
0.00367538 0.000944098 1e-05
0.00378611 0.000943208 1e-05
0.00389767 0.000943114 1e-05
0.00400923 0.000942293 1e-05
0.00412079 0.000940956 1e-05
0.00423235 0.000939593 1e-05
0.00434393 0.000938761 1e-05
0.00445636 0.000938647 1e-05
0.00456879 0.000937872 1e-05
0.00468122 0.000936543 1e-05
0.00479364 0.000935188 1e-05
0.00490609 0.000934396 1e-05
0.0050194 0.000934252 1e-05
0.0051327 0.000933507 1e-05
0.005246 0.00093218 1e-05
0.0053593 0.000930831 1e-05
0.00547262 0.000930062 1e-05
0.00558681 0.000929879 1e-05
0.00570099 0.000929149 1e-05
0.00581517 0.000927875 1e-05
0.00592935 0.00092659 1e-05
0.00604356 0.000925831 1e-05
0.00615863 0.000925602 1e-05
0.0062737 0.000924873 1e-05
0.00638877 0.000923649 1e-05
0.00650384 0.000922412 1e-05
0.00661893 0.000921651 1e-05
0.0067349 0.000921371 1e-05
0.00685087 0.000920633 1e-05
0.00696683 0.000919443 1e-05
0.0070828 0.00091824 1e-05
0.00719878 0.000917468 1e-05
0.00731565 0.00091713 1e-05
0.00743252 0.000916375 1e-05
0.00754938 0.000915207 1e-05
0.00766625 0.000914024 1e-05
0.00778313 0.000913231 1e-05
0.00790091 0.000912832 1e-05
0.00801869 0.000912052 1e-05
0.00813647 0.000910893 1e-05
0.00825424 0.000909719 1e-05
0.00837203 0.000908899 1e-05
0.00849073 0.000908435 1e-05
0.00860942 0.000907621 1e-05
0.00872811 0.000906462 1e-05
0.0088468 0.000905286 1e-05
0.00896551 0.000904432 1e-05
0.00908513 0.0009039 1e-05
0.00920475 0.000903048 1e-05
0.00932436 0.000901878 1e-05
0.00944397 0.000900693 1e-05
0.0095636 0.000899798 1e-05
0.00968415 0.000899195 1e-05
0.0098047 0.000898298 1e-05
0.00992524 0.00089711 1e-05
0.0100458 0.000895912 1e-05
0.0101663 0.000894971 1e-05
0.0102878 0.000894293 1e-05
0.0104093 0.000893346 1e-05
0.0105308 0.000892163 1e-05
0.0106523 0.000890971 1e-05
0.0107738 0.000889979 1e-05
0.0108962 0.000889224 1e-05
0.0110186 0.000888222 1e-05
0.0111411 0.000887033 1e-05
0.0112635 0.000885835 1e-05
0.0113859 0.000884788 1e-05
0.0115093 0.000883953 1e-05
0.0116327 0.000882891 1e-05
0.0117561 0.000881686 1e-05
0.0118794 0.000880471 1e-05
0.0120028 0.000879364 1e-05
0.0121272 0.000878446 1e-05
0.0122515 0.000877321 1e-05
0.0123759 0.00087609 1e-05
0.0125002 0.000874848 1e-05
0.0126245 0.000873676 1e-05
0.0127498 0.000872674 1e-05
0.0128752 0.000871482 1e-05
0.0130005 0.000870215 1e-05
0.0131258 0.000868937 1e-05
0.0132511 0.000867697 1e-05
0.0133774 0.000866609 1e-05
0.0135036 0.000865346 1e-05
0.0136299 0.000864035 1e-05
0.0137562 0.000862713 1e-05
0.0138825 0.000861402 1e-05
0.0140098 0.000860225 1e-05
0.014137 0.000858888 1e-05
0.0142643 0.000857527 1e-05
0.0143915 0.000856153 1e-05
0.0145188 0.000854767 1e-05
0.0146471 0.0008535 1e-05
0.0147753 0.000852093 1e-05
0.0149036 0.000850674 1e-05
0.0150318 0.000849242 1e-05
0.0151601 0.000847797 1e-05
0.0152893 0.000846438 1e-05
0.0154186 0.000844967 1e-05
0.0155478 0.000843484 1e-05
0.0156771 0.000841987 1e-05
0.0158063 0.000840478 1e-05
0.0159366 0.000839025 1e-05
0.0160668 0.000837485 1e-05
0.0161971 0.000835932 1e-05
0.0163273 0.000834366 1e-05
0.0164576 0.000832786 1e-05
0.0165889 0.000831237 1e-05
0.0167201 0.000829623 1e-05
0.0168514 0.000827996 1e-05
0.0169827 0.000826354 1e-05
0.0171139 0.000824699 1e-05
0.0172462 0.000823053 1e-05
0.0173785 0.00082136 1e-05
0.0175108 0.000819653 1e-05
0.0176431 0.000817932 1e-05
0.0177754 0.000816197 1e-05
0.0179087 0.000814452 1e-05
0.018042 0.000812676 1e-05
0.0181753 0.000810885 1e-05
0.0183087 0.00080908 1e-05
0.018442 0.00080726 1e-05
0.0184765 0.000806787 1e-05
0.018511 0.000806311 1e-05
0.0185454 0.000805835 1e-05
0.0185799 0.000805357 1e-05
0.0186138 0.000804887 1e-05
0.0187138 0.000803497 1e-05
0.0188138 0.000802099 1e-05
0.0189138 0.000800693 1e-05
0.0190138 0.000799278 1e-05
0.0191137 0.000797855 1e-05
0.0192491 0.000795909 1e-05
0.0193845 0.000793954 1e-05
0.0195199 0.000791984 1e-05
0.0196553 0.000789999 1e-05
0.0197907 0.000787998 1e-05
0.0199272 0.000785949 1e-05
0.0200636 0.0007839 1e-05
0.0202001 0.000781835 1e-05
0.0203365 0.000779754 1e-05
0.020473 0.000777657 1e-05
0.0206105 0.000775506 1e-05
0.020748 0.000773359 1e-05
0.0208855 0.000771195 1e-05
0.021023 0.000769016 1e-05
0.0211606 0.00076682 1e-05
0.0212991 0.000764565 1e-05
0.0214377 0.000762317 1e-05
0.0215763 0.000760052 1e-05
0.0217149 0.000757771 1e-05
0.0218535 0.000755474 1e-05
0.0219931 0.000753113 1e-05
0.0221328 0.000750762 1e-05
0.0222724 0.000748393 1e-05
0.0224121 0.000746008 1e-05
0.0225517 0.000743605 1e-05
0.0226925 0.000741138 1e-05
0.0228332 0.000738677 1e-05
0.022974 0.000736202 1e-05
0.0231147 0.000733708 1e-05
0.0232555 0.000731192 1e-05
0.0233973 0.000728615 1e-05
0.0235391 0.000726038 1e-05
0.023681 0.00072345 1e-05
0.0238228 0.000720843 1e-05
0.0239647 0.00071821 1e-05
0.0241076 0.000715521 1e-05
0.0242505 0.000712828 1e-05
0.0243935 0.000710126 1e-05
0.0245364 0.000707405 1e-05
0.0246794 0.000704658 1e-05
0.0248234 0.000701857 1e-05
0.0249675 0.000699051 1e-05
0.0251115 0.000696236 1e-05
0.0252556 0.000693403 1e-05
0.0253996 0.000690541 1e-05
0.0255448 0.000687626 1e-05
0.02569 0.000684701 1e-05
0.0258351 0.000681766 1e-05
0.0259803 0.000678812 1e-05
0.0261255 0.000675829 1e-05
0.0262718 0.000672795 1e-05
0.0264181 0.000669748 1e-05
0.0265644 0.000666687 1e-05
0.0267107 0.000663607 1e-05
0.026857 0.000660501 1e-05
0.0270044 0.000657347 1e-05
0.0271519 0.000654176 1e-05
0.0272993 0.000650989 1e-05
0.0274468 0.000647783 1e-05
0.0275942 0.000644555 1e-05
0.0277428 0.00064128 1e-05
0.0278914 0.000637986 1e-05
0.0280399 0.000634673 1e-05
0.0281885 0.000631343 1e-05
0.0283371 0.000627993 1e-05
0.0284869 0.000624598 1e-05
0.0286366 0.000621182 1e-05
0.0287863 0.000617745 1e-05
0.0289361 0.000614292 1e-05
0.0290858 0.000610821 1e-05
0.0292367 0.000607306 1e-05
0.0293876 0.000603769 1e-05
0.0295385 0.00060021 1e-05
0.0296894 0.000596634 1e-05
0.0298403 0.000593043 1e-05
0.0299924 0.000589409 1e-05
0.0301445 0.00058575 1e-05
0.0302966 0.00058207 1e-05
0.0304486 0.000578373 1e-05
0.0306007 0.000574661 1e-05
0.030754 0.000570907 1e-05
0.0309072 0.000567126 1e-05
0.0310605 0.000563326 1e-05
0.0312138 0.000559508 1e-05
0.031367 0.000555675 1e-05
0.0315215 0.000551799 1e-05
0.0316759 0.000547896 1e-05
0.0318304 0.000543974 1e-05
0.0319848 0.000540036 1e-05
0.0321393 0.00053608 1e-05
0.0322949 0.000532082 1e-05
0.0324506 0.000528056 1e-05
0.0326062 0.000524012 1e-05
0.0327619 0.000519951 1e-05
0.0329175 0.000515873 1e-05
[...]
POINT_DATA 10945
 FIELD attributes 1
U 3 10945 float
10.0021 	0.000979744 	0 10.0076 	0.00792509 	0 10.013 	0.0151119 	0 10.0184 	0.022312 	0 10.0239 	0.0295253 	0 10.0306 	0.0425732 	0 10.0339 	0.0319031 	0 10.0371 	0.0319196 	0 10.0403 	0.0319361 	0 10.0435 	0.0319526 	0 10.0462 	0.0419675 	0 10.0442 	0.0264096 	0 10.0432 	0.0244514 	0 10.0422 	0.0224671 	0 10.0412 	0.0204563 	0 10.0403 	0.0301334 	0 10.0368 	0.0145812 	0 10.0345 	0.0129923 	0 10.0322 	0.011376 	0 10.0299 	0.00973152 	0 10.028 	0.020595 	0 10.0247 	0.00518635 	0 10.0224 	0.00390773 	0 10.02 	0.00260282 	0 10.0177 	0.00127109 	0 10.0157 	0.0134912 	0 10.0125 	-0.00231488 	0 10.0101 	-0.00339276 	0 10.0077 	-0.00449537 	0 10.0052 	-0.00562327 	0 10.003 	0.00839178 	0 9.99997 	-0.00850248 	0 9.99747 	-0.00941852 	0 9.99498 	-0.010357 	0 9.99247 	-0.0113186 	0 9.99 	0.0050573 	0 9.98721 	-0.0137077 	0 9.98473 	-0.0145493 	0 9.98226 	-0.0154123 	0 9.97978 	-0.0162973 	0 9.9771 	0.00293415 	0 9.97463 	-0.0184245 	0 9.97221 	-0.0192727 	0 9.96979 	-0.0201429 	0 9.96736 	-0.0210358 	0 9.96443 	0.00152666 	0 9.96234 	-0.0230542 	0 9.95997 	-0.0239465 	0 9.9576 	-0.0248622 	0 9.95522 	-0.0258019 	0 9.95195 	0.000600532 	0 9.95033 	-0.0277702 	0 9.94803 	-0.0287225 	0 9.94573 	-0.0296997 	0 9.94342 	-0.0307024 	0 9.93976 	4.61108e-05 	0 9.93871 	-0.0326653 	0 9.93651 	-0.0337014 	0 9.9343 	-0.0347643 	0 9.93208 	-0.0358546 	0 9.92794 	-0.000278292 	0 9.92759 	-0.037877 	0 9.92551 	-0.0390443 	0 9.92342 	-0.0402413 	0 9.92131 	-0.0414686 	0 9.91662 	-0.000613577 	0 9.91711 	-0.0436725 	0 9.91514 	-0.0450134 	0 9.91316 	-0.0463877 	0 9.91117 	-0.0477962 	0 9.90576 	-0.00114395 	0 9.90715 	-0.0502679 	0 9.9053 	-0.0518812 	0 9.90344 	-0.0535336 	0 9.90157 	-0.0552259 	0 9.89535 	-0.00228836 	0 9.89788 	-0.0582861 	0 9.89615 	-0.0602342 	0 9.89441 	-0.0622284 	0 9.89265 	-0.0642697 	0 9.8854 	-0.00429068 	0 9.889 	-0.0680288 	0 9.88702 	-0.0708032 	0 9.88502 	-0.0736409 	0 9.88301 	-0.0765435 	0 9.87392 	-0.00935895 	0 9.87746 	-0.0831079 	1.0511e-21 9.87523 	-0.0863651 	3.57835e-21 9.87297 	-0.0896963 	6.10375e-21 9.87069 	-0.0931031 	8.62725e-21 9.86081 	-0.0157294 	1.01112e-20 9.86512 	-0.0988368 	-1.44874e-20 9.86294 	-0.102061 	-1.87532e-20 9.86074 	-0.105334 	-2.30358e-20 9.85852 	-0.108657 	-2.73353e-20 9.84696 	-0.0159633 	6.06018e-22 9.85503 	-0.110809 	-1.89752e-21 9.85312 	-0.113315 	-4.25197e-21 9.85121 	-0.115859 	-6.6048e-21 9.84928 	-0.118442 	-8.95598e-21 9.83346 	-0.0135883 	-1.005e-20 9.84743 	-0.1177 	-9.38522e-21 9.84555 	-0.119985 	-6.1806e-21 9.84366 	-0.122302 	-2.97493e-21 9.84033 	-0.116859 	-4.12611e-22 9.8187 	-0.0113458 	-6.11837e-21 9.8373 	-0.108806 	-6.81407e-22 9.83775 	-0.122883 	-8.80555e-21 9.83559 	-0.125015 	-1.88726e-20 9.82803 	-0.105862 	-2.86736e-20 9.80099 	-0.00911885 	-3.75543e-20 9.82362 	-0.0970298 	-6.03316e-20 9.82802 	-0.122687 	-6.24229e-20 9.82557 	-0.124762 	-5.66899e-20 9.81245 	-0.0950876 	-4.15103e-20 9.78019 	-0.00762456 	-9.1728e-21 9.8068 	-0.0867569 	-8.93774e-21 9.81627 	-0.121263 	-3.5292e-21 9.81351 	-0.123392 	5.60539e-21 9.79357 	-0.0859769 	1.55829e-20 9.75613 	-0.00739786 	2.64364e-20 9.78628 	-0.078411 	8.12528e-20 9.80163 	-0.119318 	1.10751e-19 9.79845 	-0.121477 	1.07667e-19 9.77062 	-0.0785382 	6.91898e-20 9.72827 	-0.0081908 	9.17673e-21 9.76155 	-0.0718914 	-6.23375e-20 9.78349 	-0.117263 	-1.1461e-19 9.77985 	-0.119429 	-1.2166e-19 9.74336 	-0.0727219 	-7.96954e-20 9.69655 	-0.0098318 	-2.15422e-20 9.73257 	-0.0670414 	-1.34742e-20 9.76165 	-0.115401 	-8.5207e-21 9.75753 	-0.117576 	-1.985e-20 9.71186 	-0.0684714 	-3.99846e-20 9.66108 	-0.0122661 	-6.14279e-20 9.69947 	-0.063753 	-7.31489e-20 9.73612 	-0.113989 	-8.43097e-20 9.73126 	-0.115905 	-7.80069e-20 9.67633 	-0.0656782 	-5.65102e-20 9.62206 	-0.015402 	-3.5076e-20 9.66243 	-0.061814 	-2.24766e-20 9.70217 	-0.108261 	-9.81389e-21 9.69502 	-0.109073 	-3.86399e-22 9.63711 	-0.0640828 	-3.36979e-21 9.57983 	-0.0190464 	-6.33423e-21 9.62179 	-0.0609206 	-3.49418e-21 9.66314 	-0.102829 	-6.7278e-22 9.65486 	-0.10376 	-7.52832e-22 9.59447 	-0.0634358 	-3.73585e-21 9.53469 	-0.0230688 	-6.70179e-21 9.57785 	-0.0608794 	-3.86224e-21 9.62042 	-0.098723 	-1.03964e-21 9.61111 	-0.0997339 	-6.3076e-21 9.54875 	-0.063584 	-1.59025e-20 9.48696 	-0.0273951 	-2.55652e-20 9.53095 	-0.0615606 	-5.02425e-20 9.57438 	-0.0957574 	-7.48553e-20 9.56414 	-0.0968181 	-7.98275e-20 9.50028 	-0.0644037 	-6.50642e-20 9.43696 	-0.0319537 	-5.03254e-20 9.48145 	-0.0628405 	-9.8042e-20 9.5254 	-0.0937566 	-1.45732e-19 9.51436 	-0.0948434 	-1.38195e-19 9.44941 	-0.0657765 	-7.0973e-20 9.38498 	-0.0366776 	-3.69349e-21 9.42963 	-0.0646141 	-3.24025e-21 9.47377 	-0.0925777 	-2.83356e-21 9.46205 	-0.0936762 	1.59199e-21 9.39642 	-0.0676142 	8.16718e-21 9.33127 	-0.0415231 	1.47704e-20 9.3758 	-0.0668042 	7.87006e-21 9.41984 	-0.0921101 	9.42844e-22 9.40754 	-0.0932121 	-2.56029e-21 9.3416 	-0.0698517 	-5.52782e-21 9.27611 	-0.0464652 	-8.4853e-21 9.32024 	-0.0693552 	-5.66988e-21 9.36392 	-0.0922682 	-2.86502e-21 9.35008 	-0.0929116 	-5.97971e-23 9.28526 	-0.0724375 	-6.48643e-21 9.21974 	-0.051485 	-1.31367e-20 9.26326 	-0.072217 	-6.16666e-21 9.29963 	-0.090582 	-9.22471e-22 9.28539 	-0.0910806 	-8.75398e-21 9.22776 	-0.0753143 	-2.72634e-20 9.16251 	-0.0565538 	-4.77423e-20 9.20519 	-0.0753372 	-1.31202e-19 9.23369 	-0.0896482 	-1.93575e-19 9.21958 	-0.0901965 	-1.91309e-19 9.16932 	-0.0784367 	-1.26308e-19 9.10458 	-0.0616499 	-3.57417e-20 9.14628 	-0.0786753 	-2.20517e-20 9.16693 	-0.089537 	-1.0689e-20 9.15295 	-0.0901268 	-3.19319e-21 9.11015 	-0.0817685 	0 9.04614 	-0.0667592 	0 9.0867 	-0.0821984 	0 9.09961 	-0.0901328 	0 9.08577 	-0.0907564 	0 9.05043 	-0.0852762 	0 8.98732 	-0.0718668 	0 9.02663 	-0.0858738 	0 9.03196 	-0.0913311 	5.05189e-21 9.01827 	-0.091982 	1.29424e-20 8.99032 	-0.0889265 	2.25301e-20 8.92825 	-0.0769564 	3.6197e-20 8.96622 	-0.089669 	1.26194e-19 8.96419 	-0.0930397 	1.44524e-19 8.95063 	-0.0937137 	1.4217e-19 8.92997 	-0.0926923 	1.26703e-19 8.86907 	-0.08202 	3.66499e-20 8.90561 	-0.0935659 	2.31056e-20 8.89648 	-0.0951895 	2.29524e-20 8.88305 	-0.0958837 	2.40547e-20 8.8695 	-0.0965578 	2.51764e-20 8.80987 	-0.0870539 	3.51835e-20 8.84228 	-0.0970066 	8.9557e-20 8.82901 	-0.0977177 	8.2299e-20 8.81571 	-0.0984282 	7.50327e-20 8.80238 	-0.0991382 	6.7758e-20 8.75082 	-0.0920467 	1.14827e-20 8.77513 	-0.0998389 	-4.79407e-20 8.76199 	-0.100563 	-6.51485e-20 8.74882 	-0.101286 	-8.2348e-20 8.73562 	-0.102009 	-9.95393e-20 8.692 	-0.096989 	-7.4028e-20 8.70856 	-0.102937 	-1.23152e-19 8.69554 	-0.103671 	-1.15221e-19 8.68248 	-0.104406 	-1.07278e-19 8.6694 	-0.105139 	-9.93224e-20 8.63349 	-0.101877 	-4.93221e-20 8.64263 	-0.106256 	-3.63594e-20 8.62972 	-0.106999 	-2.63176e-20 8.61679 	-0.107743 	-1.62775e-20 8.60382 	-0.108486 	-6.23901e-21 8.57535 	-0.106709 	0 8.57742 	-0.109758 	1.69444e-21 8.56463 	-0.110509 	4.31975e-21 8.5518 	-0.11126 	6.94547e-21 8.53894 	-0.112011 	9.57161e-21 8.51762 	-0.111484 	1.22002e-20 8.51299 	-0.11341 	1.18434e-20 8.50031 	-0.114167 	1.20102e-20 8.48759 	-0.114924 	1.2178e-20 8.47483 	-0.115681 	1.23466e-20 8.46036 	-0.1162 	1.26252e-20 8.45873 	-0.116614 	1.3666e-20 8.4555 	-0.11681 	1.50264e-20 8.45227 	-0.117005 	1.63868e-20 8.44905 	-0.117201 	1.77474e-20 8.44587 	-0.117393 	1.90844e-20 8.43626 	-0.117961 	2.25157e-20 8.42664 	-0.118529 	2.59461e-20 8.41699 	-0.119097 	2.93754e-20 8.40733 	-0.119665 	3.28037e-20 8.39593 	-0.120689 	3.59513e-20 8.38518 	-0.121051 	2.87803e-20 8.37238 	-0.121817 	2.694e-20 8.35953 	-0.122584 	2.50899e-20 8.34665 	-0.123351 	2.32299e-20 8.33005 	-0.125036 	3.40802e-20 8.32185 	-0.12499 	2.92748e-20 8.30912 	-0.125759 	2.37356e-20 8.29637 	-0.126527 	1.81946e-20 8.28357 	-0.127296 	1.26517e-20 8.26538 	-0.129296 	1.07574e-20 8.25947 	-0.128974 	1.58774e-20 8.24683 	-0.129743 	8.41328e-21 8.23416 	-0.130513 	9.53503e-22 8.22145 	-0.131282 	-6.50188e-21 8.20192 	-0.133467 	-2.88093e-20 8.19808 	-0.132985 	-4.82941e-20 8.18552 	-0.133755 	-5.24789e-20 8.17293 	-0.134527 	-5.66678e-20 8.1603 	-0.135298 	-6.08609e-20 8.13962 	-0.137559 	-5.00646e-20 8.13769 	-0.137015 	-9.45117e-20 8.12522 	-0.137791 	-8.85964e-20 8.1127 	-0.138567 	-8.26934e-20 8.09987 	-0.139391 	-7.4958e-20 8.0785 	-0.141592 	-1.30392e-20 8.07705 	-0.141209 	-3.49919e-21 8.06592 	-0.141871 	-5.45926e-21 8.05348 	-0.142672 	-8.94137e-21 8.03917 	-0.143733 	-1.25353e-20 8.01849 	-0.145684 	-1.65171e-20 8.0166 	-0.145626 	-4.85787e-20 8.00764 	-0.146144 	-6.42331e-20 7.99522 	-0.146945 	-7.18991e-20 7.97953 	-0.148103 	-6.16397e-20 7.95934 	-0.149753 	-2.66973e-20 7.95696 	-0.149883 	4.55981e-20 7.94999 	-0.150304 	9.19421e-20 7.93753 	-0.151071 	1.07417e-19 7.92055 	-0.152226 	7.6281e-20 7.90077 	-0.153619 	1.6634e-20 7.89785 	-0.153857 	7.71845e-21 7.89269 	-0.154223 	7.83057e-22 7.88023 	-0.155006 	2.63683e-22 7.86213 	-0.156199 	2.73125e-22 7.84278 	-0.15748 	3.95582e-22 7.83948 	-0.157939 	2.62528e-22 7.83608 	-0.158403 	5.87856e-23 7.82345 	-0.159234 	-7.19211e-21 7.80453 	-0.160343 	-1.43435e-20 7.78556 	-0.161453 	-2.14927e-20 7.78198 	-0.162089 	-1.37068e-20 7.77838 	-0.162725 	-5.91967e-21 7.76644 	-0.163534 	0 7.74787 	-0.164454 	0 7.72925 	-0.165374 	0 7.72545 	-0.166143 	0 7.72162 	-0.166912 	0 7.71048 	-0.167672 	-2.01824e-21 7.69224 	-0.168413 	-5.69562e-21 7.67396 	-0.169154 	-9.37199e-21 7.66998 	-0.170026 	-3.84871e-20 7.66597 	-0.170898 	-6.76012e-20 7.65566 	-0.171603 	-7.42543e-20 7.63774 	-0.172187 	-5.71025e-20 7.61978 	-0.172771 	-3.995e-20 7.61566 	-0.173728 	-1.19573e-19 7.61151 	-0.174685 	-1.99195e-19 7.60204 	-0.175338 	-2.06863e-19 7.58441 	-0.17579 	-1.31914e-19 7.56674 	-0.176242 	-5.69647e-20 7.56251 	-0.17727 	-9.9094e-20 7.55758 	-0.178246 	-1.34623e-19 7.5481 	-0.178856 	-1.2523e-19 7.53224 	-0.17925 	-8.00802e-20 7.51483 	-0.179593 	-2.64107e-20 7.51051 	-0.180683 	-1.84824e-20 7.50434 	-0.181597 	-1.07367e-20 7.49491 	-0.182193 	-3.31538e-21 7.4812 	-0.1826 	0 7.46404 	-0.182853 	0 7.45963 	-0.183998 	0 7.45228 	-0.184812 	0 7.44289 	-0.1854 	0 7.43127 	-0.185868 	0 7.41431 	-0.186048 	0 7.40983 	-0.187241 	0 7.40133 	-0.187927 	0 7.39198 	-0.18851 	0 7.38238 	-0.189078 	0 7.36561 	-0.189201 	0 7.36073 	-0.190389 	0 7.35144 	-0.19097 	0 7.34212 	-0.191551 	0 7.33277 	-0.192133 	0 7.31789 	-0.19233 	0 7.31182 	-0.193384 	0 7.30255 	-0.193966 	0 7.29325 	-0.194548 	0 7.28392 	-0.195131 	0 7.27109 	-0.195449 	0 7.26387 	-0.196349 	0 7.25461 	-0.196935 	0 7.24532 	-0.19752 	0 7.236 	-0.198107 	0 7.22516 	-0.198571 	0 7.21897 	-0.199163 	0 7.2119 	-0.199614 	0 7.20482 	-0.200065 	0 7.19772 	-0.200517 	0 7.19081 	-0.200955 	0 7.18849 	-0.201098 	0 7.18616 	-0.20124 	0 7.18384 	-0.201383 	0 7.18151 	-0.201526 	0 7.17907 	-0.201593 	1.32779e-22 7.16985 	-0.202261 	0 7.16028 	-0.20286 	0 7.15068 	-0.203459 	0 7.14104 	-0.204058 	0 7.13092 	-0.204284 	0 7.12291 	-0.205237 	0 7.11333 	-0.205842 	0 7.10371 	-0.206448 	0 7.09406 	-0.207055 	0 7.08375 	-0.207011 	-2.35504e-21 7.07676 	-0.208232 	4.09807e-23 7.06716 	-0.208846 	1.6473e-22 7.05753 	-0.20946 	2.88451e-22 7.04787 	-0.210074 	4.12141e-22 7.03748 	-0.209779 	2.61348e-22 7.03136 	-0.211256 	2.73375e-20 7.02174 	-0.211878 	2.89571e-20 7.01209 	-0.212501 	3.05829e-20 7.00232 	-0.212978 	2.85274e-20 6.99205 	-0.212592 	4.6473e-21 6.98573 	-0.214072 	1.26092e-21 6.97703 	-0.214946 	-4.06741e-21 6.96735 	-0.215578 	-1.01703e-20 6.95749 	-0.215798 	-1.92807e-20 6.9474 	-0.215455 	-3.25141e-20 6.94083 	-0.216919 	-4.59201e-20 6.93299 	-0.218054 	-5.43247e-20 6.92328 	-0.218696 	-5.52118e-20 6.91341 	-0.218673 	-4.61202e-20 6.90347 	-0.218369 	-3.2794e-20 6.89667 	-0.219819 	-1.95894e-20 6.88959 	-0.221206 	-6.89443e-21 6.87984 	-0.221858 	-9.99581e-23 6.87002 	-0.221604 	0 6.8602 	-0.221336 	0 6.8532 	-0.222774 	0 6.84613 	-0.224212 	0 6.83702 	-0.224821 	0 6.8273 	-0.224589 	0 6.81756 	-0.224356 	0 6.81037 	-0.225783 	0 6.80311 	-0.22721 	0 6.79483 	-0.227828 	0 6.78517 	-0.227628 	0 6.7755 	-0.227429 	0 6.76813 	-0.228846 	0 6.76069 	-0.230263 	0 6.75322 	-0.230891 	1.5052e-22 6.74359 	-0.230721 	2.59656e-22 6.73397 	-0.230551 	3.6881e-22 6.72643 	-0.23196 	-2.38181e-20 6.71888 	-0.233243 	-4.35688e-20 6.71158 	-0.233829 	-3.87606e-20 6.70253 	-0.233864 	-1.66835e-20 6.69293 	-0.233722 	1.09268e-20 6.68523 	-0.235122 	7.92894e-21 6.67766 	-0.236158 	4.92706e-21 6.67027 	-0.236754 	1.91964e-21 6.66195 	-0.237053 	2.34197e-21 6.65235 	-0.236936 	7.58489e-21 6.64451 	-0.238329 	1.63297e-21 6.63695 	-0.239124 	-4.75133e-21 6.62946 	-0.239728 	-1.1275e-20 6.62181 	-0.240284 	-1.74404e-20 6.61219 	-0.24019 	-1.87344e-20 6.60424 	-0.241525 	-1.88359e-20 6.59669 	-0.242136 	-1.63651e-20 6.58911 	-0.242746 	-1.38965e-20 6.5815 	-0.243357 	-1.14301e-20 6.57242 	-0.243476 	-9.48176e-21 6.5645 	-0.244568 	-1.13831e-20 6.55685 	-0.245184 	-1.16401e-20 6.54917 	-0.245799 	-1.18987e-20 6.54146 	-0.246415 	-1.21586e-20 6.53302 	-0.246789 	-1.16426e-20 6.52518 	-0.247639 	-1.287e-20 6.51746 	-0.248255 	-1.32688e-20 6.50971 	-0.248871 	-1.36691e-20 6.50193 	-0.249487 	-1.40708e-20 6.49443 	-0.250078 	-1.44577e-20 6.49433 	-0.250085 	-1.44725e-20 6.49423 	-0.250093 	-1.44873e-20 6.49413 	-0.2501 	-1.45022e-20 6.49404 	-0.250107 	-1.4517e-20 6.49394 	-0.250112 	-1.44463e-20 6.48592 	-0.250734 	-1.13521e-20 6.47785 	-0.251352 	-8.25716e-21 6.46975 	-0.251971 	-5.16148e-21 6.46162 	-0.252589 	-2.06506e-21 6.45358 	-0.252976 	0 6.4461 	-0.253834 	-1.55186e-21 6.43791 	-0.254451 	-4.06691e-21 6.42969 	-0.255067 	-6.58122e-21 6.42143 	-0.255684 	-9.0948e-21 6.41344 	-0.255848 	-1.16337e-20 6.40645 	-0.256933 	-2.62965e-20 6.39813 	-0.257545 	-2.73696e-20 6.38978 	-0.258157 	-2.84471e-20 6.3814 	-0.258766 	-2.94291e-20 6.37347 	-0.258714 	-1.01126e-20 6.36667 	-0.25992 	1.38773e-20 6.35849 	-0.260622 	1.9631e-20 6.35001 	-0.261227 	2.18566e-20 6.34168 	-0.261605 	1.713e-20 6.33366 	-0.261559 	-6.73845e-22 6.32667 	-0.262741 	-3.02891e-21 6.31896 	-0.263666 	-4.26098e-21 6.31036 	-0.264259 	-4.04752e-21 6.3021 	-0.264409 	2.1474e-21 6.29399 	-0.264363 	1.09817e-20 6.28681 	-0.26552 	4.07709e-21 6.27954 	-0.266659 	-2.48254e-21 6.27083 	-0.267208 	2.37661e-21 6.26264 	-0.267158 	4.86132e-21 6.25443 	-0.267108 	7.34603e-21 6.24708 	-0.268234 	2.44784e-20 6.23968 	-0.269359 	4.16097e-20 6.2316 	-0.269889 	3.84635e-20 6.2233 	-0.269828 	1.22359e-20 6.215 	-0.269768 	-1.39952e-20 6.20747 	-0.270855 	-1.00664e-20 6.1999 	-0.271942 	-6.14393e-21 6.19248 	-0.272465 	-3.6251e-21 6.18407 	-0.272392 	-6.79887e-21 6.17566 	-0.272319 	-9.97354e-21 6.16797 	-0.27337 	-7.95198e-21 6.1603 	-0.274346 	-4.97479e-21 6.15314 	-0.274804 	4.63573e-21 6.14496 	-0.274842 	1.07807e-20 6.13646 	-0.274752 	1.58623e-20 6.12862 	-0.275772 	1.15469e-20 6.12105 	-0.276496 	1.22273e-20 6.11376 	-0.276919 	1.79935e-20 6.10603 	-0.277159 	2.59067e-20 6.09743 	-0.27703 	3.81526e-20 6.08944 	-0.277988 	4.54716e-20 6.08197 	-0.27844 	4.20642e-20 6.07455 	-0.278816 	3.70331e-20 6.06711 	-0.279191 	3.20011e-20 6.05854 	-0.279083 	2.32944e-20 6.05056 	-0.279828 	2.96948e-20 6.04303 	-0.280151 	2.87566e-20 6.03548 	-0.280474 	2.78164e-20 6.02791 	-0.280796 	2.68745e-20 6.01978 	-0.280888 	2.23096e-20 6.01202 	-0.281364 	2.51408e-20 6.00447 	-0.28163 	2.44309e-20 5.99691 	-0.281895 	2.37193e-20 5.98932 	-0.28216 	2.30061e-20 5.98191 	-0.282418 	2.23102e-20 5.98178 	-0.282423 	2.23232e-20 5.98165 	-0.282428 	2.23363e-20 5.98151 	-0.282433 	2.23493e-20 5.98138 	-0.282438 	2.23624e-20 5.98124 	-0.282439 	2.21971e-20 5.97396 	-0.282659 	1.74632e-20 5.96664 	-0.282874 	1.26473e-20 5.9593 	-0.283088 	7.83077e-21 5.95194 	-0.283303 	3.01349e-21 5.94437 	-0.283297 	3.47648e-21 5.93789 	-0.283684 	-2.13051e-21 5.93047 	-0.283826 	-5.92327e-21 5.92304 	-0.283967 	-9.7154e-21 5.91558 	-0.284109 	-1.35069e-20 5.9077 	-0.283819 	-5.22277e-21 5.90205 	-0.284365 	-5.74395e-20 5.89454 	-0.284433 	-6.08609e-20 5.88702 	-0.284501 	-6.42878e-20 5.87942 	-0.284502 	-6.00513e-20 5.8713 	-0.283996 	1.97728e-21 5.86584 	-0.284526 	-7.05758e-21 5.85892 	-0.284684 	-6.78683e-21 5.85134 	-0.284674 	-2.28913e-21 5.84344 	-0.284383 	4.41648e-21 5.83524 	-0.283802 	1.34102e-20 5.82973 	-0.284236 	5.76554e-21 5.82368 	-0.284538 	0 5.81605 	-0.284441 	0 5.80787 	-0.283853 	0 5.79961 	-0.283189 	0 5.79406 	-0.283519 	0 5.78848 	-0.28385 	0 5.78107 	-0.283627 	-4.82925e-22 5.77277 	-0.282877 	-2.52724e-21 5.76448 	-0.282128 	-4.57142e-21 5.7589 	-0.282354 	-1.80561e-20 5.7533 	-0.282581 	-3.15409e-20 5.74656 	-0.282285 	-2.78866e-20 5.73825 	-0.28145 	-9.90428e-21 5.72996 	-0.280616 	8.0773e-21 5.72437 	-0.280742 	-2.32277e-20 5.71878 	-0.280868 	-5.45314e-20 5.71252 	-0.280452 	-4.92539e-20 5.70441 	-0.279573 	-1.3656e-20 5.69614 	-0.278652 	2.47223e-20 5.69058 	-0.278678 	4.7277e-20 5.68476 	-0.278504 	5.42865e-20 5.67854 	-0.27799 	3.50086e-20 5.67137 	-0.277239 	7.78221e-21 5.66315 	-0.276228 	-2.82296e-20 5.65763 	-0.276158 	-3.81893e-20 5.65161 	-0.275686 	-4.81581e-20 5.64544 	-0.275077 	-5.81291e-20 5.63921 	-0.27445 	-6.80417e-20 5.63108 	-0.273351 	-7.64664e-20 5.62554 	-0.273125 	-9.46738e-20 5.61944 	-0.272425 	-8.43331e-20 5.61335 	-0.271725 	-7.39944e-20 5.60727 	-0.271026 	-6.36577e-20 5.60003 	-0.270036 	-4.1763e-20 5.59434 	-0.269526 	-3.15767e-20 5.58834 	-0.26874 	-2.33336e-20 5.58236 	-0.267955 	-1.50891e-20 5.57639 	-0.26717 	-6.84304e-21 5.5701 	-0.266303 	5.1338e-22 5.5678 	-0.266029 	3.44337e-21 5.5654 	-0.265677 	2.56629e-21 5.56301 	-0.265324 	1.69009e-21 5.56062 	-0.264972 	8.14762e-22 5.55822 	-0.264617 	-6.74253e-23 5.55494 	-0.26411 	-1.29186e-21 5.55167 	-0.263604 	-2.51449e-21 5.54841 	-0.263098 	-3.7353e-21 5.54515 	-0.262592 	-4.95429e-21 5.54187 	-0.261991 	-8.33779e-22 5.53678 	-0.261158 	-4.77924e-21 5.53136 	-0.260228 	-1.08898e-20 5.52597 	-0.259299 	-1.70019e-20 5.5206 	-0.25837 	-2.31155e-20 5.51513 	-0.2572 	-3.72088e-20 5.51078 	-0.256449 	-5.9516e-20 5.50553 	-0.255453 	-6.24912e-20 5.5003 	-0.254457 	-6.54567e-20 5.4951 	-0.253462 	-6.84125e-20 5.48968 	-0.252094 	-3.34259e-20 5.48605 	-0.25141 	-2.00465e-20 5.48101 	-0.250364 	-6.95642e-21 5.47597 	-0.249313 	6.12877e-21 5.47089 	-0.248175 	1.69577e-20 5.4656 	-0.246715 	1.94835e-20 5.46217 	-0.245971 	4.14917e-20 5.45788 	-0.245015 	5.16362e-20 5.45306 	-0.24392 	5.40292e-20 5.4481 	-0.242611 	3.96663e-20 5.44302 	-0.241118 	1.09605e-20 5.43979 	-0.240331 	1.14033e-20 5.43625 	-0.239465 	1.00767e-20 5.43166 	-0.238342 	3.005e-21 5.42686 	-0.236881 	5.92875e-21 5.42206 	-0.235364 	1.05179e-20 5.41904 	-0.234553 	3.08727e-20 5.41604 	-0.233743 	5.12274e-20 5.41184 	-0.232582 	4.46613e-20 5.40732 	-0.23105 	1.4411e-20 5.40284 	-0.22952 	-1.58405e-20 5.40004 	-0.228704 	-8.28804e-20 5.39726 	-0.227889 	-1.49922e-19 5.39376 	-0.226718 	-1.51458e-19 5.3896 	-0.225188 	-8.7198e-20 5.38548 	-0.223659 	-2.29425e-20 5.38293 	-0.222858 	3.45687e-20 5.38039 	-0.222057 	9.20796e-20 5.37759 	-0.220886 	1.02144e-19 5.37383 	-0.219375 	6.60771e-20 5.37011 	-0.217866 	3.00119e-20 5.36783 	-0.2171 	6.5556e-20 5.36557 	-0.216309 	9.83642e-20 5.36332 	-0.215135 	8.98328e-20 5.36014 	-0.213707 	5.46862e-20 5.35685 	-0.212241 	1.53735e-20 5.35487 	-0.211534 	6.05002e-21 5.35294 	-0.210686 	-3.46723e-23 5.35106 	-0.20957 	1.94437e-23 5.34864 	-0.208301 	4.52302e-21 5.3458 	-0.206908 	1.26807e-20 5.34416 	-0.206288 	4.98163e-20 5.34261 	-0.205415 	5.47585e-20 5.34112 	-0.204389 	4.00606e-20 5.33942 	-0.203299 	1.73343e-20 5.33704 	-0.202012 	-3.02957e-20 5.33577 	-0.201512 	-3.14762e-20 5.33464 	-0.200655 	-3.81201e-20 5.33355 	-0.199755 	-4.54358e-20 5.3325 	-0.198855 	-5.27431e-20 5.33061 	-0.197726 	-6.29062e-20 5.32975 	-0.197323 	-9.49031e-20 5.32905 	-0.196589 	-9.40205e-20 5.32837 	-0.195855 	-9.31407e-20 5.32772 	-0.195122 	-9.22635e-20 5.32652 	-0.194244 	-7.56596e-20 5.32612 	-0.193944 	-8.83888e-20 5.32582 	-0.193421 	-8.19036e-20 5.32555 	-0.192898 	-7.54214e-20 5.32529 	-0.192376 	-6.89421e-20 5.32473 	-0.191779 	-5.44068e-20 5.32478 	-0.