# vtk DataFile Version 2.0
track0
ASCII
DATASET POLYDATA
POINTS 10945 double
-0.0205 0.001 1e-05
-0.0202034 0.00100003 1e-05
-0.0199069 0.00100026 1e-05
-0.0196103 0.00100071 1e-05
-0.0193137 0.00100137 1e-05
-0.0190172 0.00100225 1e-05
-0.0187132 0.00100354 1e-05
-0.0184093 0.0010045 1e-05
-0.0181054 0.00100547 1e-05
-0.0178015 0.00100644 1e-05
-0.0174976 0.0010074 1e-05
-0.0172058 0.00100862 1e-05
-0.016914 0.00100939 1e-05
-0.0166222 0.0010101 1e-05
-0.0163305 0.00101075 1e-05
-0.0160387 0.00101135 1e-05
-0.0157586 0.00101219 1e-05
-0.0154784 0.00101259 1e-05
-0.0151983 0.00101296 1e-05
-0.0149182 0.00101327 1e-05
-0.0146381 0.00101355 1e-05
-0.0143692 0.0010141 1e-05
-0.0141002 0.00101424 1e-05
-0.0138313 0.00101434 1e-05
-0.0135624 0.00101441 1e-05
-0.0132934 0.00101445 1e-05
-0.0130353 0.00101479 1e-05
-0.0127771 0.00101473 1e-05
-0.0125189 0.00101465 1e-05
-0.0122607 0.00101453 1e-05
-0.0120025 0.00101439 1e-05
-0.0117547 0.00101459 1e-05
-0.0115068 0.00101438 1e-05
-0.0112589 0.00101415 1e-05
-0.0110111 0.00101389 1e-05
-0.0107632 0.00101361 1e-05
-0.0105252 0.00101373 1e-05
-0.0102873 0.00101341 1e-05
-0.0100493 0.00101306 1e-05
-0.00981133 0.00101269 1e-05
-0.00957337 0.0010123 1e-05
-0.00934491 0.00101237 1e-05
-0.00911645 0.00101195 1e-05
-0.008888 0.00101151 1e-05
-0.00865954 0.00101104 1e-05
-0.00843108 0.00101056 1e-05
-0.00821175 0.0010106 1e-05
-0.00799242 0.00101009 1e-05
-0.00777309 0.00100956 1e-05
-0.00755376 0.00100901 1e-05
-0.00733443 0.00100844 1e-05
-0.00712387 0.00100846 1e-05
-0.0069133 0.00100787 1e-05
-0.00670273 0.00100726 1e-05
-0.00649217 0.00100663 1e-05
-0.0062816 0.00100598 1e-05
-0.00607944 0.00100598 1e-05
-0.00587729 0.00100532 1e-05
-0.00567514 0.00100463 1e-05
-0.00547299 0.00100393 1e-05
-0.00527083 0.0010032 1e-05
-0.00507675 0.00100319 1e-05
-0.00488268 0.00100245 1e-05
-0.0046886 0.00100169 1e-05
-0.00449453 0.0010009 1e-05
-0.00430044 0.00100009 1e-05
-0.00411412 0.00100008 1e-05
-0.0039278 0.000999257 1e-05
-0.00374148 0.000998411 1e-05
-0.00355516 0.000997539 1e-05
-0.00336883 0.000996641 1e-05
-0.00318995 0.00099662 1e-05
-0.00301107 0.000995712 1e-05
-0.0028322 0.000994776 1e-05
-0.00265332 0.000993809 1e-05
-0.00247443 0.000992811 1e-05
-0.0023027 0.000992771 1e-05
-0.00213097 0.00099176 1e-05
-0.00195924 0.000990715 1e-05
-0.00178751 0.000989635 1e-05
-0.00161577 0.000988519 1e-05
-0.0014509 0.000988447 1e-05
-0.00128603 0.000987313 1e-05
-0.00112117 0.000986132 1e-05
-0.000956302 0.000984904 1e-05
-0.000791418 0.000983627 1e-05
-0.000633135 0.000983477 1e-05
-0.000474857 0.000982145 1e-05
-0.000316579 0.000980761 1e-05
-0.000158302 0.000979323 1e-05
0 0.00097783 1e-05
0.000105677 0.000977662 1e-05
0.00021135 0.000976603 1e-05
0.000317022 0.000975509 1e-05
0.000422693 0.000974381 1e-05
0.000528387 0.000973216 1e-05
0.000634886 0.000973043 1e-05
0.000741379 0.000971846 1e-05
0.000847871 0.000970621 1e-05
0.000954363 0.000969368 1e-05
0.00106088 0.000968088 1e-05
0.00116821 0.000967939 1e-05
0.00127553 0.000966656 1e-05
0.00138285 0.000965349 1e-05
0.00149017 0.000964015 1e-05
0.00159752 0.00096274 1e-05
0.00170568 0.000962615 1e-05
0.00181383 0.000961419 1e-05
0.00192199 0.000960068 1e-05
0.00203014 0.000958694 1e-05
0.00213833 0.000957528 1e-05
0.00224733 0.000957427 1e-05
0.00235633 0.00095635 1e-05
0.00246532 0.00095499 1e-05
0.00257431 0.000953606 1e-05
0.00268334 0.000952549 1e-05
0.00279319 0.000952463 1e-05
0.00290303 0.000951492 1e-05
0.00301287 0.000950135 1e-05
0.00312272 0.000948754 1e-05
0.00323259 0.000947789 1e-05
0.00334329 0.000947705 1e-05
0.00345399 0.000946818 1e-05
0.00356469 0.000945471 1e-05
0.00367538 0.000944098 1e-05
0.00378611 0.000943208 1e-05
0.00389767 0.000943114 1e-05
0.00400923 0.000942293 1e-05
0.00412079 0.000940956 1e-05
0.00423235 0.000939593 1e-05
0.00434393 0.000938761 1e-05
0.00445636 0.000938647 1e-05
0.00456879 0.000937872 1e-05
0.00468122 0.000936543 1e-05
0.00479364 0.000935188 1e-05
0.00490609 0.000934396 1e-05
0.0050194 0.000934252 1e-05
0.0051327 0.000933507 1e-05
0.005246 0.00093218 1e-05
0.0053593 0.000930831 1e-05
0.00547262 0.000930062 1e-05
0.00558681 0.000929879 1e-05
0.00570099 0.000929149 1e-05
0.00581517 0.000927875 1e-05
0.00592935 0.00092659 1e-05
0.00604356 0.000925831 1e-05
0.00615863 0.000925602 1e-05
0.0062737 0.000924873 1e-05
0.00638877 0.000923649 1e-05
0.00650384 0.000922412 1e-05
0.00661893 0.000921651 1e-05
0.0067349 0.000921371 1e-05
0.00685087 0.000920633 1e-05
0.00696683 0.000919443 1e-05
0.0070828 0.00091824 1e-05
0.00719878 0.000917468 1e-05
0.00731565 0.00091713 1e-05
0.00743252 0.000916375 1e-05
0.00754938 0.000915207 1e-05
0.00766625 0.000914024 1e-05
0.00778313 0.000913231 1e-05
0.00790091 0.000912832 1e-05
0.00801869 0.000912052 1e-05
0.00813647 0.000910893 1e-05
0.00825424 0.000909719 1e-05
0.00837203 0.000908899 1e-05
0.00849073 0.000908435 1e-05
0.00860942 0.000907621 1e-05
0.00872811 0.000906462 1e-05
0.0088468 0.000905286 1e-05
0.00896551 0.000904432 1e-05
0.00908513 0.0009039 1e-05
0.00920475 0.000903048 1e-05
0.00932436 0.000901878 1e-05
0.00944397 0.000900693 1e-05
0.0095636 0.000899798 1e-05
0.00968415 0.000899195 1e-05
0.0098047 0.000898298 1e-05
0.00992524 0.00089711 1e-05
0.0100458 0.000895912 1e-05
0.0101663 0.000894971 1e-05
0.0102878 0.000894293 1e-05
0.0104093 0.000893346 1e-05
0.0105308 0.000892163 1e-05
0.0106523 0.000890971 1e-05
0.0107738 0.000889979 1e-05
0.0108962 0.000889224 1e-05
0.0110186 0.000888222 1e-05
0.0111411 0.000887033 1e-05
0.0112635 0.000885835 1e-05
0.0113859 0.000884788 1e-05
0.0115093 0.000883953 1e-05
0.0116327 0.000882891 1e-05
0.0117561 0.000881686 1e-05
0.0118794 0.000880471 1e-05
0.0120028 0.000879364 1e-05
0.0121272 0.000878446 1e-05
0.0122515 0.000877321 1e-05
0.0123759 0.00087609 1e-05
0.0125002 0.000874848 1e-05
0.0126245 0.000873676 1e-05
0.0127498 0.000872674 1e-05
0.0128752 0.000871482 1e-05
0.0130005 0.000870215 1e-05
0.0131258 0.000868937 1e-05
0.0132511 0.000867697 1e-05
0.0133774 0.000866609 1e-05
0.0135036 0.000865346 1e-05
0.0136299 0.000864035 1e-05
0.0137562 0.000862713 1e-05
0.0138825 0.000861402 1e-05
0.0140098 0.000860225 1e-05
0.014137 0.000858888 1e-05
0.0142643 0.000857527 1e-05
0.0143915 0.000856153 1e-05
0.0145188 0.000854767 1e-05
0.0146471 0.0008535 1e-05
0.0147753 0.000852093 1e-05
0.0149036 0.000850674 1e-05
0.0150318 0.000849242 1e-05
0.0151601 0.000847797 1e-05
0.0152893 0.000846438 1e-05
0.0154186 0.000844967 1e-05
0.0155478 0.000843484 1e-05
0.0156771 0.000841987 1e-05
0.0158063 0.000840478 1e-05
0.0159366 0.000839025 1e-05
0.0160668 0.000837485 1e-05
0.0161971 0.000835932 1e-05
0.0163273 0.000834366 1e-05
0.0164576 0.000832786 1e-05
0.0165889 0.000831237 1e-05
0.0167201 0.000829623 1e-05
0.0168514 0.000827996 1e-05
0.0169827 0.000826354 1e-05
0.0171139 0.000824699 1e-05
0.0172462 0.000823053 1e-05
0.0173785 0.00082136 1e-05
0.0175108 0.000819653 1e-05
0.0176431 0.000817932 1e-05
0.0177754 0.000816197 1e-05
0.0179087 0.000814452 1e-05
0.018042 0.000812676 1e-05
0.0181753 0.000810885 1e-05
0.0183087 0.00080908 1e-05
0.018442 0.00080726 1e-05
0.0184765 0.000806787 1e-05
0.018511 0.000806311 1e-05
0.0185454 0.000805835 1e-05
0.0185799 0.000805357 1e-05
0.0186138 0.000804887 1e-05
0.0187138 0.000803497 1e-05
0.0188138 0.000802099 1e-05
0.0189138 0.000800693 1e-05
0.0190138 0.000799278 1e-05
0.0191137 0.000797855 1e-05
0.0192491 0.000795909 1e-05
0.0193845 0.000793954 1e-05
0.0195199 0.000791984 1e-05
0.0196553 0.000789999 1e-05
0.0197907 0.000787998 1e-05
0.0199272 0.000785949 1e-05
0.0200636 0.0007839 1e-05
0.0202001 0.000781835 1e-05
0.0203365 0.000779754 1e-05
0.020473 0.000777657 1e-05
0.0206105 0.000775506 1e-05
0.020748 0.000773359 1e-05
0.0208855 0.000771195 1e-05
0.021023 0.000769016 1e-05
0.0211606 0.00076682 1e-05
0.0212991 0.000764565 1e-05
0.0214377 0.000762317 1e-05
0.0215763 0.000760052 1e-05
0.0217149 0.000757771 1e-05
0.0218535 0.000755474 1e-05
0.0219931 0.000753113 1e-05
0.0221328 0.000750762 1e-05
0.0222724 0.000748393 1e-05
0.0224121 0.000746008 1e-05
0.0225517 0.000743605 1e-05
0.0226925 0.000741138 1e-05
0.0228332 0.000738677 1e-05
0.022974 0.000736202 1e-05
0.0231147 0.000733708 1e-05
0.0232555 0.000731192 1e-05
0.0233973 0.000728615 1e-05
0.0235391 0.000726038 1e-05
0.023681 0.00072345 1e-05
0.0238228 0.000720843 1e-05
0.0239647 0.00071821 1e-05
0.0241076 0.000715521 1e-05
0.0242505 0.000712828 1e-05
0.0243935 0.000710126 1e-05
0.0245364 0.000707405 1e-05
0.0246794 0.000704658 1e-05
0.0248234 0.000701857 1e-05
0.0249675 0.000699051 1e-05
0.0251115 0.000696236 1e-05
0.0252556 0.000693403 1e-05
0.0253996 0.000690541 1e-05
0.0255448 0.000687626 1e-05
0.02569 0.000684701 1e-05
0.0258351 0.000681766 1e-05
0.0259803 0.000678812 1e-05
0.0261255 0.000675829 1e-05
0.0262718 0.000672795 1e-05
0.0264181 0.000669748 1e-05
0.0265644 0.000666687 1e-05
0.0267107 0.000663607 1e-05
0.026857 0.000660501 1e-05
0.0270044 0.000657347 1e-05
0.0271519 0.000654176 1e-05
0.0272993 0.000650989 1e-05
0.0274468 0.000647783 1e-05
0.0275942 0.000644555 1e-05
0.0277428 0.00064128 1e-05
0.0278914 0.000637986 1e-05
0.0280399 0.000634673 1e-05
0.0281885 0.000631343 1e-05
0.0283371 0.000627993 1e-05
0.0284869 0.000624598 1e-05
0.0286366 0.000621182 1e-05
0.0287863 0.000617745 1e-05
0.0289361 0.000614292 1e-05
0.0290858 0.000610821 1e-05
0.0292367 0.000607306 1e-05
0.0293876 0.000603769 1e-05
0.0295385 0.00060021 1e-05
0.0296894 0.000596634 1e-05
0.0298403 0.000593043 1e-05
0.0299924 0.000589409 1e-05
0.0301445 0.00058575 1e-05
0.0302966 0.00058207 1e-05
0.0304486 0.000578373 1e-05
0.0306007 0.000574661 1e-05
0.030754 0.000570907 1e-05
0.0309072 0.000567126 1e-05
0.0310605 0.000563326 1e-05
0.0312138 0.000559508 1e-05
0.031367 0.000555675 1e-05
0.0315215 0.000551799 1e-05
0.0316759 0.000547896 1e-05
0.0318304 0.000543974 1e-05
0.0319848 0.000540036 1e-05
0.0321393 0.00053608 1e-05
0.0322949 0.000532082 1e-05
0.0324506 0.000528056 1e-05
0.0326062 0.000524012 1e-05
0.0327619 0.000519951 1e-05
0.0329175 0.000515873 1e-05
[...]
POINT_DATA 10945
 FIELD attributes 2
p 1 10945 float
-4.37279 -4.4229 -4.48296 -4.54358 -4.60477 -4.73008 -4.80336 -4.88334 -4.96333 -5.04332 -5.12852 -5.13276 -5.15333 -5.17384 -5.1943 -5.2265 -5.2159 -5.22507 -5.23417 -5.24321 -5.26856 -5.26466 -5.27796 -5.2912 -5.30439 -5.3337 -5.32921 -5.34107 -5.35287 -5.36463 -5.39317 -5.38601 -5.39584 -5.40564 -5.4154 -5.44378 -5.435 -5.44459 -5.45414 -5.46365 -5.49415 -5.48348 -5.49315 -5.50279 -5.5124 -5.54577 -5.53236 -5.54192 -5.55144 -5.56093 -5.59755 -5.58086 -5.5904 -5.59991 -5.60938 -5.64991 -5.62973 -5.63962 -5.64947 -5.65928 -5.70469 -5.68078 -5.69123 -5.70163 -5.71198 -5.76295 -5.73476 -5.74584 -5.75688 -5.76787 -5.82519 -5.79227 -5.804 -5.81566 -5.82728 -5.89153 -5.85288 -5.86509 -5.87723 -5.88932 -5.96155 -5.9161 -5.92816 -5.94015 -5.95205 -6.03309 -5.97162 -5.97549 -5.97926 -5.98295 -6.0641 -5.95381 -5.94723 -5.94056 -5.93381 -6.04889 -5.9264 -5.92244 -5.9184 -5.91431 -6.04536 -5.93743 -5.93776 -5.93804 -5.94679 -6.065 -5.98028 -5.97027 -5.97096 -5.99179 -6.08611 -6.02049 -6.00362 -6.00526 -6.03469 -6.11484 -6.06616 -6.04791 -6.05183 -6.08764 -6.15672 -6.1192 -6.1004 -6.10585 -6.14557 -6.20618 -6.17601 -6.15678 -6.16346 -6.20649 -6.26154 -6.23673 -6.21719 -6.22513 -6.27124 -6.32257 -6.30158 -6.28141 -6.2906 -6.33926 -6.38783 -6.3695 -6.35126 -6.36275 -6.4092 -6.45551 -6.43905 -6.42273 -6.43529 -6.47987 -6.52429 -6.50919 -6.49424 -6.50755 -6.55055 -6.59339 -6.57943 -6.56563 -6.57946 -6.62102 -6.6624 -6.64937 -6.63652 -6.65066 -6.69089 -6.73094 -6.71873 -6.70669 -6.72098 -6.75994 -6.79874 -6.78734 -6.77613 -6.79043 -6.82806 -6.86552 -6.85496 -6.84458 -6.85922 -6.89501 -6.9311 -6.92137 -6.91461 -6.92894 -6.96059 -6.99529 -6.9864 -6.98319 -6.99702 -7.02476 -7.05808 -7.05005 -7.05011 -7.06347 -7.08754 -7.11948 -7.11232 -7.11536 -7.12827 -7.14888 -7.17944 -7.17311 -7.17883 -7.19131 -7.20873 -7.23794 -7.23242 -7.24057 -7.25266 -7.26713 -7.29505 -7.29035 -7.30066 -7.31239 -7.32416 -7.35081 -7.34778 -7.35915 -7.37054 -7.38194 -7.40524 -7.40498 -7.41605 -7.42712 -7.43821 -7.45841 -7.46063 -7.47141 -7.4822 -7.493 -7.51037 -7.51479 -7.52529 -7.53581 -7.54634 -7.56115 -7.56749 -7.57775 -7.58802 -7.5983 -7.61081 -7.61882 -7.62884 -7.63887 -7.64891 -7.6594 -7.66153 -7.66405 -7.66656 -7.66907 -7.67154 -7.67893 -7.68633 -7.69373 -7.70114 -7.7083 -7.71809 -7.7278 -7.73752 -7.74725 -7.75624 -7.76611 -7.77562 -7.78514 -7.79468 -7.80279 -7.81292 -7.82226 -7.83161 -7.84097 -7.84809 -7.85865 -7.86784 -7.87705 -7.88626 -7.89231 -7.90344 -7.91248 -7.92153 -7.93047 -7.93545 -7.94697 -7.95615 -7.96503 -7.97294 -7.97743 -7.98898 -7.99856 -8.00717 -8.01384 -8.01781 -8.02938 -8.0394 -8.04757 -8.05255 -8.05559 -8.06661 -8.07685 -8.08457 -8.08784 -8.09018 -8.10076 -8.11132 -8.11834 -8.11975 -8.12119 -8.13125 -8.14132 -8.14718 -8.14777 -8.14837 -8.15791 -8.16745 -8.17235 -8.17241 -8.17249 -8.18167 -8.19087 -8.19508 -8.19482 -8.19457 -8.20353 -8.2125 -8.21618 -8.2157 -8.21523 -8.22399 -8.23205 -8.23527 -8.23537 -8.23473 -8.24333 -8.24995 -8.25307 -8.25404 -8.25328 -8.26171 -8.26694 -8.26996 -8.27184 -8.27098 -8.27926 -8.2831 -8.28602 -8.28884 -8.28789 -8.29565 -8.29847 -8.3013 -8.30414 -8.30403 -8.31034 -8.31306 -8.31579 -8.31853 -8.31937 -8.32426 -8.32686 -8.32948 -8.3321 -8.33391 -8.33678 -8.33867 -8.34057 -8.34247 -8.34432 -8.34494 -8.34557 -8.34619 -8.34682 -8.34698 -8.34982 -8.35225 -8.3547 -8.35715 -8.35726 -8.36163 -8.36391 -8.36621 -8.36851 -8.36665 -8.37248 -8.3746 -8.37673 -8.37886 -8.37508 -8.38232 -8.38425 -8.38619 -8.38718 -8.38248 -8.38953 -8.39278 -8.39453 -8.39352 -8.38875 -8.39547 -8.40012 -8.40164 -8.39867 -8.39379 -8.40017 -8.40615 -8.40744 -8.40252 -8.39751 -8.40353 -8.40956 -8.41013 -8.40497 -8.39981 -8.40545 -8.4111 -8.41126 -8.40592 -8.40057 -8.40581 -8.41106 -8.41078 -8.40523 -8.39967 -8.40449 -8.40843 -8.40741 -8.40277 -8.39697 -8.40135 -8.40312 -8.40174 -8.39841 -8.39234 -8.39625 -8.39586 -8.39409 -8.39202 -8.38564 -8.3887 -8.38652 -8.38434 -8.38217 -8.37675 -8.37758 -8.37496 -8.37234 -8.36973 -8.36553 -8.36416 -8.36108 -8.35801 -8.35495 -8.35202 -8.35198 -8.35195 -8.35191 -8.35188 -8.35182 -8.34834 -8.34485 -8.34136 -8.33788 -8.33274 -8.33031 -8.32631 -8.32232 -8.31834 -8.31106 -8.30963 -8.3051 -8.30059 -8.29606 -8.28668 -8.28554 -8.28111 -8.27605 -8.26933 -8.25947 -8.25768 -8.25421 -8.24859 -8.23969 -8.22935 -8.22689 -8.22433 -8.21793 -8.20708 -8.19622 -8.19309 -8.18996 -8.18276 -8.1714 -8.16004 -8.15622 -8.15242 -8.14452 -8.13265 -8.12078 -8.11631 -8.11129 -8.1024 -8.09084 -8.07845 -8.07331 -8.06603 -8.05658 -8.046 -8.03316 -8.02741 -8.01796 -8.00795 -7.99795 -7.98496 -7.97756 -7.96696 -7.95636 -7.94577 -7.93373 -7.92428 -7.91326 -7.90225 -7.89124 -7.88053 -7.88032 -7.88012 -7.87991 -7.87971 -7.87948 -7.8678 -7.85611 -7.84442 -7.83273 -7.81957 -7.80874 -7.79659 -7.78444 -7.77229 -7.75727 -7.74727 -7.7347 -7.72213 -7.70912 -7.69277 -7.68265 -7.67061 -7.65768 -7.64295 -7.62636 -7.61584 -7.60467 -7.59145 -7.57513 -7.55833 -7.54748 -7.53664 -7.52286 -7.50591 -7.48895 -7.47784 -7.46673 -7.45262 -7.43561 -7.41859 -7.40729 -7.39599 -7.38144 -7.36465 -7.34765 -7.33626 -7.32369 -7.30913 -7.29346 -7.27657 -7.26517 -7.25148 -7.23701 -7.22245 -7.20573 -7.19404 -7.17974 -7.16543 -7.15112 -7.1355 -7.12291 -7.10885 -7.09478 -7.08071 -7.06628 -7.0611 -7.05551 -7.04992 -7.04434 -7.0387 -7.03051 -7.02233 -7.01414 -7.00595 -6.99719 -6.98426 -6.97084 -6.95742 -6.94399 -6.92908 -6.91738 -6.90442 -6.89146 -6.8785 -6.86321 -6.85272 -6.84033 -6.8279 -6.81493 -6.79997 -6.79 -6.77891 -6.76709 -6.75395 -6.73969 -6.73033 -6.72054 -6.70938 -6.69621 -6.6827 -6.674 -6.6653 -6.65469 -6.64199 -6.62929 -6.62131 -6.61333 -6.60342 -6.59157 -6.57971 -6.57249 -6.56526 -6.55612 -6.54514 -6.53416 -6.52774 -6.52118 -6.51275 -6.50289 -6.4928 -6.48719 -6.48091 -6.47336 -6.46492 -6.45574 -6.45096 -6.44501 -6.43835 -6.4313 -6.42301 -6.41906 -6.41348 -6.40769 -6.40191 -6.39457 -6.39115 -6.3862 -6.38125 -6.3763 -6.37024 -6.36711 -6.36292 -6.35873 -6.35455 -6.3497 -6.34678 -6.34325 -6.33972 -6.33619 -6.33247 -6.3315 -6.33036 -6.32923 -6.32809 -6.32696 -6.32506 -6.32316 -6.32126 -6.31936 -6.31717 -6.31482 -6.31211 -6.3094 -6.30669 -6.30323 -6.30163 -6.29902 -6.29642 -6.29381 -6.28995 -6.28895 -6.28616 -6.28338 -6.28061 -6.27601 -6.27541 -6.27211 -6.26881 -6.26522 -6.25976 -6.25856 -6.25517 -6.25096 -6.24581 -6.2393 -6.23701 -6.23338 -6.2278 -6.22049 -6.21243 -6.20859 -6.20453 -6.19704 -6.18686 -6.17669 -6.17073 -6.16478 -6.1551 -6.14218 -6.12928 -6.12057 -6.11187 -6.0998 -6.08346 -6.06714 -6.05494 -6.04235 -6.02671 -6.00749 -5.98707 -5.97068 -5.9522 -5.93215 -5.91123 -5.88602 -5.86444 -5.83931 -5.81422 -5.78918 -5.76144 -5.74282 -5.72274 -5.70267 -5.68264 -5.66611 -5.65515 -5.6442 -5.63327 -5.62235 -5.61059 -5.57681 -5.54141 -5.50612 -5.47095 -5.43312 -5.39842 -5.35953 -5.31945 -5.27763 -5.23466 -5.19552 -5.15653 -5.11208 -5.06291 -5.01377 -4.96879 -4.92241 -4.87261 -4.82184 -4.76615 -4.72989 -4.6886 -4.64737 -4.60627 -4.57302 -4.5554 -4.53781 -4.52025 -4.50252 -4.48214 -4.4206 -4.35443 -4.28868 -4.21754 -4.13965 -4.06763 -3.996 -3.91263 -3.81666 -3.7202 -3.65537 -3.58136 -3.50219 -3.42322 -3.35915 -3.32768 -3.29629 -3.26497 -3.2307 -3.19242 -3.07551 -2.95026 -2.8249 -2.67542 -2.5226 -2.39425 -2.25782 -2.10659 -1.95587 -1.84116 -1.81446 -1.78781 -1.76118 -1.73081 -1.69902 -1.5167 -1.33043 -1.14272 -0.933732 -0.718956 -0.616789 -0.51462 -0.405316 -0.296271 -0.200673 -0.0882606 0.0237397 0.135448 0.25629 0.379741 0.580638 0.780338 0.983753 1.18652 1.34384 1.38399 1.42408 1.46437 1.50549 1.54709 1.78675 2.02448 2.25312 2.47649 2.6809 2.68837 2.69583 2.70315 2.71025 2.71737 2.94828 3.17811 3.39119 3.58787 3.79236 3.79467 3.79698 3.799 3.80077 3.80256 3.99712 4.19226 4.36918 4.51637 4.65234 4.68373 4.7152 4.73691 4.75762 4.78167 4.88557 4.98934 5.09287 5.15533 5.20966 5.298 5.38726 5.42975 5.45488 5.46994 5.49863 5.50123 5.49608 5.47787 5.4344 5.40065 5.36707 5.30214 5.20236 5.09783 5.01891 4.92371 4.80849 4.69312 4.62935 4.5998 4.57032 4.54092 4.5035 4.46325 4.30214 4.14057 3.96863 3.77998 3.58656 3.5059 3.42567 3.34933 3.27279 3.18718 3.07398 2.96067 2.84726 2.74079 2.63808 2.44959 2.26022 2.11788 2.01794 1.92362 1.81277 1.759 1.71883 1.67645 1.68646 1.68302 1.72205 1.76661 1.84784 1.95842 2.05415 2.14853 2.28929 2.44349 2.61952 2.6579 2.6976 2.74283 2.78801 2.82814 2.9593 3.08933 3.21819 3.37049 3.53306 3.68049 3.82729 3.9832 4.13908 4.26796 4.32222 4.3764 4.431 4.48804 4.54572 4.75297 4.95966 5.16186 5.36274 5.54333 5.5485 5.55367 5.55883 5.56395 5.56907 5.77049 5.97124 6.16853 6.35946 6.5521 6.57961 6.60713 6.63343 6.65917 6.68492 6.84754 7.01015 7.16833 7.31704 7.46575 7.51889 7.57203 7.62172 7.66975 7.71819 7.83937 7.96059 8.07934 8.19272 8.30557 8.37961 8.45366 8.52423 8.59322 8.66372 8.74939 8.83508 8.91776 8.99318 9.06823 9.16521 9.26222 9.35034 9.43492 9.52266 9.57041 9.61817 9.66536 9.71084 9.75608 9.86873 9.98144 10.0905 10.1984 10.315 10.3276 10.3403 10.3525 10.3629 10.3733 10.4949 10.6155 10.7248 10.8202 10.9139 10.9377 10.9614 10.9808 10.9997 11.019 11.0927 11.1663 11.2402 11.3173 11.3928 11.4477 11.5025 11.5614 11.6203 11.6883 11.7154 11.7424 11.7695 11.7885 11.8066 11.895 11.9833 12.0533 12.1049 12.1556 12.1913 12.2236 12.2467 12.27 12.2957 12.3247 12.3537 12.3828 12.4186 12.4583 12.4958 12.533 12.5856 12.6533 12.7195 12.7453 12.7827 12.8276 12.8723 12.9358 12.9371 12.9383 12.9395 12.9406 12.9409 12.9875 13.0327 13.0778 13.1135 13.1221 13.1797 13.2374 13.2685 13.2724 13.276 13.3288 13.3692 13.3889 13.4071 13.4064 13.4458 13.4623 13.4789 13.4957 13.5157 13.516 13.5162 13.5164 13.5167 13.5172 13.5326 13.5483 13.5642 13.5802 13.618 13.6096 13.6239 13.6384 13.6552 13.7053 13.6885 13.693 13.7063 13.7347 13.7825 13.7641 13.7561 13.7693 13.8078 13.8561 13.8386 13.8231 13.8362 13.8799 13.9263 13.907 13.887 13.902 13.9539 14.0061 13.9923 13.9777 13.9916 14.0373 14.0837 14.0646 14.045 14.0594 14.1072 14.1592 14.1495 14.1385 14.1354 14.1416 14.1485 14.0874 14.0253 13.9963 14.0025 14.0095 13.95 13.8897 13.8674 13.8809 13.8967 13.8467 13.8062 13.7869 13.784 13.7933 13.7375 13.701 13.6758 13.6574 13.6606 13.5995 13.5681 13.539 13.51 13.5075 13.4503 13.4183 13.3863 13.3543 13.3384 13.2867 13.2504 13.2143 13.1781 13.1475 13.1228 13.1036 13.0845 13.0654 13.0417 13.0208 13 12.9791 12.9583 12.9309 12.8911 12.8451 12.7991 12.7533 12.6864 12.6548 12.603 12.5513 12.4992 12.41 12.3816 12.3294 12.2713 12.1943 12.0971 12.0607 12.0184 11.9531 11.8486 11.7418 11.6958 11.6513 11.5712 11.4554 11.3389 11.2832 11.229 11.1379 11.0089 10.8792 10.8102 10.7307 10.6229 10.499 10.3582 10.2784 10.1702 10.047 9.91983 9.75891 9.65863 9.52337 9.38691 9.25053 9.08675 8.9682 8.80814 8.64826 8.48855 8.29796 8.14146 7.96905 7.79665 7.62425 7.43892 7.26776 7.05197 6.83645 6.62117 6.3697 6.14556 5.933 5.72037 5.50767 5.30409 5.07251 4.7477 4.4238 4.10067 3.69953 3.35933 3.12425 2.89025 2.65719 2.51357 2.23837 1.70652 1.17274 0.637325 0