# vtk DataFile Version 2.0
track0
ASCII
DATASET POLYDATA
POINTS 11163 double
-0.0205 0.001 1e-05
-0.0204991 0.00100536 1e-05
-0.0204976 0.00101063 1e-05
-0.0204947 0.00101518 1e-05
-0.0204905 0.00101864 1e-05
-0.0204746 0.00102682 1e-05
-0.0201831 0.00105563 1e-05
-0.0203616 0.00128794 1e-05
-0.0204488 0.00141936 1e-05
-0.0201625 0.0014444 1e-05
-0.0201519 0.00173163 1e-05
-0.0202219 0.00184007 1e-05
-0.0200495 0.00193025 1e-05
-0.0200808 0.00212221 1e-05
-0.0201294 0.00229098 1e-05
-0.0200088 0.00238763 1e-05
-0.0199911 0.00254123 1e-05
-0.0200041 0.00269528 1e-05
-0.0199827 0.00277425 1e-05
-0.019869 0.00287784 1e-05
-0.0198179 0.00302292 1e-05
-0.0198054 0.00317623 1e-05
-0.01976 0.00329221 1e-05
-0.0196347 0.00340323 1e-05
-0.0195486 0.00354672 1e-05
-0.0194776 0.0036983 1e-05
-0.019391 0.00384149 1e-05
-0.0193842 0.00384734 1e-05
-0.0193108 0.00390808 1e-05
-0.0192439 0.00397592 1e-05
-0.019179 0.00404573 1e-05
-0.0191113 0.00411267 1e-05
-0.0190172 0.00419785 1e-05
-0.0189564 0.00424674 1e-05
-0.0188939 0.00429335 1e-05
-0.0188297 0.00433764 1e-05
-0.018764 0.00437962 1e-05
-0.0186585 0.00444232 1e-05
-0.0184263 0.00456527 1e-05
-0.0181852 0.00466952 1e-05
-0.017937 0.00475573 1e-05
-0.0176828 0.00482209 1e-05
-0.0174976 0.00485365 1e-05
-0.0172058 0.00488438 1e-05
-0.0169124 0.00488613 1e-05
-0.0166199 0.00486378 1e-05
-0.0163297 0.00482059 1e-05
-0.0160387 0.0047565 1e-05
-0.0158291 0.00469366 1e-05
-0.0156232 0.00461973 1e-05
-0.0154215 0.00453506 1e-05
-0.0152227 0.00444391 1e-05
-0.0152195 0.00444232 1e-05
-0.0151032 0.00438407 1e-05
-0.0149897 0.00432056 1e-05
-0.0148794 0.00425173 1e-05
-0.0147713 0.0041793 1e-05
-0.0146381 0.00408408 1e-05
-0.0145772 0.00403674 1e-05
-0.0145171 0.00398829 1e-05
-0.0144579 0.00393873 1e-05
-0.0143997 0.00388805 1e-05
-0.0143538 0.00384734 1e-05
-0.0142297 0.00373631 1e-05
-0.0141122 0.00361838 1e-05
-0.0140022 0.00349339 1e-05
-0.0138981 0.0033634 1e-05
-0.0138436 0.00329221 1e-05
-0.0137665 0.00318862 1e-05
-0.0136969 0.00307983 1e-05
-0.0136336 0.00296725 1e-05
-0.0135741 0.00285261 1e-05
-0.013537 0.00277425 1e-05
-0.0134939 0.0026776 1e-05
-0.013458 0.00257807 1e-05
-0.0134262 0.00247718 1e-05
-0.0133988 0.00237497 1e-05
-0.0133808 0.00229098 1e-05
-0.0133658 0.0022008 1e-05
-0.0133568 0.00210982 1e-05
-0.0133531 0.00201847 1e-05
-0.0133554 0.00192707 1e-05
-0.013364 0.00184007 1e-05
-0.0133788 0.00175593 1e-05
-0.0134013 0.00167351 1e-05
-0.0134307 0.00159329 1e-05
-0.0134671 0.001516 1e-05
-0.0135238 0.00141936 1e-05
-0.0135813 0.00134085 1e-05
-0.0136496 0.00127164 1e-05
-0.0137238 0.00120866 1e-05
-0.0138025 0.00115144 1e-05
-0.0139965 0.00102682 1e-05
-0.0141248 0.000957589 1e-05
-0.0142598 0.000902622 1e-05
-0.0143981 0.000856458 1e-05
-0.0145371 0.000812324 1e-05
-0.0146381 0.000781928 1e-05
-0.014722 0.000757655 1e-05
-0.0148064 0.000734728 1e-05
-0.014891 0.000712938 1e-05
-0.0149762 0.000693165 1e-05
-0.0151499 0.000660566 1e-05
-0.0153277 0.000638007 1e-05
-0.0155058 0.000618857 1e-05
-0.0156842 0.000602362 1e-05
-0.0158628 0.000587857 1e-05
-0.0160387 0.000568163 1e-05
-0.016283 0.000518298 1e-05
-0.0165311 0.000493558 1e-05
-0.0167803 0.000482505 1e-05
-0.0170295 0.000475686 1e-05
-0.0174976 0.000406265 1e-05
-0.0174976 0.000406265 1e-05
-0.0174976 0.000406265 1e-05
-0.0174976 0.000406265 1e-05
-0.0174976 0.000406265 1e-05
-0.0174976 0.000406265 1e-05
-0.0174951 0.00038878 1e-05
-0.0174897 0.000371974 1e-05
-0.0174821 0.000356085 1e-05
-0.0174727 0.000341142 1e-05
-0.0174557 0.000318841 1e-05
-0.0173838 0.000255072 1e-05
-0.0172967 0.000214399 1e-05
-0.0172047 0.000186603 1e-05
-0.0171106 0.000167061 1e-05
-0.0160387 4.44342e-06 1e-05
-0.0160288 3.55474e-06 1e-05
-0.0160189 3.10048e-06 1e-05
-0.0160089 2.68797e-06 1e-05
-0.015999 2.27546e-06 1e-05
-0.0159443 0 1e-05
-0.0205 0.00367778 1e-05
-0.0203955 0.00371169 1e-05
-0.0203045 0.0037732 1e-05
-0.0202171 0.00383976 1e-05
-0.0201979 0.00384734 1e-05
-0.0199618 0.00393431 1e-05
-0.019766 0.00409243 1e-05
-0.0196202 0.00429751 1e-05
-0.0194753 0.00444232 1e-05
-0.0193837 0.00449615 1e-05
-0.0192963 0.00455665 1e-05
-0.0192132 0.00462288 1e-05
-0.0191277 0.004686 1e-05
-0.0190172 0.0047615 1e-05
-0.0189141 0.0048252 1e-05
-0.0188083 0.00488437 1e-05
-0.0187002 0.00493909 1e-05
-0.01859 0.00498947 1e-05
-0.0183687 0.00508 1e-05
-0.0181945 0.00513504 1e-05
-0.0180182 0.00518311 1e-05
-0.0178402 0.00522437 1e-05
-0.0176607 0.00525869 1e-05
-0.0174976 0.0052817 1e-05
-0.0172058 0.00530962 1e-05
-0.0169127 0.00531447 1e-05
-0.0166201 0.00529748 1e-05
-0.0163294 0.00526029 1e-05
-0.0160387 0.00520533 1e-05
-0.0159403 0.00518026 1e-05
-0.0158424 0.0051532 1e-05
-0.0157451 0.00512423 1e-05
-0.0156481 0.00509404 1e-05
-0.015605 0.00508 1e-05
-0.0154116 0.00501582 1e-05
-0.0152216 0.0049422 1e-05
-0.0150357 0.0048588 1e-05
-0.0148541 0.00476637 1e-05
-0.0146381 0.00464665 1e-05
-0.0145718 0.00460579 1e-05
-0.014506 0.00456403 1e-05
-0.0144408 0.00452138 1e-05
-0.0143762 0.00447794 1e-05
-0.0143238 0.00444232 1e-05
-0.0141502 0.00432332 1e-05
-0.0139833 0.00419531 1e-05
-0.013824 0.00405778 1e-05
-0.0136695 0.00391504 1e-05
-0.0135991 0.00384734 1e-05
-0.0135379 0.0037874 1e-05
-0.0134789 0.00372539 1e-05
-0.0134214 0.00366198 1e-05
-0.0133648 0.00359778 1e-05
-0.0132934 0.00351454 1e-05
-0.0132568 0.00347007 1e-05
-0.0132207 0.00342524 1e-05
-0.013185 0.00338003 1e-05
-0.0131498 0.00333444 1e-05
-0.0131177 0.00329221 1e-05
-0.0130396 0.00318862 1e-05
-0.0129635 0.0030836 1e-05
-0.0128902 0.00297658 1e-05
-0.0128201 0.00286743 1e-05
-0.0127628 0.00277425 1e-05
-0.0127051 0.0026776 1e-05
-0.0126489 0.00258012 1e-05
-0.0125942 0.00248176 1e-05
-0.012541 0.0023826 1e-05
-0.0124942 0.00229098 1e-05
-0.0124506 0.0022008 1e-05
-0.0124073 0.00211048 1e-05
-0.0123643 0.00202003 1e-05
-0.0123216 0.00192946 1e-05
-0.0122807 0.00184007 1e-05
-0.0122458 0.00175593 1e-05
-0.0122094 0.00167242 1e-05
-0.0121718 0.00158947 1e-05
-0.0121326 0.00150721 1e-05
-0.0120885 0.00141936 1e-05
-0.0120713 0.00138606 1e-05
-0.0120528 0.00135349 1e-05
-0.0120331 0.00132162 1e-05
-0.0120122 0.00129052 1e-05
-0.0120025 0.00127735 1e-05
-0.0119645 0.00122724 1e-05
-0.0119233 0.0011797 1e-05
-0.0118789 0.00113509 1e-05
-0.0118315 0.00109369 1e-05
-0.0117431 0.00102682 1e-05
-0.0116282 0.000953567 1e-05
-0.0115053 0.000894552 1e-05
-0.0113779 0.000846295 1e-05
-0.0112475 0.000806475 1e-05
-0.0107632 0.000719899 1e-05
-0.0105252 0.000728952 1e-05
-0.0102871 0.000725312 1e-05
-0.010049 0.000723371 1e-05
-0.00981085 0.000722469 1e-05
-0.00957337 0.000722223 1e-05
-0.00934491 0.000731751 1e-05
-0.00911628 0.000728298 1e-05
-0.00888764 0.000725937 1e-05
-0.00865899 0.000724324 1e-05
-0.00843108 0.000723236 1e-05
-0.00821175 0.000732307 1e-05
-0.00799227 0.000728279 1e-05
-0.00777277 0.000725264 1e-05
-0.00755327 0.000722976 1e-05
-0.00733443 0.000721224 1e-05
-0.00712387 0.000729655 1e-05
-0.00691317 0.000725507 1e-05
-0.00670246 0.000722279 1e-05
-0.00649174 0.000719731 1e-05
-0.0062816 0.000717697 1e-05
-0.00607944 0.000725423 1e-05
-0.00587718 0.000721534 1e-05
-0.0056749 0.000718435 1e-05
-0.00547262 0.000715935 1e-05
-0.00527083 0.000713898 1e-05
-0.00507675 0.000720929 1e-05
-0.00488258 0.000717439 1e-05
-0.00468839 0.000714612 1e-05
-0.0044942 0.000712297 1e-05
-0.00430044 0.000710384 1e-05
-0.00411412 0.000716776 1e-05
-0.00392771 0.000713717 1e-05
-0.0037413 0.000711199 1e-05
-0.00355488 0.000709107 1e-05
-0.00336883 0.000707356 1e-05
-0.00318995 0.000713169 1e-05
-0.003011 0.000710473 1e-05
-0.00283204 0.00070824 1e-05
-0.00265307 0.000706377 1e-05
-0.00247443 0.000704814 1e-05
-0.0023027 0.000710163 1e-05
-0.0021309 0.000707868 1e-05
-0.0019591 0.000705962 1e-05
-0.00178729 0.000704371 1e-05
-0.00161577 0.000703039 1e-05
-0.0014509 0.000708056 1e-05
-0.00128597 0.000706137 1e-05
-0.00112103 0.000704614 1e-05
-0.000956083 0.000703415 1e-05
-0.000791418 0.000702483 1e-05
-0.000633135 0.000707519 1e-05
-0.000474777 0.00070619 1e-05
-0.000316415 0.000705277 1e-05
-0.000158053 0.000704707 1e-05
0 0.000704423 1e-05
0.000105677 0.00070831 1e-05
0.000211426 0.000708366 1e-05
0.000317175 0.000708618 1e-05
0.000422923 0.000709043 1e-05
0.000528387 0.000709623 1e-05
0.000634886 0.000714093 1e-05
0.000741476 0.000714917 1e-05
0.000848065 0.000715822 1e-05
0.000954653 0.0007168 1e-05
0.00106088 0.000717842 1e-05
0.00116821 0.000722736 1e-05
0.00127564 0.000724105 1e-05
0.00138307 0.000725556 1e-05
0.0014905 0.000727083 1e-05
0.00159752 0.000728674 1e-05
0.00170568 0.000734199 1e-05
0.00181396 0.000736358 1e-05
0.00192224 0.000738644 1e-05
0.00203051 0.000741047 1e-05
0.00213833 0.000743549 1e-05
0.00224733 0.000750118 1e-05
0.00235648 0.000753374 1e-05
0.00246563 0.000756758 1e-05
0.00257477 0.000760263 1e-05
0.00268334 0.000764106 1e-05
0.00279319 0.000771931 1e-05
0.0029032 0.000777 1e-05
0.00301323 0.00078158 1e-05
0.00312326 0.000786276 1e-05
0.00323259 0.000792116 1e-05
0.00334329 0.000801312 1e-05
0.00345415 0.000808367 1e-05
0.00356508 0.000814234 1e-05
0.00367601 0.000820212 1e-05
0.00378611 0.000828043 1e-05
0.00389767 0.000838678 1e-05
0.00400938 0.000847673 1e-05
0.00412121 0.000855011 1e-05
0.00423302 0.000862614 1e-05
0.00434393 0.000872351 1e-05
0.00445636 0.000884422 1e-05
0.00456892 0.00089522 1e-05
0.0046816 0.000904742 1e-05
0.00479426 0.00091451 1e-05
0.00490609 0.000925979 1e-05
0.0050194 0.0009394 1e-05
0.00513282 0.000951789 1e-05
0.00524632 0.000963477 1e-05
0.00535978 0.000975537 1e-05
0.00547262 0.00098849 1e-05
0.00558681 0.00100309 1e-05
0.00570111 0.00101679 1e-05
0.00581538 0.00103068 1e-05
0.00592962 0.0010449 1e-05
0.00604356 0.00105941 1e-05
0.00610295 0.00106742 1e-05
0.00616236 0.00107528 1e-05
0.00622177 0.0010832 1e-05
0.00628117 0.0010912 1e-05
0.00634201 0.00109947 1e-05
0.00639739 0.00110706 1e-05
0.00645277 0.00111472 1e-05
0.00650814 0.00112244 1e-05
0.00656349 0.00113022 1e-05
0.00661893 0.00113808 1e-05
0.0067349 0.00115419 1e-05
0.00685079 0.00117089 1e-05
0.00696665 0.00118779 1e-05
[...]
POINT_DATA 11163
 FIELD attributes 2
p 1 11163 float
120.259 135.496 139.842 142.442 143.156 141.017 130.196 767.859 746.465 583.539 652.831 292.374 278.135 254.415 -52.8929 7.84769 100.409 -40.0028 -151.263 -60.3027 112.08 -33.3477 -174.346 -107.944 -49.0232 -74.6384 -216.129 -222.778 -204.649 -199.713 -215.614 -233.267 -259.094 -276.614 -295.276 -315.036 -314.645 -288.307 -334 -381.48 -394.428 -396.324 -402.396 -405.961 -409.266 -413.332 -396.049 -374.01 -357.426 -342.775 -321.557 -301.657 -301.356 -288.739 -277.12 -262.655 -247.6 -229.381 -221.546 -213.93 -206.541 -205.904 -206.437 -172.452 -140.588 -131.108 -139.41 -144.346 -109.409 -85.5132 -77.2557 -76.2074 -85.9948 -56.8897 -49.5599 -42.4954 -35.7412 -38.9349 -24.179 -18.5694 -13.3524 -8.59574 -11.7148 -0.856133 1.54496 3.37955 4.60499 -19.2996 3.21893 2.44688 -0.95125 -13.878 -92.7465 -89.5325 -101.098 -141.577 -182.154 -211.568 -233.762 -255.995 -282.262 -316.792 -384.687 -440.296 -496.45 -553.015 -616.671 -686.27 -799.346 -911.43 -1024.82 -1166.98 -1436.26 -1436.26 -1436.26 -1436.26 -1436.26 -1436.26 -1434.72 -1431.47 -1426.91 -1421.38 -1414.84 -1365.9 -1314.1 -1262.22 -1210.84 -708.294 -703.745 -699.776 -696.332 -692.887 -673.887
104.008 103.902 79.2112 1.12633 -10.1664 -18.4466 27.5262 -40.166 -139.691 -135.888 -129.405 -143.264 -158.141 -178.132 -195.903 -214.897 -235.031 -231.51 -224.29 -243.756 -263.936 -282.571 -288.959 -296.501 -302.981 -314.391 -310.822 -300.946 -292.781 -289.018 -285.191 -278.071 -271.115 -268.083 -255.609 -244.606 -232.955 -215.326 -194.962 -188.714 -182.595 -177.516 -176.291 -175.348 -145.211 -114.826 -103.294 -106.027 -107.701 -90.1211 -79.118 -74.1949 -69.3227 -63.1535 -60.1305 -57.1323 -54.1598 -52.2549 -52.5444 -38.3137 -29.6115 -21.0602 -19.5785 -20.8945 -5.43229 10.0758 16.4182 14.1069 11.8647 27.3221 38.5777 42.6958 44.6998 41.5461 55.4532 58.0671 60.663 63.2366 62.9486 66.5738 66.7128 66.8402 66.9555 67 67.4966 67.9848 68.4619 68.9253 65.3373 66.2974 66.6615 66.5248 60.9873 41.9031 37.6869 31.6206 25.6437 19.7216 12.621 9.52596 5.17007 0.862059 -3.41305 -8.47753 -9.37216 -12.0256 -14.63 -17.1989 -20.9924 -20.7223 -22.4353 -24.1022 -25.7349 -28.776 -28.0026 -29.137 -30.233 -31.2999 -33.7378 -32.6426 -33.3328 -33.9921 -34.6275 -36.5741 -35.2579 -35.6349 -35.9873 -36.3204 -37.9295 -36.5062 -36.6391 -36.7521 -36.8491 -38.1517 -36.5989 -36.5156 -36.4161 -36.3035 -37.3797 -35.6727 -35.1723 -34.6577 -34.1314 -34.7112 -32.6616 -31.8978 -31.1196 -30.3295 -30.8742 -28.8686 -28.5732 -28.2701 -27.96 -29.3127 -27.8452 -27.784 -27.7204 -27.6544 -29.0194 -27.814 -27.6705 -27.5252 -27.3782 -28.4395 -27.4927 -27.3192 -27.1439 -26.9671 -27.7409 -26.9219 -26.6473 -26.3718 -26.1417 -26.5946 -25.8948 -25.4786 -25.1369 -24.9768 -25.1869 -24.6463 -24.2056 -23.9036 -23.8853 -24.0072 -23.6181 -23.2193 -23.0516 -23.1899 -23.3417 -23.1245 -22.8985 -22.8895 -23.0955 -23.3127 -23.2496 -23.2344 -23.3981 -23.668 -24.0304 -24.1416 -24.4431 -24.7716 -25.1032 -25.5609 -25.7369 -25.9959 -26.2555 -26.5156 -26.7827 -27.0074 -27.2325 -27.4579 -27.6836 -27.7912 -28.4735 -29.1063 -29.7397 -30.3314 -30.6489 -31.4652 -32.2693 -33.0516 -33.5533 -34.0354 -34.92 -35.8027 -36.4852 -37.1011 -37.7246 -38.651 -39.4466 -40.0981 -40.7599 -41.4853 -42.3639 -43.0418 -43.7246 -44.4123 -45.1221 -45.3055 -45.4574 -45.6097 -45.7624 -45.9233 -46.4483 -46.9774 -47.5107 -48.048 -48.6016 -49.1143 -49.764 -50.4232 -51.0918 -51.816 -52.1621 -52.7549 -53.3625 -53.9961 -54.6936 -54.9848 -55.4388 -55.9739 -56.5551 -57.1894 -57.409 -57.7551 -58.1989 -58.7031 -59.2708 -59.4288 -59.6935 -60.03 -60.4161 -60.8872 -60.9414 -61.1242 -61.3492 -61.5897 -61.996 -61.9965 -62.0985 -62.2152 -62.3467 -62.5667 -62.5295 -62.5318 -62.5401 -62.5543 -62.5672 -62.5963 -62.628 -62.6624 -62.6994 -62.7755 -62.6351 -62.5983 -62.5766 -62.5757 -62.6761 -62.3247 -62.069 -61.9784 -61.9798 -61.9998 -61.6288 -61.2715 -60.9591 -60.7827 -60.6994 -60.4052 -60.1276 -59.8585 -59.5958 -59.383 -59.2913 -59.2008 -59.1114 -59.0211 -58.9268 -58.3893 -58.0089 -57.6386 -57.2628 -56.8872 -56.3232 -55.7705 -55.2383 -54.7148 -54.3149 -54.2153 -54.1168 -54.0198 -53.9229 -53.8286 -53.3984 -52.9721 -52.5498 -52.1429 -51.743 -51.1326 -50.5265 -49.972 -49.4239 -48.9918 -48.8951 -48.8012 -48.7144 -48.6275 -48.5412 -48.0934 -47.6464 -47.2002 -46.7993 -46.4103 -45.8711 -45.3514 -44.9045 -44.4555 -43.9887 -43.9881 -43.9875 -43.9871 -43.9866 -43.9862 -43.5622 -43.1371 -42.7109 -42.3687 -42.0658 -41.7422 -41.4613 -41.2655 -41.0692 -40.8836 -40.8801 -40.8782 -40.8786 -40.879 -40.8794 -40.7882 -40.6972 -40.6062 -40.5712 -40.587 -40.6599 -40.7368 -40.8869 -41.0384 -41.2272 -41.2796 -41.3329 -41.3877 -41.4425 -41.495 -41.6737 -41.8521 -42.0303 -42.1782 -42.3092 -42.657 -43.0045 -43.2418 -43.4701 -43.6699 -43.7786 -43.8716 -43.9448 -44.0184 -44.0994 -44.2894 -44.4816 -44.6761 -44.8295 -44.9079 -45.3027 -45.6881 -45.974 -46.1504 -46.3274 -46.7626 -47.2049 -47.5745 -47.8195 -48.0577 -48.5158 -48.9634 -49.3868 -49.7312 -50.026 -50.5006 -50.9728 -51.4385 -51.8072 -52.1463 -52.6297 -53.1126 -53.5808 -53.9497 -54.3194 -54.8001 -55.2792 -55.6761 -56.0698 -56.4645 -56.9403 -57.3665 -57.74 -58.1147 -58.5189 -58.9304 -59.278 -59.6248 -59.9709 -60.2819 -60.3125 -60.3431 -60.3737 -60.4043 -60.4303 -60.7763 -61.1261 -61.4756 -61.8249 -62.1222 -62.4194 -62.7325 -63.0616 -63.3471 -63.626 -63.8981 -64.1712 -64.418 -64.68 -64.9439 -65.1867 -65.4089 -65.6167 -65.8268 -66.0621 -66.2155 -66.3501 -66.4866 -66.6251 -66.7872 -66.8221 -66.8571 -66.8922 -66.9274 -66.9609 -67.0815 -67.2093 -67.341 -67.4765 -67.6035 -67.6633 -67.7332 -67.8094 -67.8833 -67.9567 -67.9587 -67.9654 -67.9742 -67.9795 -67.9901 -67.925 -67.8652 -67.8067 -67.7484 -67.6957 -67.565 -67.4399 -67.321 -67.194 -67.071 -66.87 -66.6761 -66.4914 -66.2976 -66.1013 -65.8292 -65.5656 -65.3115 -65.0442 -64.7689 -64.4181 -64.0794 -63.7573 -63.4211 -63.0809 -62.6696 -62.2671 -61.8899 -61.493 -61.099 -60.6415 -60.1893 -59.7607 -59.335 -58.9133 -58.4323 -57.9562 -57.4756 -57.0361 -56.5998 -56.1101 -55.6179 -55.1231 -54.6369 -54.1888 -53.7115 -53.2239 -52.74 -52.2597 -51.9175 -51.8696 -51.8217 -51.7738 -51.726 -51.6765 -51.1453 -50.622 -50.1021 -49.5855 -49.046 -48.4739 -47.9186 -47.3839 -46.8274 -46.269 -45.6868 -45.1071 -44.5045 -43.9213 -43.346 -42.8508 -42.3416 -41.8319 -41.3239 -40.8848 -40.7686 -40.6524 -40.5363 -40.4197 -40.2991 -39.6628 -39.0361 -38.4117 -37.7811 -37.134 -36.4797 -35.8277 -35.1626 -34.4944 -33.8234 -33.2512 -32.6621 -32.0663 -31.4729 -30.9823 -30.8488 -30.7155 -30.5823 -30.4467 -30.3061 -29.5631 -28.8309 -28.1025 -27.3622 -26.6041 -25.8339 -25.069 -24.3132 -23.5625 -22.8188 -22.706 -22.5947 -22.4861 -22.3777 -22.2734 -21.6283 -20.9864 -20.3478 -19.725 -19.0953 -18.3468 -17.6083 -16.9046 -16.2067 -15.4874 -15.4822 -15.477 -15.4721 -15.4672 -15.4623 -14.7613 -14.0642 -13.3714 -12.7198 -12.046 -11.6553 -11.2664 -10.9013 -10.5379 -10.2174 -9.91726 -9.61796 -9.31973 -9.0393 -8.75164 -8.10558 -7.46422 -6.86863 -6.28104 -5.79438 -5.75366 -5.71296 -5.67257 -5.63422 -5.5957 -4.96431 -4.34915 -3.75023 -3.18795 -2.58847 -2.4725 -2.35667 -2.2482 -2.14276 -2.0402 -1.56502 -1.0917 -0.62858 -0.196485 0.260434 0.473688 0.686477 0.885524 1.07775 1.26148 1.60847 1.95455 2.29065 2.60178 2.92714 3.19843 3.46906 3.7229 3.96742 4.19969 4.44761 4.69511 4.93567 5.16104 5.39424 5.70452 6.01408 6.29965 6.57143 6.8298 7.00378 7.17761 7.341 7.49275 7.6482 7.92411 8.19957 8.45717 8.69619 8.92563 9.08719 9.24866 9.39982 9.54281 9.68859 9.90656 10.1244 10.3291 10.5151 10.6964 10.8655 11.0346 11.1917 11.3416 11.4931 11.6427 11.7924 11.9359 12.0687 12.2003 12.3813 12.5623 12.7292 12.8882 13.0442 13.1432 13.2421 13.3362 13.4225 13.5098 13.6833 13.8563 14.0057 14.1389 14.2622 14.3295 14.3966 14.4565 14.5086 14.5626 14.6838 14.8038 14.9121 15.0066 15.0895 15.1446 15.1992 15.2475 15.2924 15.3411 15.3985 15.4547 15.5026 15.5186 15.5315 15.5997 15.6654 15.6693 15.6694 15.6658 15.6658 15.6658 15.6658 15.6658 15.6657 15.6464 15.6244 15.6 15.5356 15.4579 15.4318 15.4039 15.3238 15.2345 15.1435 15.1205 15.0674 15.0091 14.9509 14.8658 14.8463 14.8268 14.8073 14.7878 14.7622 14.681 14.5981 14.5153 14.4306 14.3311 14.2547 14.1783 14.1013 14.0186 13.9361 13.8701 13.8048 13.7411 13.6784 13.6163 13.5674 13.5197 13.473 13.4269 13.3811 13.3481 13.314 13.2788 13.2429 13.2024 13.177 13.1478 13.1184 13.0889 13.0525 13.0326 13.0097 12.9863 12.9624 12.9422 12.9366 12.9311 12.9255 12.9199 12.9206 12.8891 12.8614 12.8324 12.8026 12.8165 12.7686 12.7207 12.6948 12.6914 12.6879 12.6499 12.6181 12.5921 12.566 12.5477 12.5398 12.5319 12.524 12.5059 12.4812 12.455 12.4157 12.3728 12.2879 12.2006 12.1726 12.1297 12.0739 12.0198 11.9598 11.9555 11.946 11.9364 11.9269 11.9173 11.8845 11.8524 11.8209 11.79 11.8048 11.7307 11.6987 11.6676 11.6599 11.6868 11.6176 11.5572 11.5308 11.5527 11.5785 11.5091 11.4397 11.4191 11.4477 11.4759 11.4064 11.3369 11.3213 11.3588 11.396 11.3332 11.2704 11.2612 11.3038 11.3464 11.2885 11.2314 11.2277 11.2699 11.3138 11.2589 11.2113 11.2107 11.2498 11.2956 11.2481 11.2085 11.2117 11.2543 11.3035 11.2678 11.2342 11.2386 11.2825 11.3265 11.2931 11.2595 11.2624 11.3006 11.3383 11.3036 11.268 11.2697 11.294 11.3239 11.2995 11.2913 11.2953 11.2987 11.3014 11.3037 11.2944 11.2642 11.1604 11.1151 11.0678 11.0206 10.9951 10.9626 10.9302 10.898 10.866 10.8289 10.7487 10.6642 10.5808 10.4913 10.3773 10.2686 10.161 10.049 9.93524 9.80672 9.75103 9.69582 9.64109 9.58698 9.54562 9.47297 9.40142 9.33102 9.26137 9.17929 9.07374 8.97157 8.87295 8.778 8.71342 8.6734 8.63421 8.59494 8.55594 8.50714 8.43686 8.37035 8.30773 8.24804 8.20305 8.12888 8.06728 8.0232 8.00257 8.00297 8.01905 8.06182 8.14475 8.25767 8.35298 8.39519 8.44026 8.48961 8.54001 8.63819 8.71415 8.79165 8.87042 8.95024 9.01963 9.15468 9.2881 9.42185 9.55575 9.67922 9.80756 9.93169 10.0558 10.18 10.2993 10.4177 10.528 10.6382 10.7483 10.8513 10.956 11.0535 11.149 11.2403 11.3393 11.4377 11.5316 11.5887 11.63 11.6784 11.6858 11.6931 11.6968 11.6999 11.7032 11.7375 11.7676 11.7946 11.8319 11.8606 11.8718 11.8822 11.9002 11.9175 11.9339 11.9309 11.9319 11.9323 11.9321 11.9308 11.9309 11.9309 11.9309 11.931 11.9268 11.9195 11.9068 11.8933 11.879 11.8315 11.8322 11.8089 11.7803 11.7363 11.676 11.6585 11.6368 11.5943 11.5288 11.4619 11.4287 11.3952 11.34 11.2651 11.1898 11.1427 11.0951 11.0293 10.9453 10.8611 10.802 10.7425 10.6656 10.5716 10.4774 10.4067 10.3356 10.2485 10.1459 10.0432 9.96371 9.88369 9.78977 9.68183 9.57383 9.48951 9.40477 9.30983 9.20163 9.09337 9.00888 8.92405 8.83346 8.73076 8.62736 8.54646 8.46452 8.38055 8.29079 8.19665 8.12168 8.04641 7.97097 7.89461 7.81181 7.74319 7.67487 7.60648 7.53803 7.46569 7.39885 7.33189 7.26489 7.19783 7.13561 7.13463 7.13364 7.13266 7.13168 7.13079 7.05895 6.98706 6.91516 6.84325 6.77669 6.70103 6.6196 6.5382 6.4578 6.38632 6.30412 6.21681 6.12561 6.04282 5.96379 5.87177 5.77979 5.68945 5.61197 5.53437 5.44074 5.34706 5.27767 5.21362 5.14941 5.06658 4.99716 4.9435 4.89185 4.84626 4.7786 4.73827 4.69755 4.65643 4.62248 4.58263 4.5582 4.53327 4.50782 4.48335 4.48115 4.48107 4.48097 4.48086 4.48074 4.47785 4.47465 4.47111 4.46725 4.46653 4.48651 4.50906 4.53118 4.55286 4.57894 4.61722 4.66217 4.70673 4.75091 4.79922 4.85302 4.91994 4.98657 5.05294 5.12483 5.19839 5.2853 5.37282 5.46032 5.54913 5.63924 5.73849 5.83915 5.93909 6.0361 6.13466 6.24214 6.3515 6.46013 6.56582 6.67383 6.79032 6.90864 7.02614 7.13987 7.25626 7.37992 7.50489 7.62906 7.74809 7.86926 7.99829 8.1283 8.25787 8.38261 8.50919 8.64094 8.77302 8.90486 9.02838 9.15364 9.28076 9.4079 9.53505 9.65099 9.7675 9.88566 10.0038 10.122 10.2307 10.3379 10.4453 10.5526 10.6599 10.7588 10.8553 10.9503 11.0453 11.1402 11.2273 11.3124 11.3943 11.4762 11.5581 11.6321 11.705 11.774 11.8429 11.9115 11.974 12.0363 12.0955 12.1544 12.2126 12.267 12.3219 12.3738 12.4248 12.4745 12.5215 12.5694 12.6154 12.6603 12.7039 12.7463 12.7899 12.8327 12.874 12.9139 12.9531 12.9938 13.0341 13.0721 13.108 13.1437 13.1811 13.2184 13.2542 13.2886 13.323 13.3595 13.3959 13.4328 13.4703 13.5077 13.5475 13.5873 13.6218 13.6518 13.6814 13.7154 13.7522 13.7936 13.8411 13.8974 13.962 14.0098 14.0475 14.0751 14.0944 14.1138 14.1304 14.1371 14.131 14.1231 14.1145 14.1058 14.0888 14.0613 14.0335 14.0043 13.975 13.9371 13.8898 13.8423 13.793 13.7435 13.6873 13.6262 13.565 13.5017 13.4383 13.3721 13.3068 13.2413 13.1738 13.1063 13.0383 12.9735 12.9087 12.8423 12.7759 12.7109 12.6505 12.5901 12.5285 12.4669 12.4058 12.3471 12.2883 12.2287 12.1692 12.1115 12.0564 12.0013 11.9458 11.8903 11.8341 11.7772 11.7202 11.6631 11.606 11.5494 11.493 11.4366 11.3802 11.3238 11.2651 11.2036 11.1421 11.0805 11.0189 10.9526 10.8816 10.8105 10.739 10.6664 10.5877 10.5037 10.4183 10.3323 10.2432 10.1479 10.0477 9.94428 9.83987 9.73001 9.61471 9.49529 9.37049 9.24424 9.11059 8.97317 8.83322 8.68612 8.53708 8.37802 8.2167 8.05433 7.88215 7.70742 7.52176 7.33569 7.14963 6.95402 6.7528 6.5375 6.32218 6.10687 5.88055 5.64477 5.4032 5.16164 4.92006 4.67446 4.40488 4.11594 3.82694 3.53789 3.2379 2.93943 2.65382 2.36821 2.08259 1.79858 1.75182 1.70049 1.64916 1.59783 1.54303 1.23963 0.936081 0.63239 0.328554 0