# vtk DataFile Version 2.0
track0
ASCII
DATASET POLYDATA
POINTS 11163 double
-0.0205 0.001 1e-05
-0.0204991 0.00100536 1e-05
-0.0204976 0.00101063 1e-05
-0.0204947 0.00101518 1e-05
-0.0204905 0.00101864 1e-05
-0.0204746 0.00102682 1e-05
-0.0201831 0.00105563 1e-05
-0.0203616 0.00128794 1e-05
-0.0204488 0.00141936 1e-05
-0.0201625 0.0014444 1e-05
-0.0201519 0.00173163 1e-05
-0.0202219 0.00184007 1e-05
-0.0200495 0.00193025 1e-05
-0.0200808 0.00212221 1e-05
-0.0201294 0.00229098 1e-05
-0.0200088 0.00238763 1e-05
-0.0199911 0.00254123 1e-05
-0.0200041 0.00269528 1e-05
-0.0199827 0.00277425 1e-05
-0.019869 0.00287784 1e-05
-0.0198179 0.00302292 1e-05
-0.0198054 0.00317623 1e-05
-0.01976 0.00329221 1e-05
-0.0196347 0.00340323 1e-05
-0.0195486 0.00354672 1e-05
-0.0194776 0.0036983 1e-05
-0.019391 0.00384149 1e-05
-0.0193842 0.00384734 1e-05
-0.0193108 0.00390808 1e-05
-0.0192439 0.00397592 1e-05
-0.019179 0.00404573 1e-05
-0.0191113 0.00411267 1e-05
-0.0190172 0.00419785 1e-05
-0.0189564 0.00424674 1e-05
-0.0188939 0.00429335 1e-05
-0.0188297 0.00433764 1e-05
-0.018764 0.00437962 1e-05
-0.0186585 0.00444232 1e-05
-0.0184263 0.00456527 1e-05
-0.0181852 0.00466952 1e-05
-0.017937 0.00475573 1e-05
-0.0176828 0.00482209 1e-05
-0.0174976 0.00485365 1e-05
-0.0172058 0.00488438 1e-05
-0.0169124 0.00488613 1e-05
-0.0166199 0.00486378 1e-05
-0.0163297 0.00482059 1e-05
-0.0160387 0.0047565 1e-05
-0.0158291 0.00469366 1e-05
-0.0156232 0.00461973 1e-05
-0.0154215 0.00453506 1e-05
-0.0152227 0.00444391 1e-05
-0.0152195 0.00444232 1e-05
-0.0151032 0.00438407 1e-05
-0.0149897 0.00432056 1e-05
-0.0148794 0.00425173 1e-05
-0.0147713 0.0041793 1e-05
-0.0146381 0.00408408 1e-05
-0.0145772 0.00403674 1e-05
-0.0145171 0.00398829 1e-05
-0.0144579 0.00393873 1e-05
-0.0143997 0.00388805 1e-05
-0.0143538 0.00384734 1e-05
-0.0142297 0.00373631 1e-05
-0.0141122 0.00361838 1e-05
-0.0140022 0.00349339 1e-05
-0.0138981 0.0033634 1e-05
-0.0138436 0.00329221 1e-05
-0.0137665 0.00318862 1e-05
-0.0136969 0.00307983 1e-05
-0.0136336 0.00296725 1e-05
-0.0135741 0.00285261 1e-05
-0.013537 0.00277425 1e-05
-0.0134939 0.0026776 1e-05
-0.013458 0.00257807 1e-05
-0.0134262 0.00247718 1e-05
-0.0133988 0.00237497 1e-05
-0.0133808 0.00229098 1e-05
-0.0133658 0.0022008 1e-05
-0.0133568 0.00210982 1e-05
-0.0133531 0.00201847 1e-05
-0.0133554 0.00192707 1e-05
-0.013364 0.00184007 1e-05
-0.0133788 0.00175593 1e-05
-0.0134013 0.00167351 1e-05
-0.0134307 0.00159329 1e-05
-0.0134671 0.001516 1e-05
-0.0135238 0.00141936 1e-05
-0.0135813 0.00134085 1e-05
-0.0136496 0.00127164 1e-05
-0.0137238 0.00120866 1e-05
-0.0138025 0.00115144 1e-05
-0.0139965 0.00102682 1e-05
-0.0141248 0.000957589 1e-05
-0.0142598 0.000902622 1e-05
-0.0143981 0.000856458 1e-05
-0.0145371 0.000812324 1e-05
-0.0146381 0.000781928 1e-05
-0.014722 0.000757655 1e-05
-0.0148064 0.000734728 1e-05
-0.014891 0.000712938 1e-05
-0.0149762 0.000693165 1e-05
-0.0151499 0.000660566 1e-05
-0.0153277 0.000638007 1e-05
-0.0155058 0.000618857 1e-05
-0.0156842 0.000602362 1e-05
-0.0158628 0.000587857 1e-05
-0.0160387 0.000568163 1e-05
-0.016283 0.000518298 1e-05
-0.0165311 0.000493558 1e-05
-0.0167803 0.000482505 1e-05
-0.0170295 0.000475686 1e-05
-0.0174976 0.000406265 1e-05
-0.0174976 0.000406265 1e-05
-0.0174976 0.000406265 1e-05
-0.0174976 0.000406265 1e-05
-0.0174976 0.000406265 1e-05
-0.0174976 0.000406265 1e-05
-0.0174951 0.00038878 1e-05
-0.0174897 0.000371974 1e-05
-0.0174821 0.000356085 1e-05
-0.0174727 0.000341142 1e-05
-0.0174557 0.000318841 1e-05
-0.0173838 0.000255072 1e-05
-0.0172967 0.000214399 1e-05
-0.0172047 0.000186603 1e-05
-0.0171106 0.000167061 1e-05
-0.0160387 4.44342e-06 1e-05
-0.0160288 3.55474e-06 1e-05
-0.0160189 3.10048e-06 1e-05
-0.0160089 2.68797e-06 1e-05
-0.015999 2.27546e-06 1e-05
-0.0159443 0 1e-05
-0.0205 0.00367778 1e-05
-0.0203955 0.00371169 1e-05
-0.0203045 0.0037732 1e-05
-0.0202171 0.00383976 1e-05
-0.0201979 0.00384734 1e-05
-0.0199618 0.00393431 1e-05
-0.019766 0.00409243 1e-05
-0.0196202 0.00429751 1e-05
-0.0194753 0.00444232 1e-05
-0.0193837 0.00449615 1e-05
-0.0192963 0.00455665 1e-05
-0.0192132 0.00462288 1e-05
-0.0191277 0.004686 1e-05
-0.0190172 0.0047615 1e-05
-0.0189141 0.0048252 1e-05
-0.0188083 0.00488437 1e-05
-0.0187002 0.00493909 1e-05
-0.01859 0.00498947 1e-05
-0.0183687 0.00508 1e-05
-0.0181945 0.00513504 1e-05
-0.0180182 0.00518311 1e-05
-0.0178402 0.00522437 1e-05
-0.0176607 0.00525869 1e-05
-0.0174976 0.0052817 1e-05
-0.0172058 0.00530962 1e-05
-0.0169127 0.00531447 1e-05
-0.0166201 0.00529748 1e-05
-0.0163294 0.00526029 1e-05
-0.0160387 0.00520533 1e-05
-0.0159403 0.00518026 1e-05
-0.0158424 0.0051532 1e-05
-0.0157451 0.00512423 1e-05
-0.0156481 0.00509404 1e-05
-0.015605 0.00508 1e-05
-0.0154116 0.00501582 1e-05
-0.0152216 0.0049422 1e-05
-0.0150357 0.0048588 1e-05
-0.0148541 0.00476637 1e-05
-0.0146381 0.00464665 1e-05
-0.0145718 0.00460579 1e-05
-0.014506 0.00456403 1e-05
-0.0144408 0.00452138 1e-05
-0.0143762 0.00447794 1e-05
-0.0143238 0.00444232 1e-05
-0.0141502 0.00432332 1e-05
-0.0139833 0.00419531 1e-05
-0.013824 0.00405778 1e-05
-0.0136695 0.00391504 1e-05
-0.0135991 0.00384734 1e-05
-0.0135379 0.0037874 1e-05
-0.0134789 0.00372539 1e-05
-0.0134214 0.00366198 1e-05
-0.0133648 0.00359778 1e-05
-0.0132934 0.00351454 1e-05
-0.0132568 0.00347007 1e-05
-0.0132207 0.00342524 1e-05
-0.013185 0.00338003 1e-05
-0.0131498 0.00333444 1e-05
-0.0131177 0.00329221 1e-05
-0.0130396 0.00318862 1e-05
-0.0129635 0.0030836 1e-05
-0.0128902 0.00297658 1e-05
-0.0128201 0.00286743 1e-05
-0.0127628 0.00277425 1e-05
-0.0127051 0.0026776 1e-05
-0.0126489 0.00258012 1e-05
-0.0125942 0.00248176 1e-05
-0.012541 0.0023826 1e-05
-0.0124942 0.00229098 1e-05
-0.0124506 0.0022008 1e-05
-0.0124073 0.00211048 1e-05
-0.0123643 0.00202003 1e-05
-0.0123216 0.00192946 1e-05
-0.0122807 0.00184007 1e-05
-0.0122458 0.00175593 1e-05
-0.0122094 0.00167242 1e-05
-0.0121718 0.00158947 1e-05
-0.0121326 0.00150721 1e-05
-0.0120885 0.00141936 1e-05
-0.0120713 0.00138606 1e-05
-0.0120528 0.00135349 1e-05
-0.0120331 0.00132162 1e-05
-0.0120122 0.00129052 1e-05
-0.0120025 0.00127735 1e-05
-0.0119645 0.00122724 1e-05
-0.0119233 0.0011797 1e-05
-0.0118789 0.00113509 1e-05
-0.0118315 0.00109369 1e-05
-0.0117431 0.00102682 1e-05
-0.0116282 0.000953567 1e-05
-0.0115053 0.000894552 1e-05
-0.0113779 0.000846295 1e-05
-0.0112475 0.000806475 1e-05
-0.0107632 0.000719899 1e-05
-0.0105252 0.000728952 1e-05
-0.0102871 0.000725312 1e-05
-0.010049 0.000723371 1e-05
-0.00981085 0.000722469 1e-05
-0.00957337 0.000722223 1e-05
-0.00934491 0.000731751 1e-05
-0.00911628 0.000728298 1e-05
-0.00888764 0.000725937 1e-05
-0.00865899 0.000724324 1e-05
-0.00843108 0.000723236 1e-05
-0.00821175 0.000732307 1e-05
-0.00799227 0.000728279 1e-05
-0.00777277 0.000725264 1e-05
-0.00755327 0.000722976 1e-05
-0.00733443 0.000721224 1e-05
-0.00712387 0.000729655 1e-05
-0.00691317 0.000725507 1e-05
-0.00670246 0.000722279 1e-05
-0.00649174 0.000719731 1e-05
-0.0062816 0.000717697 1e-05
-0.00607944 0.000725423 1e-05
-0.00587718 0.000721534 1e-05
-0.0056749 0.000718435 1e-05
-0.00547262 0.000715935 1e-05
-0.00527083 0.000713898 1e-05
-0.00507675 0.000720929 1e-05
-0.00488258 0.000717439 1e-05
-0.00468839 0.000714612 1e-05
-0.0044942 0.000712297 1e-05
-0.00430044 0.000710384 1e-05
-0.00411412 0.000716776 1e-05
-0.00392771 0.000713717 1e-05
-0.0037413 0.000711199 1e-05
-0.00355488 0.000709107 1e-05
-0.00336883 0.000707356 1e-05
-0.00318995 0.000713169 1e-05
-0.003011 0.000710473 1e-05
-0.00283204 0.00070824 1e-05
-0.00265307 0.000706377 1e-05
-0.00247443 0.000704814 1e-05
-0.0023027 0.000710163 1e-05
-0.0021309 0.000707868 1e-05
-0.0019591 0.000705962 1e-05
-0.00178729 0.000704371 1e-05
-0.00161577 0.000703039 1e-05
-0.0014509 0.000708056 1e-05
-0.00128597 0.000706137 1e-05
-0.00112103 0.000704614 1e-05
-0.000956083 0.000703415 1e-05
-0.000791418 0.000702483 1e-05
-0.000633135 0.000707519 1e-05
-0.000474777 0.00070619 1e-05
-0.000316415 0.000705277 1e-05
-0.000158053 0.000704707 1e-05
0 0.000704423 1e-05
0.000105677 0.00070831 1e-05
0.000211426 0.000708366 1e-05
0.000317175 0.000708618 1e-05
0.000422923 0.000709043 1e-05
0.000528387 0.000709623 1e-05
0.000634886 0.000714093 1e-05
0.000741476 0.000714917 1e-05
0.000848065 0.000715822 1e-05
0.000954653 0.0007168 1e-05
0.00106088 0.000717842 1e-05
0.00116821 0.000722736 1e-05
0.00127564 0.000724105 1e-05
0.00138307 0.000725556 1e-05
0.0014905 0.000727083 1e-05
0.00159752 0.000728674 1e-05
0.00170568 0.000734199 1e-05
0.00181396 0.000736358 1e-05
0.00192224 0.000738644 1e-05
0.00203051 0.000741047 1e-05
0.00213833 0.000743549 1e-05
0.00224733 0.000750118 1e-05
0.00235648 0.000753374 1e-05
0.00246563 0.000756758 1e-05
0.00257477 0.000760263 1e-05
0.00268334 0.000764106 1e-05
0.00279319 0.000771931 1e-05
0.0029032 0.000777 1e-05
0.00301323 0.00078158 1e-05
0.00312326 0.000786276 1e-05
0.00323259 0.000792116 1e-05
0.00334329 0.000801312 1e-05
0.00345415 0.000808367 1e-05
0.00356508 0.000814234 1e-05
0.00367601 0.000820212 1e-05
0.00378611 0.000828043 1e-05
0.00389767 0.000838678 1e-05
0.00400938 0.000847673 1e-05
0.00412121 0.000855011 1e-05
0.00423302 0.000862614 1e-05
0.00434393 0.000872351 1e-05
0.00445636 0.000884422 1e-05
0.00456892 0.00089522 1e-05
0.0046816 0.000904742 1e-05
0.00479426 0.00091451 1e-05
0.00490609 0.000925979 1e-05
0.0050194 0.0009394 1e-05
0.00513282 0.000951789 1e-05
0.00524632 0.000963477 1e-05
0.00535978 0.000975537 1e-05
0.00547262 0.00098849 1e-05
0.00558681 0.00100309 1e-05
0.00570111 0.00101679 1e-05
0.00581538 0.00103068 1e-05
0.00592962 0.0010449 1e-05
0.00604356 0.00105941 1e-05
0.00610295 0.00106742 1e-05
0.00616236 0.00107528 1e-05
0.00622177 0.0010832 1e-05
0.00628117 0.0010912 1e-05
0.00634201 0.00109947 1e-05
0.00639739 0.00110706 1e-05
0.00645277 0.00111472 1e-05
0.00650814 0.00112244 1e-05
0.00656349 0.00113022 1e-05
0.00661893 0.00113808 1e-05
0.0067349 0.00115419 1e-05
0.00685079 0.00117089 1e-05
0.00696665 0.00118779 1e-05
[...]
POINT_DATA 11163
 FIELD attributes 1
U 3 11163 float
1.13296 	6.39883 	0 1.59184 	5.97924 	0 3.06063 	4.65987 	0 4.29069 	3.52872 	0 5.18156 	2.68001 	0 7.15404 	0.70706 	0 -4.22495 	5.50136 	0 -5.18611 	7.8108 	0 7.56539 	0.661734 	0 0.171861 	4.66591 	0 -9.04969 	14.026 	0 5.93236 	3.10454 	0 -2.52839 	15.5164 	0 -6.42048 	22.2979 	0 7.16719 	5.74099 	0 1.9782 	17.2212 	0 -2.24886 	26.678 	0 4.29306 	15.8503 	0 9.07744 	8.26988 	0 6.22471 	17.6656 	0 2.39113 	29.3755 	0 7.48957 	19.1143 	0 11.9519 	10.5966 	0 10.9783 	18.2853 	0 10.8646 	23.2137 	0 12.8644 	21.2657 	0 16.0833 	13.7036 	0 16.2319 	13.4314 	0 16.3923 	16.6296 	0 16.8096 	18.1013 	0 17.5792 	17.3612 	0 18.3613 	16.6193 	0 19.4181 	15.6305 	0 20.184 	15.0469 	0 20.9584 	14.4659 	0 21.7401 	13.8883 	0 22.0856 	13.1248 	0 22.0695 	11.6861 	0 24.2718 	10.4931 	0 26.3542 	9.15433 	0 27.0751 	7.06736 	0 27.2295 	4.64006 	0 27.3562 	2.88093 	0 28.0753 	0.167287 	0 28.3311 	-2.16419 	0 28.2584 	-4.20604 	0 27.203 	-5.99136 	0 25.8089 	-7.73916 	0 25.1993 	-9.04855 	0 24.5585 	-10.3082 	0 23.3495 	-10.7018 	0 22.1302 	-11.0713 	0 22.1102 	-11.0769 	0 21.4829 	-12.021 	0 20.8588 	-13.011 	0 20.0208 	-13.4251 	0 19.1119 	-13.6562 	0 17.9657 	-13.9603 	0 17.5283 	-14.1378 	0 17.0896 	-14.3185 	0 16.6497 	-14.5025 	0 16.317 	-14.4514 	0 16.0679 	-14.3767 	0 14.8126 	-14.863 	0 13.5152 	-15.3552 	0 12.326 	-15.3966 	0 11.4535 	-14.9743 	0 10.9796 	-14.7469 	0 9.65253 	-15.0826 	0 8.54141 	-15.1955 	0 7.76759 	-14.9741 	0 6.95428 	-14.656 	0 6.36211 	-14.2902 	0 5.15197 	-14.2853 	0 4.40721 	-13.9485 	0 3.64042 	-13.622 	0 2.85043 	-13.3075 	0 2.1609 	-12.9679 	0 1.25144 	-12.6085 	0 0.49082 	-12.1983 	0 -0.300372 	-11.8023 	0 -1.12252 	-11.4236 	0 -1.94371 	-11.0405 	0 -2.88079 	-10.5435 	0 -3.6942 	-10.0803 	0 -4.54256 	-9.64648 	0 -5.42111 	-9.24672 	0 -6.43173 	-8.78449 	0 -8.01701 	-8.11342 	0 -8.99321 	-7.63527 	0 -9.94402 	-7.23044 	0 -10.732 	-6.89628 	0 -11.6403 	-6.27955 	0 -13.152 	-5.35305 	0 -14.0414 	-4.68667 	0 -13.1826 	-4.18661 	0 -12.3658 	-3.72225 	0 -11.8066 	-3.41316 	0 -12.4077 	-3.37303 	0 -13.0414 	-3.35733 	0 -13.8588 	-3.2189 	0 -15.0452 	-2.82257 	0 -17.5376 	-2.22573 	0 -18.244 	-1.96111 	0 -19.2814 	-1.78262 	0 -20.5758 	-1.67115 	0 -19.9149 	-2.23033 	0 -16.3532 	-3.33747 	0 -24.5182 	-2.44459 	0 -37.1425 	-1.64799 	0 -49.5446 	-1.35521 	0 -35.3472 	-5.24295 	0 1.81458 	-13.0845 	0 1.81458 	-13.0845 	0 1.81458 	-13.0845 	0 1.81458 	-13.0845 	0 1.81458 	-13.0845 	0 1.81458 	-13.0845 	0 4.21511 	-13.1219 	0 6.34502 	-13.1085 	0 8.20899 	-13.0541 	0 9.83687 	-12.9682 	0 14.8291 	-13.1461 	0 23.0801 	-10.778 	0 30.0062 	-9.06352 	0 38.0149 	-7.89314 	0 46.6109 	-7.07142 	0 0.353256 	-0.0317294 	0 1.18554 	-0.0542691 	0 1.48943 	-0.0619024 	0 1.29126 	-0.0536665 	0 1.0931 	-0.0454306 	0 0 	0 	0
9.83291 	3.19122 	0 9.65831 	6.52582 	0 10.0779 	7.67573 	0 11.8157 	4.68112 	0 12.0607 	4.44148 	0 12.9622 	10.4687 	0 13.4041 	18.8469 	0 15.3402 	15.3334 	0 17.3392 	10.1872 	0 17.8519 	12.3625 	0 18.329 	14.6084 	0 18.9071 	13.9593 	0 19.5026 	13.32 	0 20.2737 	12.5281 	0 21.1488 	11.8345 	0 22.0477 	11.1579 	0 22.9677 	10.4988 	0 23.0553 	9.4317 	0 23.1827 	7.32384 	0 24.2093 	6.60194 	0 25.216 	5.84505 	0 26.0659 	4.98476 	0 26.0975 	3.67981 	0 26.1667 	2.5036 	0 26.777 	0.44343 	0 27.5047 	-1.59674 	0 27.2071 	-3.47989 	0 26.2644 	-4.96657 	0 25.3042 	-6.44588 	0 25.1402 	-6.95147 	0 24.9569 	-7.42881 	0 24.536 	-7.6408 	0 24.117 	-7.84994 	0 23.9306 	-7.94208 	0 23.2912 	-9.02447 	0 22.6964 	-10.1822 	0 22.0092 	-11.2035 	0 20.8945 	-11.5776 	0 19.5648 	-12.058 	0 19.2566 	-12.2278 	0 18.9507 	-12.4005 	0 18.6581 	-12.5366 	0 18.4135 	-12.5118 	0 18.2154 	-12.492 	0 17.0569 	-13.0768 	0 15.8908 	-13.7253 	0 14.9592 	-13.8149 	0 14.1062 	-13.5614 	0 13.7108 	-13.4447 	0 13.0514 	-13.7145 	0 12.5217 	-13.8063 	0 12.1141 	-13.7309 	0 11.7044 	-13.6592 	0 11.177 	-13.5726 	0 10.9324 	-13.5523 	0 10.6864 	-13.5337 	0 10.4391 	-13.5167 	0 10.2228 	-13.4739 	0 10.0857 	-13.382 	0 9.60436 	-13.2465 	0 8.93126 	-13.0373 	0 8.24186 	-12.8351 	0 7.69517 	-12.516 	0 7.28203 	-12.2068 	0 6.896 	-11.9489 	0 6.50387 	-11.6946 	0 6.08445 	-11.3339 	0 5.54645 	-10.8644 	0 5.04146 	-10.4376 	0 4.81726 	-10.0516 	0 4.59529 	-9.6648 	0 4.37811 	-9.27619 	0 4.05386 	-8.85819 	0 3.47376 	-8.37731 	0 3.46795 	-7.95915 	0 3.38908 	-7.46794 	0 3.31777 	-6.97593 	0 3.25547 	-6.48312 	0 3.03971 	-5.88494 	0 3.21628 	-5.65065 	0 3.36674 	-5.44526 	0 3.52364 	-5.24167 	0 3.68707 	-5.04026 	0 3.76113 	-4.95363 	0 3.98265 	-4.59397 	0 4.21512 	-4.24057 	0 4.45805 	-3.89535 	0 4.71059 	-3.56023 	0 5.28364 	-3.36794 	0 6.44503 	-3.09642 	0 7.52579 	-2.84963 	0 8.54952 	-2.61219 	0 10.1883 	-1.82113 	0 15.2929 	0.581792 	0 15.3622 	-0.234831 	0 16.1599 	-0.131694 	0 16.9163 	-0.0641242 	0 17.6474 	-0.0182799 	0 18.8701 	0.787038 	0 18.7383 	-0.282983 	0 19.2691 	-0.199033 	0 19.7758 	-0.139513 	0 20.2659 	-0.0967565 	0 21.1759 	0.875786 	0 20.9444 	-0.384292 	0 21.3378 	-0.293159 	0 21.7102 	-0.226228 	0 22.0673 	-0.176724 	0 22.7797 	0.912077 	0 22.5155 	-0.443214 	0 22.8293 	-0.349813 	0 23.1246 	-0.279597 	0 23.4062 	-0.226564 	0 23.9934 	0.917057 	0 23.7162 	-0.456034 	0 23.9749 	-0.367299 	0 24.2178 	-0.299259 	0 24.4488 	-0.246909 	0 24.9569 	0.904156 	0 24.6699 	-0.443357 	0 24.8868 	-0.362328 	0 25.0905 	-0.299084 	0 25.2839 	-0.249595 	0 25.7412 	0.88307 	0 25.4451 	-0.417672 	0 25.6276 	-0.346162 	0 25.799 	-0.289423 	0 25.9617 	-0.244314 	0 26.3837 	0.857325 	0 26.0798 	-0.392877 	0 26.2416 	-0.327431 	0 26.3938 	-0.274753 	0 26.5383 	-0.232281 	0 26.9425 	0.839197 	0 26.6297 	-0.355694 	0 26.7747 	-0.297064 	0 26.9115 	-0.249194 	0 27.0414 	-0.210053 	0 27.4366 	0.835001 	0 27.1141 	-0.315491 	0 27.2875 	-0.252016 	0 27.4518 	-0.199571 	0 27.6087 	-0.15616 	0 28.0502 	0.892346 	0 27.6712 	-0.232202 	-2.33782e-21 27.8848 	-0.160782 	-8.971e-21 28.0874 	-0.101 	-1.55673e-20 28.2811 	-0.0508373 	-2.21332e-20 28.8359 	1.06049 	-1.78029e-20 28.4063 	0.0152103 	-1.03565e-19 28.5691 	0.0679715 	-8.96834e-20 28.7264 	0.115596 	-7.61484e-20 28.8786 	0.158637 	-6.29231e-20 29.4728 	1.23716 	2.63795e-20 28.9962 	0.224009 	1.69296e-20 29.1065 	0.247107 	1.79757e-20 29.2144 	0.268224 	1.89981e-20 29.3202 	0.287551 	1.99991e-20 29.9253 	1.36445 	1.9021e-20 29.4316 	0.375047 	2.05094e-20 29.5194 	0.398846 	4.15516e-21 29.6049 	0.420847 	-1.21964e-20 29.6882 	0.441198 	-2.85455e-20 30.3039 	1.54806 	-3.95704e-20 29.7991 	0.594187 	-3.02518e-20 29.8657 	0.630434 	-2.36085e-20 29.9288 	0.664288 	-1.69446e-20 29.9885 	0.695919 	-1.02616e-20 30.6154 	1.84494 	-4.22758e-20 30.1099 	0.898386 	-8.2059e-20 30.149 	0.934756 	-8.03738e-20 30.1848 	0.969082 	-7.88153e-20 30.253 	1.07113 	-7.33889e-20 30.8372 	2.19657 	-9.3995e-21 30.4388 	1.40247 	9.10237e-22 30.3616 	1.26384 	6.99664e-21 30.3637 	1.29576 	1.19374e-20 30.5074 	1.62983 	1.93232e-20 30.9175 	2.5682 	3.15749e-20 30.6576 	1.95085 	9.75963e-20 30.5072 	1.61357 	1.3455e-19 30.4711 	1.64212 	1.33206e-19 30.6308 	2.17881 	7.86531e-20 30.8472 	2.94038 	1.8203e-22 30.7311 	2.47451 	-3.92693e-20 30.6431 	2.01087 	-7.8747e-20 30.5851 	2.07977 	-8.13981e-20 30.6377 	2.68971 	-4.14331e-20 30.6563 	3.29139 	-1.62139e-21 30.6881 	2.94379 	-5.26678e-22 30.7395 	2.59775 	4.69638e-22 30.7266 	2.66426 	-1.16186e-20 30.5728 	3.13524 	-2.67569e-20 30.3972 	3.60054 	-4.23957e-20 30.5631 	3.33844 	-4.32385e-21 30.697 	3.16113 	2.63617e-20 30.6882 	3.26202 	3.15238e-20 30.5007 	3.50105 	1.53064e-20 30.1569 	3.85459 	-1.89254e-20 30.4451 	3.65134 	-1.83815e-20 30.437 	3.69971 	-1.33875e-20 30.3868 	3.78089 	-7.85174e-21 30.3319 	3.86277 	-2.3458e-21 30.0322 	4.04956 	2.17829e-21 30.1816 	3.99226 	0 30.1443 	4.02312 	0 30.1061 	4.0541 	0 30.067 	4.0852 	0 30.0261 	4.11719 	0 29.9947 	4.14726 	0 29.9626 	4.17744 	0 29.9297 	4.20773 	0 29.8961 	4.23815 	0 29.8609 	4.1492 	0 29.8485 	4.30029 	-2.8386e-21 29.7746 	4.34231 	-8.65664e-21 29.6987 	4.38464 	-1.44557e-20 29.6123 	4.38831 	-2.26708e-20 29.4702 	4.13642 	-4.68854e-20 29.5618 	4.3507 	-1.05825e-19 29.5904 	4.4966 	-1.48453e-19 29.5134 	4.51869 	-1.61182e-19 29.3184 	4.29489 	-1.24064e-19 29.1197 	4.04932 	-8.22011e-20 29.2644 	4.23179 	-4.20371e-22 29.4024 	4.41335 	8.11367e-20 29.3626 	4.38337 	9.28049e-20 29.107 	4.13239 	3.8712e-20 28.8578 	3.88097 	-1.53498e-20 29.0496 	4.03871 	1.08412e-19 29.122 	4.08155 	1.6734e-19 29.0645 	3.99584 	1.53642e-19 28.9832 	3.88987 	1.28102e-19 28.6935 	3.6205 	7.59097e-21 28.864 	3.71349 	-6.1042e-21 28.8042 	3.60786 	-4.51649e-21 28.7488 	3.50354 	-2.91909e-21 28.6978 	3.40054 	-1.31203e-21 28.6014 	3.26219 	0 28.6298 	3.27021 	2.61782e-22 28.6156 	3.24166 	9.37725e-22 28.6016 	3.2132 	1.61295e-21 28.5879 	3.18483 	2.28747e-21 28.5738 	3.15509 	2.99564e-21 28.537 	3.06404 	4.7383e-21 28.5029 	2.97378 	6.4896e-21 28.4715 	2.88431 	8.24951e-21 28.4427 	2.79561 	1.0018e-20 28.4087 	2.79543 	2.98148e-20 28.3789 	2.56709 	2.10321e-19 28.3293 	2.43205 	2.87639e-19 28.2846 	2.29861 	3.63399e-19 28.245 	2.16677 	4.37608e-19 28.1768 	2.24475 	1.76113e-19 28.1823 	1.88973 	1.60555e-19 28.1301 	1.74008 	1.03619e-19 28.0825 	1.59484 	4.64961e-20 28.0295 	1.50217 	-1.5751e-20 27.9353 	1.62469 	-1.00449e-19 27.9432 	1.25295 	-4.31504e-19 27.9054 	1.03038 	-5.8033e-19 27.8477 	0.879015 	-6.42043e-19 27.7693 	0.83264 	-5.37288e-19 27.6517 	0.949901 	-1.73559e-19 27.6492 	0.600364 	-1.27961e-19 27.6073 	0.360365 	-7.94885e-20 27.5323 	0.207995 	-2.86125e-20 27.4337 	0.15714 	0 27.2995 	0.236951 	0 27.2785 	-0.0696667 	0 27.213 	-0.28264 	-5.72116e-20 27.1183 	-0.433351 	-1.52464e-19 27.0107 	-0.52741 	-2.4849e-19 26.867 	-0.499681 	-3.45156e-19 26.8224 	-0.758337 	-2.57537e-19 26.7186 	-0.927334 	-2.49317e-19 26.6041 	-1.07434 	-2.61466e-19 26.4948 	-1.22096 	-2.75347e-19 26.3474 	-1.24287 	-4.97187e-19 26.268 	-1.44427 	-3.3462e-19 26.1315 	-1.58507 	-5.36307e-19 26.0002 	-1.72622 	-7.40635e-19 25.874 	-1.86769 	-9.47625e-19 25.7398 	-1.97298 	-1.24357e-18 25.6636 	-2.07338 	-1.49541e-18 25.5661 	-2.15915 	-1.35289e-18 25.4707 	-2.24522 	-1.20775e-18 25.3775 	-2.33161 	-1.05997e-18 25.3191 	-2.38718 	-9.63542e-19 25.2678 	-2.44211 	-9.46797e-19 25.2175 	-2.49719 	-9.30659e-19 25.1681 	-2.55244 	-9.15132e-19 25.1196 	-2.60783 	-9.00218e-19 25.0436 	-2.67682 	-6.9204e-19 24.9087 	-2.80328 	4.85749e-20 24.7637 	-2.93061 	5.77636e-19 24.6241 	-3.05924 	1.11319e-18 24.4847 	-3.19061 	1.5749e-18 24.2669 	-3.34635 	7.87858e-19 24.1368 	-3.46609 	1.48448e-18 24.0044 	-3.58566 	1.94634e-18 23.8638 	-3.70365 	1.97304e-18 23.6562 	-3.83193 	1.07996e-18 23.4502 	-3.96338 	1.51921e-19 23.3094 	-4.06992 	4.68543e-20 23.173 	-4.17798 	-5.93806e-20 22.9803 	-4.28684 	-1.68675e-20 22.7885 	-4.3948 	-7.91828e-20 22.597 	-4.50387 	-2.11116e-19 22.4899 	-4.56877 	-3.12385e-20 22.3567 	-4.63195 	0 22.2197 	-4.69544 	0 22.0849 	-4.75977 	0 21.9747 	-4.81396 	0 21.925 	-4.84401 	0 21.8757 	-4.87424 	0 21.8268 	-4.90465 	0 21.7702 	-4.93343 	4.50415e-21 21.6958 	-4.95855 	1.8893e-20 21.5353 	-5.03915 	0 21.3659 	-5.11735 	0 21.2004 	-5.19738 	0 20.9881 	-5.26408 	3.75431e-20 20.7591 	-5.3281 	8.88806e-20 20.6049 	-5.38351 	6.75045e-20 20.4439 	-5.43745 	7.63557e-20 20.2443 	-5.48035 	2.13638e-19 20.0473 	-5.52468 	3.51836e-19 19.8483 	-5.57156 	5.32063e-19 19.8197 	-5.57846 	7.71274e-19 19.788 	-5.584 	8.55415e-19 19.7526 	-5.58792 	7.55945e-19 19.7173 	-5.59188 	6.56252e-19 19.6829 	-5.59579 	5.58656e-19 19.5348 	-5.62407 	2.99195e-19 19.3883 	-5.65333 	3.67732e-20 19.2433 	-5.68359 	-2.28668e-19 19.0676 	-5.69908 	-1.15675e-19 18.8718 	-5.70593 	2.31326e-19 18.7168 	-5.71717 	9.04632e-20 18.5632 	-5.72938 	-5.11376e-20 18.3665 	-5.71462 	-2.50432e-20 18.1696 	-5.6999 	4.81281e-21 17.9655 	-5.68675 	2.0511e-20 17.9408 	-5.68434 	5.35956e-20 17.9145 	-5.68021 	6.77594e-20 17.8845 	-5.67171 	3.37233e-20 17.8544 	-5.6632 	-3.16762e-22 17.8246 	-5.65475 	-3.41606e-20 17.6795 	-5.63024 	-1.44091e-19 17.5348 	-5.60602 	-2.54261e-19 17.3904 	-5.58212 	-3.64677e-19 17.2279 	-5.53965 	-3.20896e-19 17.0597 	-5.49179 	-2.32992e-19 16.9204 	-5.42554 	-1.44037e-19 16.775 	-5.3547 	-7.78327e-20 16.609 	-5.26827 	-9.34071e-20 16.4423 	-5.18129 	-1.08731e-19 16.2689 	-5.09057 	-1.25071e-19 16.2687 	-5.09042 	-1.24762e-19 16.2686 	-5.09028 	-1.24526e-19 16.2683 	-5.09014 	-1.24508e-19 16.2681 	-5.08999 	-1.24491e-19 16.2679 	-5.08985 	-1.24474e-19 16.1028 	-4.98838 	-8.67237e-20 15.9371 	-4.88617 	-4.90675e-20 15.7707 	-4.78319 	-1.15088e-20 15.5836 	-4.68852 	0 15.389 	-4.59806 	0 15.2283 	-4.48735 	0 15.0526 	-4.38966 	7.32589e-22 14.8484 	-4.31855 	2.88892e-21 14.6441 	-4.24721 	5.04382e-21 14.441 	-4.17814 	1.01152e-20 14.4361 	-4.17602 	1.14699e-20 14.4308 	-4.17453 	1.17278e-20 14.4248 	-4.17404 	1.02432e-20 14.4188 	-4.17355 	8.75815e-21 14.4127 	-4.17306 	7.27308e-21 14.2007 	-4.12559 	-3.9301e-20 13.9887 	-4.07831 	-8.60222e-20 13.7769 	-4.03122 	-1.32896e-19 13.5568 	-4.00897 	-1.44487e-19 13.3289 	-4.00952 	-1.24527e-19 13.0996 	-4.0015 	-9.40897e-20 12.872 	-3.99562 	-6.70057e-20 12.6706 	-4.01355 	-1.03753e-19 12.47 	-4.0331 	-1.41468e-19 12.2704 	-4.07008 	-2.10682e-19 12.2273 	-4.07894 	-2.06122e-19 12.1898 	-4.08637 	-2.01579e-19 12.164 	-4.09075 	-1.97037e-19 12.1383 	-4.09518 	-1.92511e-19 12.1137 	-4.09946 	-1.88194e-19 11.984 	-4.11207 	-1.32802e-19 11.8547 	-4.1253 	-7.72385e-20 11.7258 	-4.13918 	-2.14999e-20 11.6606 	-4.12333 	0 11.6348 	-4.08808 	0 11.5477 	-4.08297 	0 11.4611 	-4.07811 	0 11.5228 	-3.98312 	0 11.5925 	-3.88249 	0 11.6763 	-3.77888 	0 11.6825 	-3.7619 	0 11.7064 	-3.73229 	4.34187e-21 11.7523 	-3.68687 	1.41113e-20 11.7977 	-3.64148 	2.38456e-20 11.8468 	-3.59184 	3.44621e-20 11.9334 	-3.48667 	4.51789e-20 12.018 	-3.3813 	5.61823e-20 12.1007 	-3.27574 	6.7468e-20 12.2066 	-3.14899 	5.25322e-20 12.3499 	-2.9901 	-6.59621e-21 12.5278 	-2.79647 	-2.8476e-19 12.7017 	-2.60316 	-5.34903e-19 12.8864 	-2.40172 	-6.12646e-19 13.1069 	-2.15842 	-4.18279e-19 13.3113 	-1.92648 	-2.28563e-19 13.5184 	-1.7037 	-7.40856e-19 13.7186 	-1.48297 	-1.25256e-18 13.908 	-1.25789 	-1.19392e-18 14.0933 	-1.04071 	-7.04989e-19 14.2688 	-0.830628 	-2.07608e-19 14.4708 	-0.613109 	-3.92736e-19 14.6537 	-0.405165 	-5.11303e-19 14.8055 	-0.213416 	-5.01131e-19 14.9473 	-0.0334077 	-3.58982e-19 15.0808 	0.137832 	-1.36838e-19 15.2574 	0.327376 	-8.87523e-20 15.4124 	0.504107 	-3.50233e-20 15.5276 	0.656314 	3.00992e-20 15.6272 	0.790172 	6.47052e-20 15.7206 	0.917936 	8.96465e-20 15.8658 	1.06993 	3.04458e-19 16.0082 	1.22062 	5.1873e-19 16.0948 	1.33318 	5.15388e-19 16.157 	1.4206 	2.95745e-19 16.2182 	1.50791 	7.47515e-20 16.3335 	1.621 	-1.92429e-19 16.4472 	1.73334 	-4.59706e-19 16.5367 	1.8219 	-4.52883e-19 16.5753 	1.87517 	-2.00479e-19 16.6136 	1.92846 	5.3328e-20 16.7038 	2.00593 	4.02335e-20 16.7832 	2.07229 	3.49439e-20 16.8513 	2.12687 	3.79578e-20 16.9152 	2.17889 	4.2207e-20 16.9385 	2.20518 	5.93654e-20 17.0008 	2.24553 	5.18344e-20 17.0488 	2.27179 	5.72713e-20 17.0967 	2.29794 	6.27506e-20 17.1443 	2.32399 	6.82721e-20 17.187 	2.34735 	7.32807e-20 17.1916 	2.35012 	7.27728e-20 17.1961 	2.35289 	7.22646e-20 17.2007 	2.35566 	7.17558e-20 17.2052 	2.35843 	7.12467e-20 17.2085 	2.35976 	7.43586e-20 17.2533 	2.37271 	1.77561e-19 17.2943 	2.38329 	2.58255e-19 17.3353 	2.39385 	3.39057e-19 17.3763 	2.40441 	4.19964e-19 17.4016 	2.3995 	1.8043e-19 17.4603 	2.40845 	1.12674e-19 17.5053 	2.40918 	7.37175e-20 17.537 	2.40191 	6.29319e-20 17.5557 	2.3837 	6.21396e-20 17.5722 	2.36363 	6.3214e-20 17.6195 	2.35478 	-1.65531e-19 17.6668 	2.34598 	-3.94203e-19 17.7005 	2.32797 	-3.92377e-19 17.7112 	2.29627 	-1.77766e-19 17.7219 	2.26468 	3.67244e-20 17.7599 	2.24157 	2.78468e-19 17.7904 	2.21402 	3.68926e-19 17.8156 	2.18321 	3.47731e-19 17.8408 	2.15248 	3.27286e-19 17.8485 	2.11224 	1.06986e-19 17.8699 	2.08397 	8.52346e-20 17.8836 	2.05199 	8.0443e-20 17.8975 	2.02005 	7.5576e-20 17.9114 	1.98815 	7.06339e-20 17.9277 	1.9514 	6.48461e-20 17.9314 	1.94387 	6.12648e-20 17.9352 	1.93635 	5.76879e-20 17.939 	1.92883 	5.41155e-20 17.9427 	1.92131 	5.05476e-20 17.9445 	1.91289 	5.09e-20 17.96 	1.86682 	7.57407e-20 17.972 	1.81897 	8.70355e-20 17.9841 	1.77114 	9.80516e-20 17.9964 	1.72331 	1.08789e-19 17.9977 	1.67147 	4.09566e-20 18.0179 	1.62331 	2.94586e-20 18.0268 	1.56975 	1.05953e-22 18.0321 	1.51444 	-3.50988e-20 18.0309 	1.45713 	-7.94005e-20 18.025 	1.39851 	-1.30256e-19 18.0374 	1.34332 	-2.73507e-19 18.0499 	1.28814 	-4.16807e-19 18.0476 	1.22667 	-4.0773e-19 18.0354 	1.16271 	-2.54705e-19 18.0234 	1.09889 	-1.01944e-19 18.028 	1.03807 	2.86094e-20 18.0328 	0.977238 	1.59242e-19 18.0269 	0.913729 	1.83694e-19 18.0084 	0.845772 	1.02306e-19 17.9899 	0.777897 	2.11335e-20 17.9869 	0.712839 	9.75658e-21 17.9835 	0.647715 	-1.02183e-21 17.9713 	0.58205 	-1.09727e-22 17.9476 	0.511929 	0 17.9224 	0.44123 	0 17.9117 	0.373373 	0 17.8983 	0.30549 	9.45879e-21 17.8788 	0.237643 	4.06602e-20 17.851 	0.166864 	9.29977e-20 17.8186 	0.0944402 	1.57199e-19 17.7998 	0.0250359 	3.35965e-19 17.7776 	-0.044215 	4.39588e-19 17.7507 	-0.113215 	4.39645e-19 17.7165 	-0.184578 	3.36627e-19 17.677 	-0.257717 	1.5781e-19 17.6505 	-0.327365 	9.34256e-20 17.621 	-0.396783 	4.19025e-20 17.5863 	-0.465735 	1.17036e-20 17.5424 	-0.537091 	1.60537e-20 17.4942 	-0.609737 	3.69505e-20 17.4593 	-0.678455 	-9.6256e-20 17.4232 	-0.747137 	-2.10682e-19 17.3807 	-0.814886 	-2.1747e-19 17.3259 	-0.885332 	-1.38347e-19 17.27 	-0.956267 	-5.28993e-20 17.2271 	-1.02309 	-1.44078e-19 17.1842 	-1.09008 	-2.35446e-19 17.1325 	-1.15665 	-2.08774e-19 17.0703 	-1.22419 	-6.24781e-20 17.0079 	-1.2921 	8.39291e-20 16.9575 	-1.35564 	4.20285e-19 16.907 	-1.41937 	7.56337e-19 16.846 	-1.48404 	8.14071e-19 16.7779 	-1.54708 	5.39815e-19 16.7095 	-1.61055 	2.65003e-19 16.6518 	-1.66929 	2.9287e-19 16.5885 	-1.72822 	2.79484e-19 16.5193 	-1.78735 	2.22722e-19 16.4496 	-1.84646 	1.61139e-19 16.3759 	-1.90402 	5.96852e-20 16.3118 	-1.95406 	5.27331e-20 16.2399 	-2.00369 	5.87428e-20 16.1679 	-2.05352 	6.49253e-20 16.0957 	-2.10355 	7.12827e-20 16.0439 	-2.13962 	7.59734e-20 16.0367 	-2.14481 	7.54272e-20 16.0296 	-2.15002 	7.48793e-20 16.0224 	-2.15522 	7.43296e-20 16.0152 	-2.16043 	7.37782e-20 16.0071 	-2.16549 	7.4684e-20 15.9286 	-2.21118 	6.6888e-20 15.8496 	-2.25683 	6.04153e-20 15.7704 	-2.30274 	5.37719e-20 15.6911 	-2.34891 	4.69554e-20 15.6002 	-2.39343 	5.81374e-20 15.5193 	-2.43271 	3.92845e-20 15.4375 	-2.4718 	2.03465e-20 15.3545 	-2.51057 	1.31943e-21 15.2624 	-2.54794 	0 15.1689 	-2.58563 	0 15.0838 	-2.61733 	0 14.9986 	-2.64925 	0 14.9058 	-2.68105 	8.11227e-20 14.8127 	-2.71378 	1.56823e-19 14.7189 	-2.74724 	2.29231e-19 14.6464 	-2.76965 	-1.32669e-20 14.5695 	-2.79385 	-1.92434e-20 14.4919 	-2.81844 	8.69073e-21 14.4142 	-2.8432 	3.78337e-20 14.3466 	-2.8648 	6.41688e-20 14.3288 	-2.87042 	9.23167e-20 14.311 	-2.87603 	1.20597e-19 14.2931 	-2.88166 	1.49009e-19 14.275 	-2.88732 	1.5536e-19 14.2556 	-2.89313 	1.07895e-20 14.1634 	-2.92115 	-3.19995e-19 14.0714 	-2.95164 	-5.05322e-19 13.9792 	-2.98234 	-6.9321e-19 13.8845 	-3.01506 	-6.21684e-19 13.7852 	-3.05135 	-1.05081e-19 13.6945 	-3.08175 	4.60593e-19 13.6034 	-3.11239 	1.02601e-18 13.5099 	-3.15078 	1.02215e-18 13.4152 	-3.19828 	4.61094e-19 13.3192 	-3.24647 	-1.04461e-19 13.2452 	-3.28285 	1.13249e-19 13.1682 	-3.32503 	1.16479e-19 13.0895 	-3.37007 	1.75667e-20 13.0104 	-3.41537 	-8.32021e-20 12.9444 	-3.45319 	-1.68415e-19 12.926 	-3.46243 	-2.00866e-19 12.9076 	-3.47167 	-2.33444e-19 12.8892 	-3.48093 	-2.66149e-19 12.8705 	-3.49088 	-2.54373e-19 12.851 	-3.50218 	-1.59535e-19 12.7585 	-3.56018 	-9.56029e-20 12.6644 	-3.62154 	-1.12987e-20 12.5695 	-3.68313 	7.25916e-20 12.4701 	-3.75072 	7.06101e-20 12.366 	-3.82299 	2.05622e-20 12.2713 	-3.89309 	4.56276e-19 12.1747 	-3.96424 	7.71479e-19 12.0713 	-4.03996 	4.09531e-19 11.967 	-4.11604 	3.98502e-20 11.8569 	-4.19562 	-5.19097e-19 11.8416 	-4.20748 	-6.00386e-19 11.8258 	-4.21934 	-6.39523e-19 11.8093 	-4.231