# vtk DataFile Version 2.0
track0
ASCII
DATASET POLYDATA
POINTS 10958 double
-0.0205 0.001 1e-05
-0.0202034 0.00100003 1e-05
-0.0199069 0.00100026 1e-05
-0.0196103 0.00100071 1e-05
-0.0193137 0.00100137 1e-05
-0.0190172 0.00100225 1e-05
-0.0187132 0.00100354 1e-05
-0.0184093 0.0010045 1e-05
-0.0181054 0.00100547 1e-05
-0.0178015 0.00100643 1e-05
-0.0174976 0.0010074 1e-05
-0.0172058 0.00100862 1e-05
-0.016914 0.00100938 1e-05
-0.0166222 0.00101009 1e-05
-0.0163305 0.00101075 1e-05
-0.0160387 0.00101134 1e-05
-0.0157586 0.00101218 1e-05
-0.0154784 0.00101258 1e-05
-0.0151983 0.00101294 1e-05
-0.0149182 0.00101326 1e-05
-0.0146381 0.00101353 1e-05
-0.0143692 0.00101408 1e-05
-0.0141002 0.00101422 1e-05
-0.0138313 0.00101432 1e-05
-0.0135624 0.00101438 1e-05
-0.0132934 0.00101441 1e-05
-0.0130353 0.00101476 1e-05
-0.0127771 0.00101469 1e-05
-0.0125189 0.0010146 1e-05
-0.0122607 0.00101448 1e-05
-0.0120025 0.00101433 1e-05
-0.0117547 0.00101453 1e-05
-0.0115068 0.00101431 1e-05
-0.0112589 0.00101407 1e-05
-0.0110111 0.0010138 1e-05
-0.0107632 0.00101351 1e-05
-0.0105252 0.00101363 1e-05
-0.0102873 0.00101329 1e-05
-0.0100493 0.00101293 1e-05
-0.00981133 0.00101255 1e-05
-0.00957337 0.00101215 1e-05
-0.00934491 0.0010122 1e-05
-0.00911645 0.00101176 1e-05
-0.008888 0.00101131 1e-05
-0.00865954 0.00101082 1e-05
-0.00843108 0.00101032 1e-05
-0.00821175 0.00101034 1e-05
-0.00799242 0.00100981 1e-05
-0.00777309 0.00100926 1e-05
-0.00755376 0.00100868 1e-05
-0.00733443 0.00100809 1e-05
-0.00712387 0.00100808 1e-05
-0.0069133 0.00100746 1e-05
-0.00670273 0.00100682 1e-05
-0.00649217 0.00100615 1e-05
-0.0062816 0.00100546 1e-05
-0.00607944 0.00100544 1e-05
-0.00587729 0.00100473 1e-05
-0.00567514 0.00100399 1e-05
-0.00547299 0.00100323 1e-05
-0.00527083 0.00100245 1e-05
-0.00507675 0.00100241 1e-05
-0.00488268 0.0010016 1e-05
-0.0046886 0.00100077 1e-05
-0.00449453 0.000999913 1e-05
-0.00430044 0.000999023 1e-05
-0.00411412 0.000998965 1e-05
-0.0039278 0.000998056 1e-05
-0.00374148 0.000997115 1e-05
-0.00355516 0.00099614 1e-05
-0.00336883 0.00099513 1e-05
-0.00318995 0.000995043 1e-05
-0.00301107 0.000994009 1e-05
-0.0028322 0.000992936 1e-05
-0.00265332 0.000991821 1e-05
-0.00247443 0.000990663 1e-05
-0.0023027 0.000990524 1e-05
-0.00213097 0.000989329 1e-05
-0.00195925 0.000988082 1e-05
-0.00178752 0.000986781 1e-05
-0.00161577 0.000985425 1e-05
-0.0014509 0.000985195 1e-05
-0.00128604 0.000983777 1e-05
-0.00112117 0.000982281 1e-05
-0.000956309 0.000980705 1e-05
-0.000791418 0.000979047 1e-05
-0.000633135 0.000978628 1e-05
-0.000474861 0.000976836 1e-05
-0.000316588 0.000974943 1e-05
-0.000158316 0.000972947 1e-05
0 0.000970845 1e-05
0.000105677 0.000970366 1e-05
0.000211345 0.000968829 1e-05
0.000317011 0.000967227 1e-05
0.000422677 0.000965561 1e-05
0.000528387 0.000963828 1e-05
0.000634886 0.00096322 1e-05
0.000741372 0.000961417 1e-05
0.000847857 0.000959569 1e-05
0.000954341 0.000957674 1e-05
0.00106088 0.000955831 1e-05
0.00116821 0.000955186 1e-05
0.00127552 0.000953416 1e-05
0.00138284 0.000951453 1e-05
0.00149015 0.000949459 1e-05
0.00159752 0.000947732 1e-05
0.00170568 0.00094712 1e-05
0.00181383 0.000945513 1e-05
0.00192198 0.000943558 1e-05
0.00203012 0.000941588 1e-05
0.00213833 0.000940051 1e-05
0.00224733 0.000939538 1e-05
0.00235632 0.000938148 1e-05
0.00246531 0.000936299 1e-05
0.0025743 0.000934449 1e-05
0.00268334 0.000933151 1e-05
0.00279319 0.000932783 1e-05
0.00290303 0.000931642 1e-05
0.00301287 0.000929969 1e-05
0.00312271 0.000928303 1e-05
0.00323259 0.000927268 1e-05
0.00334329 0.000927078 1e-05
0.00345399 0.0009262 1e-05
0.00356469 0.000924745 1e-05
0.00367538 0.000923305 1e-05
0.00378611 0.000922543 1e-05
0.00389767 0.000922553 1e-05
0.00400923 0.000921942 1e-05
0.00412079 0.000920729 1e-05
0.00423235 0.000919538 1e-05
0.00434393 0.000919046 1e-05
0.00445636 0.000919261 1e-05
0.00456879 0.000918907 1e-05
0.00468122 0.00091799 1e-05
0.00479365 0.000917103 1e-05
0.00490609 0.000916856 1e-05
0.0050194 0.000917259 1e-05
0.0051327 0.00091713 1e-05
0.00524601 0.000916475 1e-05
0.00535931 0.000915842 1e-05
0.00547262 0.000915792 1e-05
0.00558681 0.000916335 1e-05
0.005701 0.000916376 1e-05
0.00581518 0.000915919 1e-05
0.00592937 0.000915472 1e-05
0.00604356 0.000915551 1e-05
0.00615863 0.000916167 1e-05
0.00627371 0.000916306 1e-05
0.00638878 0.000915972 1e-05
0.00650386 0.000915635 1e-05
0.00661893 0.000915769 1e-05
0.0067349 0.000916385 1e-05
0.00685087 0.00091655 1e-05
0.00696684 0.000916268 1e-05
0.00708281 0.000915971 1e-05
0.00719878 0.000916094 1e-05
0.00731565 0.000916648 1e-05
0.00743252 0.000916779 1e-05
0.00754939 0.000916493 1e-05
0.00766627 0.000916184 1e-05
0.00778313 0.000916252 1e-05
0.00790091 0.000916704 1e-05
0.00801869 0.000916765 1e-05
0.00813648 0.00091644 1e-05
0.00825426 0.00091609 1e-05
0.00837203 0.000916079 1e-05
0.00849073 0.000916416 1e-05
0.00860943 0.000916392 1e-05
0.00872812 0.000916011 1e-05
0.00884682 0.000915606 1e-05
0.00896551 0.00091551 1e-05
0.00908513 0.000915731 1e-05
0.00920475 0.000915618 1e-05
0.00932437 0.000915173 1e-05
0.00944398 0.000914705 1e-05
0.0095636 0.000914519 1e-05
0.00968415 0.000914621 1e-05
0.0098047 0.00091441 1e-05
0.00992525 0.000913889 1e-05
0.0100458 0.000913342 1e-05
0.0101663 0.000913047 1e-05
0.0102878 0.000913008 1e-05
0.0104093 0.000912672 1e-05
0.0105308 0.000912043 1e-05
0.0106523 0.00091138 1e-05
0.0107738 0.000910933 1e-05
0.0108962 0.000910704 1e-05
0.0110186 0.000910189 1e-05
0.0111411 0.000909392 1e-05
0.0112635 0.000908548 1e-05
0.0113859 0.000907876 1e-05
0.0115093 0.000907378 1e-05
0.0116327 0.000906602 1e-05
0.0117561 0.00090557 1e-05
0.0118794 0.000904475 1e-05
0.0120028 0.000903484 1e-05
0.0121272 0.000902616 1e-05
0.0122515 0.000901475 1e-05
0.0123758 0.000900105 1e-05
0.0125002 0.00089865 1e-05
0.0126245 0.000897234 1e-05
0.0127498 0.000895891 1e-05
0.0128752 0.000894282 1e-05
0.0130005 0.000892468 1e-05
0.0131258 0.000890551 1e-05
0.0132511 0.000888611 1e-05
0.0133774 0.000886697 1e-05
0.0135036 0.000884524 1e-05
0.0136299 0.00088217 1e-05
0.0137562 0.000879696 1e-05
0.0138825 0.000877147 1e-05
0.0140098 0.000874582 1e-05
0.014137 0.000871767 1e-05
0.0142643 0.000868792 1e-05
0.0143915 0.000865687 1e-05
0.0145188 0.000862461 1e-05
0.0146471 0.000859183 1e-05
0.0147753 0.000855664 1e-05
0.0149036 0.000852003 1e-05
0.0150318 0.000848202 1e-05
0.0151601 0.000844259 1e-05
0.0152893 0.000840215 1e-05
0.0154186 0.000835959 1e-05
0.0155478 0.000831552 1e-05
0.015677 0.000826994 1e-05
0.0158063 0.000822284 1e-05
0.0159366 0.000817418 1e-05
0.0160668 0.000812359 1e-05
0.0161971 0.000807135 1e-05
0.0163273 0.000801747 1e-05
0.0164576 0.000796192 1e-05
0.0164887 0.000794828 1e-05
0.0165198 0.000793453 1e-05
0.0165509 0.000792068 1e-05
0.0165819 0.000790673 1e-05
0.016611 0.000789358 1e-05
0.0167116 0.000784778 1e-05
0.0168122 0.000780091 1e-05
0.0169128 0.000775297 1e-05
0.0170133 0.000770396 1e-05
0.0171139 0.000765386 1e-05
0.0172462 0.000758645 1e-05
0.0173785 0.000751713 1e-05
0.0175108 0.000744578 1e-05
0.017643 0.000737238 1e-05
0.0177754 0.000729688 1e-05
0.0179087 0.000721851 1e-05
0.018042 0.00071381 1e-05
0.0181753 0.00070554 1e-05
0.0183086 0.000697041 1e-05
0.018442 0.000688299 1e-05
0.0185763 0.000679241 1e-05
0.0187107 0.000669943 1e-05
0.018845 0.0006604 1e-05
0.0189793 0.000650604 1e-05
0.0191137 0.000640534 1e-05
0.0192491 0.000630123 1e-05
0.0193845 0.000619439 1e-05
0.0195199 0.000608484 1e-05
0.0196552 0.000597253 1e-05
0.0197907 0.000585724 1e-05
0.0199272 0.00057383 1e-05
0.0200636 0.000561634 1e-05
0.0202 0.000549135 1e-05
0.0203364 0.000536341 1e-05
0.020473 0.000523223 1e-05
0.0206105 0.000509714 1e-05
0.020748 0.000495875 1e-05
0.0208854 0.000481712 1e-05
0.0210228 0.000467227 1e-05
0.0211606 0.000452383 1e-05
0.0212488 0.000442663 1e-05
0.021337 0.000432799 1e-05
0.0214252 0.000422792 1e-05
0.0215134 0.000412644 1e-05
0.0215897 0.000403737 1e-05
0.0216424 0.000397503 1e-05
0.0216952 0.000391219 1e-05
0.0217479 0.000384883 1e-05
0.0218007 0.000378496 1e-05
0.0218535 0.000372051 1e-05
0.0219931 0.000354863 1e-05
0.0221327 0.000337296 1e-05
0.0222723 0.000319346 1e-05
0.0224118 0.000301011 1e-05
0.0225517 0.000282223 1e-05
0.0226925 0.000262916 1e-05
0.0228332 0.000243185 1e-05
0.0229738 0.000223032 1e-05
0.0231144 0.000202447 1e-05
0.0232555 0.000181324 1e-05
0.0233973 0.000159624 1e-05
0.0235391 0.000137439 1e-05
0.0236808 0.000114767 1e-05
0.0238224 9.15922e-05 1e-05
0.0239647 6.77808e-05 1e-05
0.0240439 5.42247e-05 1e-05
0.0241231 4.05e-05 1e-05
0.0242023 2.65955e-05 1e-05
0.0242815 1.25088e-05 1e-05
0.0243508 0 1e-05
0.0244165 -1.19905e-05 1e-05
0.0244822 -2.41033e-05 1e-05
0.0245479 -3.63388e-05 1e-05
0.0246135 -4.86973e-05 1e-05
0.0246794 -6.12241e-05 1e-05
0.0248234 -8.8929e-05 1e-05
0.0249673 -0.000117312 1e-05
0.0251111 -0.000146374 1e-05
0.0252548 -0.000176121 1e-05
0.0253996 -0.000206902 1e-05
0.0255448 -0.000238572 1e-05
0.0256898 -0.000271075 1e-05
0.0258346 -0.000304418 1e-05
0.0259792 -0.000338642 1e-05
0.0261255 -0.000374224 1e-05
0.0261738 -0.000386278 1e-05
0.026222 -0.000398435 1e-05
0.0262702 -0.000410708 1e-05
0.0263184 -0.000423108 1e-05
0.0263621 -0.000434482 1e-05
0.0264611 -0.000460492 1e-05
0.0265599 -0.000486998 1e-05
0.0266587 -0.000514003 1e-05
0.0267572 -0.000541511 1e-05
0.026857 -0.00056995 1e-05
0.0270044 -0.000612943 1e-05
0.0271515 -0.000657341 1e-05
0.027298 -0.000703161 1e-05
0.0274441 -0.000750653 1e-05
0.0275942 -0.000801657 1e-05
0.0276572 -0.000824066 1e-05
0.0277202 -0.000846871 1e-05
0.0277829 -0.000870068 1e-05
0.0278455 -0.00089365 1e-05
0.0278976 -0.000913639 1e-05
0.0279855 -0.000947891 1e-05
0.0280731 -0.000982931 1e-05
0.0281604 -0.00101876 1e-05
0.0282473 -0.00105539 1e-05
0.0283371 -0.00109429 1e-05
0.0284869 -0.00116106 1e-05
0.0286352 -0.0012308 1e-05
0.0287822 -0.00130351 1e-05
0.0289279 -0.00137869 1e-05
0.0290372 -0.00143757 1e-05
0.0290469 -0.00144298 1e-05
0.0290567 -0.0014484 1e-05
0.0290664 -0.00145383 1e-05
0.0290761 -0.00145928 1e-05
[...]
POINT_DATA 10958
 FIELD attributes 2
p 1 10958 float
1.28176 1.23166 1.1716 1.11097 1.04979 0.924476 0.851173 0.771146 0.691119 0.611092 0.525851 0.521517 0.500835 0.480207 0.459632 0.427315 0.437733 0.428365 0.419064 0.40983 0.384254 0.387879 0.374269 0.360714 0.347216 0.317538 0.321636 0.309337 0.297085 0.284882 0.255804 0.262461 0.252016 0.241612 0.231249 0.202101 0.210242 0.199854 0.189504 0.179193 0.147647 0.15753 0.146818 0.136144 0.125508 0.0907092 0.103179 0.0922876 0.0814354 0.0706233 0.032097 0.0476616 0.0364233 0.0252266 0.0140725 -0.0290087 -0.010146 -0.0221865 -0.0341818 -0.0461307 -0.0949393 -0.0725657 -0.0857588 -0.0989007 -0.11199 -0.167523 -0.14116 -0.155798 -0.170376 -0.184892 -0.248415 -0.217647 -0.233929 -0.250138 -0.266271 -0.339005 -0.302779 -0.320637 -0.338401 -0.356067 -0.43998 -0.396198 -0.413701 -0.431068 -0.448297 -0.543989 -0.479162 -0.482726 -0.486133 -0.489378 -0.58076 -0.449419 -0.428064 -0.406583 -0.384973 -0.49002 -0.325067 -0.29011 -0.255059 -0.229944 -0.320659 -0.182571 -0.131692 -0.0962144 -0.0865819 -0.151149 -0.0446193 0.011154 0.0405917 0.0354271 -0.0153339 0.0626944 0.112068 0.129675 0.105249 0.0521557 0.103183 0.139503 0.142042 0.0976908 0.0373118 0.0676389 0.0917603 0.0806637 0.019565 -0.048204 -0.0326746 -0.0177503 -0.040736 -0.116268 -0.191959 -0.188416 -0.184757 -0.219787 -0.303127 -0.38651 -0.393213 -0.399885 -0.444502 -0.534192 -0.623832 -0.639129 -0.65447 -0.706719 -0.800794 -0.89475 -0.917228 -0.939812 -0.997763 -1.09412 -1.19031 -1.21857 -1.24699 -1.30884 -1.40561 -1.50219 -1.53482 -1.56763 -1.63191 -1.72794 -1.82377 -1.85954 -1.89552 -1.96144 -2.05671 -2.15177 -2.19027 -2.22899 -2.2965 -2.39152 -2.48633 -2.52786 -2.56962 -2.6391 -2.73438 -2.82946 -2.87452 -2.91981 -2.9918 -3.08776 -3.18352 -3.23257 -3.28186 -3.35671 -3.4533 -3.54973 -3.60284 -3.65619 -3.73388 -3.83038 -3.92687 -3.98356 -4.04256 -4.12187 -4.21519 -4.31044 -4.3694 -4.43295 -4.51203 -4.60114 -4.69382 -4.75359 -4.81989 -4.89707 -4.98074 -5.06932 -5.12821 -5.19513 -5.26872 -5.34579 -5.42882 -5.48493 -5.55049 -5.61929 -5.68918 -5.76604 -5.81844 -5.88119 -5.94422 -6.00743 -6.07589 -6.12552 -6.1817 -6.23808 -6.29466 -6.35382 -6.39923 -6.44782 -6.49662 -6.54564 -6.59526 -6.60421 -6.61361 -6.62302 -6.63245 -6.64127 -6.67292 -6.70473 -6.73671 -6.76884 -6.79816 -6.83313 -6.8647 -6.89658 -6.92879 -6.95329 -6.98317 -7.00367 -7.02452 -7.04285 -7.05294 -7.07111 -7.08532 -7.09365 -7.0927 -7.08962 -7.09379 -7.09836 -7.09152 -7.07346 -7.05579 -7.04444 -7.03307 -7.00924 -6.97752 -6.9436 -6.91502 -6.87652 -6.83481 -6.79355 -6.74449 -6.712 -6.67219 -6.63259 -6.59319 -6.55928 -6.53825 -6.51732 -6.49648 -6.47574 -6.4492 -6.37809 -6.29996 -6.22255 -6.14152 -6.04735 -5.95894 -5.87126 -5.76513 -5.64419 -5.52355 -5.40535 -5.28259 -5.14501 -5.0058 -4.85273 -4.76717 -4.66956 -4.57027 -4.4713 -4.38483 -4.3098 -4.23505 -4.1606 -4.08442 -3.99888 -3.8107 -3.60102 -3.39196 -3.16293 -2.92709 -2.68161 -2.43532 -2.16375 -1.89091 -1.59672 -1.49322 -1.38131 -1.26206 -1.14314 -1.03549 -0.821094 -0.608547 -0.397869 -0.176569 0.0608468 0.427739 0.789552 1.1946 1.64876 2.10869 2.31964 2.52664 2.72484 2.92118 3.08331 3.33389 3.58007 3.82178 4.07615 4.33939 4.81787 5.27739 5.59531 5.89701 6.11269 6.13515 6.15752 6.17948 6.19886 6.21832 6.55021 6.83209 7.04862 7.1311 7.21138 7.2279 7.24411 7.23941 7.21968 7.20042 7.31324 7.41727 7.45422 7.37665 7.28128 7.2706 7.25961 7.22818 7.17115 7.11559 7.1188 7.11853 7.01129 6.79154 6.54248 6.51279 6.48301 6.44731 6.40083 6.35509 6.19486 6.03303 5.80152 5.51492 5.19821 5.18748 5.17675 5.16558 5.15342 5.14131 4.8974 4.65239 4.38696 4.10545 3.84131 3.82642 3.81153 3.79622 3.78062 3.76497 3.55753 3.34912 3.149 2.96214 2.78243 2.75268 2.72293 2.69727 2.67492 2.65255 2.52243 2.39216 2.27954 2.18995 2.10106 2.08129 2.06155 2.04689 2.03833 2.02991 1.97127 1.91293 1.8752 1.8546 1.83396 1.83215 1.83036 1.83076 1.83648 1.84215 1.84046 1.83945 1.86534 1.90555 1.94379 1.9445 1.94521 1.94752 1.95021 1.95291 1.9982 2.04421 2.0922 2.14471 2.1925 2.2118 2.2312 2.25131 2.27162 2.29285 2.33146 2.37043 2.41112 2.46754 2.51999 2.56822 2.61705 2.68605 2.7554 2.83432 2.8436 2.85289 2.86218 2.87035 2.87823 2.96096 3.04059 3.1198 3.1871 3.24845 3.3072 3.36329 3.4126 3.46209 3.51836 3.53498 3.55162 3.56828 3.58804 3.60947 3.6676 3.73282 3.79872 3.8848 3.96623 4.02073 4.08387 4.15823 4.23254 4.30603 4.31182 4.31896 4.32693 4.3349 4.34304 4.40618 4.46926 4.53228 4.5867 4.62497 4.70548 4.78606 4.8469 4.88839 4.92863 5.00666 5.06553 5.11758 5.16969 5.21881 5.22354 5.22692 5.23003 5.23314 5.23628 5.28348 5.33073 5.37802 5.42927 5.50076 5.53378 5.56785 5.6214 5.69712 5.77135 5.80209 5.83936 5.89709 5.9587 6.03145 6.05168 6.09062 6.13007 6.16949 6.21263 6.22813 6.24363 6.25913 6.27461 6.27979 6.34433 6.39866 6.45292 6.49743 6.51415 6.58947 6.66479 6.71026 6.72565 6.7409 6.81495 6.8838 6.92087 6.94661 6.96046 7.03169 7.06775 7.10386 7.14002 7.17321 7.17932 7.18254 7.18576 7.18898 7.19222 7.22432 7.25645 7.28863 7.32084 7.38496 7.39111 7.42136 7.45597 7.51545 7.59127 7.59624 7.60108 7.64154 7.7172 7.79214 7.79606 7.80698 7.85246 7.91389 7.9881 7.99102 8.03283 8.07743 8.122 8.1796 8.1847 8.20303 8.22136 8.23969 8.25891 8.28424 8.30957 8.33489 8.3602 8.36368 8.42842 8.47159 8.51474 8.54924 8.54176 8.61953 8.68504 8.72749 8.72452 8.71641 8.79342 8.87045 8.90484 8.89634 8.88767 8.96396 9.02433 9.05091 9.06478 9.0556 9.13103 9.15735 9.18375 9.21022 9.22023 9.25092 9.265 9.2791 9.29322 9.30754 9.31965 9.33178 9.34392 9.35607 9.38455 9.39414 9.42024 9.4464 9.47263 9.54891 9.5305 9.55029 9.57633 9.62755 9.71001 9.69129 9.67917 9.7051 9.78648 9.86814 9.84913 9.82982 9.86113 9.9427 10.0237 10.0044 9.98598 10.0216 10.0965 10.1769 10.1573 10.1662 10.2016 10.2482 10.328 10.3087 10.3439 10.3791 10.4143 10.4773 10.4839 10.5179 10.5519 10.5859 10.6251 10.6252 10.6254 10.6256 10.6259 10.6261 10.6607 10.6954 10.7301 10.7648 10.7684 10.8335 10.8683 10.9031 10.9371 10.9103 10.993 11.0405 11.0753 11.0777 11.0507 11.1328 11.2105 11.2434 11.2168 11.1897 11.2712 11.3528 11.3807 11.3541 11.3269 11.4078 11.4889 11.5103 11.4898 11.4625 11.5429 11.5968 11.6181 11.6235 11.5963 11.676 11.7049 11.7265 11.7481 11.7282 11.7921 11.8138 11.8357 11.8576 11.8583 11.9017 11.9237 11.9458 11.9679 11.9866 11.9948 11.9995 12.0042 12.0089 12.0136 12.0311 12.0486 12.0661 12.0837 12.1159 12.1234 12.1458 12.1682 12.1906 12.2439 12.2351 12.2576 12.2801 12.3027 12.3701 12.3472 12.3698 12.3924 12.415 12.4947 12.4596 12.4822 12.5049 12.5313 12.6177 12.5807 12.5946 12.6174 12.6536 12.7396 12.7026 12.7069 12.7297 12.7748 12.8602 12.8235 12.8191 12.8419 12.8949 12.9798 12.9432 12.931 12.9538 13.014 13.0984 13.0619 13.0428 13.0656 13.132 13.216 13.1796 13.1542 13.177 13.2491 13.3326 13.2964 13.2654 13.2882 13.3652 13.4482 13.4122 13.3763 13.3991 13.4804 13.563 13.5271 13.4905 13.513 13.5948 13.6769 13.6411 13.6047 13.627 13.7083 13.7901 13.7544 13.718 13.7402 13.8211 13.9024 13.8668 13.8306 13.8526 13.933 14.0139 13.9784 13.9423 13.9641 14.0441 14.1245 14.0891 14.0532 14.0748 14.1544 14.2344 14.1991 14.1632 14.1846 14.2638 14.3433 14.3081 14.2723 14.2936 14.3723 14.4514 14.4162 14.3805 14.4016 14.4798 14.5585 14.5234 14.4878 14.5087 14.5865 14.6647 14.6297 14.594 14.6147 14.6921 14.7699 14.7349 14.6993 14.7198 14.7967 14.874 14.8391 14.8036 14.8238 14.9003 14.9771 14.9422 14.9067 14.9268 15.0027 15.0791 15.0442 15.0087 15.0285 15.104 15.1799 15.145 15.1095 15.1291 15.2041 15.2795 15.2446 15.2091 15.2284 15.3029 15.3778 15.3428 15.3073 15.3264 15.4003 15.4747 15.4398 15.4042 15.423 15.4964 15.5703 15.5353 15.4997 15.5182 15.591 15.6644 15.6293 15.5937 15.6118 15.6842 15.7569 15.7218 15.6861 15.7039 15.7757 15.8479 15.8127 15.777 15.7944 15.8656 15.9372 15.9019 15.8674 15.8837 15.9538 16.0248 15.9894 15.956 15.972 16.0402 16.1107 16.0751 16.0428 16.0585 16.1249 16.1948 16.159 16.1277 16.1431 16.2076 16.2769 16.241 16.2107 16.2257 16.2884 16.3571 16.321 16.2917 16.3062 16.3673 16.4353 16.399 16.3705 16.3847 16.444 16.5114 16.4749 16.4472 16.461 16.5186 16.5854 16.5486 16.5218 16.5351 16.5911 16.6572 16.6202 16.594 16.6069 16.6613 16.7268 16.6895 16.6639 16.6764 16.7293 16.7941 16.7566 16.7315 16.7435 16.795 16.8592 16.8214 16.7967 16.8082 16.8584 16.9219 16.8839 16.8594 16.8705 16.9195 16.9823 16.944 16.9197 16.9303 16.9783 17.0404 17.0018 16.9775 16.9876 17.0346 17.0962 17.0573 17.0328 17.0423 17.0887 17.1496 17.1104 17.0856 17.0946 17.1404 17.2007 17.1612 17.1358 17.1443 17.1898 17.2495 17.2097 17.1835 17.1916 17.237 17.2961 17.2559 17.2288 17.2363 17.2819 17.3405 17.3 17.2717 17.2787 17.3247 17.3828 17.342 17.3121 17.3186 17.3655 17.423 17.3819 17.3503 17.3563 17.4043 17.4614 17.42 17.3862 17.3917 17.4413 17.4981 17.4564 17.42 17.4251 17.4767 17.5331 17.4912 17.4519 17.4566 17.5107 17.5669 17.5248 17.4821 17.4882 17.5436 17.5996 17.5573 17.5145 17.5205 17.5758 17.6317 17.5894 17.5465 17.5525 17.6078 17.6636 17.6215 17.5787 17.5847 17.6401 17.6962 17.6542 17.6117 17.618 17.6737 17.73 17.6885 17.6463 17.6531 17.7094 17.7664 17.7256 17.6841 17.6916 17.7486 17.8063 17.7664 17.7258 17.7345 17.7931 17.8525 17.8143 17.7755 17.7854 17.8451 17.9055 17.868 17.8331 17.8489 17.9067 17.9721 17.9376 17.9161 17.9338 17.9823 18.0495 18.0138 18.0064 18.0298 18.0742 18.1549 18.1301 18.1385 18.1582 18.1803 18.2481 18.2146 18.2364 18.2582 18.2802 18.3422 18.3253 18.3049 18.2839 18.2624 18.2358 18.0991 18.0148 17.9366 17.8704 17.8442 17.7159 17.6282 17.5654 17.5305 17.5319 17.4337 17.3541 17.2996 17.2728 17.2652 17.16 17.0669 17.0046 16.9731 16.9548 16.8412 16.7366 16.6694 16.6381 16.6172 16.5025 16.3943 16.3246 16.2915 16.267 16.1489 16.0364 15.9624 15.9244 15.8944 15.7704 15.6525 15.5727 15.5276 15.4915 15.3604 15.2374 15.1513 15.098 15.056 14.9177 14.7908 14.6978 14.6335 14.5841 14.4371 14.3061 14.2052 14.1284 14.0715 13.9154 13.7809 13.6707 13.5783 13.5114 13.3438 13.2056 13.0856 12.9767 12.9013 12.7235 12.5816 12.4495 12.3199 12.2303 12.0363 11.8917 11.7482 11.6046 11.5008 11.3048 11.1444 10.9841 10.8236 10.6896 10.4809 10.3089 10.1369 9.9648 9.81738 9.60457 9.40675 9.20892 9.01108 8.82259 8.59453 8.38915 8.18363 7.97799 7.78273 7.52991 7.27658 7.02328 6.77001 6.51665 6.46762 6.4217 6.37576 6.32981 6.28696 6.0906 5.89435 5.69821 5.50217 5.30928 4.9803 4.63238 4.28441 3.9364 3.55667 3.25965 3.00332 2.74902 2.49661 2.28384 1.89887 1.42244 0.941313 0.471026 0.382523 0.294174 0.205977 0.117929 0