# vtk DataFile Version 2.0
track0
ASCII
DATASET POLYDATA
POINTS 10958 double
-0.0205 0.001 1e-05
-0.0202034 0.00100003 1e-05
-0.0199069 0.00100026 1e-05
-0.0196103 0.00100071 1e-05
-0.0193137 0.00100137 1e-05
-0.0190172 0.00100225 1e-05
-0.0187132 0.00100354 1e-05
-0.0184093 0.0010045 1e-05
-0.0181054 0.00100547 1e-05
-0.0178015 0.00100643 1e-05
-0.0174976 0.0010074 1e-05
-0.0172058 0.00100862 1e-05
-0.016914 0.00100938 1e-05
-0.0166222 0.00101009 1e-05
-0.0163305 0.00101075 1e-05
-0.0160387 0.00101134 1e-05
-0.0157586 0.00101218 1e-05
-0.0154784 0.00101258 1e-05
-0.0151983 0.00101294 1e-05
-0.0149182 0.00101326 1e-05
-0.0146381 0.00101353 1e-05
-0.0143692 0.00101408 1e-05
-0.0141002 0.00101422 1e-05
-0.0138313 0.00101432 1e-05
-0.0135624 0.00101438 1e-05
-0.0132934 0.00101441 1e-05
-0.0130353 0.00101476 1e-05
-0.0127771 0.00101469 1e-05
-0.0125189 0.0010146 1e-05
-0.0122607 0.00101448 1e-05
-0.0120025 0.00101433 1e-05
-0.0117547 0.00101453 1e-05
-0.0115068 0.00101431 1e-05
-0.0112589 0.00101407 1e-05
-0.0110111 0.0010138 1e-05
-0.0107632 0.00101351 1e-05
-0.0105252 0.00101363 1e-05
-0.0102873 0.00101329 1e-05
-0.0100493 0.00101293 1e-05
-0.00981133 0.00101255 1e-05
-0.00957337 0.00101215 1e-05
-0.00934491 0.0010122 1e-05
-0.00911645 0.00101176 1e-05
-0.008888 0.00101131 1e-05
-0.00865954 0.00101082 1e-05
-0.00843108 0.00101032 1e-05
-0.00821175 0.00101034 1e-05
-0.00799242 0.00100981 1e-05
-0.00777309 0.00100926 1e-05
-0.00755376 0.00100868 1e-05
-0.00733443 0.00100809 1e-05
-0.00712387 0.00100808 1e-05
-0.0069133 0.00100746 1e-05
-0.00670273 0.00100682 1e-05
-0.00649217 0.00100615 1e-05
-0.0062816 0.00100546 1e-05
-0.00607944 0.00100544 1e-05
-0.00587729 0.00100473 1e-05
-0.00567514 0.00100399 1e-05
-0.00547299 0.00100323 1e-05
-0.00527083 0.00100245 1e-05
-0.00507675 0.00100241 1e-05
-0.00488268 0.0010016 1e-05
-0.0046886 0.00100077 1e-05
-0.00449453 0.000999913 1e-05
-0.00430044 0.000999023 1e-05
-0.00411412 0.000998965 1e-05
-0.0039278 0.000998056 1e-05
-0.00374148 0.000997115 1e-05
-0.00355516 0.00099614 1e-05
-0.00336883 0.00099513 1e-05
-0.00318995 0.000995043 1e-05
-0.00301107 0.000994009 1e-05
-0.0028322 0.000992936 1e-05
-0.00265332 0.000991821 1e-05
-0.00247443 0.000990663 1e-05
-0.0023027 0.000990524 1e-05
-0.00213097 0.000989329 1e-05
-0.00195925 0.000988082 1e-05
-0.00178752 0.000986781 1e-05
-0.00161577 0.000985425 1e-05
-0.0014509 0.000985195 1e-05
-0.00128604 0.000983777 1e-05
-0.00112117 0.000982281 1e-05
-0.000956309 0.000980705 1e-05
-0.000791418 0.000979047 1e-05
-0.000633135 0.000978628 1e-05
-0.000474861 0.000976836 1e-05
-0.000316588 0.000974943 1e-05
-0.000158316 0.000972947 1e-05
0 0.000970845 1e-05
0.000105677 0.000970366 1e-05
0.000211345 0.000968829 1e-05
0.000317011 0.000967227 1e-05
0.000422677 0.000965561 1e-05
0.000528387 0.000963828 1e-05
0.000634886 0.00096322 1e-05
0.000741372 0.000961417 1e-05
0.000847857 0.000959569 1e-05
0.000954341 0.000957674 1e-05
0.00106088 0.000955831 1e-05
0.00116821 0.000955186 1e-05
0.00127552 0.000953416 1e-05
0.00138284 0.000951453 1e-05
0.00149015 0.000949459 1e-05
0.00159752 0.000947732 1e-05
0.00170568 0.00094712 1e-05
0.00181383 0.000945513 1e-05
0.00192198 0.000943558 1e-05
0.00203012 0.000941588 1e-05
0.00213833 0.000940051 1e-05
0.00224733 0.000939538 1e-05
0.00235632 0.000938148 1e-05
0.00246531 0.000936299 1e-05
0.0025743 0.000934449 1e-05
0.00268334 0.000933151 1e-05
0.00279319 0.000932783 1e-05
0.00290303 0.000931642 1e-05
0.00301287 0.000929969 1e-05
0.00312271 0.000928303 1e-05
0.00323259 0.000927268 1e-05
0.00334329 0.000927078 1e-05
0.00345399 0.0009262 1e-05
0.00356469 0.000924745 1e-05
0.00367538 0.000923305 1e-05
0.00378611 0.000922543 1e-05
0.00389767 0.000922553 1e-05
0.00400923 0.000921942 1e-05
0.00412079 0.000920729 1e-05
0.00423235 0.000919538 1e-05
0.00434393 0.000919046 1e-05
0.00445636 0.000919261 1e-05
0.00456879 0.000918907 1e-05
0.00468122 0.00091799 1e-05
0.00479365 0.000917103 1e-05
0.00490609 0.000916856 1e-05
0.0050194 0.000917259 1e-05
0.0051327 0.00091713 1e-05
0.00524601 0.000916475 1e-05
0.00535931 0.000915842 1e-05
0.00547262 0.000915792 1e-05
0.00558681 0.000916335 1e-05
0.005701 0.000916376 1e-05
0.00581518 0.000915919 1e-05
0.00592937 0.000915472 1e-05
0.00604356 0.000915551 1e-05
0.00615863 0.000916167 1e-05
0.00627371 0.000916306 1e-05
0.00638878 0.000915972 1e-05
0.00650386 0.000915635 1e-05
0.00661893 0.000915769 1e-05
0.0067349 0.000916385 1e-05
0.00685087 0.00091655 1e-05
0.00696684 0.000916268 1e-05
0.00708281 0.000915971 1e-05
0.00719878 0.000916094 1e-05
0.00731565 0.000916648 1e-05
0.00743252 0.000916779 1e-05
0.00754939 0.000916493 1e-05
0.00766627 0.000916184 1e-05
0.00778313 0.000916252 1e-05
0.00790091 0.000916704 1e-05
0.00801869 0.000916765 1e-05
0.00813648 0.00091644 1e-05
0.00825426 0.00091609 1e-05
0.00837203 0.000916079 1e-05
0.00849073 0.000916416 1e-05
0.00860943 0.000916392 1e-05
0.00872812 0.000916011 1e-05
0.00884682 0.000915606 1e-05
0.00896551 0.00091551 1e-05
0.00908513 0.000915731 1e-05
0.00920475 0.000915618 1e-05
0.00932437 0.000915173 1e-05
0.00944398 0.000914705 1e-05
0.0095636 0.000914519 1e-05
0.00968415 0.000914621 1e-05
0.0098047 0.00091441 1e-05
0.00992525 0.000913889 1e-05
0.0100458 0.000913342 1e-05
0.0101663 0.000913047 1e-05
0.0102878 0.000913008 1e-05
0.0104093 0.000912672 1e-05
0.0105308 0.000912043 1e-05
0.0106523 0.00091138 1e-05
0.0107738 0.000910933 1e-05
0.0108962 0.000910704 1e-05
0.0110186 0.000910189 1e-05
0.0111411 0.000909392 1e-05
0.0112635 0.000908548 1e-05
0.0113859 0.000907876 1e-05
0.0115093 0.000907378 1e-05
0.0116327 0.000906602 1e-05
0.0117561 0.00090557 1e-05
0.0118794 0.000904475 1e-05
0.0120028 0.000903484 1e-05
0.0121272 0.000902616 1e-05
0.0122515 0.000901475 1e-05
0.0123758 0.000900105 1e-05
0.0125002 0.00089865 1e-05
0.0126245 0.000897234 1e-05
0.0127498 0.000895891 1e-05
0.0128752 0.000894282 1e-05
0.0130005 0.000892468 1e-05
0.0131258 0.000890551 1e-05
0.0132511 0.000888611 1e-05
0.0133774 0.000886697 1e-05
0.0135036 0.000884524 1e-05
0.0136299 0.00088217 1e-05
0.0137562 0.000879696 1e-05
0.0138825 0.000877147 1e-05
0.0140098 0.000874582 1e-05
0.014137 0.000871767 1e-05
0.0142643 0.000868792 1e-05
0.0143915 0.000865687 1e-05
0.0145188 0.000862461 1e-05
0.0146471 0.000859183 1e-05
0.0147753 0.000855664 1e-05
0.0149036 0.000852003 1e-05
0.0150318 0.000848202 1e-05
0.0151601 0.000844259 1e-05
0.0152893 0.000840215 1e-05
0.0154186 0.000835959 1e-05
0.0155478 0.000831552 1e-05
0.015677 0.000826994 1e-05
0.0158063 0.000822284 1e-05
0.0159366 0.000817418 1e-05
0.0160668 0.000812359 1e-05
0.0161971 0.000807135 1e-05
0.0163273 0.000801747 1e-05
0.0164576 0.000796192 1e-05
0.0164887 0.000794828 1e-05
0.0165198 0.000793453 1e-05
0.0165509 0.000792068 1e-05
0.0165819 0.000790673 1e-05
0.016611 0.000789358 1e-05
0.0167116 0.000784778 1e-05
0.0168122 0.000780091 1e-05
0.0169128 0.000775297 1e-05
0.0170133 0.000770396 1e-05
0.0171139 0.000765386 1e-05
0.0172462 0.000758645 1e-05
0.0173785 0.000751713 1e-05
0.0175108 0.000744578 1e-05
0.017643 0.000737238 1e-05
0.0177754 0.000729688 1e-05
0.0179087 0.000721851 1e-05
0.018042 0.00071381 1e-05
0.0181753 0.00070554 1e-05
0.0183086 0.000697041 1e-05
0.018442 0.000688299 1e-05
0.0185763 0.000679241 1e-05
0.0187107 0.000669943 1e-05
0.018845 0.0006604 1e-05
0.0189793 0.000650604 1e-05
0.0191137 0.000640534 1e-05
0.0192491 0.000630123 1e-05
0.0193845 0.000619439 1e-05
0.0195199 0.000608484 1e-05
0.0196552 0.000597253 1e-05
0.0197907 0.000585724 1e-05
0.0199272 0.00057383 1e-05
0.0200636 0.000561634 1e-05
0.0202 0.000549135 1e-05
0.0203364 0.000536341 1e-05
0.020473 0.000523223 1e-05
0.0206105 0.000509714 1e-05
0.020748 0.000495875 1e-05
0.0208854 0.000481712 1e-05
0.0210228 0.000467227 1e-05
0.0211606 0.000452383 1e-05
0.0212488 0.000442663 1e-05
0.021337 0.000432799 1e-05
0.0214252 0.000422792 1e-05
0.0215134 0.000412644 1e-05
0.0215897 0.000403737 1e-05
0.0216424 0.000397503 1e-05
0.0216952 0.000391219 1e-05
0.0217479 0.000384883 1e-05
0.0218007 0.000378496 1e-05
0.0218535 0.000372051 1e-05
0.0219931 0.000354863 1e-05
0.0221327 0.000337296 1e-05
0.0222723 0.000319346 1e-05
0.0224118 0.000301011 1e-05
0.0225517 0.000282223 1e-05
0.0226925 0.000262916 1e-05
0.0228332 0.000243185 1e-05
0.0229738 0.000223032 1e-05
0.0231144 0.000202447 1e-05
0.0232555 0.000181324 1e-05
0.0233973 0.000159624 1e-05
0.0235391 0.000137439 1e-05
0.0236808 0.000114767 1e-05
0.0238224 9.15922e-05 1e-05
0.0239647 6.77808e-05 1e-05
0.0240439 5.42247e-05 1e-05
0.0241231 4.05e-05 1e-05
0.0242023 2.65955e-05 1e-05
0.0242815 1.25088e-05 1e-05
0.0243508 0 1e-05
0.0244165 -1.19905e-05 1e-05
0.0244822 -2.41033e-05 1e-05
0.0245479 -3.63388e-05 1e-05
0.0246135 -4.86973e-05 1e-05
0.0246794 -6.12241e-05 1e-05
0.0248234 -8.8929e-05 1e-05
0.0249673 -0.000117312 1e-05
0.0251111 -0.000146374 1e-05
0.0252548 -0.000176121 1e-05
0.0253996 -0.000206902 1e-05
0.0255448 -0.000238572 1e-05
0.0256898 -0.000271075 1e-05
0.0258346 -0.000304418 1e-05
0.0259792 -0.000338642 1e-05
0.0261255 -0.000374224 1e-05
0.0261738 -0.000386278 1e-05
0.026222 -0.000398435 1e-05
0.0262702 -0.000410708 1e-05
0.0263184 -0.000423108 1e-05
0.0263621 -0.000434482 1e-05
0.0264611 -0.000460492 1e-05
0.0265599 -0.000486998 1e-05
0.0266587 -0.000514003 1e-05
0.0267572 -0.000541511 1e-05
0.026857 -0.00056995 1e-05
0.0270044 -0.000612943 1e-05
0.0271515 -0.000657341 1e-05
0.027298 -0.000703161 1e-05
0.0274441 -0.000750653 1e-05
0.0275942 -0.000801657 1e-05
0.0276572 -0.000824066 1e-05
0.0277202 -0.000846871 1e-05
0.0277829 -0.000870068 1e-05
0.0278455 -0.00089365 1e-05
0.0278976 -0.000913639 1e-05
0.0279855 -0.000947891 1e-05
0.0280731 -0.000982931 1e-05
0.0281604 -0.00101876 1e-05
0.0282473 -0.00105539 1e-05
0.0283371 -0.00109429 1e-05
0.0284869 -0.00116106 1e-05
0.0286352 -0.0012308 1e-05
0.0287822 -0.00130351 1e-05
0.0289279 -0.00137869 1e-05
0.0290372 -0.00143757 1e-05
0.0290469 -0.00144298 1e-05
0.0290567 -0.0014484 1e-05
0.0290664 -0.00145383 1e-05
0.0290761 -0.00145928 1e-05
[...]
POINT_DATA 10958
 FIELD attributes 1
U 3 10958 float
10.0021 	0.000980099 	0 10.0076 	0.00792474 	0 10.013 	0.0151108 	0 10.0184 	0.02231 	0 10.0239 	0.0295224 	0 10.0306 	0.0425689 	0 10.0339 	0.0318963 	0 10.0371 	0.0319096 	0 10.0403 	0.031923 	0 10.0435 	0.0319363 	0 10.0462 	0.0419485 	0 10.0442 	0.0263841 	0 10.0432 	0.0244203 	0 10.0423 	0.0224303 	0 10.0413 	0.0204137 	0 10.0403 	0.0300896 	0 10.0368 	0.0145225 	0 10.0346 	0.0129248 	0 10.0323 	0.0112993 	0 10.03 	0.00964567 	0 10.0281 	0.0205151 	0 10.0248 	0.005075 	0 10.0225 	0.00378284 	0 10.0202 	0.00246413 	0 10.0179 	0.00111831 	0 10.0159 	0.0133608 	0 10.0128 	-0.0025063 	0 10.0104 	-0.00360416 	0 10.008 	-0.00472722 	0 10.0056 	-0.00587605 	0 10.0034 	0.00819251 	0 10.0004 	-0.00881139 	0 9.99794 	-0.00975651 	0 9.99549 	-0.0107248 	0 9.99303 	-0.0117169 	0 9.9906 	0.00476432 	0 9.98787 	-0.0141861 	0 9.98546 	-0.0150694 	0 9.98305 	-0.0159753 	0 9.98063 	-0.0169042 	0 9.978 	0.00251368 	0 9.97562 	-0.019144 	0 9.97329 	-0.0200517 	0 9.97095 	-0.0209831 	0 9.96861 	-0.0219387 	0 9.96575 	0.000930965 	0 9.96378 	-0.0241153 	0 9.96153 	-0.0250928 	0 9.95927 	-0.0260959 	0 9.957 	-0.0271253 	0 9.9538 	-0.000241079 	0 9.95236 	-0.029317 	0 9.95021 	-0.0303916 	0 9.94806 	-0.0314943 	0 9.94589 	-0.0326258 	0 9.9423 	-0.00114783 	0 9.94152 	-0.0349065 	0 9.93951 	-0.0361194 	0 9.93749 	-0.0373636 	0 9.93546 	-0.03864 	0 9.93138 	-0.00198658 	0 9.93139 	-0.0411202 	0 9.92956 	-0.0425463 	0 9.92772 	-0.0440087 	0 9.92587 	-0.0455083 	0 9.92122 	-0.00309206 	0 9.92222 	-0.0483893 	0 9.92058 	-0.0501259 	0 9.91892 	-0.0519057 	0 9.91725 	-0.0537298 	0 9.91184 	-0.00485442 	0 9.91398 	-0.0572584 	0 9.91255 	-0.0594946 	0 9.91111 	-0.0617851 	0 9.90965 	-0.0641313 	0 9.90335 	-0.00803744 	0 9.90693 	-0.0689025 	0 9.9057 	-0.0719309 	0 9.90444 	-0.075031 	0 9.90316 	-0.0782046 	0 9.89555 	-0.0138366 	0 9.90055 	-0.0851167 	0 9.89896 	-0.0898151 	0 9.89734 	-0.0946216 	0 9.89569 	-0.0995387 	0 9.88576 	-0.0261718 	0 9.89068 	-0.111963 	8.5992e-23 9.88814 	-0.118241 	3.31176e-22 9.88555 	-0.124664 	5.76011e-22 9.88292 	-0.131237 	8.20491e-22 9.87074 	-0.0447217 	8.69434e-22 9.8758 	-0.143688 	-1.42767e-21 9.8721 	-0.149617 	-1.66893e-21 9.86837 	-0.15564 	-1.91305e-21 9.86461 	-0.161759 	-2.16006e-21 9.8482 	-0.0562149 	5.77204e-22 9.85653 	-0.166868 	9.47573e-22 9.85189 	-0.170997 	7.27263e-22 9.84723 	-0.17519 	5.07294e-22 9.84115 	-0.170246 	2.62812e-22 9.81909 	-0.0590474 	-2.69017e-22 9.83189 	-0.162122 	-2.9489e-22 9.82957 	-0.179844 	-2.00755e-22 9.82458 	-0.182494 	-8.54462e-23 9.81379 	-0.157905 	-5.27088e-23 9.78665 	-0.0553245 	-2.55429e-22 9.80408 	-0.145684 	-6.47045e-23 9.8067 	-0.177309 	3.74247e-23 9.80178 	-0.178579 	9.41945e-23 9.78489 	-0.138993 	1.14216e-22 9.75266 	-0.0458997 	8.70005e-23 9.77485 	-0.124653 	1.49422e-21 9.78405 	-0.165913 	2.29897e-21 9.77943 	-0.166042 	2.44379e-21 9.75515 	-0.116143 	1.74233e-21 9.7181 	-0.0325038 	4.71852e-22 9.74485 	-0.101289 	3.42506e-22 9.76172 	-0.148673 	1.66186e-22 9.75749 	-0.14794 	-1.12691e-22 9.72489 	-0.0916104 	-1.52902e-22 9.68338 	-0.0166173 	-1.15498e-22 9.71439 	-0.0770948 	-7.54093e-22 9.73953 	-0.127972 	-1.28018e-21 9.73575 	-0.126655 	-1.20769e-21 9.69444 	-0.0667137 	-4.32635e-22 9.64898 	0.000797344 	4.3002e-22 9.68417 	-0.0530226 	-4.90743e-22 9.71794 	-0.105686 	-1.39216e-21 9.71438 	-0.10365 	-1.51807e-21 9.66484 	-0.0426526 	-1.13616e-21 9.61605 	0.0183916 	-7.54076e-22 9.65554 	-0.0303598 	-4.50963e-22 9.69441 	-0.0791397 	-1.47931e-22 9.69015 	-0.0763804 	-1.04848e-21 9.63781 	-0.021182 	-2.72858e-21 9.58622 	0.0340496 	-4.41332e-21 9.63002 	-0.010933 	-4.99713e-21 9.67319 	-0.0559391 	-5.57724e-21 9.66918 	-0.0539868 	-5.24459e-21 9.61433 	-0.00426654 	-4.03129e-21 9.56022 	0.0454759 	-2.82159e-21 9.60796 	0.00342456 	-1.7391e-21 9.65507 	-0.0386454 	-6.53479e-22 9.65123 	-0.0377689 	-1.76085e-22 9.59397 	0.00663955 	-8.0125e-22 9.53742 	0.0510633 	-1.42226e-21 9.58831 	0.0115693 	-8.14227e-22 9.63856 	-0.0279399 	-2.09948e-22 9.63462 	-0.0282075 	-2.19659e-22 9.575 	0.0111492 	-8.44292e-22 9.51604 	0.0505185 	-1.46521e-21 9.56893 	0.0135815 	-8.5691e-22 9.62119 	-0.0233697 	-2.52143e-22 9.61677 	-0.0246061 	-1.32908e-21 9.55497 	0.0101606 	-3.54364e-21 9.4938 	0.0449402 	-5.77307e-21 9.5475 	0.0107306 	-1.22175e-20 9.60057 	-0.0234939 	-1.86469e-20 9.59539 	-0.0253405 	-2.00201e-20 9.53189 	0.005488 	-1.63516e-20 9.46896 	0.0363306 	-1.2688e-20 9.52244 	0.00496578 	-2.6167e-20 9.57533 	-0.026415 	-3.96412e-20 9.56933 	-0.0284643 	-3.72155e-20 9.50495 	-0.000858504 	-1.8311e-20 9.44111 	0.0267619 	6.04786e-22 9.49387 	-0.00191149 	2.26124e-22 9.54605 	-0.0306011 	-1.64851e-22 9.53951 	-0.0325891 	6.44375e-22 9.47521 	-0.00761798 	2.51975e-21 9.41142 	0.0173669 	4.40348e-21 9.46347 	-0.00897281 	2.46506e-21 9.51497 	-0.0353273 	5.17642e-22 9.50836 	-0.0372447 	-9.10797e-22 9.44502 	-0.0146717 	-2.19681e-21 9.38215 	0.00791266 	-3.47841e-21 9.43383 	-0.0165214 	-2.23663e-21 9.48499 	-0.0409676 	-9.99758e-22 9.47888 	-0.0430483 	-5.42131e-22 9.41712 	-0.0230221 	-3.38198e-21 9.35579 	-0.00298792 	-6.23098e-21 9.40754 	-0.0259833 	-3.29202e-21 9.45878 	-0.0489872 	-3.42419e-22 9.45364 	-0.0516488 	-3.92918e-21 9.39378 	-0.0345501 	-1.36924e-20 9.33428 	-0.0174469 	-2.34625e-20 9.38636 	-0.0394551 	-6.60944e-20 9.43794 	-0.061468 	-1.08718e-19 9.43367 	-0.0650575 	-1.08537e-19 9.37606 	-0.0514031 	-6.32322e-20 9.31833 	-0.0376148 	-1.75768e-20 9.37058 	-0.0589613 	-1.07003e-20 9.41717 	-0.0787644 	-4.12555e-21 9.41323 	-0.0835632 	-4.63296e-22 9.36347 	-0.0752132 	0 9.30728 	-0.0649583 	0 9.35912 	-0.0858619 	0 9.39857 	-0.103561 	0 9.39547 	-0.109941 	0 9.35421 	-0.106567 	0 9.29922 	-0.0996573 	0 9.34978 	-0.12004 	0 9.38043 	-0.135755 	1.89099e-21 9.37758 	-0.143513 	7.00719e-21 9.34575 	-0.144692 	1.43557e-20 9.29183 	-0.14084 	2.34123e-20 9.34024 	-0.160684 	8.31947e-20 9.36053 	-0.174507 	1.09132e-19 9.35741 	-0.183307 	1.06823e-19 9.33606 	-0.188417 	8.35335e-20 9.28321 	-0.187105 	2.37136e-20 9.32886 	-0.206349 	1.47452e-20 9.33759 	-0.218295 	1.36292e-20 9.33391 	-0.227813 	1.51241e-20 9.32418 	-0.236254 	1.73373e-20 9.27263 	-0.237016 	2.46366e-20 9.31525 	-0.25563 	6.58892e-20 9.3117 	-0.265799 	6.02861e-20 9.30738 	-0.275866 	5.41391e-20 9.30276 	-0.285917 	4.79255e-20 9.2603 	-0.289762 	8.55297e-21 9.28844 	-0.305905 	-3.2055e-20 9.2839 	-0.316576 	-4.33979e-20 9.27904 	-0.327232 	-5.46704e-20 9.27387 	-0.337872 	-6.58721e-20 9.24727 	-0.345445 	-5.58946e-20 9.2606 	-0.3597 	-7.72483e-20 9.25572 	-0.37121 	-6.92123e-20 9.2505 	-0.382704 	-6.10659e-20 9.24496 	-0.394182 	-5.28088e-20 9.23496 	-0.405134 	-3.87158e-20 9.23725 	-0.408605 	-3.65993e-20 9.23609 	-0.411609 	-3.48979e-20 9.23492 	-0.414611 	-3.31975e-20 9.23372 	-0.417612 	-3.14981e-20 9.23258 	-0.420418 	-2.99098e-20 9.22802 	-0.430015 	-2.34129e-20 9.22323 	-0.4396 	-1.6906e-20 9.21823 	-0.449174 	-1.03891e-20 9.21302 	-0.458735 	-3.86236e-21 9.20288 	-0.468963 	0 9.2044 	-0.482308 	1.17645e-21 9.19809 	-0.496206 	3.0614e-21 9.19139 	-0.510083 	4.94096e-21 9.18429 	-0.523937 	6.81511e-21 9.16506 	-0.538742 	8.44705e-21 9.17759 	-0.553616 	2.22328e-20 9.17058 	-0.568982 	2.36133e-20 9.16315 	-0.584325 	2.50285e-20 9.15123 	-0.599726 	2.22908e-20 9.12679 	-0.615362 	7.12628e-21 9.14031 	-0.632618 	5.04197e-21 9.1447 	-0.649656 	4.63558e-21 9.13613 	-0.666388 	6.64746e-21 9.11364 	-0.682613 	7.36402e-21 9.08712 	-0.698706 	7.72275e-21 9.09992 	-0.71814 	-2.33154e-20 9.1122 	-0.737546 	-5.4377e-20 9.10292 	-0.755446 	-5.57132e-20 9.07441 	-0.771925 	-2.69899e-20 9.04537 	-0.788403 	1.74593e-21 9.0569 	-0.80969 	-1.07087e-21 9.06724 	-0.830872 	-3.72344e-21 9.05904 	-0.84997 	-1.00987e-21 9.03312 	-0.867361 	5.06554e-22 9.00126 	-0.884234 	1.64684e-21 9.011 	-0.907083 	1.34796e-20 9.00586 	-0.928001 	1.23509e-20 8.99508 	-0.94821 	6.59673e-21 8.98369 	-0.96838 	7.78526e-22 8.95509 	-0.98656 	-1.52173e-20 8.95714 	-1.00166 	-2.38091e-20 8.94891 	-1.01533 	-2.54035e-20 8.94044 	-1.02899 	-2.69777e-20 8.93172 	-1.04263 	-2.85317e-20 8.92396 	-1.05442 	-2.98591e-20 8.91814 	-1.06244 	-3.07929e-20 8.91223 	-1.07046 	-3.17196e-20 8.90623 	-1.07847 	-3.26393e-20 8.90014 	-1.08647 	-3.3552e-20 8.88581 	-1.09364 	-3.66105e-20 8.88252 	-1.11768 	-2.8139e-20 8.86536 	-1.14023 	-2.25053e-20 8.84759 	-1.16272 	-1.68125e-20 8.82353 	-1.18458 	-1.3405e-20 8.78111 	-1.2046 	-1.72338e-20 8.78556 	-1.23214 	-1.10665e-20 8.78922 	-1.25962 	-4.87546e-21 8.76377 	-1.28342 	1.27464e-21 8.71929 	-1.30522 	6.35125e-21 8.67388 	-1.32708 	1.14672e-20 8.67325 	-1.35725 	2.64949e-20 8.66603 	-1.38671 	3.69145e-20 8.64134 	-1.41424 	3.4029e-20 8.61211 	-1.4411 	2.98269e-20 8.56165 	-1.46465 	1.85055e-20 8.55723 	-1.48263 	1.49806e-20 8.54211 	-1.49999 	1.31924e-20 8.525 	-1.51723 	1.16946e-20 8.50758 	-1.53445 	1.02062e-20 8.49204 	-1.54953 	8.90978e-21 8.47876 	-1.56342 	6.58621e-21 8.46529 	-1.5773 	4.25773e-21 8.45164 	-1.59116 	1.92433e-21 8.43567 	-1.60477 	0 8.40952 	-1.61736 	0 8.40095 	-1.65677 	0 8.36727 	-1.6912 	0 8.33145 	-1.72534 	0 8.27538 	-1.75842 	0 8.2119 	-1.79146 	0 8.19395 	-1.83688 	0 8.17183 	-1.88175 	0 8.12118 	-1.92223 	0 8.06522 	-1.9614 	0 7.98464 	-1.99389 	0 7.97211 	-2.00877 	0 7.95437 	-2.02461 	-5.25704e-23 7.93199 	-2.0413 	-1.51455e-22 7.90942 	-2.058 	-2.50603e-22 7.88876 	-2.07316 	-3.40854e-22 7.85044 	-2.10515 	-4.25834e-22 7.81154 	-2.13711 	-5.09517e-22 7.77207 	-2.16905 	-5.91886e-22 7.72232 	-2.20103 	-5.76814e-23 7.65954 	-2.23349 	1.22893e-21 7.60837 	-2.29762 	-1.95053e-21 7.55518 	-2.36163 	-5.09498e-21 7.48661 	-2.43442 	-4.17318e-21 7.39874 	-2.51417 	8.93564e-22 7.3059 	-2.59655 	6.14165e-21 7.28348 	-2.64017 	7.91243e-21 7.25561 	-2.68152 	8.70047e-21 7.21084 	-2.71544 	6.2462e-21 7.16552 	-2.7493 	3.77626e-21 7.12727 	-2.77748 	1.70353e-21 7.08077 	-2.8328 	-1.15643e-21 7.03359 	-2.88817 	-4.03258e-21 6.98571 	-2.94358 	-6.92486e-21 6.92719 	-3.00059 	-5.67969e-21 6.86309 	-3.06018 	-3.32001e-21 6.79996 	-3.19625 	-5.07132e-21 6.73232 	-3.33113 	-6.63191e-21 6.56031 	-3.385 	-1.05126e-21 6.38464 	-3.43786 	4.68504e-21 6.24871 	-3.47708 	9.15185e-21 6.24315 	-3.48586 	9.97948e-21 6.23759 	-3.49463 	1.08091e-20 6.23146 	-3.50297 	1.14403e-20 6.22085 	-3.50777 	1.05055e-20 6.21016 	-3.51261 	9.56395e-21 6.08996 	-3.63167 	5.68571e-21 5.94629 	-3.72543 	2.25243e-21 5.77867 	-3.78639 	-1.53133e-21 5.54989 	-3.75995 	-6.13687e-21 5.29217 	-3.73402 	-1.13723e-20 5.2633 	-3.73416 	-1.39424e-20 5.23446 	-3.73438 	-1.65093e-20 5.20852 	-3.73271 	-1.64265e-20 5.18465 	-3.7297 	-1.4445e-20 5.16163 	-3.72684 	-1.25275e-20 4.99874 	-3.74947 	-8.63632e-21 4.83735 	-3.77675 	-4.65282e-21 4.67435 	-3.77961 	9.97337e-22 4.50682 	-3.73276 	9.62176e-21 4.31719 	-3.68256 	1.95235e-20 4.28553 	-3.67524 	1.84158e-20 4.25392 	-3.66805 	1.73179e-20 4.22638 	-3.66364 	1.78008e-20 4.20396 	-3.66269 	2.02696e-20 4.18228 	-3.66189 	2.26718e-20 4.02629 	-3.61411 	4.25124e-20 3.87083 	-3.56877 	6.27274e-20 3.73267 	-3.52715 	6.37247e-20 3.61272 	-3.4891 	4.43631e-20 3.47942 	-3.44905 	2.30546e-20 3.46247 	-3.44417 	2.10867e-20 3.44554 	-3.43935 	1.91242e-20 3.43019 	-3.43639 	1.87668e-20 3.41772 	-3.4368 	2.13408e-20 3.40548 	-3.43725 	2.38744e-20 3.28077 	-3.36689 	4.21467e-20 3.15627 	-3.29781 	6.06225e-20 3.04901 	-3.25055 	5.62757e-20 2.95533 	-3.22085 	3.41406e-20 2.85289 	-3.19014 	1.01445e-20 2.84931 	-3.18924 	1.00226e-20 2.84574 	-3.18834 	9.90083e-21 2.84242 	-3.18769 	9.81253e-21 2.83968 	-3.1876 	9.80125e-21 2.83696 	-3.18752 	9.7901e-21 2.74482 	-3.13015 	5.88378e-21 2.65278 	-3.07367 	1.98406e-21 2.57112 	-3.03338 	-1.68678e-22 2.50015 	-3.00776 	-3.91078e-22 2.4343 	-2.98554 	-6.28636e-22 2.42811 	-2.97951 	-3.80868e-22 2.42191 	-2.97349 	-1.3311e-22 2.41655 	-2.96859 	-9.61248e-23 2.41176 	-2.96448 	-2.05314e-22 2.40697 	-2.96036 	-3.14856e-22 2.34941 	-2.92039 	-5.5867e-21 2.29183 	-2.88099 	-1.08325e-20 2.23979 	-2.84578 	-1.20512e-20 2.19621 	-2.81665 	-7.12768e-21 2.15446 	-2.78923 	-2.39941e-21 2.14517 	-2.77782 	-2.13439e-21 2.13589 	-2.7664 	-1.86936e-21 2.12789 	-2.7561 	-1.79373e-21 2.12094 	-2.74669 	-1.87066e-21 2.11398 	-2.73728 	-1.94768e-21 2.08199 	-2.70254 	9.96734e-22 2.04999 	-2.66788 	3.93696e-21 2.02174 	-2.63431 	4.04845e-21 1.99836 	-2.6021 	4.96934e-22 1.97516 	-2.5701 	-3.02745e-21 1.96871 	-2.55731 	-3.96789e-21 1.96226 	-2.54451 	-4.90788e-21 1.95647 	-2.53204 	-5.04671e-21 1.95148 	-2.51997 	-4.22615e-21 1.94655 	-2.50802 	-3.41386e-21 1.93028 	-2.47214 	-4.68011e-21 1.91407 	-2.43613 	-5.95167e-21 1.89983 	-2.3997 	-5.67843e-21 1.88725 	-2.36287 	-4.1331e-21 1.87442 	-2.32488 	-2.55177e-21 1.8722 	-2.31611 	-2.38373e-21 1.86999 	-2.30734 	-2.21582e-21 1.86807 	-2.29866 	-2.07542e-21 1.86688 	-2.29023 	-2.00238e-21 1.86571 	-2.28191 	-1.93072e-21 1.85811 	-2.23956 	3.69579e-21 1.85067 	-2.197 	9.36194e-21 1.8466 	-2.15435 	8.91193e-21 1.84427 	-2.11149 	5.22735e-21 1.84185 	-2.0721 	1.16259e-21 1.8417 	-2.06998 	1.2918e-21 1.84156 	-2.06786 	1.42107e-21 1.8416 	-2.06571 	1.37587e-21 1.84168 	-2.06356 	1.29016e-21 1.84177 	-2.06139 	1.20412e-21 1.84334 	-2.02437 	-1.31513e-21 1.84508 	-1.98719 	-3.81039e-21 1.84818 	-1.9496 	-5.11818e-21 1.85497 	-1.91105 	-2.94061e-21 1.86125 	-1.87639 	-9.55787e-22 1.86311 	-1.86477 	-2.52111e-23 1.86499 	-1.85315 	9.10138e-22 1.86826 	-1.84095 	3.31248e-22 1.87175 	-1.82867 	-4.65389e-22 1.87541 	-1.81588 	-1.28864e-21 1.88206 	-1.79275 	-2.41876e-21 1.88881 	-1.76959 	-3.53537e-21 1.89572 	-1.74645 	-4.40715e-21 1.90359 	-1.7239 	-2.65868e-21 1.91094 	-1.70305 	-1.02898e-21 1.92195 	-1.67648 	-8.57803e-22 1.9331 	-1.6499 	-6.9018e-22 1.9451 	-1.62393 	-1.30904e-21 1.95725 	-1.59795 	-1.92195e-21 1.97116 	-1.56855 	-2.60895e-21 1.97282 	-1.56509 	-2.55764e-21 1.97448 	-1.56162 	-2.50647e-21 1.97614 	-1.55816 	-2.45543e-21 1.97733 	-1.55455 	-2.46962e-21 1.97844 	-1.55096 	-2.49487e-21 1.99542 	-1.52402 	-1.69125e-21 2.01076 	-1.49634 	-1.07508e-21 2.02592 	-1.4686 	-5.16052e-22 2.03581 	-1.43927 	-7.67178e-22 2.04491 	-1.41268 	-1.00393e-21 2.05833 	-1.39575 	-4.16415e-22 2.07052 	-1.37848 	1.37546e-22 2.07955 	-1.36035 	6.1014e-22 2.08868 	-1.34226 	1.08246e-21 2.09913 	-1.32182 	1.61716e-21 2.10226 	-1.31581 	1.67222e-21 2.10539 	-1.30982 	1.72767e-21 2.10854 	-1.30383 	1.78352e-21 2.11002 	-1.29838 	1.9368e-21 2.11041 	-1.29338 	2.15048e-21 2.12764 	-1.26985 	4.72141e-21 2.14073 	-1.24717 	5.74292e-21 2.15368 	-1.22464 	6.63541e-21 2.15526 	-1.20577 	3.95755e-21 2.1565 	-1.18824 	1.32653e-21 2.17426 	-1.16692 	-2.62497e-21 2.18704 	-1.14726 	-4.34232e-21 2.19321 	-1.12971 	-3.1464e-21 2.19957 	-1.11223 	-1.97724e-21 2.2039 	-1.09604 	-1.6088e-22 2.20596 	-1.09384 	4.12266e-22 2.20716 	-1.0919 	4.20639e-22 2.20783 	-1.09011 	8.12016e-23 2.20851 	-1.08832 	-2.57936e-22 2.2092 	-1.08649 	-6.03661e-22 2.2147 	-1.07223 	-2.69589e-21 2.22034 	-1.05801 	-4.77645e-21 2.22612 	-1.04384 	-6.84524e-21 2.2278 	-1.02904 	-7.17881e-21 2.2224 	-1.01354 	-4.56701e-21 2.23456 	-1.00053 	-2.73952e-21 2.24697 	-0.987594 	-9.09801e-22 2.24996 	-0.972766 	1.59745e-22 2.24369 	-0.956085 	5.26697e-22 2.23773 	-0.939936 	8.68293e-22 2.25014 	-0.92837 	1.26375e-20 2.25338 	-0.915123 	1.26861e-20 2.25345 	-0.901316 	8.55092e-21 2.25372 	-0.887576 	4.45042e-21 2.25332 	-0.873993 	-4.50626e-22 2.25411 	-0.873352 	-1.01803e-21 2.25424 	-0.87258 	-1.12005e-21 2.25424 	-0.871783 	-1.12924e-21 2.25425 	-0.870986 	-1.13856e-21 2.25425 	-0.870182 	-1.14812e-21 2.25444 	-0.858072 	-2.76317e-21 2.2548 	-0.846021 	-4.39206e-21 2.25534 	-0.834028 	-6.03479e-21 2.2544 	-0.822938 	-7.72853e-21 2.24482 	-0.816641 	-9.605e-21 2.25099 	-0.801849 	2.76725e-22 2.25706 	-0.787325 	9.72575e-21 2.25587 	-0.776614 	1.17975e-20 2.2458 	-0.770734 	5.9702e-21 2.23596 	-0.76498 	2.52872e-22 2.24233 	-0.750921 	1.49993e-20 2.24638 	-0.738353 	2.49334e-20 2.24251 	-0.730272 	1.99627e-20 2.23732 	-0.722947 	1.25934e-20 2.22783 	-0.718043 	-2.1159e-21 2.23245 	-0.708559 	-5.85176e-21 2.22995 	-0.703167 	-5.38037e-21 2.22731 	-0.697901 	-4.79363e-21 2.22473 	-0.692642 	-4.21357e-21 2.22199 	-0.686891 	-3.58552e-21 2.22106 	-0.684812 	-3.71236e-21 2.22014 	-0.682734 	-3.83942e-21 2.21923 	-0.680658 	-3.96669e-21 2.21833 	-0.678583 	-4.09416e-21 2.2152 	-0.674789 	-4.25921e-21 2.21371 	-0.669751 	-4.33864e-21 2.21019 	-0.662793 	-5.47099e-21 2.2068 	-0.655849 	-6.61286e-21 2.20147 	-0.647244 	-7.99817e-21 2.19047 	-0.633963 	-1.00481e-20 2.19179 	-0.631945 	-1.54585e-20 2.19317 	-0.629941 	-2.08734e-20 2.18845 	-0.622264 	-1.78703e-20 2.17759 	-0.609224 	-8.79869e-21 2.16701 	-0.596284 	2.40953e-22 2.1686 	-0.594926 	9.37585e-21 2.16916 	-0.592619 	1.69318e-20 2.16325 	-0.584475 	1.48344e-20 2.15522 	-0.57411 	9.95108e-21 2.14508 	-0.561485 	2.1936e-21 2.14659 	-0.560428 	-9.10729e-21 2.14104 	-0.552726 	-8.55158e-21 2.13566 	-0.545068 	-8.01611e-21 2.13047 	-0.537452 	-7.50104e-21 2.12491 	-0.529339 	-6.41321e-21 2.12501 	-0.529232 	-6.03469e-21 2.12454 	-0.528565 	-6.10597e-21 2.12407 	-0.527898 	-6.17719e-21 2.1236 	-0.527231 	-6.24836e-21 2.12312 	-0.52656 	-6.31998e-21 2.11853 	-0.519918 	-8.19688e-21 2.11408 	-0.513312 	-1.00568e-20 2.10978 	-0.50674 	-1.18995e-20 2.10562 	-0.500204 	-1.37251e-20 2.09774 	-0.501774 	-7.31479e-21 2.09617 	-0.48798 	-4.38196e-21 2.09221 	-0.480068 	-3.18532e-21 2.08795 	-0.473244 	-2.30474e-21 2.08094 	-0.472745 	-1.39687e-21 2.07197 	-0.476513 	-4.73749e-22 2.07061 	-0.46287 	1.16245e-20 2.06967 	-0.449266 	2.37251e-20 2.06509 	-0.44462 	2.42553e-20 2.05661 	-0.448886 	1.41694e-20 2.04802 	-0.453081 	4.20258e-21 2.04684 	-0.439569 	4.15994e-21 2.0453 	-0.427944 	4.0112e-21 2.04026 	-0.425316 	3.47922e-21 2.03352 	-0.426647 	3.91939e-21 2.02528 	-0.431249 	5.17114e-21 2.02428 	-0.417847 	5.26017e-21 2.01948 	-0.414691 	5.9992e-21 2.01446 	-0.412277 	6.78337e-21 2.00948 	-0.409863 	7.56533e-21 2.00314 	-0.410812 	9.02503e-21 2.00234 	-0.406374 	8.78687e-21 2.0002 	-0.405447 	9.89044e-21 1.99806 	-0.40452 	1.09936e-20 1.99594 	-0.403593 	1.20962e-20 1.99371 	-0.40262 	1.32526e-20 1.99082 	-0.401329 	1.52325e-20 1.98794 	-0.400038 	1.72106e-20 1.98508 	-0.398747 	1.91871e-20 1.98223 	-0.397455 	2.11618e-20 1.97865 	-0.389842 	1.59953e-20 1.97453 	-0.394334 	1.24131e-20 1.96942 	-0.392282 	9.27822e-21 1.96435 	-0.39023 	6.14534e-21 1.95903 	-0.385633 	2.8327e-21 1.95242 	-0.368664 	-1.36036e-21 1.94914 	-0.377717 	-1.52557e-20 1.94505 	-0.382945 	-2.60374e-20 1.93989 	-0.381065 	-3.0954e-20 1.93329 	-0.365576 	-2.17777e-20 1.92702 	-0.348586 	-1.09785e-20 1.92406 	-0.358013 	-2.33126e-20 1.92072 	-0.367374 	-3.56517e-20 1.91559 	-0.363601 	-3.24315e-20 1.9091 	-0.346627 	-1.42494e-20 1.90319 	-0.32964 	4.04848e-21 1.90054 	-0.339424 	2.08073e-21 1.89699 	-0.344213 	6.20771e-22 1.89219 	-0.338504 	2.43218e-22 1.88712 	-0.32881 	-1.05501e-23 1.88157 	-0.311842 	-4.03055e-23 1.87921 	-0.321925 	9.4179e-24 1.87496 	-0.316491 	3.08226e-21 1.8709 	-0.311113 	6.15012e-21 1.86703 	-0.305791 	9.21299e-21 1.86277 	-0.295207 	1.15853e-20 1.86138 	-0.297755 	1.15512e-20 1.85944 	-0.294988 	1.16979e-20 1.85756 	-0.292237 	1.18415e-20 1.85573 	-0.289503 	1.19817e-20 1.85394 	-0.286749 	1.21205e-20 1.85248 	-0.28444 	1.29861e-20 1.85106 	-0.282143 	1.38437e-20 1.84969 	-0.279858 	1.46935e-20 1.84835 	-0.277584 	1.55354e-20 1.84875 	-0.281267 	9.31982e-21 1.84397 	-0.27041 	-2.46286e-21 1.84122 	-0.265608 	-8.67626e-21 1.83865 	-0.260861 	-1.48401e-20 1.83627 	-0.256168 	-2.09545e-20 1.83941 	-0.27003 	-9.06126e-21 1.83201 	-0.249075 	-2.50367e-20 1.82927 	-0.242295 	-2.93882e-20 1.82742 	-0.237855 	-3.18211e-20 1.82849 	-0.242841 	-2.83885e-20 1.8328 	-0.259566 	-1.76787e-20 1.8255 	-0.238536 	-3.08056e-20 1.81971 	-0.220109 	-4.21621e-20 1.81857 	-0.215969 	-4.40082e-20 1.82378 	-0.232817 	-2.96513e-20 1.8284 	-0.249782 	-1.52306e-20 1.82121 	-0.228671 	-9.20342e-21 1.8148 	-0.207591 	-3.10493e-21 1.81483 	-0.205909 	-8.59358e-22 1.82048 	-0.223354 	-2.61883e-21 1.82541 	-0.240