/*--------------------------------*- C++ -*----------------------------------*\
| =========                 |                                                 |
| \\      /  F ield         | OpenFOAM: The Open Source CFD Toolbox           |
|  \\    /   O peration     | Version:  2012                                  |
|   \\  /    A nd           | Website:  www.openfoam.com                      |
|    \\/     M anipulation  |                                                 |
\*---------------------------------------------------------------------------*/
FoamFile
{
    version     2.0;
    format      ascii;
    class       volVectorField;
    location    "1";
    object      flux;
}
// * * * * * * * * * * * * * * * * * * * * * * * * * * * * * * * * * * * * * //

dimensions      [0 1 -1 1 0 0 0];


internalField   nonuniform List<vector> 
10000
(
(0.00148566 0.000752664 0.00100879)
(0.000671397 0.00149671 0.00201723)
(0.000365229 0.00192748 0.00259634)
(0.000229485 0.00220789 0.002968)
(0.000158832 0.00240529 0.00322642)
(0.000116828 0.00255154 0.00341617)
(8.92942e-05 0.00266356 0.00356072)
(6.99753e-05 0.00275139 0.00367361)
(5.57764e-05 0.00282133 0.00376335)
(4.49942e-05 0.00287773 0.00383556)
(3.66152e-05 0.00292357 0.00389422)
(2.99909e-05 0.0029611 0.00394219)
(2.46867e-05 0.00299196 0.00398165)
(2.03984e-05 0.00301746 0.0040142)
(1.69041e-05 0.00303857 0.00404118)
(1.40418e-05 0.00305611 0.00406356)
(1.16843e-05 0.00307068 0.00408218)
(9.73803e-06 0.00308284 0.00409769)
(8.12361e-06 0.00309297 0.00411063)
(6.78475e-06 0.00310144 0.00412143)
(5.66895e-06 0.00310851 0.00413045)
(4.74115e-06 0.00311443 0.00413799)
(3.96528e-06 0.00311937 0.00414431)
(3.31934e-06 0.00312351 0.00414959)
(2.77781e-06 0.00312697 0.00415401)
(2.3266e-06 0.00312987 0.00415771)
(1.94765e-06 0.0031323 0.00416081)
(1.63189e-06 0.00313434 0.0041634)
(1.36645e-06 0.00313604 0.00416558)
(1.14511e-06 0.00313747 0.0041674)
(9.59081e-07 0.00313866 0.00416892)
(8.03633e-07 0.00313966 0.0041702)
(6.728e-07 0.0031405 0.00417127)
(5.6349e-07 0.00314121 0.00417217)
(4.71645e-07 0.00314179 0.00417292)
(3.94298e-07 0.00314229 0.00417355)
(3.29658e-07 0.00314269 0.00417407)
(2.75235e-07 0.00314304 0.00417451)
(2.29735e-07 0.00314333 0.00417487)
(1.90644e-07 0.00314357 0.00417518)
(1.58331e-07 0.00314376 0.00417543)
(1.30502e-07 0.00314393 0.00417564)
(1.07301e-07 0.00314406 0.00417582)
(8.64958e-08 0.00314417 0.00417596)
(6.93209e-08 0.00314426 0.00417607)
(5.38392e-08 0.00314433 0.00417616)
(4.0487e-08 0.00314439 0.00417623)
(2.76321e-08 0.00314442 0.00417628)
(1.62681e-08 0.00314445 0.00417631)
(5.32405e-09 0.00314446 0.00417632)
(-5.46874e-09 0.00314446 0.00417632)
(-1.6686e-08 0.00314445 0.00417631)
(-2.83116e-08 0.00314442 0.00417628)
(-4.04101e-08 0.00314438 0.00417622)
(-5.43412e-08 0.00314433 0.00417616)
(-6.95565e-08 0.00314426 0.00417607)
(-8.71667e-08 0.00314417 0.00417595)
(-1.0694e-07 0.00314406 0.00417581)
(-1.30857e-07 0.00314393 0.00417564)
(-1.58082e-07 0.00314376 0.00417543)
(-1.91019e-07 0.00314357 0.00417518)
(-2.29113e-07 0.00314332 0.00417487)
(-2.7514e-07 0.00314304 0.00417451)
(-3.29113e-07 0.00314269 0.00417407)
(-3.94371e-07 0.00314229 0.00417354)
(-4.7092e-07 0.00314179 0.00417292)
(-5.6327e-07 0.00314121 0.00417217)
(-6.72437e-07 0.0031405 0.00417127)
(-8.03305e-07 0.00313966 0.0041702)
(-9.58543e-07 0.00313866 0.00416892)
(-1.14485e-06 0.00313747 0.0041674)
(-1.36629e-06 0.00313604 0.00416558)
(-1.63168e-06 0.00313434 0.0041634)
(-1.94769e-06 0.0031323 0.00416081)
(-2.32619e-06 0.00312987 0.00415771)
(-2.77786e-06 0.00312697 0.00415401)
(-3.31903e-06 0.00312351 0.00414959)
(-3.96554e-06 0.00311937 0.00414431)
(-4.74092e-06 0.00311443 0.004138)
(-5.66949e-06 0.00310851 0.00413045)
(-6.7846e-06 0.00310144 0.00412143)
(-8.12406e-06 0.00309297 0.00411063)
(-9.73787e-06 0.00308284 0.00409769)
(-1.16847e-05 0.00307068 0.00408218)
(-1.40417e-05 0.00305611 0.00406356)
(-1.69044e-05 0.00303857 0.00404118)
(-2.03984e-05 0.00301746 0.0040142)
(-2.46869e-05 0.00299196 0.00398165)
(-2.99909e-05 0.0029611 0.0039422)
(-3.66153e-05 0.00292357 0.00389422)
(-4.49943e-05 0.00287773 0.00383556)
(-5.57765e-05 0.00282133 0.00376335)
(-6.99754e-05 0.00275139 0.00367361)
(-8.92942e-05 0.00266356 0.00356072)
(-0.000116828 0.00255154 0.00341617)
(-0.000158832 0.00240529 0.00322642)
(-0.000229486 0.00220789 0.002968)
(-0.000365229 0.00192748 0.00259634)
(-0.000671397 0.00149671 0.00201723)
(-0.00148566 0.000752664 0.00100879)
(0.00243148 0.000208433 0.00166307)
(0.00138284 0.000549489 0.00374153)
(0.000881611 0.000811545 0.00513004)
(0.000609486 0.00101236 0.00610859)
(0.000445061 0.00116808 0.0068274)
(0.000337233 0.00129038 0.00737219)
(0.000262146 0.0013877 0.00779499)
(0.000207514 0.00146582 0.00812892)
(0.000166455 0.00152918 0.00839624)
(0.000134842 0.00158079 0.00861238)
(0.000110045 0.00162318 0.00878853)
(9.03235e-05 0.00165803 0.00893291)
(7.44595e-05 0.0016869 0.00905184)
(6.15951e-05 0.00171076 0.00915011)
(5.10875e-05 0.00173064 0.0092316)
(4.24646e-05 0.00174712 0.00929927)
(3.53542e-05 0.00176092 0.0093556)
(2.94751e-05 0.00177237 0.00940254)
(2.45986e-05 0.00178198 0.00944172)
(2.05469e-05 0.00178997 0.00947441)
(1.71739e-05 0.00179669 0.00950176)
(1.43623e-05 0.00180227 0.00952461)
(1.20165e-05 0.00180698 0.00954373)
(1.00568e-05 0.00181089 0.00955973)
(8.4195e-06 0.00181419 0.00957313)
(7.04966e-06 0.00181693 0.00958434)
(5.90414e-06 0.00181924 0.00959374)
(4.94489e-06 0.00182116 0.0096016)
(4.14202e-06 0.00182279 0.00960819)
(3.46967e-06 0.00182413 0.0096137)
(2.90627e-06 0.00182528 0.00961834)
(2.43468e-06 0.00182622 0.0096222)
(2.03864e-06 0.00182703 0.00962545)
(1.70729e-06 0.00182768 0.00962816)
(1.42826e-06 0.00182825 0.00963044)
(1.19582e-06 0.00182871 0.00963234)
(9.98656e-07 0.00182911 0.00963394)
(8.34762e-07 0.00182943 0.00963526)
(6.94766e-07 0.00182971 0.00963637)
(5.79386e-07 0.00182993 0.00963729)
(4.79126e-07 0.00183012 0.00963806)
(3.96529e-07 0.00183027 0.0096387)
(3.2357e-07 0.0018304 0.00963922)
(2.63993e-07 0.00183051 0.00963964)
(2.09453e-07 0.00183059 0.00963999)
(1.64146e-07 0.00183066 0.00964026)
(1.21415e-07 0.00183071 0.00964047)
(8.53192e-08 0.00183074 0.00964062)
(4.93131e-08 0.00183077 0.00964071)
(1.66834e-08 0.00183078 0.00964076)
(-1.69845e-08 0.00183078 0.00964076)
(-4.94627e-08 0.00183077 0.00964072)
(-8.48506e-08 0.00183074 0.00964061)
(-1.22262e-07 0.00183071 0.00964047)
(-1.63874e-07 0.00183066 0.00964026)
(-2.1009e-07 0.00183059 0.00963999)
(-2.63145e-07 0.00183051 0.00963964)
(-3.24511e-07 0.00183041 0.00963922)
(-3.9572e-07 0.00183027 0.00963869)
(-4.79779e-07 0.00183012 0.00963806)
(-5.78263e-07 0.00182993 0.00963729)
(-6.95537e-07 0.00182971 0.00963637)
(-8.33772e-07 0.00182943 0.00963526)
(-9.98889e-07 0.00182911 0.00963394)
(-1.19444e-06 0.00182871 0.00963234)
(-1.4286e-06 0.00182825 0.00963044)
(-1.70646e-06 0.00182769 0.00962817)
(-2.03847e-06 0.00182703 0.00962545)
(-2.43388e-06 0.00182622 0.00962221)
(-2.90619e-06 0.00182528 0.00961834)
(-3.4694e-06 0.00182414 0.00961371)
(-4.14196e-06 0.00182279 0.0096082)
(-4.94499e-06 0.00182116 0.0096016)
(-5.90387e-06 0.00181925 0.00959374)
(-7.05005e-06 0.00181693 0.00958434)
(-8.41898e-06 0.00181419 0.00957313)
(-1.00573e-05 0.00181089 0.00955973)
(-1.2016e-05 0.00180698 0.00954374)
(-1.43632e-05 0.00180227 0.00952461)
(-1.71733e-05 0.00179669 0.00950176)
(-2.05479e-05 0.00178997 0.00947442)
(-2.4598e-05 0.00178198 0.00944172)
(-2.9476e-05 0.00177237 0.00940254)
(-3.53537e-05 0.00176092 0.00935561)
(-4.24653e-05 0.00174713 0.00929927)
(-5.10872e-05 0.00173064 0.0092316)
(-6.15958e-05 0.00171076 0.00915011)
(-7.44594e-05 0.0016869 0.00905184)
(-9.03239e-05 0.00165803 0.00893291)
(-0.000110045 0.00162318 0.00878853)
(-0.000134842 0.00158079 0.00861238)
(-0.000166455 0.00152918 0.00839625)
(-0.000207514 0.00146582 0.00812892)
(-0.000262146 0.0013877 0.00779499)
(-0.000337233 0.00129038 0.00737219)
(-0.000445062 0.00116808 0.0068274)
(-0.000609485 0.00101236 0.00610859)
(-0.000881612 0.000811545 0.00513004)
(-0.00138284 0.000549489 0.00374153)
(-0.00243148 0.000208433 0.00166307)
(0.00287876 9.06093e-05 0.00198282)
(0.00178325 0.000261255 0.00466073)
(0.00122091 0.000411914 0.00657171)
(0.000890024 0.000540648 0.00798945)
(0.000674719 0.000648861 0.00907101)
(0.000524787 0.000739089 0.00991361)
(0.000415451 0.00081407 0.0105803)
(0.000333147 0.000876299 0.0111145)
(0.000269719 0.000927967 0.0115463)
(0.000219972 0.000970888 0.0118982)
(0.000180424 0.00100659 0.0121865)
(0.000148639 0.00103631 0.0124239)
(0.000122889 0.00106108 0.0126199)
(0.000101871 0.00108174 0.0127823)
(8.46431e-05 0.00109899 0.0129172)
(7.04412e-05 0.0011134 0.0130295)
(5.8714e-05 0.00112545 0.0131229)
(4.89836e-05 0.00113553 0.013201)
(4.09117e-05 0.00114395 0.013266)
(3.41855e-05 0.00115101 0.0133205)
(2.85895e-05 0.00115691 0.0133659)
(2.3913e-05 0.00116186 0.013404)
(2.00155e-05 0.001166 0.0134358)
(1.67521e-05 0.00116947 0.0134625)
(1.40294e-05 0.00117237 0.0134848)
(1.17461e-05 0.00117482 0.0135035)
(9.84053e-06 0.00117685 0.0135192)
(8.24037e-06 0.00117856 0.0135323)
(6.90503e-06 0.00117999 0.0135433)
(5.78197e-06 0.0011812 0.0135525)
(4.84556e-06 0.0011822 0.0135602)
(4.05648e-06 0.00118304 0.0135666)
(3.39943e-06 0.00118374 0.013572)
(2.84415e-06 0.00118434 0.0135766)
(2.38276e-06 0.00118483 0.0135803)
(1.99101e-06 0.00118525 0.0135835)
(1.66667e-06 0.00118559 0.0135862)
(1.3894e-06 0.00118588 0.0135884)
(1.16084e-06 0.00118612 0.0135902)
(9.63143e-07 0.00118632 0.0135918)
(8.01138e-07 0.00118649 0.0135931)
(6.58681e-07 0.00118663 0.0135941)
(5.42412e-07 0.00118674 0.013595)
(4.37348e-07 0.00118683 0.0135957)
(3.51716e-07 0.00118691 0.0135963)
(2.7152e-07 0.00118697 0.0135967)
(2.05282e-07 0.00118701 0.0135971)
(1.39988e-07 0.00118705 0.0135973)
(8.4344e-08 0.00118707 0.0135975)
(2.64311e-08 0.00118708 0.0135976)
(-2.60239e-08 0.00118708 0.0135976)
(-8.37968e-08 0.00118707 0.0135975)
(-1.40001e-07 0.00118705 0.0135973)
(-2.04327e-07 0.00118701 0.0135971)
(-2.71593e-07 0.00118697 0.0135967)
(-3.50696e-07 0.00118691 0.0135963)
(-4.37681e-07 0.00118684 0.0135957)
(-5.41251e-07 0.00118674 0.013595)
(-6.59061e-07 0.00118663 0.0135941)
(-8.00019e-07 0.00118649 0.0135931)
(-9.6368e-07 0.00118633 0.0135918)
(-1.15971e-06 0.00118612 0.0135902)
(-1.38992e-06 0.00118588 0.0135884)
(-1.66566e-06 0.00118559 0.0135862)
(-1.99155e-06 0.00118525 0.0135835)
(-2.3817e-06 0.00118483 0.0135804)
(-2.84449e-06 0.00118434 0.0135766)
(-3.3987e-06 0.00118374 0.013572)
(-4.05688e-06 0.00118305 0.0135666)
(-4.84525e-06 0.0011822 0.0135602)
(-5.78235e-06 0.0011812 0.0135525)
(-6.90508e-06 0.00117999 0.0135433)
(-8.24059e-06 0.00117857 0.0135323)
(-9.84098e-06 0.00117685 0.0135192)
(-1.17462e-05 0.00117482 0.0135035)
(-1.40301e-05 0.00117238 0.0134848)
(-1.67519e-05 0.00116948 0.0134625)
(-2.00164e-05 0.001166 0.0134359)
(-2.39127e-05 0.00116186 0.013404)
(-2.85905e-05 0.00115691 0.013366)
(-3.4185e-05 0.00115101 0.0133205)
(-4.09128e-05 0.00114395 0.013266)
(-4.89832e-05 0.00113553 0.013201)
(-5.8715e-05 0.00112545 0.0131229)
(-7.04408e-05 0.0011134 0.0130295)
(-8.4644e-05 0.00109899 0.0129172)
(-0.000101871 0.00108174 0.0127824)
(-0.000122889 0.00106108 0.0126199)
(-0.000148639 0.00103631 0.0124239)
(-0.000180425 0.00100659 0.0121865)
(-0.000219972 0.000970888 0.0118982)
(-0.000269719 0.000927968 0.0115463)
(-0.000333148 0.000876299 0.0111145)
(-0.000415451 0.00081407 0.0105803)
(-0.000524787 0.000739088 0.00991361)
(-0.000674718 0.000648862 0.00907101)
(-0.000890024 0.000540647 0.00798945)
(-0.00122091 0.000411915 0.00657171)
(-0.00178325 0.000261255 0.00466073)
(-0.00287876 9.06095e-05 0.00198282)
(0.00313216 4.70466e-05 0.00216675)
(0.00202331 0.000138799 0.00520211)
(0.00143925 0.00022436 0.00744457)
(0.00108298 0.000301912 0.00915933)
(0.000842035 0.000370368 0.010501)
(0.000668017 0.000430175 0.0115677)
(0.00053707 0.000481496 0.0124257)
(0.000435856 0.000525573 0.0131219)
(0.000356173 0.000562825 0.0136905)
(0.00029259 0.000594589 0.0141574)
(0.000241342 0.000621193 0.0145422)
(0.000199708 0.000643829 0.0148606)
(0.000165679 0.00066267 0.0151246)
(0.000137724 0.00067871 0.015344)
(0.000114674 0.000691995 0.0155266)
(9.56028e-05 0.000703329 0.0156788)
(7.97885e-05 0.000712672 0.0158058)
(6.66439e-05 0.000720669 0.0159119)
(5.57041e-05 0.00072723 0.0160005)
(4.65834e-05 0.000732868 0.0160746)
(3.89746e-05 0.000737472 0.0161366)
(3.26184e-05 0.000741446 0.0161885)
(2.73077e-05 0.000744673 0.016232)
(2.28655e-05 0.000747474 0.0162683)
(1.915e-05 0.000749735 0.0162988)
(1.60399e-05 0.00075171 0.0163243)
(1.34362e-05 0.000753293 0.0163457)
(1.12562e-05 0.000754685 0.0163636)
(9.42934e-06 0.000755793 0.0163786)
(7.90022e-06 0.000756775 0.0163911)
(6.61712e-06 0.000757549 0.0164017)
(5.54395e-06 0.000758242 0.0164105)
(4.64169e-06 0.000758782 0.0164179)
(3.8882e-06 0.000759271 0.0164241)
(3.25267e-06 0.000759647 0.0164293)
(2.72305e-06 0.000759992 0.0164336)
(2.27422e-06 0.000760253 0.0164372)
(1.90138e-06 0.000760496 0.0164402)
(1.58291e-06 0.000760677 0.0164428)
(1.31924e-06 0.000760847 0.0164449)
(1.09138e-06 0.000760971 0.0164466)
(9.03353e-07 0.000761089 0.0164481)
(7.37759e-07 0.000761172 0.0164493)
(6.01049e-07 0.000761252 0.0164502)
(4.77306e-07 0.000761306 0.016451)
(3.74353e-07 0.000761357 0.0164516)
(2.77303e-07 0.00076139 0.0164521)
(1.9452e-07 0.000761418 0.0164524)
(1.1238e-07 0.000761434 0.0164527)
(3.90138e-08 0.000761443 0.0164528)
(-3.81765e-08 0.000761443 0.0164528)
(-1.11871e-07 0.000761433 0.0164527)
(-1.93486e-07 0.000761419 0.0164524)
(-2.77e-07 0.00076139 0.0164521)
(-3.73073e-07 0.000761358 0.0164516)
(-4.77267e-07 0.000761306 0.016451)
(-5.99721e-07 0.000761253 0.0164502)
(-7.37849e-07 0.000761172 0.0164493)
(-9.01962e-07 0.00076109 0.0164481)
(-1.09166e-06 0.00076097 0.0164466)
(-1.31795e-06 0.000760848 0.0164449)
(-1.58325e-06 0.000760677 0.0164428)
(-1.90018e-06 0.000760497 0.0164402)
(-2.27465e-06 0.000760254 0.0164372)
(-2.72207e-06 0.000759993 0.0164336)
(-3.25305e-06 0.000759648 0.0164293)
(-3.88746e-06 0.000759272 0.0164241)
(-4.64211e-06 0.000758783 0.0164179)
(-5.54367e-06 0.000758243 0.0164105)
(-6.61751e-06 0.00075755 0.0164017)
(-7.90038e-06 0.000756776 0.0163912)
(-9.42971e-06 0.000755794 0.0163786)
(-1.12567e-05 0.000754686 0.0163636)
(-1.34364e-05 0.000753295 0.0163457)
(-1.60408e-05 0.00075171 0.0163243)
(-1.91501e-05 0.000749737 0.0162988)
(-2.28666e-05 0.000747474 0.0162683)
(-2.73077e-05 0.000744675 0.016232)
(-3.26196e-05 0.000741445 0.0161885)
(-3.89745e-05 0.000737474 0.0161366)
(-4.65846e-05 0.000732868 0.0160746)
(-5.57039e-05 0.000727232 0.0160005)
(-6.66448e-05 0.000720668 0.0159119)
(-7.97883e-05 0.000712673 0.0158058)
(-9.56035e-05 0.000703328 0.0156788)
(-0.000114673 0.000691995 0.0155266)
(-0.000137724 0.00067871 0.015344)
(-0.000165679 0.00066267 0.0151246)
(-0.000199708 0.000643829 0.0148606)
(-0.000241342 0.000621193 0.0145422)
(-0.00029259 0.000594589 0.0141574)
(-0.000356173 0.000562825 0.0136905)
(-0.000435856 0.000525573 0.0131219)
(-0.00053707 0.000481496 0.0124257)
(-0.000668017 0.000430175 0.0115677)
(-0.000842035 0.000370367 0.010501)
(-0.00108298 0.000301912 0.00915933)
(-0.00143925 0.00022436 0.00744457)
(-0.00202331 0.000138799 0.00520211)
(-0.00313216 4.70467e-05 0.00216675)
(0.00327861 2.34198e-05 0.00227362)
(0.00216488 6.94665e-05 0.00551898)
(0.00157218 0.000113487 0.00796155)
(0.00120465 0.00015435 0.00986142)
(0.000951286 0.000191649 0.0113712)
(0.000764548 0.000224912 0.0125871)
(0.00062138 0.00025439 0.0135766)
(0.000508784 0.000279997 0.0143866)
(0.00041882 0.000302296 0.0150538)
(0.000346109 0.000321331 0.0156047)
(0.000286864 0.000337748 0.0160616)
(0.000238317 0.000351593 0.0164407)
(0.000198319 0.000363481 0.0167566)
(0.000165295 0.000373413 0.0170194)
(0.000137893 0.000381934 0.017239)
(0.000115171 0.000388997 0.0174221)
(9.62267e-05 0.000395067 0.0175754)
(8.04814e-05 0.000400061 0.0177032)
(6.7307e-05 0.000404369 0.0178105)
(5.63459e-05 0.000407885 0.0178999)
(4.71492e-05 0.000410937 0.0179751)
(3.94961e-05 0.000413406 0.0180378)
(3.30602e-05 0.000415567 0.0180905)
(2.77064e-05 0.000417296 0.0181344)
(2.31949e-05 0.000418825 0.0181714)
(1.94449e-05 0.000420034 0.0182023)
(1.6279e-05 0.000421116 0.0182282)
(1.365e-05 0.000421959 0.0182499)
(1.14267e-05 0.000422726 0.0182681)
(9.58223e-06 0.000423313 0.0182833)
(8.01995e-06 0.000423857 0.0182961)
(6.72506e-06 0.000424265 0.0183068)
(5.62657e-06 0.000424651 0.0183158)
(4.71654e-06 0.000424933 0.0183232)
(3.94339e-06 0.000425208 0.0183295)
(3.30289e-06 0.000425402 0.0183348)
(2.75778e-06 0.000425597 0.0183392)
(2.30572e-06 0.000425731 0.0183428)
(1.92001e-06 0.000425868 0.0183459)
(1.5993e-06 0.00042596 0.0183484)
(1.3244e-06 0.000426056 0.0183506)
(1.09452e-06 0.000426118 0.0183523)
(8.95752e-07 0.000426184 0.0183538)
(7.27768e-07 0.000426225 0.0183549)
(5.8002e-07 0.000426269 0.0183559)
(4.52755e-07 0.000426295 0.0183566)
(3.3734e-07 0.000426322 0.0183572)
(2.34798e-07 0.000426336 0.0183576)
(1.37133e-07 0.000426348 0.0183579)
(4.63827e-08 0.000426353 0.018358)
(-4.58334e-08 0.000426352 0.018358)
(-1.36283e-07 0.000426349 0.0183579)
(-2.34564e-07 0.000426335 0.0183576)
(-3.36227e-07 0.000426322 0.0183572)
(-4.52779e-07 0.000426293 0.0183566)
(-5.78701e-07 0.000426269 0.0183559)
(-7.27912e-07 0.000426223 0.018355)
(-8.94267e-07 0.000426184 0.0183538)
(-1.09469e-06 0.000426116 0.0183523)
(-1.32286e-06 0.000426056 0.0183506)
(-1.59939e-06 0.000425958 0.0183485)
(-1.91857e-06 0.000425868 0.0183459)
(-2.30571e-06 0.000425729 0.0183428)
(-2.75655e-06 0.000425596 0.0183392)
(-3.30273e-06 0.000425401 0.0183348)
(-3.94252e-06 0.000425207 0.0183295)
(-4.71629e-06 0.000424933 0.0183232)
(-5.62619e-06 0.000424651 0.0183158)
(-6.72472e-06 0.000424265 0.0183068)
(-8.02013e-06 0.000423857 0.0182961)
(-9.58191e-06 0.000423314 0.0182833)
(-1.14274e-05 0.000422726 0.0182681)
(-1.36497e-05 0.000421961 0.0182499)
(-1.62802e-05 0.000421116 0.0182283)
(-1.94447e-05 0.000420035 0.0182023)
(-2.31963e-05 0.000418824 0.0181714)
(-2.77063e-05 0.000417298 0.0181345)
(-3.30617e-05 0.000415566 0.0180905)
(-3.94963e-05 0.000413408 0.0180378)
(-4.71508e-05 0.000410937 0.0179751)
(-5.63463e-05 0.000407887 0.0179)
(-6.73083e-05 0.000404368 0.0178105)
(-8.04818e-05 0.000400061 0.0177032)
(-9.62277e-05 0.000395066 0.0175754)
(-0.000115172 0.000388997 0.0174221)
(-0.000137894 0.000381933 0.017239)
(-0.000165295 0.000373413 0.0170194)
(-0.00019832 0.00036348 0.0167566)
(-0.000238318 0.000351593 0.0164407)
(-0.000286864 0.000337748 0.0160616)
(-0.00034611 0.000321331 0.0156047)
(-0.000418821 0.000302295 0.0150538)
(-0.000508784 0.000279998 0.0143866)
(-0.000621379 0.00025439 0.0135766)
(-0.000764548 0.000224913 0.0125871)
(-0.000951285 0.000191648 0.0113712)
(-0.00120465 0.000154351 0.00986142)
(-0.00157218 0.000113487 0.00796155)
(-0.00216488 6.94672e-05 0.00551898)
(-0.00327861 2.34198e-05 0.00227362)
(0.00334723 6.56597e-06 0.00232379)
(0.00223189 1.94303e-05 0.00566843)
(0.00163586 3.19821e-05 0.00820623)
(0.00126409 4.3604e-05 0.0101962)
(0.00100558 5.45826e-05 0.0117886)
(0.000813484 6.42782e-05 0.0130801)
(0.000664819 7.325e-05 0.0141364)
(0.000546987 8.08714e-05 0.0150062)
(0.000452081 8.78612e-05 0.0157249)
(0.000374869 9.3607e-05 0.0163212)
(0.000311588 9.88789e-05 0.0168166)
(0.000259448 0.000103089 0.0172294)
(0.000216343 0.000106981 0.0175733)
(0.000180573 0.000110007 0.0178607)
(0.000150865 0.00011284 0.0181004)
(0.000126102 0.000114988 0.0183012)
(0.000105486 0.000117031 0.0184688)
(8.82484e-05 0.000118542 0.0186093)
(7.38809e-05 0.000120006 0.0187266)
(6.18401e-05 0.000121065 0.0188251)
(5.18007e-05 0.00012211 0.0189074)
(4.33708e-05 0.000122849 0.0189765)
(3.63442e-05 0.000123593 0.0190342)
(3.04337e-05 0.000124108 0.0190827)
(2.55106e-05 0.000124637 0.0191231)
(2.13619e-05 0.000124995 0.0191572)
(1.79104e-05 0.00012537 0.0191856)
(1.49961e-05 0.00012562 0.0192096)
(1.25753e-05 0.000125886 0.0192295)
(1.05269e-05 0.000126059 0.0192463)
(8.82842e-06 0.000126248 0.0192603)
(7.38768e-06 0.000126368 0.0192721)
(6.19521e-06 0.000126503 0.0192819)
(5.18074e-06 0.000126586 0.0192902)
(4.34267e-06 0.000126682 0.019297)
(3.62728e-06 0.000126738 0.0193029)
(3.03736e-06 0.000126807 0.0193077)
(2.53166e-06 0.000126844 0.0193117)
(2.11498e-06 0.000126894 0.0193151)
(1.7555e-06 0.000126917 0.0193179)
(1.45906e-06 0.000126955 0.0193202)
(1.20102e-06 0.000126968 0.0193222)
(9.87139e-07 0.000126995 0.0193237)
(7.98025e-07 0.000127002 0.019325)
(6.39498e-07 0.000127022 0.0193261)
(4.95825e-07 0.000127025 0.0193269)
(3.72519e-07 0.000127038 0.0193275)
(2.5605e-07 0.000127038 0.019328)
(1.52335e-07 0.000127046 0.0193283)
(4.86304e-08 0.000127044 0.0193284)
(-4.864e-08 0.000127045 0.0193284)
(-1.52735e-07 0.000127042 0.0193283)
(-2.55925e-07 0.000127039 0.019328)
(-3.73143e-07 0.000127034 0.0193275)
(-4.95406e-07 0.000127024 0.0193269)
(-6.40263e-07 0.000127017 0.0193261)
(-7.97355e-07 0.000127 0.019325)
(-9.87549e-07 0.00012699 0.0193237)
(-1.19986e-06 0.000126964 0.0193222)
(-1.45906e-06 0.00012695 0.0193202)
(-1.75417e-06 0.000126912 0.0193179)
(-2.11447e-06 0.000126891 0.0193151)
(-2.53023e-06 0.000126838 0.0193117)
(-3.03648e-06 0.000126805 0.0193077)
(-3.62603e-06 0.000126732 0.0193029)
(-4.34152e-06 0.000126682 0.0192971)
(-5.17986e-06 0.00012658 0.0192902)
(-6.19406e-06 0.000126504 0.0192819)
(-7.38739e-06 0.000126364 0.0192721)
(-8.82741e-06 0.00012625 0.0192603)
(-1.05272e-05 0.000126056 0.0192463)
(-1.25745e-05 0.000125888 0.0192295)
(-1.49968e-05 0.000125618 0.0192096)
(-1.79097e-05 0.000125373 0.0191856)
(-2.13629e-05 0.000124994 0.0191572)
(-2.55103e-05 0.000124639 0.0191232)
(-3.04349e-05 0.000124109 0.0190827)
(-3.63445e-05 0.000123595 0.0190342)
(-4.33725e-05 0.00012285 0.0189765)
(-5.18017e-05 0.000122111 0.0189074)
(-6.18418e-05 0.000121066 0.0188251)
(-7.38819e-05 0.000120006 0.0187266)
(-8.82497e-05 0.000118543 0.0186093)
(-0.000105487 0.000117029 0.0184688)
(-0.000126103 0.000114988 0.0183012)
(-0.000150866 0.000112838 0.0181004)
(-0.000180573 0.000110007 0.0178607)
(-0.000216343 0.00010698 0.0175733)
(-0.000259447 0.000103089 0.0172294)
(-0.000311588 9.88787e-05 0.0168166)
(-0.000374868 9.36072e-05 0.0163212)
(-0.000452081 8.78618e-05 0.0157249)
(-0.000546987 8.08715e-05 0.0150062)
(-0.00066482 7.32513e-05 0.0141364)
(-0.000813484 6.42783e-05 0.0130801)
(-0.00100558 5.45841e-05 0.0117886)
(-0.00126409 4.3604e-05 0.0101962)
(-0.00163586 3.19832e-05 0.00820623)
(-0.00223189 1.94304e-05 0.00566843)
(-0.00334723 6.5665e-06 0.00232379)
(0.00334168 -9.57895e-06 0.00231974)
(0.00222654 -2.83401e-05 0.00565643)
(0.00163083 -4.64367e-05 0.00818664)
(0.0012595 -6.31304e-05 0.0101697)
(0.00100146 -7.86281e-05 0.0117556)
(0.000809859 -9.23107e-05 0.0130416)
(0.000661661 -0.000104729 0.0140929)
(0.000544257 -0.000115341 0.0149585)
(0.000449743 -0.000124872 0.0156735)
(0.000372862 -0.00013281 0.0162667)
(0.00030989 -0.000139923 0.0167593)
(0.000257993 -0.000145724 0.0171699)
(0.000215121 -0.000150936 0.0175118)
(0.000179522 -0.000155111 0.0177976)
(0.000149988 -0.000158885 0.0180359)
(0.000125347 -0.000161862 0.0182355)
(0.000104859 -0.000164572 0.0184021)
(8.7707e-05 -0.000166682 0.0185417)
(7.34337e-05 -0.000168615 0.0186584)
(6.14536e-05 -0.000170105 0.0187563)
(5.14819e-05 -0.000171477 0.018838)
(4.30967e-05 -0.000172529 0.0189067)
(3.61176e-05 -0.000173499 0.018964)
(3.02402e-05 -0.000174241 0.0190122)
(2.53491e-05 -0.000174923 0.0190524)
(2.12266e-05 -0.000175447 0.0190863)
(1.77954e-05 -0.000175926 0.0191145)
(1.49018e-05 -0.000176297 0.0191383)
(1.2493e-05 -0.000176631 0.0191581)
(1.04626e-05 -0.000176894 0.0191748)
(8.77054e-06 -0.000177126 0.0191887)
(7.34459e-06 -0.000177312 0.0192004)
(6.15434e-06 -0.000177472 0.0192102)
(5.15055e-06 -0.000177605 0.0192184)
(4.31195e-06 -0.000177716 0.0192252)
(3.60733e-06 -0.00017781 0.019231)
(3.01576e-06 -0.000177888 0.0192358)
(2.51659e-06 -0.000177954 0.0192398)
(2.09807e-06 -0.000178008 0.0192431)
(1.74582e-06 -0.000178054 0.0192459)
(1.44811e-06 -0.000178093 0.0192482)
(1.19285e-06 -0.000178123 0.0192502)
(9.78399e-07 -0.000178151 0.0192517)
(7.9309e-07 -0.00017817 0.019253)
(6.34942e-07 -0.00017819 0.019254)
(4.90919e-07 -0.0001782 0.0192549)
(3.68749e-07 -0.000178214 0.0192555)
(2.53643e-07 -0.000178218 0.0192559)
(1.51616e-07 -0.000178227 0.0192562)
(4.59468e-08 -0.000178227 0.0192564)
(-4.95782e-08 -0.00017823 0.0192564)
(-1.5287e-07 -0.000178225 0.0192562)
(-2.5446e-07 -0.000178224 0.0192559)
(-3.7289e-07 -0.000178215 0.0192555)
(-4.9413e-07 -0.000178208 0.0192549)
(-6.36884e-07 -0.000178193 0.019254)
(-7.93158e-07 -0.000178179 0.019253)
(-9.80967e-07 -0.000178157 0.0192517)
(-1.19268e-06 -0.000178131 0.0192501)
(-1.44831e-06 -0.000178101 0.0192482)
(-1.74321e-06 -0.000178061 0.0192459)
(-2.0984e-06 -0.000178018 0.0192431)
(-2.51396e-06 -0.000177959 0.0192398)
(-3.01333e-06 -0.000177897 0.0192358)
(-3.60242e-06 -0.000177813 0.019231)
(-4.31112e-06 -0.000177725 0.0192252)
(-5.14831e-06 -0.000177605 0.0192184)
(-6.1514e-06 -0.00017748 0.0192102)
(-7.34109e-06 -0.000177311 0.0192004)
(-8.76807e-06 -0.000177131 0.0191887)
(-1.04604e-05 -0.000176891 0.0191748)
(-1.24914e-05 -0.000176635 0.0191581)
(-1.49008e-05 -0.000176293 0.0191383)
(-1.77934e-05 -0.000175928 0.0191145)
(-2.12261e-05 -0.000175444 0.0190863)
(-2.53469e-05 -0.000174922 0.0190525)
(-3.02403e-05 -0.000174237 0.0190122)
(-3.61179e-05 -0.000173497 0.018964)
(-4.31003e-05 -0.000172526 0.0189067)
(-5.14833e-05 -0.000171475 0.018838)
(-6.14574e-05 -0.000170105 0.0187563)
(-7.34361e-05 -0.000168614 0.0186584)
(-8.77102e-05 -0.000166684 0.0185417)
(-0.000104861 -0.000164573 0.0184021)
(-0.000125349 -0.000161866 0.0182355)
(-0.00014999 -0.000158887 0.0180359)
(-0.000179522 -0.000155116 0.0177976)
(-0.000215121 -0.000150938 0.0175118)
(-0.000257991 -0.000145727 0.0171699)
(-0.00030989 -0.000139923 0.0167593)
(-0.000372861 -0.000132811 0.0162667)
(-0.000449744 -0.000124872 0.0156735)
(-0.000544256 -0.00011534 0.0149585)
(-0.00066166 -0.000104729 0.0140929)
(-0.000809858 -9.23094e-05 0.0130416)
(-0.00100146 -7.86277e-05 0.0117556)
(-0.0012595 -6.31281e-05 0.0101697)
(-0.00163083 -4.64358e-05 0.00818664)
(-0.00222654 -2.8338e-05 0.00565644)
(-0.00334168 -9.57839e-06 0.00231974)
(0.00323967 -3.21442e-05 0.00224523)
(0.00212734 -9.48109e-05 0.00543485)
(0.00153717 -0.000153695 0.00782473)
(0.00117276 -0.000207441 0.00967593)
(0.000922793 -0.000255637 0.0111419)
(0.000739432 -0.000298084 0.0123189)
(0.000599476 -0.000335196 0.0132744)
(0.000489833 -0.000367203 0.0140547)
(0.00040251 -0.000394798 0.0146964)
(0.00033216 -0.000418284 0.0152252)
(0.000274943 -0.000438381 0.0156634)
(0.000228194 -0.000455331 0.0160265)
(0.000189702 -0.000469784 0.0163288)
(0.000158017 -0.00048189 0.0165801)
(0.000131707 -0.000492206 0.01679)
(0.000109965 -0.000500795 0.0169648)
(9.18095e-05 -0.000508124 0.0171111)
(7.67777e-05 -0.000514189 0.0172331)
(6.41647e-05 -0.000519383 0.0173353)
(5.3717e-05 -0.000523653 0.0174206)
(4.49232e-05 -0.000527328 0.0174922)
(3.76355e-05 -0.000530326 0.017552)
(3.14868e-05 -0.000532926 0.0176021)
(2.63926e-05 -0.000535026 0.0176441)
(2.20872e-05 -0.000536865 0.0176792)
(1.85167e-05 -0.000538334 0.0177087)
(1.54992e-05 -0.000539636 0.0177333)
(1.29954e-05 -0.000540661 0.017754)
(1.08815e-05 -0.000541583 0.0177713)
(9.1221e-06 -0.000542296 0.0177858)
(7.64318e-06 -0.000542951 0.0177979)
(6.40375e-06 -0.000543446 0.0178081)
(5.36369e-06 -0.000543912 0.0178166)
(4.4888e-06 -0.000544253 0.0178238)
(3.76131e-06 -0.000544585 0.0178298)
(3.13897e-06 -0.00054482 0.0178348)
(2.62838e-06 -0.000545056 0.0178389)
(2.19015e-06 -0.000545217 0.0178425)
(1.83244e-06 -0.000545385 0.0178454)
(1.51551e-06 -0.000545493 0.0178478)
(1.26195e-06 -0.000545613 0.0178498)
(1.0373e-06 -0.000545684 0.0178515)
(8.55715e-07 -0.000545768 0.0178528)
(6.86427e-07 -0.000545814 0.017854)
(5.51773e-07 -0.000545871 0.0178549)
(4.2751e-07 -0.000545899 0.0178556)
(3.22651e-07 -0.000545934 0.0178561)
(2.17972e-07 -0.000545949 0.0178565)
(1.28471e-07 -0.000545966 0.0178568)
(4.08211e-08 -0.00054597 0.0178569)
(-4.41681e-08 -0.000545971 0.0178569)
(-1.36056e-07 -0.000545965 0.0178568)
(-2.27521e-07 -0.000545949 0.0178565)
(-3.25177e-07 -0.000545933 0.0178561)
(-4.34421e-07 -0.000545899 0.0178556)
(-5.57978e-07 -0.00054587 0.0178548)
(-6.94526e-07 -0.000545814 0.0178539)
(-8.53659e-07 -0.000545767 0.0178528)
(-1.04088e-06 -0.000545684 0.0178514)
(-1.26026e-06 -0.000545612 0.0178498)
(-1.51815e-06 -0.000545493 0.0178478)
(-1.82505e-06 -0.000545385 0.0178453)
(-2.18638e-06 -0.000545216 0.0178424)
(-2.62145e-06 -0.000545057 0.0178389)
(-3.13814e-06 -0.000544819 0.0178348)
(-3.7532e-06 -0.000544586 0.0178297)
(-4.48509e-06 -0.000544252 0.0178238)
(-5.35965e-06 -0.000543913 0.0178166)
(-6.39805e-06 -0.000543444 0.0178081)
(-7.63571e-06 -0.000542953 0.0177979)
(-9.11705e-06 -0.000542295 0.0177858)
(-1.08784e-05 -0.000541585 0.0177713)
(-1.29912e-05 -0.000540659 0.017754)
(-1.54981e-05 -0.000539638 0.0177333)
(-1.85096e-05 -0.000538332 0.0177087)
(-2.20855e-05 -0.000536867 0.0176792)
(-2.63905e-05 -0.000535025 0.0176441)
(-3.14904e-05 -0.000532927 0.0176021)
(-3.76375e-05 -0.000530325 0.017552)
(-4.49328e-05 -0.000527329 0.0174922)
(-5.37225e-05 -0.000523652 0.0174207)
(-6.41719e-05 -0.000519384 0.0173353)
(-7.67816e-05 -0.000514189 0.0172331)
(-9.18155e-05 -0.000508125 0.0171111)
(-0.000109969 -0.000500795 0.0169648)
(-0.000131708 -0.000492207 0.01679)
(-0.000158016 -0.000481891 0.0165801)
(-0.000189699 -0.000469784 0.0163288)
(-0.000228191 -0.000455332 0.0160265)
(-0.000274936 -0.000438381 0.0156634)
(-0.000332158 -0.000418285 0.0152252)
(-0.000402506 -0.000394798 0.0146964)
(-0.000489832 -0.000367205 0.0140547)
(-0.000599474 -0.000335196 0.0132744)
(-0.00073943 -0.000298085 0.0123189)
(-0.000922791 -0.000255637 0.0111419)
(-0.00117276 -0.000207442 0.00967593)
(-0.00153718 -0.000153695 0.00782474)
(-0.00212734 -9.48112e-05 0.00543486)
(-0.00323968 -3.21439e-05 0.00224524)
(0.00295929 -8.76193e-05 0.0020415)