/*--------------------------------*- C++ -*----------------------------------*\
| =========                 |                                                 |
| \\      /  F ield         | OpenFOAM: The Open Source CFD Toolbox           |
|  \\    /   O peration     | Version:  2012                                  |
|   \\  /    A nd           | Website:  www.openfoam.com                      |
|    \\/     M anipulation  |                                                 |
\*---------------------------------------------------------------------------*/
FoamFile
{
    version     2.0;
    format      ascii;
    class       volScalarField;
    location    "1";
    object      gradTx;
}
// * * * * * * * * * * * * * * * * * * * * * * * * * * * * * * * * * * * * * //

dimensions      [0 -1 0 1 0 0 0];


internalField   nonuniform List<scalar> 
10000
(
0.00148566
0.000671397
0.000365229
0.000229485
0.000158832
0.000116828
8.92942e-05
6.99753e-05
5.57764e-05
4.49942e-05
3.66152e-05
2.99909e-05
2.46867e-05
2.03984e-05
1.69041e-05
1.40418e-05
1.16843e-05
9.73803e-06
8.12361e-06
6.78475e-06
5.66895e-06
4.74115e-06
3.96528e-06
3.31934e-06
2.77781e-06
2.3266e-06
1.94765e-06
1.63189e-06
1.36645e-06
1.14511e-06
9.59081e-07
8.03633e-07
6.728e-07
5.6349e-07
4.71645e-07
3.94298e-07
3.29658e-07
2.75235e-07
2.29735e-07
1.90644e-07
1.58331e-07
1.30502e-07
1.07301e-07
8.64958e-08
6.93209e-08
5.38392e-08
4.0487e-08
2.76321e-08
1.62681e-08
5.32405e-09
-5.46874e-09
-1.6686e-08
-2.83116e-08
-4.04101e-08
-5.43412e-08
-6.95565e-08
-8.71667e-08
-1.0694e-07
-1.30857e-07
-1.58082e-07
-1.91019e-07
-2.29113e-07
-2.7514e-07
-3.29113e-07
-3.94371e-07
-4.7092e-07
-5.6327e-07
-6.72437e-07
-8.03305e-07
-9.58543e-07
-1.14485e-06
-1.36629e-06
-1.63168e-06
-1.94769e-06
-2.32619e-06
-2.77786e-06
-3.31903e-06
-3.96554e-06
-4.74092e-06
-5.66949e-06
-6.7846e-06
-8.12406e-06
-9.73787e-06
-1.16847e-05
-1.40417e-05
-1.69044e-05
-2.03984e-05
-2.46869e-05
-2.99909e-05
-3.66153e-05
-4.49943e-05
-5.57765e-05
-6.99754e-05
-8.92942e-05
-0.000116828
-0.000158832
-0.000229486
-0.000365229
-0.000671397
-0.00148566
0.00243148
0.00138284
0.000881611
0.000609486
0.000445061
0.000337233
0.000262146
0.000207514
0.000166455
0.000134842
0.000110045
9.03235e-05
7.44595e-05
6.15951e-05
5.10875e-05
4.24646e-05
3.53542e-05
2.94751e-05
2.45986e-05
2.05469e-05
1.71739e-05
1.43623e-05
1.20165e-05
1.00568e-05
8.4195e-06
7.04966e-06
5.90414e-06
4.94489e-06
4.14202e-06
3.46967e-06
2.90627e-06
2.43468e-06
2.03864e-06
1.70729e-06
1.42826e-06
1.19582e-06
9.98656e-07
8.34762e-07
6.94766e-07
5.79386e-07
4.79126e-07
3.96529e-07
3.2357e-07
2.63993e-07
2.09453e-07
1.64146e-07
1.21415e-07
8.53192e-08
4.93131e-08
1.66834e-08
-1.69845e-08
-4.94627e-08
-8.48506e-08
-1.22262e-07
-1.63874e-07
-2.1009e-07
-2.63145e-07
-3.24511e-07
-3.9572e-07
-4.79779e-07
-5.78263e-07
-6.95537e-07
-8.33772e-07
-9.98889e-07
-1.19444e-06
-1.4286e-06
-1.70646e-06
-2.03847e-06
-2.43388e-06
-2.90619e-06
-3.4694e-06
-4.14196e-06
-4.94499e-06
-5.90387e-06
-7.05005e-06
-8.41898e-06
-1.00573e-05
-1.2016e-05
-1.43632e-05
-1.71733e-05
-2.05479e-05
-2.4598e-05
-2.9476e-05
-3.53537e-05
-4.24653e-05
-5.10872e-05
-6.15958e-05
-7.44594e-05
-9.03239e-05
-0.000110045
-0.000134842
-0.000166455
-0.000207514
-0.000262146
-0.000337233
-0.000445062
-0.000609485
-0.000881612
-0.00138284
-0.00243148
0.00287876
0.00178325
0.00122091
0.000890024
0.000674719
0.000524787
0.000415451
0.000333147
0.000269719
0.000219972
0.000180424
0.000148639
0.000122889
0.000101871
8.46431e-05
7.04412e-05
5.8714e-05
4.89836e-05
4.09117e-05
3.41855e-05
2.85895e-05
2.3913e-05
2.00155e-05
1.67521e-05
1.40294e-05
1.17461e-05
9.84053e-06
8.24037e-06
6.90503e-06
5.78197e-06
4.84556e-06
4.05648e-06
3.39943e-06
2.84415e-06
2.38276e-06
1.99101e-06
1.66667e-06
1.3894e-06
1.16084e-06
9.63143e-07
8.01138e-07
6.58681e-07
5.42412e-07
4.37348e-07
3.51716e-07
2.7152e-07
2.05282e-07
1.39988e-07
8.4344e-08
2.64311e-08
-2.60239e-08
-8.37968e-08
-1.40001e-07
-2.04327e-07
-2.71593e-07
-3.50696e-07
-4.37681e-07
-5.41251e-07
-6.59061e-07
-8.00019e-07
-9.6368e-07
-1.15971e-06
-1.38992e-06
-1.66566e-06
-1.99155e-06
-2.3817e-06
-2.84449e-06
-3.3987e-06
-4.05688e-06
-4.84525e-06
-5.78235e-06
-6.90508e-06
-8.24059e-06
-9.84098e-06
-1.17462e-05
-1.40301e-05
-1.67519e-05
-2.00164e-05
-2.39127e-05
-2.85905e-05
-3.4185e-05
-4.09128e-05
-4.89832e-05
-5.8715e-05
-7.04408e-05
-8.4644e-05
-0.000101871
-0.000122889
-0.000148639
-0.000180425
-0.000219972
-0.000269719
-0.000333148
-0.000415451
-0.000524787
-0.000674718
-0.000890024
-0.00122091
-0.00178325
-0.00287876
0.00313216
0.00202331
0.00143925
0.00108298
0.000842035
0.000668017
0.00053707
0.000435856
0.000356173
0.00029259
0.000241342
0.000199708
0.000165679
0.000137724
0.000114674
9.56028e-05
7.97885e-05
6.66439e-05
5.57041e-05
4.65834e-05
3.89746e-05
3.26184e-05
2.73077e-05
2.28655e-05
1.915e-05
1.60399e-05
1.34362e-05
1.12562e-05
9.42934e-06
7.90022e-06
6.61712e-06
5.54395e-06
4.64169e-06
3.8882e-06
3.25267e-06
2.72305e-06
2.27422e-06
1.90138e-06
1.58291e-06
1.31924e-06
1.09138e-06
9.03353e-07
7.37759e-07
6.01049e-07
4.77306e-07
3.74353e-07
2.77303e-07
1.9452e-07
1.1238e-07
3.90138e-08
-3.81765e-08
-1.11871e-07
-1.93486e-07
-2.77e-07
-3.73073e-07
-4.77267e-07
-5.99721e-07
-7.37849e-07
-9.01962e-07
-1.09166e-06
-1.31795e-06
-1.58325e-06
-1.90018e-06
-2.27465e-06
-2.72207e-06
-3.25305e-06
-3.88746e-06
-4.64211e-06
-5.54367e-06
-6.61751e-06
-7.90038e-06
-9.42971e-06
-1.12567e-05
-1.34364e-05
-1.60408e-05
-1.91501e-05
-2.28666e-05
-2.73077e-05
-3.26196e-05
-3.89745e-05
-4.65846e-05
-5.57039e-05
-6.66448e-05
-7.97883e-05
-9.56035e-05
-0.000114673
-0.000137724
-0.000165679
-0.000199708
-0.000241342
-0.00029259
-0.000356173
-0.000435856
-0.00053707
-0.000668017
-0.000842035
-0.00108298
-0.00143925
-0.00202331
-0.00313216
0.00327861
0.00216488
0.00157218
0.00120465
0.000951286
0.000764548
0.00062138
0.000508784
0.00041882
0.000346109
0.000286864
0.000238317
0.000198319
0.000165295
0.000137893
0.000115171
9.62267e-05
8.04814e-05
6.7307e-05
5.63459e-05
4.71492e-05
3.94961e-05
3.30602e-05
2.77064e-05
2.31949e-05
1.94449e-05
1.6279e-05
1.365e-05
1.14267e-05
9.58223e-06
8.01995e-06
6.72506e-06
5.62657e-06
4.71654e-06
3.94339e-06
3.30289e-06
2.75778e-06
2.30572e-06
1.92001e-06
1.5993e-06
1.3244e-06
1.09452e-06
8.95752e-07
7.27768e-07
5.8002e-07
4.52755e-07
3.3734e-07
2.34798e-07
1.37133e-07
4.63827e-08
-4.58334e-08
-1.36283e-07
-2.34564e-07
-3.36227e-07
-4.52779e-07
-5.78701e-07
-7.27912e-07
-8.94267e-07
-1.09469e-06
-1.32286e-06
-1.59939e-06
-1.91857e-06
-2.30571e-06
-2.75655e-06
-3.30273e-06
-3.94252e-06
-4.71629e-06
-5.62619e-06
-6.72472e-06
-8.02013e-06
-9.58191e-06
-1.14274e-05
-1.36497e-05
-1.62802e-05
-1.94447e-05
-2.31963e-05
-2.77063e-05
-3.30617e-05
-3.94963e-05
-4.71508e-05
-5.63463e-05
-6.73083e-05
-8.04818e-05
-9.62277e-05
-0.000115172
-0.000137894
-0.000165295
-0.00019832
-0.000238318
-0.000286864
-0.00034611
-0.000418821
-0.000508784
-0.000621379
-0.000764548
-0.000951285
-0.00120465
-0.00157218
-0.00216488
-0.00327861
0.00334723
0.00223189
0.00163586
0.00126409
0.00100558
0.000813484
0.000664819
0.000546987
0.000452081
0.000374869
0.000311588
0.000259448
0.000216343
0.000180573
0.000150865
0.000126102
0.000105486
8.82484e-05
7.38809e-05
6.18401e-05
5.18007e-05
4.33708e-05
3.63442e-05
3.04337e-05
2.55106e-05
2.13619e-05
1.79104e-05
1.49961e-05
1.25753e-05
1.05269e-05
8.82842e-06
7.38768e-06
6.19521e-06
5.18074e-06
4.34267e-06
3.62728e-06
3.03736e-06
2.53166e-06
2.11498e-06
1.7555e-06
1.45906e-06
1.20102e-06
9.87139e-07
7.98025e-07
6.39498e-07
4.95825e-07
3.72519e-07
2.5605e-07
1.52335e-07
4.86304e-08
-4.864e-08
-1.52735e-07
-2.55925e-07
-3.73143e-07
-4.95406e-07
-6.40263e-07
-7.97355e-07
-9.87549e-07
-1.19986e-06
-1.45906e-06
-1.75417e-06
-2.11447e-06
-2.53023e-06
-3.03648e-06
-3.62603e-06
-4.34152e-06
-5.17986e-06
-6.19406e-06
-7.38739e-06
-8.82741e-06
-1.05272e-05
-1.25745e-05
-1.49968e-05
-1.79097e-05
-2.13629e-05
-2.55103e-05
-3.04349e-05
-3.63445e-05
-4.33725e-05
-5.18017e-05
-6.18418e-05
-7.38819e-05
-8.82497e-05
-0.000105487
-0.000126103
-0.000150866
-0.000180573
-0.000216343
-0.000259447
-0.000311588
-0.000374868
-0.000452081
-0.000546987
-0.00066482
-0.000813484
-0.00100558
-0.00126409
-0.00163586
-0.00223189
-0.00334723
0.00334168
0.00222654
0.00163083
0.0012595
0.00100146
0.000809859
0.000661661
0.000544257
0.000449743
0.000372862
0.00030989
0.000257993
0.000215121
0.000179522
0.000149988
0.000125347
0.000104859
8.7707e-05
7.34337e-05
6.14536e-05
5.14819e-05
4.30967e-05
3.61176e-05
3.02402e-05
2.53491e-05
2.12266e-05
1.77954e-05
1.49018e-05
1.2493e-05
1.04626e-05
8.77054e-06
7.34459e-06
6.15434e-06
5.15055e-06
4.31195e-06
3.60733e-06
3.01576e-06
2.51659e-06
2.09807e-06
1.74582e-06
1.44811e-06
1.19285e-06
9.78399e-07
7.9309e-07
6.34942e-07
4.90919e-07
3.68749e-07
2.53643e-07
1.51616e-07
4.59468e-08
-4.95782e-08
-1.5287e-07
-2.5446e-07
-3.7289e-07
-4.9413e-07
-6.36884e-07
-7.93158e-07
-9.80967e-07
-1.19268e-06
-1.44831e-06
-1.74321e-06
-2.0984e-06
-2.51396e-06
-3.01333e-06
-3.60242e-06
-4.31112e-06
-5.14831e-06
-6.1514e-06
-7.34109e-06
-8.76807e-06
-1.04604e-05
-1.24914e-05
-1.49008e-05
-1.77934e-05
-2.12261e-05
-2.53469e-05
-3.02403e-05
-3.61179e-05
-4.31003e-05
-5.14833e-05
-6.14574e-05
-7.34361e-05
-8.77102e-05
-0.000104861
-0.000125349
-0.00014999
-0.000179522
-0.000215121
-0.000257991
-0.00030989
-0.000372861
-0.000449744
-0.000544256
-0.00066166
-0.000809858
-0.00100146
-0.0012595
-0.00163083
-0.00222654
-0.00334168
0.00323967
0.00212734
0.00153717
0.00117276
0.000922793
0.000739432
0.000599476
0.000489833
0.00040251
0.00033216
0.000274943
0.000228194
0.000189702
0.000158017
0.000131707
0.000109965
9.18095e-05
7.67777e-05
6.41647e-05
5.3717e-05
4.49232e-05
3.76355e-05
3.14868e-05
2.63926e-05
2.20872e-05
1.85167e-05
1.54992e-05
1.29954e-05
1.08815e-05
9.1221e-06
7.64318e-06
6.40375e-06
5.36369e-06
4.4888e-06
3.76131e-06
3.13897e-06
2.62838e-06
2.19015e-06
1.83244e-06
1.51551e-06
1.26195e-06
1.0373e-06
8.55715e-07
6.86427e-07
5.51773e-07
4.2751e-07
3.22651e-07
2.17972e-07
1.28471e-07
4.08211e-08
-4.41681e-08
-1.36056e-07
-2.27521e-07
-3.25177e-07
-4.34421e-07
-5.57978e-07
-6.94526e-07
-8.53659e-07
-1.04088e-06
-1.26026e-06
-1.51815e-06
-1.82505e-06
-2.18638e-06
-2.62145e-06
-3.13814e-06
-3.7532e-06
-4.48509e-06
-5.35965e-06
-6.39805e-06
-7.63571e-06
-9.11705e-06
-1.08784e-05
-1.29912e-05
-1.54981e-05
-1.85096e-05
-2.20855e-05
-2.63905e-05
-3.14904e-05
-3.76375e-05
-4.49328e-05
-5.37225e-05
-6.41719e-05
-7.67816e-05
-9.18155e-05
-0.000109969
-0.000131708
-0.000158016
-0.000189699
-0.000228191
-0.000274936
-0.000332158
-0.000402506
-0.000489832
-0.000599474
-0.00073943
-0.000922791
-0.00117276
-0.00153718
-0.00212734
-0.00323968
0.00295929
0.00186055
0.00129184
0.000952833
0.000728911
0.000570749
0.000454006
0.00036526
0.000296383
0.000242046
0.000198721
0.000163771
0.000135451
0.000112266
9.32958e-05
7.76101e-05
6.46977e-05
5.39457e-05
4.50636e-05
3.76318e-05
3.14778e-05
2.63138e-05
2.20291e-05
1.84287e-05
1.54345e-05
1.29201e-05
1.08218e-05
9.06371e-06
7.59002e-06
6.36164e-06
5.32443e-06
4.46575e-06
3.73351e-06
3.13206e-06
2.61337e-06
2.19463e-06
1.82612e-06
1.53172e-06
1.26859e-06
1.06387e-06
8.74464e-07
7.27782e-07
5.89237e-07
4.85389e-07
3.81287e-07
3.01662e-07
2.19532e-07
1.57978e-07
8.81037e-08
3.16296e-08
-3.44148e-08
-8.86856e-08
-1.58577e-07
-2.22385e-07
-3.04472e-07
-3.82163e-07
-4.85713e-07
-5.90589e-07
-7.28067e-07
-8.73825e-07
-1.06222e-06
-1.26816e-06
-1.53017e-06
-1.82348e-06
-2.19121e-06
-2.61219e-06
-3.13087e-06
-3.73067e-06
-4.46342e-06
-5.3221e-06
-6.36022e-06
-7.58854e-06
-9.06323e-06
-1.08203e-05
-1.29198e-05
-1.54331e-05
-1.84288e-05
-2.203e-05
-2.63166e-05
-3.14799e-05
-3.76345e-05
-4.50667e-05
-5.39477e-05
-6.47006e-05
-7.76104e-05
-9.32986e-05
-0.000112265
-0.000135451
-0.000163768
-0.000198722
-0.000242044
-0.000296384
-0.000365258
-0.000454005
-0.000570748
-0.000728909
-0.000952834
-0.00129184
-0.00186055
-0.00295929
0.00214881
0.00115799
0.00070637
0.000471056
0.000334023
0.000247142
0.000188476
0.000146938
0.000116458
9.34464e-05
7.57018e-05
6.17678e-05
5.06897e-05
4.17747e-05
3.45515e-05
2.86491e-05
2.38099e-05
1.98177e-05
1.652e-05
1.37834e-05
1.15114e-05
9.61962e-06
8.04334e-06
6.72855e-06
5.62992e-06
4.71292e-06
3.94481e-06
3.30395e-06
2.76578e-06
2.31733e-06
1.93959e-06
1.62557e-06
1.35981e-06
1.13982e-06
9.52227e-07
7.9814e-07
6.65181e-07
5.57374e-07
4.62458e-07
3.8694e-07
3.18342e-07
2.65291e-07
2.14714e-07
1.76893e-07
1.384e-07
1.10617e-07
7.9855e-08
5.79701e-08
3.15967e-08
1.23737e-08
-1.24107e-08
-3.19713e-08
-5.78123e-08
-8.05246e-08
-1.10242e-07
-1.39277e-07
-1.76326e-07
-2.15534e-07
-2.64457e-07
-3.19022e-07
-3.8602e-07
-4.62903e-07
-5.56433e-07
-6.65433e-07
-7.97345e-07
-9.52335e-07
-1.1393e-06
-1.35988e-06
-1.62544e-06
-1.93965e-06
-2.31751e-06
-2.76581e-06
-3.30438e-06
-3.94471e-06
-4.7135e-06
-5.6297e-06
-6.7293e-06
-8.04318e-06
-9.62064e-06
-1.15113e-05
-1.37845e-05
-1.65196e-05
-1.98187e-05
-2.38092e-05
-2.86497e-05
-3.45503e-05
-4.17749e-05
-5.06882e-05
-6.17677e-05
-7.57004e-05
-9.34463e-05
-0.000116457
-0.000146938
-0.000188476
-0.000247142
-0.000334024
-0.000471056
-0.000706371
-0.00115799
-0.00214881
0.00269869
0.00153788
0.000962668
0.00065215
0.000468838
0.000351578
0.000271507
0.000214045
0.000171244
0.000138482
0.000112884
9.25755e-05
7.62721e-05
6.3064e-05
5.22908e-05
4.34506e-05
3.61708e-05
3.01481e-05
2.51602e-05
2.1011e-05
1.75633e-05
1.46844e-05
1.22879e-05
1.02812e-05
8.60916e-06
7.2065e-06
6.03704e-06
5.0546e-06
4.23548e-06
3.54698e-06
2.97218e-06
2.48871e-06
2.0847e-06
1.74565e-06
1.4606e-06
1.22207e-06
1.02087e-06
8.53412e-07
7.10574e-07
5.91915e-07
4.89652e-07
4.05416e-07
3.31048e-07
2.695e-07
2.13969e-07
1.67805e-07
1.24404e-07
8.67795e-08
5.02782e-08
1.68837e-08
-1.71143e-08
-5.11846e-08
-8.7007e-08
-1.25618e-07
-1.67428e-07
-2.15421e-07
-2.68918e-07
-3.32399e-07
-4.04089e-07
-4.9089e-07
-5.9055e-07
-7.11146e-07
-8.51664e-07
-1.02146e-06
-1.2208e-06
-1.46067e-06
-1.74428e-06
-2.08442e-06
-2.48791e-06
-2.97161e-06
-3.5462e-06
-4.23492e-06
-5.05464e-06
-6.03626e-06
-7.2068e-06
-8.60831e-06
-1.0282e-05
-1.2287e-05
-1.46857e-05
-1.75625e-05
-2.10124e-05
-2.51597e-05
-3.01492e-05
-3.61704e-05
-4.34514e-05
-5.22906e-05
-6.30645e-05
-7.62722e-05
-9.25759e-05
-0.000112885
-0.000138482
-0.000171244
-0.000214045
-0.000271508
-0.000351577
-0.000468838
-0.00065215
-0.000962668
-0.00153788
-0.00269869
0.00507076
0.00345271
0.00242795
0.00176666
0.00132499
0.00101863
0.000798446
0.000635279
0.000511278
0.000415109
0.000339325
0.000278829
0.000230066
0.000190434
0.000158035
0.000131405
0.000109441
9.12599e-05
7.61783e-05
6.3639e-05
5.31984e-05
4.44939e-05
3.72281e-05
3.11601e-05
2.60866e-05
2.18446e-05
1.82942e-05
1.53232e-05
1.28352e-05
1.07512e-05
9.00662e-06
7.54293e-06
6.31821e-06
5.28845e-06
4.42839e-06
3.70208e-06
3.0973e-06
2.58347e-06
2.15713e-06
1.79087e-06
1.48854e-06
1.22481e-06
1.00758e-06
8.13301e-07
6.52975e-07
5.0508e-07
3.80612e-07
2.60611e-07
1.55576e-07
4.96499e-08
-4.97732e-08
-1.55214e-07
-2.61805e-07
-3.79082e-07
-5.06623e-07
-6.51178e-07
-8.15221e-07
-1.00489e-06
-1.22666e-06
-1.4858e-06
-1.79281e-06
-2.15425e-06
-2.5848e-06
-3.09448e-06
-3.70323e-06
-4.42567e-06
-5.28897e-06
-6.3163e-06
-7.54287e-06
-9.00521e-06
-1.07511e-05
-1.28351e-05
-1.53227e-05
-1.8295e-05
-2.18435e-05
-2.6088e-05
-3.11587e-05
-3.72302e-05
-4.44923e-05
-5.32011e-05
-6.36373e-05
-7.61809e-05
-9.12584e-05
-0.000109443
-0.000131404
-0.000158037
-0.000190434
-0.000230067
-0.00027883
-0.000339325
-0.00041511
-0.000511278
-0.00063528
-0.000798446
-0.00101864
-0.00132499
-0.00176666
-0.00242795
-0.00345271
-0.00507076
0.00635759
0.0046232
0.00343567
0.00260974
0.00202104
0.00159035
0.00126772
0.00102097
0.000828991
0.000677464
0.000556465
0.000458946
0.000379723
0.000315003
0.000261828
0.000218008
0.000181738
0.000151683
0.000126684
0.000105896
8.85486e-05
7.40926e-05
6.20015e-05
5.1913e-05
4.34611e-05
3.64046e-05
3.04849e-05
2.5542e-05
2.13899e-05
1.79242e-05
1.50084e-05
1.25771e-05
1.05273e-05
8.82015e-06
7.37633e-06
6.17705e-06
5.15743e-06
4.31278e-06
3.58934e-06
2.99257e-06
2.4749e-06
2.04894e-06
1.67267e-06
1.36357e-06
1.08229e-06
8.49139e-07
6.28465e-07
4.41562e-07
2.54741e-07
8.85995e-08
-8.6928e-08
-2.53318e-07
-4.3884e-07
-6.28015e-07
-8.46168e-07
-1.08193e-06
-1.36021e-06
-1.67313e-06
-2.04582e-06
-2.47563e-06
-2.98952e-06
-3.59068e-06
-4.31038e-06
-5.15872e-06
-6.17452e-06
-7.37781e-06
-8.81839e-06
-1.05282e-05
-1.25762e-05
-1.50097e-05
-1.79243e-05
-2.13909e-05
-2.55431e-05
-3.04857e-05
-3.64067e-05
-4.34614e-05
-5.19154e-05
-6.20012e-05
-7.40953e-05
-8.85476e-05
-0.000105899
-0.000126682
-0.000151686
-0.000181737
-0.00021801
-0.000261827
-0.000315004
-0.000379723
-0.000458947
-0.000556466
-0.000677464
-0.000828992
-0.00102097
-0.00126773
-0.00159035
-0.00202104
-0.00260974
-0.00343567
-0.0046232
-0.00635759
0.00712046
0.00534854
0.00409813
0.00319766
0.00253249
0.00202943
0.00164133
0.00133706
0.00109541
0.000901496
0.000744575
0.000616743
0.000512031
0.000425891
0.000354763
0.000295876
0.000246995
0.000206357
0.000172506
0.000144287
0.000120727
0.000101053
8.46005e-05
7.08466e-05
5.93338e-05
4.97011e-05
4.16336e-05
3.48787e-05
2.92205e-05
2.44786e-05
2.05078e-05
1.7176e-05
1.43879e-05
1.20439e-05
1.00846e-05
8.43239e-06
7.05368e-06
5.88525e-06
4.91214e-06
4.08086e-06
3.38962e-06
2.79159e-06
2.29405e-06
1.85475e-06
1.48708e-06
1.15227e-06
8.67007e-07
5.95421e-07
3.55483e-07
1.1406e-07
-1.11791e-07
-3.52728e-07
-5.93844e-07
-8.63654e-07
-1.15112e-06
-1.4835e-06
-1.85414e-06
-2.29041e-06
-2.79143e-06
-3.38615e-06
-4.08115e-06
-4.90902e-06
-5.88589e-06
-7.05103e-06
-8.4333e-06
-1.00825e-05
-1.20448e-05
-1.43867e-05
-1.71771e-05
-2.05077e-05
-2.44797e-05
-2.92214e-05
-3.48796e-05
-4.16355e-05
-4.97019e-05
-5.93363e-05
-7.08471e-05
-8.46034e-05
-0.000101053
-0.00012073
-0.000144287
-0.000172508
-0.000206357
-0.000246997
-0.000295876
-0.000354765
-0.000425891
-0.000512032
-0.000616744
-0.000744575
-0.000901497
-0.00109541
-0.00133706
-0.00164133
-0.00202943
-0.00253249
-0.00319766
-0.00409813
-0.00534854
-0.00712046
0.00756795
0.00578182
0.00450519
0.00357105
0.00286805
0.00232647
0.00190095
0.00156194
0.00128872
0.00106676
0.000885262
0.000736065
0.000613036
0.000511136
0.000426689
0.000356387
0.00029796
0.00024914
0.000208508
0.000174462
0.00014611
0.000122301
0.000102476
8.57938e-05
7.19111e-05
6.02088e-05
5.04782e-05
4.22619e-05
3.5437e-05
2.96647e-05
2.48749e-05
2.08171e-05
1.74531e-05
1.45983e-05
1.22331e-05
1.02219e-05
8.55567e-06
7.13538e-06
5.95716e-06
4.94885e-06
4.10965e-06
3.38655e-06
2.78036e-06
2.25112e-06
1.80141e-06
1.39947e-06
1.04949e-06
7.23941e-07
4.29531e-07
1.39553e-07
-1.36559e-07
-4.27455e-07
-7.20371e-07
-1.04819e-06
-1.39536e-06
-1.80082e-06
-2.24678e-06
-2.78005e-06
-3.38209e-06
-4.10959e-06
-4.9448e-06
-5.9571e-06
-7.13196e-06
-8.55562e-06
-1.02196e-05
-1.22329e-05
-1.45972e-05
-1.74528e-05
-2.08174e-05
-2.48744e-05
-2.96663e-05
-3.54366e-05
-4.22648e-05
-5.04778e-05
-6.02124e-05
-7.19111e-05
-8.57979e-05
-0.000102476
-0.000122305
-0.000146111
-0.000174465
-0.000208509
-0.000249143
-0.000297961
-0.000356389
-0.000426691
-0.000511137
-0.000613037
-0.000736066
-0.000885263
-0.00106676
-0.00128873
-0.00156194
-0.00190096
-0.00232647
-0.00286805
-0.00357105
-0.00450519
-0.00578182
-0.00756795
0.00777919
0.00598747
0.00470137
0.00375374
0.00303546
0.00247715
0.00203504
0.00167978
0.00139146
0.00115562
0.000961652
0.000801464
0.000668713
0.000558502
0.000466738
0.000390335
0.00032652
0.000273307
0.00022876
0.000191591
0.000160417
0.000134408
0.000112557
9.43367e-05
7.90033e-05
6.62302e-05
5.54616e-05
4.65033e-05
3.89357e-05
3.26512e-05
2.73296e-05
2.29191e-05
1.91739e-05
1.60759e-05
1.34367e-05
1.12591e-05
9.39583e-06
7.86047e-06
6.54005e-06
5.4532e-06
4.51056e-06
3.73228e-06
3.04957e-06
2.48236e-06
1.97422e-06
1.54427e-06
1.14704e-06
8.0137e-07
4.65253e-07
1.58312e-07
-1.58756e-07
-4.6429e-07
-8.01784e-07
-1.14637e-06
-1.54576e-06
-1.97218e-06
-2.48284e-06
-3.04694e-06
-3.73203e-06
-4.50674e-06
-5.45155e-06
-6.5364e-06
-7.85836e-06
-9.39201e-06
-1.1256e-05
-1.34345e-05
-1.60733e-05
-1.91721e-05
-2.29161e-05
-2.73293e-05
-3.26486e-05
-3.89368e-05
-4.65017e-05
-5.54638e-05
-6.62294e-05
-7.90064e-05
-9.43372e-05
-0.000112561
-0.000134411
-0.000160422
-0.000191594
-0.000228764
-0.00027331
-0.000326523
-0.000390337
-0.00046674
-0.000558502
-0.000668713
-0.000801463
-0.000961651
-0.00115562
-0.00139146
-0.00167978
-0.00203504
-0.00247715
-0.00303546
-0.00375375
-0.00470137
-0.00598747
-0.00777919
0.00776225
0.00597104
0.00468599
0.00373964
0.00302283
0.002466
0.00202531
0.00167137
0.00138422
0.00114945
0.000956369
0.000797002
0.00066489
0.000555294
0.000463985
0.000388036
0.000324544
0.000271666
0.000227347
0.00019042
0.000159412
0.000133573
0.000111845
9.37424e-05
7.85029e-05
6.58063e-05
5.5111e-05
4.62009e-05
3.86932e-05
3.24355e-05
2.71648e-05
2.27662e-05
1.9061e-05
1.59645e-05
1.33594e-05
1.1177e-05
9.3413e-06
7.80095e-06
6.50249e-06
5.4093e-06
4.48303e-06
3.7019e-06
3.03039e-06
2.4609e-06
1.95919e-06
1.53157e-06
1.13701e-06
7.93755e-07
4.57642e-07
1.56464e-07
-1.61832e-07
-4.63434e-07
-8.01425e-07
-1.14068e-06
-1.53938e-06
-1.9626e-06
-2.46733e-06
-3.028e-06
-3.70503e-06
-4.47811e-06
-5.41039e-06
-6.49455e-06
-7.79819e-06
-9.33189e-06
-1.11742e-05
-1.33507e-05
-1.59612e-05
-1.9054e-05
-2.27597e-05
-2.71566e-05
-3.24297e-05
-3.8689e-05
-4.61956e-05
-5.51096e-05
-6.58004e-05
-7.85029e-05
-9.37399e-05
-0.00011185
-0.000133575
-0.000159421
-0.000190424
-0.000227355
-0.000271669
-0.00032455
-0.00038804
-0.000463987
-0.000555295
-0.000664888
-0.000797001
-0.000956366
-0.00114945
-0.00138422
-0.00167137
-0.00202531
-0.002466
-0.00302283
-0.00373964
-0.00468599
-0.00597103
-0.00776226
0.0074492
0.00566738
0.00439809
0.00347338
0.00278057
0.00224926
0.00183352
0.0015035
0.00123845
0.00102363
0.000848494
0.000704701
0.000586458
0.000488534
0.000407621
0.000340198
0.000284349
0.000237597
0.000198833
0.000166263
0.000139248
0.000116496
9.76212e-05
8.16948e-05
6.84784e-05
5.73234e-05
4.80538e-05
4.0234e-05
3.37284e-05
2.82523e-05
2.36753e-05
1.98319e-05
1.66057e-05
1.3917e-05
1.16312e-05
9.74208e-06
8.12461e-06
6.80536e-06
5.6536e-06
4.71915e-06
3.89317e-06
3.2332e-06
2.63215e-06
2.14756e-06
1.69949e-06
1.33744e-06
9.87806e-07
6.89408e-07
3.95474e-07
1.32437e-07
-1.41844e-07
-4.12027e-07
-7.02461e-07
-1.00563e-06
-1.34299e-06
-1.71824e-06
-2.15016e-06
-2.64542e-06
-3.22292e-06
-3.90278e-06
-4.7056e-06
-5.65271e-06
-6.78495e-06
-8.12491e-06
-9.72875e-06
-1.16267e-05
-1.39017e-05
-1.65982e-05
-1.98216e-05
-2.36633e-05
-2.82393e-05
-3.37169e-05
-4.02289e-05
-4.80411e-05
-5.73215e-05
-6.84679e-05
-8.1702e-05
-9.76166e-05
-0.000116514
-0.000139253
-0.000166282
-0.000198842
-0.00023761
-0.000284356
-0.000340202
-0.000407626
-0.000488527
-0.000586457
-0.00070469
-0.00084849
-0.00102362
-0.00123845
-0.0015035
-0.00183352
-0.00224926
-0.00278057
-0.00347339
-0.00439809
-0.00566739
-0.00744921
0.00660289
0.00485815
0.00365145
0.00280112
0.00218659
0.00173109
0.00138601
0.00111973
0.000911043
0.000745568
0.000612864
0.000505746
0.000418473
0.000347219
0.000288525
0.00024026
0.000200196
0.000167106
0.000139489
0.000116616
9.74582e-05
8.15598e-05
6.82161e-05
5.71228e-05
4.78065e-05
4.00421e-05
3.35287e-05
2.80828e-05
2.35275e-05
1.96992e-05
1.65143e-05
1.38169e-05
1.1588e-05
9.68122e-06
8.12348e-06
6.77184e-06
5.68257e-06
4.7213e-06
3.95869e-06
3.2693e-06
2.73251e-06
2.23341e-06
1.85089e-06
1.48058e-06
1.2007e-06
9.1712e-07
7.01993e-07
4.69428e-07
2.89692e-07
8.27468e-08
-8.59975e-08
-2.93902e-07
-4.74025e-07
-7.05067e-07
-9.21436e-07
-1.20416e-06
-1.48345e-06
-1.85005e-06
-2.23346e-06
-2.73003e-06
-3.2678e-06
-3.95412e-06
-4.71693e-06
-5.67704e-06
-6.76782e-06
-8.11866e-06
-9.67728e-06
-1.15843e-05
-1.38107e-05
-1.65093e-05
-1.96941e-05
-2.35254e-05
-2.80788e-05
-3.35284e-05
-4.00384e-05
-4.78068e-05
-5.71227e-05
-6.82203e-05
-8.15643e-05
-9.74652e-05
-0.000116623
-0.000139494
-0.000167113
-0.000200199
-0.000240267
-0.000288524
-0.000347223
-0.000418469
-0.000505748
-0.000612859
-0.00074557
-0.00091104
-0.00111973
-0.00138601
-0.00173109
-0.00218659
-0.00280112
-0.00365145
-0.00485815
-0.0066029
0.00433038
0.00282664
0.0019186
0.00135414
0.000989451
0.000744204
0.000572923
0.000449269
0.000357394
0.000287524
0.000233323
0.00019064
0.00015658
0.000129149
0.000106861
8.86553e-05
7.36939e-05
6.13609e-05
5.11541e-05
4.26906e-05
3.56559e-05
2.97991e-05
2.49192e-05
2.08444e-05
1.74451e-05
1.46e-05
1.22257e-05
1.02344e-05
8.57333e-06
7.17714e-06
6.01392e-06
5.03315e-06
4.21804e-06
3.52715e-06
2.95574e-06
2.46792e-06
2.06754e-06
1.72078e-06
1.44016e-06
1.19193e-06
9.94775e-07
8.1381e-07
6.74126e-07
5.39435e-07
4.38291e-07
3.33438e-07
2.56604e-07
1.70587e-07
1.06853e-07
2.95356e-08
-3.05753e-08
-1.06779e-07
-1.7211e-07
-2.56264e-07
-3.35869e-07
-4.36965e-07
-5.41657e-07
-6.72209e-07
-8.15815e-07
-9.92106e-07
-1.19326e-06
-1.43746e-06
-1.7218e-06
-2.06478e-06
-2.46835e-06
-2.95389e-06
-3.52765e-06
-4.21665e-06
-5.03316e-06
-6.01345e-06
-7.17692e-06
-8.57379e-06
-1.0234e-05
-1.22268e-05
-1.45993e-05
-1.74468e-05
-2.08436e-05
-2.49218e-05
-2.97985e-05
-3.5659e-05
-4.26895e-05
-5.11572e-05
-6.1359e-05
-7.36966e-05
-8.86526e-05
-0.000106863
-0.000129146
-0.000156581
-0.000190637
-0.000233323
-0.000287522
-0.000357394
-0.000449268
-0.000572923
-0.000744205
-0.00098945
-0.00135414
-0.0019186
-0.00282664
-0.00433038
0.00333657
0.00208838
0.001409
0.00100668
0.000749904
0.000575557
0.000451326
0.000359467
0.000289629
0.000235387
0.000192573
0.000158349
0.000130723
0.000108253
8.98617e-05
7.47437e-05
6.22587e-05
5.19292e-05
4.33485e-05
3.62215e-05
3.02773e-05
2.5329e-05
2.11902e-05
1.77407e-05
1.48495e-05
1.24381e-05
1.04142e-05
8.7255e-06
7.30735e-06
6.12277e-06
5.12729e-06
4.29582e-06
3.59738e-06
3.01167e-06
2.52079e-06
2.10844e-06
1.76346e-06
1.47091e-06
1.22784e-06
1.01993e-06
8.47641e-07
6.97124e-07
5.73378e-07
4.63249e-07
3.71856e-07
2.87347e-07
2.16282e-07
1.48654e-07
8.84124e-08
2.81257e-08
-2.90687e-08
-8.80698e-08
-1.49916e-07
-2.16149e-07
-2.89095e-07
-3.70329e-07
-4.64824e-07
-5.7175e-07
-6.9881e-07
-8.45334e-07
-1.02082e-06
-1.22567e-06
-1.47243e-06
-1.76118e-06
-2.10918e-06
-2.51965e-06
-3.01207e-06
-3.59561e-06
-4.29539e-06
-5.12651e-06
-6.12178e-06
-7.30665e-06
-8.72431e-06
-1.04145e-05
-1.24372e-05
-1.48504e-05
-1.77396e-05
-2.11921e-05
-2.53279e-05
-3.02791e-05
-3.62206e-05
-4.33502e-05
-5.19283e-05
-6.22602e-05
-7.47432e-05
-8.98628e-05
-0.000108254
-0.000130723
-0.00015835
-0.000192573
-0.000235388
-0.000289629
-0.000359468
-0.000451325
-0.000575558
-0.000749904
-0.00100668
-0.00140899
-0.00208838
-0.00333657
0.00672636
0.00492655
0.00366279
0.00277367
0.00213865
0.00167565
0.00133071
0.00106845
0.000865459
0.000705956
0.000579042
0.000477037
0.000394362
0.000326922
0.000271605
0.000226047
0.00018839
0.000157184
0.000131263
0.000109695
9.17248e-05
7.67313e-05
6.42148e-05
5.37527e-05
4.5008e-05
3.76903e-05
3.15681e-05
2.64417e-05
2.21492e-05
1.85545e-05
1.55414e-05
1.30188e-05
1.09007e-05
9.12965e-06
7.63815e-06
6.39322e-06
5.34013e-06
4.46385e-06
3.71679e-06
3.09701e-06
2.56251e-06
2.12063e-06
1.73233e-06
1.41077e-06
1.12085e-06
8.7848e-07
6.51561e-07
4.55952e-07
2.6451e-07
9.06698e-08
-8.86506e-08
-2.63947e-07
-4.53154e-07
-6.51671e-07
-8.7447e-07
-1.122e-06
-1.40634e-06
-1.73393e-06
-2.11598e-06
-2.56487e-06
-3.09293e-06
-3.7193e-06
-4.46008e-06
-5.34275e-06
-6.39047e-06
-7.63992e-06
-9.1274e-06
-1.0902e-05
-1.30176e-05
-1.55419e-05
-1.85547e-05
-2.21495e-05
-2.64434e-05
-3.15679e-05
-3.76929e-05
-4.50072e-05
-5.37563e-05
-6.4213e-05
-7.6735e-05
-9.17227e-05
-0.000109698
-0.000131261
-0.000157187
-0.000188389
-0.000226049
-0.000271604
-0.000326924
-0.000394363
-0.000477038
-0.000579043
-0.000705956
-0.000865461
-0.00106845
-0.00133072
-0.00167565
-0.00213865
-0.00277366
-0.00366279
-0.00492655
-0.00672636
0.00874075
0.00678147
0.00528432
0.00415007
0.00328876
0.00262957
0.00211959
0.00172063
0.00140509
0.00115309
0.000950129
0.000785462
0.000651083
0.000540838
0.000450065
0.000375028
0.00031288
0.000261242
0.000218312
0.000182519
0.00015269
0.000127762
0.000106957
8.95411e-05
7.49946e-05
6.28013e-05
5.26141e-05
4.40649e-05
3.6923e-05
3.09219e-05
2.59115e-05
2.16958e-05
1.81782e-05
1.5212e-05
1.27406e-05
1.06508e-05
8.91147e-06
7.43317e-06
6.20533e-06
5.15471e-06
4.28232e-06
3.52589e-06
2.89783e-06
2.34308e-06
1.87895e-06
1.45531e-06
1.09529e-06
7.52297e-07
4.49673e-07
1.43804e-07
-1.40823e-07
-4.45506e-07
-7.49003e-07
-1.09095e-06
-1.45297e-06
-1.87398e-06
-2.34088e-06
-2.89346e-06
-3.52512e-06
-4.27819e-06
-5.15448e-06
-6.2027e-06
-7.4342e-06
-8.90881e-06
-1.06514e-05
-1.27389e-05
-1.52132e-05
-1.8177e-05
-2.16968e-05
-2.59116e-05
-3.09238e-05
-3.69241e-05
-4.40665e-05
-5.26164e-05
-6.28026e-05
-7.49977e-05
-8.95416e-05
-0.000106961
-0.000127761
-0.000152694
-0.000182518
-0.000218315
-0.000261242
-0.000312883
-0.000375028
-0.000450068
-0.000540839
-0.000651085
-0.000785464
-0.000950131
-0.0011531
-0.00140509
-0.00172064
-0.00211959
-0.00262957
-0.00328876
-0.00415007
-0.00528432
-0.00678147
-0.00874074
0.00999251
0.00797614
0.00638195
0.00513021
0.0041465
0.00336968
0.00275213
0.00225769
0.00185912
0.0015358
0.0012721
0.00105599
0.000878191
0.000731394
0.000609889
0.00050905
0.000425242
0.000355442
0.000297272
0.000248711
0.000208167
0.000174267
0.000145931
0.000122213
0.000102371
8.5753e-05
7.18417e-05
6.01871e-05
5.04245e-05
4.22456e-05
3.53892e-05
2.96459e-05
2.48264e-05
2.07908e-05
1.73987e-05
1.45594e-05
1.21667e-05
1.01647e-05
8.46998e-06
7.05141e-06
5.84172e-06
4.82709e-06
3.95062e-06
3.21069e-06
2.55782e-06
1.99853e-06
1.48786e-06
1.03736e-06
6.05548e-07
2.06104e-07
-2.00302e-07
-6.00166e-07
-1.03133e-06
-1.48289e-06
-1.99244e-06
-2.55349e-06
-3.20511e-06
-3.94712e-06
-4.82215e-06
-5.83934e-06
-7.04751e-06
-8.46868e-06
-1.01617e-05
-1.21665e-05
-1.45574e-05
-1.73993e-05
-2.07898e-05
-2.48277e-05
-2.96464e-05
-3.53913e-05
-4.22473e-05
-5.04272e-05
-6.019e-05
-7.18446e-05