/*--------------------------------*- C++ -*----------------------------------*\
| =========                 |                                                 |
| \\      /  F ield         | OpenFOAM: The Open Source CFD Toolbox           |
|  \\    /   O peration     | Version:  2012                                  |
|   \\  /    A nd           | Website:  www.openfoam.com                      |
|    \\/     M anipulation  |                                                 |
\*---------------------------------------------------------------------------*/
FoamFile
{
    version     2.0;
    format      ascii;
    class       volScalarField;
    location    "1";
    object      gradTz;
}
// * * * * * * * * * * * * * * * * * * * * * * * * * * * * * * * * * * * * * //

dimensions      [0 -1 0 1 0 0 0];


internalField   nonuniform List<scalar> 
10000
(
0.00100879
0.00201723
0.00259634
0.002968
0.00322642
0.00341617
0.00356072
0.00367361
0.00376335
0.00383556
0.00389422
0.00394219
0.00398165
0.0040142
0.00404118
0.00406356
0.00408218
0.00409769
0.00411063
0.00412143
0.00413045
0.00413799
0.00414431
0.00414959
0.00415401
0.00415771
0.00416081
0.0041634
0.00416558
0.0041674
0.00416892
0.0041702
0.00417127
0.00417217
0.00417292
0.00417355
0.00417407
0.00417451
0.00417487
0.00417518
0.00417543
0.00417564
0.00417582
0.00417596
0.00417607
0.00417616
0.00417623
0.00417628
0.00417631
0.00417632
0.00417632
0.00417631
0.00417628
0.00417622
0.00417616
0.00417607
0.00417595
0.00417581
0.00417564
0.00417543
0.00417518
0.00417487
0.00417451
0.00417407
0.00417354
0.00417292
0.00417217
0.00417127
0.0041702
0.00416892
0.0041674
0.00416558
0.0041634
0.00416081
0.00415771
0.00415401
0.00414959
0.00414431
0.004138
0.00413045
0.00412143
0.00411063
0.00409769
0.00408218
0.00406356
0.00404118
0.0040142
0.00398165
0.0039422
0.00389422
0.00383556
0.00376335
0.00367361
0.00356072
0.00341617
0.00322642
0.002968
0.00259634
0.00201723
0.00100879
0.00166307
0.00374153
0.00513004
0.00610859
0.0068274
0.00737219
0.00779499
0.00812892
0.00839624
0.00861238
0.00878853
0.00893291
0.00905184
0.00915011
0.0092316
0.00929927
0.0093556
0.00940254
0.00944172
0.00947441
0.00950176
0.00952461
0.00954373
0.00955973
0.00957313
0.00958434
0.00959374
0.0096016
0.00960819
0.0096137
0.00961834
0.0096222
0.00962545
0.00962816
0.00963044
0.00963234
0.00963394
0.00963526
0.00963637
0.00963729
0.00963806
0.0096387
0.00963922
0.00963964
0.00963999
0.00964026
0.00964047
0.00964062
0.00964071
0.00964076
0.00964076
0.00964072
0.00964061
0.00964047
0.00964026
0.00963999
0.00963964
0.00963922
0.00963869
0.00963806
0.00963729
0.00963637
0.00963526
0.00963394
0.00963234
0.00963044
0.00962817
0.00962545
0.00962221
0.00961834
0.00961371
0.0096082
0.0096016
0.00959374
0.00958434
0.00957313
0.00955973
0.00954374
0.00952461
0.00950176
0.00947442
0.00944172
0.00940254
0.00935561
0.00929927
0.0092316
0.00915011
0.00905184
0.00893291
0.00878853
0.00861238
0.00839625
0.00812892
0.00779499
0.00737219
0.0068274
0.00610859
0.00513004
0.00374153
0.00166307
0.00198282
0.00466073
0.00657171
0.00798945
0.00907101
0.00991361
0.0105803
0.0111145
0.0115463
0.0118982
0.0121865
0.0124239
0.0126199
0.0127823
0.0129172
0.0130295
0.0131229
0.013201
0.013266
0.0133205
0.0133659
0.013404
0.0134358
0.0134625
0.0134848
0.0135035
0.0135192
0.0135323
0.0135433
0.0135525
0.0135602
0.0135666
0.013572
0.0135766
0.0135803
0.0135835
0.0135862
0.0135884
0.0135902
0.0135918
0.0135931
0.0135941
0.013595
0.0135957
0.0135963
0.0135967
0.0135971
0.0135973
0.0135975
0.0135976
0.0135976
0.0135975
0.0135973
0.0135971
0.0135967
0.0135963
0.0135957
0.013595
0.0135941
0.0135931
0.0135918
0.0135902
0.0135884
0.0135862
0.0135835
0.0135804
0.0135766
0.013572
0.0135666
0.0135602
0.0135525
0.0135433
0.0135323
0.0135192
0.0135035
0.0134848
0.0134625
0.0134359
0.013404
0.013366
0.0133205
0.013266
0.013201
0.0131229
0.0130295
0.0129172
0.0127824
0.0126199
0.0124239
0.0121865
0.0118982
0.0115463
0.0111145
0.0105803
0.00991361
0.00907101
0.00798945
0.00657171
0.00466073
0.00198282
0.00216675
0.00520211
0.00744457
0.00915933
0.010501
0.0115677
0.0124257
0.0131219
0.0136905
0.0141574
0.0145422
0.0148606
0.0151246
0.015344
0.0155266
0.0156788
0.0158058
0.0159119
0.0160005
0.0160746
0.0161366
0.0161885
0.016232
0.0162683
0.0162988
0.0163243
0.0163457
0.0163636
0.0163786
0.0163911
0.0164017
0.0164105
0.0164179
0.0164241
0.0164293
0.0164336
0.0164372
0.0164402
0.0164428
0.0164449
0.0164466
0.0164481
0.0164493
0.0164502
0.016451
0.0164516
0.0164521
0.0164524
0.0164527
0.0164528
0.0164528
0.0164527
0.0164524
0.0164521
0.0164516
0.016451
0.0164502
0.0164493
0.0164481
0.0164466
0.0164449
0.0164428
0.0164402
0.0164372
0.0164336
0.0164293
0.0164241
0.0164179
0.0164105
0.0164017
0.0163912
0.0163786
0.0163636
0.0163457
0.0163243
0.0162988
0.0162683
0.016232
0.0161885
0.0161366
0.0160746
0.0160005
0.0159119
0.0158058
0.0156788
0.0155266
0.015344
0.0151246
0.0148606
0.0145422
0.0141574
0.0136905
0.0131219
0.0124257
0.0115677
0.010501
0.00915933
0.00744457
0.00520211
0.00216675
0.00227362
0.00551898
0.00796155
0.00986142
0.0113712
0.0125871
0.0135766
0.0143866
0.0150538
0.0156047
0.0160616
0.0164407
0.0167566
0.0170194
0.017239
0.0174221
0.0175754
0.0177032
0.0178105
0.0178999
0.0179751
0.0180378
0.0180905
0.0181344
0.0181714
0.0182023
0.0182282
0.0182499
0.0182681
0.0182833
0.0182961
0.0183068
0.0183158
0.0183232
0.0183295
0.0183348
0.0183392
0.0183428
0.0183459
0.0183484
0.0183506
0.0183523
0.0183538
0.0183549
0.0183559
0.0183566
0.0183572
0.0183576
0.0183579
0.018358
0.018358
0.0183579
0.0183576
0.0183572
0.0183566
0.0183559
0.018355
0.0183538
0.0183523
0.0183506
0.0183485
0.0183459
0.0183428
0.0183392
0.0183348
0.0183295
0.0183232
0.0183158
0.0183068
0.0182961
0.0182833
0.0182681
0.0182499
0.0182283
0.0182023
0.0181714
0.0181345
0.0180905
0.0180378
0.0179751
0.0179
0.0178105
0.0177032
0.0175754
0.0174221
0.017239
0.0170194
0.0167566
0.0164407
0.0160616
0.0156047
0.0150538
0.0143866
0.0135766
0.0125871
0.0113712
0.00986142
0.00796155
0.00551898
0.00227362
0.00232379
0.00566843
0.00820623
0.0101962
0.0117886
0.0130801
0.0141364
0.0150062
0.0157249
0.0163212
0.0168166
0.0172294
0.0175733
0.0178607
0.0181004
0.0183012
0.0184688
0.0186093
0.0187266
0.0188251
0.0189074
0.0189765
0.0190342
0.0190827
0.0191231
0.0191572
0.0191856
0.0192096
0.0192295
0.0192463
0.0192603
0.0192721
0.0192819
0.0192902
0.019297
0.0193029
0.0193077
0.0193117
0.0193151
0.0193179
0.0193202
0.0193222
0.0193237
0.019325
0.0193261
0.0193269
0.0193275
0.019328
0.0193283
0.0193284
0.0193284
0.0193283
0.019328
0.0193275
0.0193269
0.0193261
0.019325
0.0193237
0.0193222
0.0193202
0.0193179
0.0193151
0.0193117
0.0193077
0.0193029
0.0192971
0.0192902
0.0192819
0.0192721
0.0192603
0.0192463
0.0192295
0.0192096
0.0191856
0.0191572
0.0191232
0.0190827
0.0190342
0.0189765
0.0189074
0.0188251
0.0187266
0.0186093
0.0184688
0.0183012
0.0181004
0.0178607
0.0175733
0.0172294
0.0168166
0.0163212
0.0157249
0.0150062
0.0141364
0.0130801
0.0117886
0.0101962
0.00820623
0.00566843
0.00232379
0.00231974
0.00565643
0.00818664
0.0101697
0.0117556
0.0130416
0.0140929
0.0149585
0.0156735
0.0162667
0.0167593
0.0171699
0.0175118
0.0177976
0.0180359
0.0182355
0.0184021
0.0185417
0.0186584
0.0187563
0.018838
0.0189067
0.018964
0.0190122
0.0190524
0.0190863
0.0191145
0.0191383
0.0191581
0.0191748
0.0191887
0.0192004
0.0192102
0.0192184
0.0192252
0.019231
0.0192358
0.0192398
0.0192431
0.0192459
0.0192482
0.0192502
0.0192517
0.019253
0.019254
0.0192549
0.0192555
0.0192559
0.0192562
0.0192564
0.0192564
0.0192562
0.0192559
0.0192555
0.0192549
0.019254
0.019253
0.0192517
0.0192501
0.0192482
0.0192459
0.0192431
0.0192398
0.0192358
0.019231
0.0192252
0.0192184
0.0192102
0.0192004
0.0191887
0.0191748
0.0191581
0.0191383
0.0191145
0.0190863
0.0190525
0.0190122
0.018964
0.0189067
0.018838
0.0187563
0.0186584
0.0185417
0.0184021
0.0182355
0.0180359
0.0177976
0.0175118
0.0171699
0.0167593
0.0162667
0.0156735
0.0149585
0.0140929
0.0130416
0.0117556
0.0101697
0.00818664
0.00565644
0.00231974
0.00224523
0.00543485
0.00782473
0.00967593
0.0111419
0.0123189
0.0132744
0.0140547
0.0146964
0.0152252
0.0156634
0.0160265
0.0163288
0.0165801
0.01679
0.0169648
0.0171111
0.0172331
0.0173353
0.0174206
0.0174922
0.017552
0.0176021
0.0176441
0.0176792
0.0177087
0.0177333
0.017754
0.0177713
0.0177858
0.0177979
0.0178081
0.0178166
0.0178238
0.0178298
0.0178348
0.0178389
0.0178425
0.0178454
0.0178478
0.0178498
0.0178515
0.0178528
0.017854
0.0178549
0.0178556
0.0178561
0.0178565
0.0178568
0.0178569
0.0178569
0.0178568
0.0178565
0.0178561
0.0178556
0.0178548
0.0178539
0.0178528
0.0178514
0.0178498
0.0178478
0.0178453
0.0178424
0.0178389
0.0178348
0.0178297
0.0178238
0.0178166
0.0178081
0.0177979
0.0177858
0.0177713
0.017754
0.0177333
0.0177087
0.0176792
0.0176441
0.0176021
0.017552
0.0174922
0.0174207
0.0173353
0.0172331
0.0171111
0.0169648
0.01679
0.0165801
0.0163288
0.0160265
0.0156634
0.0152252
0.0146964
0.0140547
0.0132744
0.0123189
0.0111419
0.00967593
0.00782474
0.00543486
0.00224524
0.0020415
0.00483453
0.00685319
0.00836781
0.00953385
0.0104488
0.0111764
0.0117615
0.0122357
0.0126228
0.0129402
0.0132017
0.0134177
0.0135968
0.0137455
0.0138691
0.0139722
0.0140581
0.0141298
0.0141897
0.0142398
0.0142817
0.0143168
0.014346
0.0143707
0.0143911
0.0144084
0.0144228
0.0144349
0.014445
0.0144535
0.0144605
0.0144666
0.0144715
0.0144757
0.0144791
0.0144821
0.0144845
0.0144866
0.0144882
0.0144896
0.0144908
0.0144918
0.0144925
0.0144932
0.0144936
0.014494
0.0144943
0.0144945
0.0144946
0.0144946
0.0144945
0.0144943
0.014494
0.0144936
0.0144931
0.0144925
0.0144917
0.0144908
0.0144896
0.0144882
0.0144865
0.0144845
0.0144821
0.0144791
0.0144757
0.0144715
0.0144666
0.0144605
0.0144535
0.014445
0.0144349
0.0144228
0.0144085
0.0143911
0.0143707
0.014346
0.0143168
0.0142817
0.0142399
0.0141897
0.0141298
0.0140581
0.0139722
0.0138691
0.0137455
0.0135968
0.0134177
0.0132017
0.0129402
0.0126228
0.0122357
0.0117615
0.0111764
0.0104488
0.00953385
0.00836782
0.00685319
0.00483453
0.0020415
0.00146528
0.00320671
0.00432382
0.00508477
0.00562788
0.00602968
0.00633539
0.00657296
0.00676074
0.00691099
0.00703249
0.00713142
0.00721253
0.00727925
0.00733444
0.00738011
0.0074181
0.00744966
0.007476
0.00749792
0.00751628
0.00753156
0.00754439
0.00755507
0.00756406
0.00757153
0.00757783
0.00758306
0.00758749
0.00759115
0.00759426
0.00759682
0.00759901
0.0076008
0.00760234
0.00760359
0.00760467
0.00760554
0.00760629
0.00760689
0.00760742
0.00760783
0.00760819
0.00760846
0.0076087
0.00760887
0.00760902
0.00760911
0.00760918
0.00760921
0.00760921
0.00760918
0.00760911
0.00760902
0.00760887
0.0076087
0.00760846
0.00760819
0.00760783
0.00760742
0.00760689
0.00760629
0.00760554
0.00760467
0.00760359
0.00760234
0.0076008
0.00759901
0.00759683
0.00759426
0.00759115
0.00758749
0.00758307
0.00757783
0.00757153
0.00756406
0.00755508
0.00754439
0.00753156
0.00751628
0.00749792
0.007476
0.00744965
0.0074181
0.00738011
0.00733444
0.00727925
0.00721253
0.00713141
0.0070325
0.00691099
0.00676074
0.00657296
0.00633539
0.00602968
0.00562788
0.00508477
0.00432383
0.0032067
0.00146528
0.000344225
0.000884656
0.00128006
0.00157077
0.00178918
0.00195705
0.00208851
0.00219304
0.00227709
0.0023453
0.00240101
0.00244679
0.00248452
0.00251577
0.00254167
0.00256322
0.00258115
0.00259611
0.00260858
0.00261901
0.00262772
0.00263502
0.00264111
0.00264622
0.00265049
0.00265407
0.00265706
0.00265957
0.00266168
0.00266343
0.00266491
0.00266614
0.00266718
0.00266805
0.00266877
0.00266938
0.00266989
0.00267031
0.00267067
0.00267096
0.00267121
0.00267141
0.00267157
0.00267171
0.00267182
0.00267191
0.00267197
0.00267202
0.00267205
0.00267207
0.00267206
0.00267205
0.00267202
0.00267197
0.0026719
0.00267182
0.00267171
0.00267158
0.00267141
0.00267121
0.00267096
0.00267067
0.00267031
0.00266989
0.00266938
0.00266877
0.00266805
0.00266718
0.00266615
0.00266491
0.00266344
0.00266167
0.00265957
0.00265706
0.00265407
0.00265049
0.00264622
0.00264111
0.00263502
0.00262773
0.00261901
0.00260858
0.00259611
0.00258115
0.00256322
0.00254167
0.00251576
0.00248452
0.00244679
0.00240101
0.0023453
0.00227709
0.00219304
0.00208851
0.00195705
0.00178918
0.00157077
0.00128006
0.000884656
0.000344225
0.000766403
0.00207117
0.00309912
0.00389573
0.00451524
0.00500188
0.00538831
0.00569831
0.00594908
0.0061534
0.00632079
0.00645858
0.00657238
0.00666668
0.00674496
0.0068101
0.00686435
0.00690963
0.0069474
0.00697899
0.00700537
0.00702747
0.00704593
0.00706141
0.00707434
0.0070852
0.00709426
0.00710189
0.00710824
0.00711359
0.00711805
0.00712181
0.00712493
0.00712757
0.00712976
0.00713161
0.00713314
0.00713443
0.0071355
0.0071364
0.00713713
0.00713775
0.00713825
0.00713867
0.007139
0.00713926
0.00713946
0.00713961
0.00713971
0.00713975
0.00713975
0.0071397
0.00713961
0.00713946
0.00713927
0.007139
0.00713868
0.00713826
0.00713776
0.00713714
0.0071364
0.0071355
0.00713444
0.00713315
0.00713161
0.00712977
0.00712757
0.00712494
0.00712181
0.00711806
0.0071136
0.00710825
0.00710189
0.00709427
0.0070852
0.00707435
0.00706141
0.00704593
0.00702747
0.00700538
0.00697899
0.0069474
0.00690963
0.00686435
0.00681011
0.00674496
0.00666668
0.00657238
0.00645858
0.00632079
0.0061534
0.00594907
0.00569831
0.00538831
0.00500188
0.00451524
0.00389573
0.00309912
0.00207117
0.000766403
0.0010285
0.00283462
0.00431237
0.00549684
0.00644371
0.00720324
0.00781621
0.00831366
0.00871981
0.00905279
0.0093271
0.00955362
0.0097414
0.00989721
0.0100269
0.0101349
0.010225
0.0103002
0.010363
0.0104155
0.0104595
0.0104962
0.010527
0.0105528
0.0105744
0.0105924
0.0106076
0.0106202
0.0106309
0.0106397
0.0106472
0.0106534
0.0106587
0.010663
0.0106667
0.0106698
0.0106723
0.0106745
0.0106763
0.0106778
0.010679
0.01068
0.0106809
0.0106815
0.0106821
0.0106825
0.0106829
0.0106831
0.0106833
0.0106834
0.0106834
0.0106833
0.0106831
0.0106829
0.0106825
0.0106821
0.0106816
0.0106809
0.01068
0.010679
0.0106778
0.0106763
0.0106745
0.0106724
0.0106698
0.0106667
0.010663
0.0106587
0.0106534
0.0106472
0.0106397
0.0106309
0.0106202
0.0106076
0.0105924
0.0105744
0.0105528
0.010527
0.0104962
0.0104595
0.0104155
0.0103631
0.0103002
0.010225
0.0101349
0.0100269
0.00989721
0.00974141
0.00955362
0.0093271
0.00905279
0.00871981
0.00831366
0.00781621
0.00720324
0.0064437
0.00549684
0.00431237
0.00283462
0.0010285
0.00119331
0.00332117
0.00509982
0.00655668
0.00774418
0.00871287
0.0095054
0.0101559
0.0106917
0.0111342
0.0115008
0.0118049
0.0120578
0.0122684
0.012444
0.0125905
0.0127129
0.0128151
0.0129007
0.0129722
0.0130321
0.0130822
0.0131242
0.0131594
0.0131888
0.0132135
0.0132341
0.0132515
0.0132659
0.0132781
0.0132883
0.0132968
0.013304
0.0133099
0.0133149
0.0133191
0.0133226
0.0133256
0.013328
0.0133301
0.0133317
0.0133331
0.0133343
0.0133352
0.013336
0.0133366
0.013337
0.0133374
0.0133376
0.0133377
0.0133377
0.0133376
0.0133374
0.013337
0.0133366
0.013336
0.0133352
0.0133343
0.0133332
0.0133318
0.0133301
0.013328
0.0133256
0.0133227
0.0133192
0.013315
0.01331
0.013304
0.0132968
0.0132883
0.0132781
0.013266
0.0132515
0.0132341
0.0132135
0.0131888
0.0131594
0.0131242
0.0130822
0.0130321
0.0129722
0.0129007
0.0128151
0.0127129
0.0125905
0.012444
0.0122684
0.0120578
0.0118049
0.0115008
0.0111343
0.0106917
0.0101559
0.0095054
0.00871287
0.00774418
0.00655668
0.00509982
0.00332116
0.00119331
0.00129251
0.00361583
0.0055808
0.00721133
0.00855637
0.00966641
0.010583
0.0113422
0.0119714
0.0124948
0.0129297
0.0132927
0.0135949
0.0138477
0.0140585
0.0142351
0.0143824
0.0145061
0.0146092
0.014696
0.0147682
0.0148291
0.0148797
0.0149225
0.014958
0.014988
0.0150129
0.015034
0.0150515
0.0150663
0.0150786
0.015089
0.0150976
0.0151049
0.0151109
0.0151161
0.0151203
0.0151239
0.0151268
0.0151293
0.0151313
0.015133
0.0151344
0.0151356
0.0151365
0.0151372
0.0151378
0.0151382
0.0151384
0.0151386
0.0151386
0.0151384
0.0151382
0.0151378
0.0151372
0.0151365
0.0151356
0.0151344
0.0151331
0.0151313
0.0151293
0.0151268
0.0151239
0.0151203
0.0151161
0.015111
0.0151049
0.0150976
0.015089
0.0150786
0.0150664
0.0150515
0.015034
0.0150129
0.014988
0.014958
0.0149225
0.0148797
0.0148291
0.0147682
0.014696
0.0146092
0.0145061
0.0143824
0.0142351
0.0140585
0.0138477
0.0135949
0.0132927
0.0129297
0.0124948
0.0119714
0.0113422
0.010583
0.00966641
0.00855637
0.00721133
0.0055808
0.00361583
0.00129251
0.00133989
0.00375647
0.00581191
0.00752705
0.00895117
0.0101322
0.0111133
0.0119286
0.0126081
0.013174
0.0136468
0.0140411
0.0143712
0.0146468
0.0148778
0.0150707
0.0152326
0.0153677
0.0154813
0.0155761
0.0156558
0.0157223
0.0157783
0.0158249
0.0158643
0.015897
0.0159247
0.0159476
0.0159671
0.0159832
0.0159969
0.0160081
0.0160177
0.0160256
0.0160324
0.0160379
0.0160426
0.0160465
0.0160498
0.0160525
0.0160548
0.0160566
0.0160582
0.0160594
0.0160604
0.0160612
0.0160618
0.0160622
0.0160625
0.0160627
0.0160627
0.0160625
0.0160623
0.0160618
0.0160612
0.0160604
0.0160594
0.0160582
0.0160566
0.0160548
0.0160525
0.0160498
0.0160465
0.0160427
0.0160379
0.0160324
0.0160257
0.0160178
0.0160081
0.0159969
0.0159832
0.0159671
0.0159476
0.0159247
0.015897
0.0158643
0.015825
0.0157783
0.0157223
0.0156558
0.0155761
0.0154813
0.0153677
0.0152326
0.0150707
0.0148778
0.0146468
0.0143712
0.0140411
0.0136468
0.013174
0.0126081
0.0119286
0.0111133
0.0101322
0.00895117
0.00752706
0.00581191
0.00375647
0.00133988
0.00133613
0.00374531
0.00579371
0.00750231
0.00892049
0.0100962
0.0110727
0.011884
0.0125599
0.0131228
0.013593
0.0139852
0.0143134
0.0145874
0.014817
0.0150088
0.0151697
0.0153041
0.0154169
0.0155112
0.0155904
0.0156565
0.0157121
0.0157585
0.0157975
0.0158301
0.0158575
0.0158804
0.0158996
0.0159157
0.0159292
0.0159405
0.01595
0.0159579
0.0159645
0.01597
0.0159747
0.0159786
0.0159818
0.0159845
0.0159868
0.0159886
0.0159901
0.0159914
0.0159924
0.0159932
0.0159938
0.0159942
0.0159945
0.0159946
0.0159946
0.0159945
0.0159942
0.0159938
0.0159932
0.0159924
0.0159914
0.0159901
0.0159886
0.0159868
0.0159845
0.0159818
0.0159786
0.0159747
0.01597
0.0159645
0.0159579
0.01595
0.0159405
0.0159292
0.0159157
0.0158997
0.0158804
0.0158575
0.0158301
0.0157975
0.0157585
0.0157121
0.0156565
0.0155904
0.0155112
0.0154169
0.0153041
0.0151697
0.0150088
0.014817
0.0145874
0.0143134
0.0139852
0.013593
0.0131228
0.0125599
0.011884
0.0110727
0.0100962
0.00892049
0.0075023
0.00579371
0.00374531
0.00133613
0.00126633
0.0035382
0.00545417
0.00703939
0.00834327
0.00941668
0.0103009
0.0110321
0.0116369
0.0121392
0.0125562
0.0129038
0.013193
0.0134347
0.0136361
0.0138047
0.0139454
0.0140633
0.0141618
0.0142443
0.0143133
0.0143711
0.0144196
0.0144601
0.0144941
0.0145225
0.0145464
0.0145663
0.0145831
0.0145971
0.0146089
0.0146187
0.014627
0.0146338
0.0146396
0.0146444
0.0146485
0.0146519
0.0146547
0.014657
0.014659
0.0146606
0.0146619
0.014663
0.0146639
0.0146646
0.0146651
0.0146655
0.0146657
0.0146659
0.0146658
0.0146657
0.0146655
0.0146651
0.0146646
0.0146639
0.014663
0.0146619
0.0146606
0.014659
0.014657
0.0146547
0.0146519
0.0146485
0.0146444
0.0146396
0.0146338
0.0146269
0.0146187
0.0146089
0.0145971
0.0145831
0.0145663
0.0145464
0.0145225
0.0144941
0.0144601
0.0144196
0.0143712
0.0143133
0.0142443
0.0141618
0.0140633
0.0139454
0.0138048
0.0136361
0.0134347
0.013193
0.0129038
0.0125562
0.0121392
0.0116369
0.0110321
0.0103009
0.00941669
0.00834327
0.00703939
0.00545417
0.00353821
0.00126632
0.00108195
0.00299268
0.00456861
0.0058418
0.0068667
0.00769338
0.00836339
0.0089088
0.00935504
0.00972145
0.0100235
0.0102732
0.01048
0.0106519
0.0107947
0.0109138
0.011013
0.0110959
0.011165
0.011223
0.0112712
0.0113118
0.0113455
0.011374
0.0113976
0.0114176
0.0114341
0.0114482
0.0114597
0.0114696
0.0114777
0.0114847
0.0114903
0.0114952
0.0114991
0.0115026
0.0115053
0.0115078
0.0115097
0.0115114
0.0115127
0.0115138
0.0115147
0.0115155
0.0115161
0.0115166
0.0115169
0.0115172
0.0115174
0.0115175
0.0115175
0.0115174
0.0115172
0.0115169
0.0115166
0.0115161
0.0115155
0.0115147
0.0115138
0.0115127
0.0115114
0.0115097
0.0115078
0.0115053
0.0115026
0.0114991
0.0114952
0.0114903
0.0114847
0.0114777
0.0114696
0.0114597
0.0114482
0.0114341
0.0114176
0.0113976
0.011374
0.0113455
0.0113118
0.0112712
0.011223
0.011165
0.0110959
0.011013
0.0109138
0.0107947
0.0106519
0.0104801
0.0102732
0.0100235
0.00972144
0.00935505
0.00890879
0.0083634
0.00769337
0.00686671
0.00584179
0.00456862
0.00299268
0.00108195
0.000626837
0.00167271
0.00247644
0.00308419
0.00354619
0.00390196
0.00417963
0.00439931
0.0045749
0.00471672
0.00483196
0.00492635
0.00500384
0.00506791
0.00512084
0.00516487
0.00520137
0.00523188
0.0052572
0.00527845
0.00529609
0.00531093
0.00532325
0.00533364
0.00534226
0.00534955
0.00535557
0.0053607
0.00536491
0.00536851
0.00537146
0.005374
0.00537605
0.00537784
0.00537927
0.00538053
0.00538153
0.00538241
0.0053831
0.00538372
0.0053842
0.00538462
0.00538494
0.00538523
0.00538544
0.00538563
0.00538575
0.00538585
0.00538592
0.00538594
0.00538595
0.00538591
0.00538586
0.00538575
0.00538563
0.00538544
0.00538524
0.00538494
0.00538463
0.0053842
0.00538372
0.00538311
0.00538241
0.00538154
0.00538053
0.00537928
0.00537784
0.00537606
0.00537399
0.00537147
0.00536851
0.00536492
0.00536069
0.00535558
0.00534955
0.00534226
0.00533364
0.00532325
0.00531093
0.00529609
0.00527844
0.0052572
0.00523187
0.00520136
0.00516487
0.00512083
0.00506791
0.00500384
0.00492635
0.00483195
0.00471673
0.00457489
0.00439931
0.00417962
0.00390196
0.00354618
0.00308419
0.00247644
0.00167271
0.000626836
0.000155942
0.000442787
0.000686772
0.000887736
0.00105145
0.00118457
0.00129306
0.00138175
0.00145454
0.00151448
0.00156399
0.00160499
0.00163903
0.00166733
0.00169089
0.00171054
0.00172694
0.00174064
0.00175209
0.00176166
0.00176967
0.00177638
0.00178198
0.00178669
0.00179062
0.00179392
0.00179668
0.001799
0.00180093
0.00180256
0.00180391
0.00180506
0.001806
0.00180681
0.00180747
0.00180804
0.0018085
0.0018089
0.00180922
0.00180949
0.00180972
0.00180991
0.00181006
0.00181018
0.00181028
0.00181036
0.00181043
0.00181047
0.0018105
0.00181051
0.00181051
0.0018105
0.00181047
0.00181043
0.00181037
0.00181028
0.00181019
0.00181006
0.00180991
0.00180972
0.0018095
0.00180922
0.0018089
0.0018085
0.00180804
0.00180748
0.00180681
0.00180601
0.00180506
0.00180391
0.00180256
0.00180093
0.001799
0.00179668
0.00179392
0.00179062
0.00178669
0.00178199
0.00177638
0.00176967
0.00176166
0.00175209
0.00174064
0.00172694
0.00171054
0.00169089
0.00166733
0.00163903
0.00160499
0.00156399
0.00151448
0.00145454
0.00138175
0.00129306
0.00118457
0.00105145
0.000887735
0.000686772
0.000442787
0.000155941
0.000413105
0.00118949
0.00186854
0.00244115
0.00291577
0.00330649
0.0036276
0.00389175
0.00410945
0.00428929
0.00443818
0.00456171
0.00466438
0.00474983
0.00482105
0.00488046
0.00493009
0.00497154
0.00500621
0.0050352
0.00505947
0.00507977
0.00509678
0.00511101
0.00512295
0.00513293
0.00514131
0.00514831
0.00515419
0.0051591
0.00516324
0.00516668
0.00516958
0.005172
0.00517403
0.00517572
0.00517715
0.00517832
0.00517932
0.00518014
0.00518083
0.00518139
0.00518186
0.00518224
0.00518255
0.00518279
0.00518297
0.00518311
0.0051832
0.00518324
0.00518324
0.0051832
0.00518311
0.00518298
0.00518279
0.00518255
0.00518224
0.00518187
0.0051814
0.00518084
0.00518015
0.00517933
0.00517833
0.00517715
0.00517573
0.00517404
0.005172
0.00516959
0.00516669
0.00516324
0.00515911
0.0051542
0.00514832
0.00514132
0.00513293
0.00512296
0.00511102
0.00509679
0.00507977
0.00505947
0.0050352
0.00500621
0.00497154
0.00493009
0.00488047
0.00482105
0.00474983
0.00466438
0.00456172
0.00443819
0.00428929
0.00410945
0.00389175
0.0036276
0.00330649
0.00291577
0.00244115
0.00186854
0.00118949
0.000413104
0.000605082
0.00175422
0.0027775
0.00365657
0.00439746
0.00501585
0.00552978
0.00595625
0.00631016
0.00660408
0.00684844
0.00705183
0.0072213
0.00736265
0.00748063
0.0075792
0.00766157
0.00773048
0.0077881
0.00783636
0.00787673
0.00791056
0.00793886
0.0079626
0.00798245
0.00799911
0.00801305
0.00802474
0.00803452
0.00804273
0.0080496
0.00805536
0.00806018
0.00806422
0.0080676
0.00807043
0.00807279
0.00807477
0.00807642
0.00807779
0.00807893
0.00807988
0.00808065
0.00808129
0.0080818
0.00808221
0.00808251
0.00808274
0.00808288
0.00808296
0.00808295
0.00808289
0.00808274
0.00808252
0.00808221
0.00808181
0.0080813
0.00808067
0.00807989
0.00807895
0.00807781
0.00807643
0.00807479
0.00807281
0.00807045
0.00806761
0.00806424
0.00806019
0.00805538
0.00804961
0.00804275
0.00803453
0.00802476
0.00801305
0.00799913
0.00798246
0.00796261
0.00793887
0.00791057
0.00787673
0.00783637
0.00778811
0.00773048
0.00766157
0.0075792
0.00748063
0.00736265
0.0072213
0.00705183
0.00684845
0.00660408
0.00631016
0.00595624
0.00552979
0.00501585
0.00439746
0.00365657
0.0027775
0.00175422
0.000605082
0.00073856
0.00214954
0.00342049
0.00452699
0.00547174
0.00626978
0.00693981
0.00750074
0.00796955
0.00836127
0.00868845
0.0089619
0.00919041
0.00938153
0.00954135
0.00967511
0.00978704
0.00988077
0.00995923
0.010025
0.01008
0.0101261
0.0101648
0.0101971
0.0102243
0.010247
0.010266
0.010282
0.0102953
0.0103066
0.0103159
0.0103238
0.0103304
0.0103359
0.0103405
0.0103444
0.0103476
0.0103503
0.0103526
0.0103545
0.010356
0.0103573
0.0103584
0.0103592
0.0103599
0.0103605
0.0103609
0.0103612
0.0103614
0.0103615
0.0103615
0.0103614
0.0103612
0.0103609
0.0103605
0.0103599
0.0103593
0.0103584
0.0103573
0.010356
0.0103545
0.0103526
0.0103504
0.0103476
0.0103444
0.0103406
0.0103359
0.0103304
0.0103238
0.010316
0.0103066
0.0102954
0.010282
0.010266
0.010247
0.0102243
0.0101971
0.0101648
0.0101261
0.01008
0.010025
0.00995924
0.00988078
0.00978704
0.00967512
0.00954135
0.00938153
0.00919041
0.0089619
0.00868845
0.00836128
0.00796955
0.00750075
0.0069398
0.00626978
0.00547174
0.00452699
0.00342049
0.00214954
0.000738559
0.000823267
0.00240121
0.00383244
0.00508882
0.00617111
0.0070928
0.0078728
0.00853002
0.00908276
0.00954668
0.00993604
0.0102624
0.0105361
0.0107653
0.0109576
0.0111186
0.0112537
0.0113667
0.0114617
0.011541
0.0116077
0.0116635
0.0117103
0.0117495
0.0117824
0.0118099
0.011833
0.0118523
0.0118686
0.0118821
0.0118935
0.011903
0.011911
0.0119177
0.0119233
0.011928
0.0119319
0.0119352
0.0119379
0.0119402
0.0119421
0.0119436
0.0119449
0.011946
0.0119468
0.0119475
0.011948
0.0119484
0.0119486
0.0119487
0.0119487
0.0119486
0.0119484
0.011948
0.0119475
0.0119469
0.011946
0.011945
0.0119437
0.0119421
0.0119402
0.011938
0.0119352
0.011932
0.011928
0.0119234
0.0119177
0.0119111
0.011903
0.0118936
0.0118821
0.0118686
0.0118523
0.011833
0.0118099
0.0117824
0.0117495
0.0117103
0.0116635
0.0116077
0.011541
0.0114617
0.0113668
0.0112537
0.0111186
0.0109576
0.0107653
0.0105361
0.0102624
0.00993604
0.00954668
0.00908276
0.00853002
0.00787281
0.0070928
0.00617111
0.00508882
0.00383244
0.00240121
0.000823267
0.000864704
0.00252466
0.00403497
0.0053664
0.00651809
0.00750345
0.0083404
0.00904859
0.00964579
0.0101489
0.0105718
0.0109273
0.0112257
0.0114764
0.0116865
0.011863
0.0120108
0.012135
0.012239
0.0123263
0.0123993
0.0124608
0.0125121
0.0125553
0.0125913
0.0126216
0.0126469
0.0126683
0.012686
0.012701
0.0127135
0.012724
0.0127327
0.0127402
0.0127463
0.0127515
0.0127557
0.0127594
0.0127623
0.0127649
0.0127669
0.0127687
0.0127701
0.0127712
0.0127722
0.0127729
0.0127735
0.0127739
0.0127741
0.0127743
0.0127743
0.0127741
0.0127739
0.0127735
0.0127729
0.0127722
0.0127713
0.0127701
0.0127687
0.012767
0.0127649
0.0127624
0.0127594
0.0127558
0.0127515
0.0127463
0.0127402
0.0127328
0.012724
0.0127135
0.012701
0.012686
0.0126683
0.0126469
0.0126217
0.0125913
0.0125553
0.0125121
0.0124608
0.0123993
0.0123263
0.012239
0.012135
0.0120108
0.011863
0.0116865
0.0114764
0.0112257
0.0109273
0.0105718
0.0101489
0.0096458
0.00904858
0.0083404
0.00750345
0.00651809
0.0053664
0.00403497
0.00252466
0.000864703
0.000861519
0.00251513
0.00401947
0.00534519
0.00649182
0.00747244
0.0083054
0.00900987
0.00960408
0.0101043
0.010525
0.0108785
0.0111753
0.0114244
0.0116334
0.0118087
0.0119558
0.0120791
0.0121826
0.0122692
0.0123419
0.0124029
0.012454
0.0124968
0.0125327
0.0125627
0.0125879
0.0126091
0.0126268
0.0126416
0.012654
0.0126645
0.0126732
0.0126805
0.0126866
0.0126917
0.012696
0.0126996
0.0127025
0.0127051
0.0127071
0.0127088
0.0127102
0.0127114
0.0127123
0.012713
0.0127136
0.012714
0.0127143
0.0127144
0.0127144
0.0127143
0.012714
0.0127136
0.0127131
0.0127123
0.0127114
0.0127102
0.0127089
0.0127071
0.0127051
0.0127026
0.0126996
0.012696
0.0126918
0.0126866
0.0126805
0.0126732
0.0126645
0.012654
0.0126417
0.0126268
0.0126091
0.0125879
0.0125628
0.0125327
0.0124968
0.012454
0.0124029
0.0123419
0.0122693
0.0121826
0.0120791
0.0119558
0.0118087
0.0116334
0.0114244
0.0111753
0.0108785
0.010525
0.0101043
0.00960408
0.00900987
0.0083054
0.00747244
0.00649181
0.00534519
0.00401947
0.00251513
0.000861519
0.0008011
0.00233545
0.00372482
0.00494228
0.00598874
0.00687848
0.00762981
0.00826219
0.00879293
0.00923821
0.00961112
0.00992376
0.0101854
0.0104047
0.0105882
0.0107422
0.0108709
0.0109789
0.0110692
0.0111451
0.0112084
0.0112617
0.0113062
0.0113436
0.0113748
0.0114011
0.011423
0.0114415
0.0114569
0.0114698
0.0114806
0.0114897
0.0114973
0.0115036
0.011509
0.0115134
0.0115171
0.0115203
0.0115229
0.011525
0.0115268
0.0115283
0.0115295
0.0115305
0.0115313
0.011532
0.0115324
0.0115328
0.011533
0.0115332
0.0115331
0.011533
0.0115328
0.0115325
0.011532
0.0115314
0.0115305
0.0115296
0.0115283
0.0115269
0.011525
0.0115229
0.0115203
0.0115172
0.0115134
0.011509
0.0115037
0.0114973
0.0114897
0.0114806
0.0114698
0.0114569
0.0114415
0.011423
0.0114011
0.0113748
0.0113436
0.0113062
0.0112617
0.0112084
0.011145
0.0110692
0.0109789
0.0108709
0.0107421
0.0105882
0.0104047
0.0101854
0.00992375
0.00961113
0.00923821
0.00879293
0.00826219
0.00762981
0.00687848
0.00598874
0.00494228
0.00372482
0.00233545
0.000801099
0.000648551
0.00188288
0.00298676
0.00393936
0.00474592
0.0054214
0.00598465
0.00645279
0.00684218
0.00716559
0.00743497
0.00765893
0.00784592
0.00800152
0.00813176
0.00824018
0.00833114
0.00840685
0.00847051
0.00852345
0.00856807
0.00860513
0.00863644
0.0086624