/*--------------------------------*- C++ -*----------------------------------*\
| =========                 |                                                 |
| \\      /  F ield         | OpenFOAM: The Open Source CFD Toolbox           |
|  \\    /   O peration     | Version:  2012                                  |
|   \\  /    A nd           | Website:  www.openfoam.com                      |
|    \\/     M anipulation  |                                                 |
\*---------------------------------------------------------------------------*/
FoamFile
{
    version     2.0;
    format      ascii;
    class       volScalarField;
    location    "1";
    object      gradTy;
}
// * * * * * * * * * * * * * * * * * * * * * * * * * * * * * * * * * * * * * //

dimensions      [0 -1 0 1 0 0 0];


internalField   nonuniform List<scalar> 
10000
(
0.000752664
0.00149671
0.00192748
0.00220789
0.00240529
0.00255154
0.00266356
0.00275139
0.00282133
0.00287773
0.00292357
0.0029611
0.00299196
0.00301746
0.00303857
0.00305611
0.00307068
0.00308284
0.00309297
0.00310144
0.00310851
0.00311443
0.00311937
0.00312351
0.00312697
0.00312987
0.0031323
0.00313434
0.00313604
0.00313747
0.00313866
0.00313966
0.0031405
0.00314121
0.00314179
0.00314229
0.00314269
0.00314304
0.00314333
0.00314357
0.00314376
0.00314393
0.00314406
0.00314417
0.00314426
0.00314433
0.00314439
0.00314442
0.00314445
0.00314446
0.00314446
0.00314445
0.00314442
0.00314438
0.00314433
0.00314426
0.00314417
0.00314406
0.00314393
0.00314376
0.00314357
0.00314332
0.00314304
0.00314269
0.00314229
0.00314179
0.00314121
0.0031405
0.00313966
0.00313866
0.00313747
0.00313604
0.00313434
0.0031323
0.00312987
0.00312697
0.00312351
0.00311937
0.00311443
0.00310851
0.00310144
0.00309297
0.00308284
0.00307068
0.00305611
0.00303857
0.00301746
0.00299196
0.0029611
0.00292357
0.00287773
0.00282133
0.00275139
0.00266356
0.00255154
0.00240529
0.00220789
0.00192748
0.00149671
0.000752664
0.000208433
0.000549489
0.000811545
0.00101236
0.00116808
0.00129038
0.0013877
0.00146582
0.00152918
0.00158079
0.00162318
0.00165803
0.0016869
0.00171076
0.00173064
0.00174712
0.00176092
0.00177237
0.00178198
0.00178997
0.00179669
0.00180227
0.00180698
0.00181089
0.00181419
0.00181693
0.00181924
0.00182116
0.00182279
0.00182413
0.00182528
0.00182622
0.00182703
0.00182768
0.00182825
0.00182871
0.00182911
0.00182943
0.00182971
0.00182993
0.00183012
0.00183027
0.0018304
0.00183051
0.00183059
0.00183066
0.00183071
0.00183074
0.00183077
0.00183078
0.00183078
0.00183077
0.00183074
0.00183071
0.00183066
0.00183059
0.00183051
0.00183041
0.00183027
0.00183012
0.00182993
0.00182971
0.00182943
0.00182911
0.00182871
0.00182825
0.00182769
0.00182703
0.00182622
0.00182528
0.00182414
0.00182279
0.00182116
0.00181925
0.00181693
0.00181419
0.00181089
0.00180698
0.00180227
0.00179669
0.00178997
0.00178198
0.00177237
0.00176092
0.00174713
0.00173064
0.00171076
0.0016869
0.00165803
0.00162318
0.00158079
0.00152918
0.00146582
0.0013877
0.00129038
0.00116808
0.00101236
0.000811545
0.000549489
0.000208433
9.06093e-05
0.000261255
0.000411914
0.000540648
0.000648861
0.000739089
0.00081407
0.000876299
0.000927967
0.000970888
0.00100659
0.00103631
0.00106108
0.00108174
0.00109899
0.0011134
0.00112545
0.00113553
0.00114395
0.00115101
0.00115691
0.00116186
0.001166
0.00116947
0.00117237
0.00117482
0.00117685
0.00117856
0.00117999
0.0011812
0.0011822
0.00118304
0.00118374
0.00118434
0.00118483
0.00118525
0.00118559
0.00118588
0.00118612
0.00118632
0.00118649
0.00118663
0.00118674
0.00118683
0.00118691
0.00118697
0.00118701
0.00118705
0.00118707
0.00118708
0.00118708
0.00118707
0.00118705
0.00118701
0.00118697
0.00118691
0.00118684
0.00118674
0.00118663
0.00118649
0.00118633
0.00118612
0.00118588
0.00118559
0.00118525
0.00118483
0.00118434
0.00118374
0.00118305
0.0011822
0.0011812
0.00117999
0.00117857
0.00117685
0.00117482
0.00117238
0.00116948
0.001166
0.00116186
0.00115691
0.00115101
0.00114395
0.00113553
0.00112545
0.0011134
0.00109899
0.00108174
0.00106108
0.00103631
0.00100659
0.000970888
0.000927968
0.000876299
0.00081407
0.000739088
0.000648862
0.000540647
0.000411915
0.000261255
9.06095e-05
4.70466e-05
0.000138799
0.00022436
0.000301912
0.000370368
0.000430175
0.000481496
0.000525573
0.000562825
0.000594589
0.000621193
0.000643829
0.00066267
0.00067871
0.000691995
0.000703329
0.000712672
0.000720669
0.00072723
0.000732868
0.000737472
0.000741446
0.000744673
0.000747474
0.000749735
0.00075171
0.000753293
0.000754685
0.000755793
0.000756775
0.000757549
0.000758242
0.000758782
0.000759271
0.000759647
0.000759992
0.000760253
0.000760496
0.000760677
0.000760847
0.000760971
0.000761089
0.000761172
0.000761252
0.000761306
0.000761357
0.00076139
0.000761418
0.000761434
0.000761443
0.000761443
0.000761433
0.000761419
0.00076139
0.000761358
0.000761306
0.000761253
0.000761172
0.00076109
0.00076097
0.000760848
0.000760677
0.000760497
0.000760254
0.000759993
0.000759648
0.000759272
0.000758783
0.000758243
0.00075755
0.000756776
0.000755794
0.000754686
0.000753295
0.00075171
0.000749737
0.000747474
0.000744675
0.000741445
0.000737474
0.000732868
0.000727232
0.000720668
0.000712673
0.000703328
0.000691995
0.00067871
0.00066267
0.000643829
0.000621193
0.000594589
0.000562825
0.000525573
0.000481496
0.000430175
0.000370367
0.000301912
0.00022436
0.000138799
4.70467e-05
2.34198e-05
6.94665e-05
0.000113487
0.00015435
0.000191649
0.000224912
0.00025439
0.000279997
0.000302296
0.000321331
0.000337748
0.000351593
0.000363481
0.000373413
0.000381934
0.000388997
0.000395067
0.000400061
0.000404369
0.000407885
0.000410937
0.000413406
0.000415567
0.000417296
0.000418825
0.000420034
0.000421116
0.000421959
0.000422726
0.000423313
0.000423857
0.000424265
0.000424651
0.000424933
0.000425208
0.000425402
0.000425597
0.000425731
0.000425868
0.00042596
0.000426056
0.000426118
0.000426184
0.000426225
0.000426269
0.000426295
0.000426322
0.000426336
0.000426348
0.000426353
0.000426352
0.000426349
0.000426335
0.000426322
0.000426293
0.000426269
0.000426223
0.000426184
0.000426116
0.000426056
0.000425958
0.000425868
0.000425729
0.000425596
0.000425401
0.000425207
0.000424933
0.000424651
0.000424265
0.000423857
0.000423314
0.000422726
0.000421961
0.000421116
0.000420035
0.000418824
0.000417298
0.000415566
0.000413408
0.000410937
0.000407887
0.000404368
0.000400061
0.000395066
0.000388997
0.000381933
0.000373413
0.00036348
0.000351593
0.000337748
0.000321331
0.000302295
0.000279998
0.00025439
0.000224913
0.000191648
0.000154351
0.000113487
6.94672e-05
2.34198e-05
6.56597e-06
1.94303e-05
3.19821e-05
4.3604e-05
5.45826e-05
6.42782e-05
7.325e-05
8.08714e-05
8.78612e-05
9.3607e-05
9.88789e-05
0.000103089
0.000106981
0.000110007
0.00011284
0.000114988
0.000117031
0.000118542
0.000120006
0.000121065
0.00012211
0.000122849
0.000123593
0.000124108
0.000124637
0.000124995
0.00012537
0.00012562
0.000125886
0.000126059
0.000126248
0.000126368
0.000126503
0.000126586
0.000126682
0.000126738
0.000126807
0.000126844
0.000126894
0.000126917
0.000126955
0.000126968
0.000126995
0.000127002
0.000127022
0.000127025
0.000127038
0.000127038
0.000127046
0.000127044
0.000127045
0.000127042
0.000127039
0.000127034
0.000127024
0.000127017
0.000127
0.00012699
0.000126964
0.00012695
0.000126912
0.000126891
0.000126838
0.000126805
0.000126732
0.000126682
0.00012658
0.000126504
0.000126364
0.00012625
0.000126056
0.000125888
0.000125618
0.000125373
0.000124994
0.000124639
0.000124109
0.000123595
0.00012285
0.000122111
0.000121066
0.000120006
0.000118543
0.000117029
0.000114988
0.000112838
0.000110007
0.00010698
0.000103089
9.88787e-05
9.36072e-05
8.78618e-05
8.08715e-05
7.32513e-05
6.42783e-05
5.45841e-05
4.3604e-05
3.19832e-05
1.94304e-05
6.5665e-06
-9.57895e-06
-2.83401e-05
-4.64367e-05
-6.31304e-05
-7.86281e-05
-9.23107e-05
-0.000104729
-0.000115341
-0.000124872
-0.00013281
-0.000139923
-0.000145724
-0.000150936
-0.000155111
-0.000158885
-0.000161862
-0.000164572
-0.000166682
-0.000168615
-0.000170105
-0.000171477
-0.000172529
-0.000173499
-0.000174241
-0.000174923
-0.000175447
-0.000175926
-0.000176297
-0.000176631
-0.000176894
-0.000177126
-0.000177312
-0.000177472
-0.000177605
-0.000177716
-0.00017781
-0.000177888
-0.000177954
-0.000178008
-0.000178054
-0.000178093
-0.000178123
-0.000178151
-0.00017817
-0.00017819
-0.0001782
-0.000178214
-0.000178218
-0.000178227
-0.000178227
-0.00017823
-0.000178225
-0.000178224
-0.000178215
-0.000178208
-0.000178193
-0.000178179
-0.000178157
-0.000178131
-0.000178101
-0.000178061
-0.000178018
-0.000177959
-0.000177897
-0.000177813
-0.000177725
-0.000177605
-0.00017748
-0.000177311
-0.000177131
-0.000176891
-0.000176635
-0.000176293
-0.000175928
-0.000175444
-0.000174922
-0.000174237
-0.000173497
-0.000172526
-0.000171475
-0.000170105
-0.000168614
-0.000166684
-0.000164573
-0.000161866
-0.000158887
-0.000155116
-0.000150938
-0.000145727
-0.000139923
-0.000132811
-0.000124872
-0.00011534
-0.000104729
-9.23094e-05
-7.86277e-05
-6.31281e-05
-4.64358e-05
-2.8338e-05
-9.57839e-06
-3.21442e-05
-9.48109e-05
-0.000153695
-0.000207441
-0.000255637
-0.000298084
-0.000335196
-0.000367203
-0.000394798
-0.000418284
-0.000438381
-0.000455331
-0.000469784
-0.00048189
-0.000492206
-0.000500795
-0.000508124
-0.000514189
-0.000519383
-0.000523653
-0.000527328
-0.000530326
-0.000532926
-0.000535026
-0.000536865
-0.000538334
-0.000539636
-0.000540661
-0.000541583
-0.000542296
-0.000542951
-0.000543446
-0.000543912
-0.000544253
-0.000544585
-0.00054482
-0.000545056
-0.000545217
-0.000545385
-0.000545493
-0.000545613
-0.000545684
-0.000545768
-0.000545814
-0.000545871
-0.000545899
-0.000545934
-0.000545949
-0.000545966
-0.00054597
-0.000545971
-0.000545965
-0.000545949
-0.000545933
-0.000545899
-0.00054587
-0.000545814
-0.000545767
-0.000545684
-0.000545612
-0.000545493
-0.000545385
-0.000545216
-0.000545057
-0.000544819
-0.000544586
-0.000544252
-0.000543913
-0.000543444
-0.000542953
-0.000542295
-0.000541585
-0.000540659
-0.000539638
-0.000538332
-0.000536867
-0.000535025
-0.000532927
-0.000530325
-0.000527329
-0.000523652
-0.000519384
-0.000514189
-0.000508125
-0.000500795
-0.000492207
-0.000481891
-0.000469784
-0.000455332
-0.000438381
-0.000418285
-0.000394798
-0.000367205
-0.000335196
-0.000298085
-0.000255637
-0.000207442
-0.000153695
-9.48112e-05
-3.21439e-05
-8.76193e-05
-0.000247452
-0.000385791
-0.000503409
-0.000602282
-0.000685282
-0.00075451
-0.000812485
-0.000860712
-0.000901135
-0.000934729
-0.000962937
-0.00098637
-0.00100608
-0.00102246
-0.00103625
-0.00104771
-0.00105737
-0.0010654
-0.00107217
-0.00107781
-0.00108255
-0.00108651
-0.00108983
-0.00109262
-0.00109494
-0.00109691
-0.00109853
-0.00109993
-0.00110106
-0.00110204
-0.00110283
-0.00110353
-0.00110407
-0.00110457
-0.00110495
-0.00110529
-0.00110556
-0.0011058
-0.00110598
-0.00110615
-0.00110628
-0.00110639
-0.00110648
-0.00110655
-0.0011066
-0.00110665
-0.00110668
-0.0011067
-0.00110671
-0.00110671
-0.0011067
-0.00110667
-0.00110665
-0.0011066
-0.00110655
-0.00110647
-0.00110639
-0.00110627
-0.00110614
-0.00110598
-0.00110579
-0.00110555
-0.00110529
-0.00110494
-0.00110456
-0.00110407
-0.00110352
-0.00110283
-0.00110204
-0.00110106
-0.00109992
-0.00109854
-0.00109691
-0.00109495
-0.00109263
-0.00108984
-0.00108652
-0.00108255
-0.00107781
-0.00107217
-0.0010654
-0.00105737
-0.00104771
-0.00103625
-0.00102246
-0.00100608
-0.000986368
-0.000962934
-0.000934728
-0.000901134
-0.000860712
-0.000812486
-0.00075451
-0.000685283
-0.000602282
-0.000503412
-0.000385792
-0.000247455
-8.76199e-05
-0.000475856
-0.00101358
-0.00135851
-0.00159922
-0.00177654
-0.00191168
-0.00201719
-0.00210084
-0.00216806
-0.00222249
-0.00226695
-0.00230339
-0.00233345
-0.00235829
-0.00237888
-0.00239599
-0.00241023
-0.0024221
-0.00243198
-0.00244027
-0.00244715
-0.00245295
-0.00245775
-0.00246182
-0.00246517
-0.00246803
-0.00247037
-0.00247239
-0.00247402
-0.00247544
-0.00247658
-0.00247759
-0.00247838
-0.00247909
-0.00247964
-0.00248014
-0.00248052
-0.00248088
-0.00248114
-0.00248139
-0.00248157
-0.00248174
-0.00248186
-0.00248198
-0.00248206
-0.00248213
-0.00248218
-0.00248222
-0.00248224
-0.00248225
-0.00248225
-0.00248224
-0.00248222
-0.00248218
-0.00248213
-0.00248205
-0.00248197
-0.00248186
-0.00248174
-0.00248157
-0.00248139
-0.00248114
-0.00248087
-0.00248052
-0.00248014
-0.00247964
-0.00247909
-0.00247838
-0.00247759
-0.00247658
-0.00247544
-0.00247402
-0.00247239
-0.00247038
-0.00246803
-0.00246517
-0.00246182
-0.00245775
-0.00245295
-0.00244715
-0.00244027
-0.00243198
-0.0024221
-0.00241022
-0.00239599
-0.00237888
-0.00235828
-0.00233345
-0.00230339
-0.00226695
-0.00222249
-0.00216806
-0.00210084
-0.00201719
-0.00191167
-0.00177654
-0.00159922
-0.00135851
-0.00101358
-0.000475857
0.00136872
0.00308175
0.00421868
0.00501435
0.00559582
0.00603501
0.00637515
0.00664342
0.00685805
0.00703145
0.00717275
0.00728851
0.00738387
0.00746264
0.00752796
0.00758219
0.00762735
0.00766495
0.00769636
0.00772256
0.00774448
0.00776278
0.00777811
0.00779092
0.00780167
0.00781064
0.00781818
0.00782447
0.00782976
0.00783417
0.00783789
0.00784098
0.00784359
0.00784576
0.00784759
0.0078491
0.00785039
0.00785145
0.00785234
0.00785308
0.00785369
0.0078542
0.00785462
0.00785496
0.00785524
0.00785545
0.00785562
0.00785574
0.00785582
0.00785586
0.00785585
0.00785582
0.00785574
0.00785562
0.00785545
0.00785524
0.00785496
0.00785462
0.0078542
0.00785369
0.00785307
0.00785234
0.00785145
0.00785039
0.00784911
0.00784759
0.00784576
0.00784359
0.00784099
0.00783789
0.00783418
0.00782976
0.00782448
0.00781818
0.00781065
0.00780167
0.00779093
0.00777811
0.00776278
0.00774448
0.00772256
0.00769636
0.00766496
0.00762736
0.00758219
0.00752797
0.00746264
0.00738387
0.00728851
0.00717275
0.00703145
0.00685805
0.00664342
0.00637515
0.006035
0.00559582
0.00501435
0.00421868
0.00308175
0.00136872
0.000530641
0.00145537
0.00220179
0.00279199
0.00325796
0.0036283
0.00392473
0.00416412
0.00435851
0.00451757
0.00464806
0.00475582
0.0048448
0.00491875
0.00498007
0.00503124
0.00507377
0.00510939
0.00513901
0.00516388
0.00518457
0.00520198
0.00521646
0.00522866
0.0052388
0.00524737
0.00525447
0.00526049
0.00526547
0.0052697
0.00527319
0.00527616
0.0052786
0.00528069
0.0052824
0.00528386
0.00528506
0.00528608
0.00528691
0.00528763
0.0052882
0.0052887
0.00528908
0.00528942
0.00528967
0.00528988
0.00529004
0.00529015
0.00529023
0.00529026
0.00529026
0.00529023
0.00529016
0.00529004
0.00528989
0.00528967
0.00528942
0.00528909
0.0052887
0.00528821
0.00528764
0.00528692
0.00528609
0.00528506
0.00528387
0.0052824
0.00528069
0.00527861
0.00527616
0.00527319
0.0052697
0.00526547
0.00526049
0.00525448
0.00524737
0.00523881
0.00522866
0.00521646
0.00520198
0.00518457
0.00516388
0.00513901
0.00510939
0.00507377
0.00503125
0.00498007
0.00491876
0.0048448
0.00475582
0.00464806
0.00451757
0.00435851
0.00416412
0.00392473
0.0036283
0.00325796
0.00279199
0.00220179
0.00145537
0.00053064
0.000263404
0.000765074
0.00121392
0.00160156
0.00192984
0.00220507
0.00243462
0.00262571
0.00278465
0.00291694
0.00302706
0.00311886
0.00319539
0.00325929
0.00331265
0.00335725
0.00339454
0.00342573
0.00345184
0.00347369
0.00349199
0.0035073
0.00352014
0.00353088
0.00353989
0.00354743
0.00355376
0.00355905
0.00356349
0.0035672
0.00357033
0.00357293
0.00357512
0.00357694
0.00357848
0.00357976
0.00358084
0.00358173
0.00358248
0.0035831
0.00358362
0.00358404
0.0035844
0.00358468
0.00358492
0.0035851
0.00358524
0.00358534
0.00358541
0.00358544
0.00358544
0.00358541
0.00358534
0.00358524
0.0035851
0.00358492
0.00358469
0.00358441
0.00358405
0.00358363
0.0035831
0.00358249
0.00358173
0.00358084
0.00357976
0.00357849
0.00357695
0.00357513
0.00357293
0.00357033
0.0035672
0.0035635
0.00355905
0.00355376
0.00354743
0.0035399
0.00353088
0.00352014
0.0035073
0.00349199
0.00347369
0.00345184
0.00342573
0.00339454
0.00335725
0.00331265
0.00325929
0.00319539
0.00311886
0.00302706
0.00291694
0.00278465
0.00262572
0.00243462
0.00220507
0.00192984
0.00160156
0.00121392
0.000765075
0.000263404
0.000142339
0.000420073
0.000680534
0.000916629
0.00112659
0.00130941
0.00146775
0.00160275
0.00171824
0.00181554
0.00189837
0.00196764
0.00202654
0.00207553
0.00211723
0.00215175
0.0021812
0.00220547
0.00222624
0.00224329
0.00225793
0.00226989
0.00228021
0.00228859
0.00229587
0.00230174
0.00230687
0.00231098
0.0023146
0.00231747
0.00232002
0.00232203
0.00232383
0.00232523
0.0023265
0.00232747
0.00232837
0.00232904
0.00232967
0.00233014
0.00233058
0.00233089
0.0023312
0.00233141
0.00233161
0.00233174
0.00233186
0.00233193
0.00233199
0.00233201
0.00233201
0.00233199
0.00233193
0.00233186
0.00233174
0.00233161
0.00233141
0.0023312
0.00233089
0.00233058
0.00233014
0.00232968
0.00232905
0.00232837
0.00232748
0.0023265
0.00232523
0.00232383
0.00232203
0.00232002
0.00231748
0.0023146
0.00231098
0.00230687
0.00230175
0.00229587
0.0022886
0.00228021
0.0022699
0.00225793
0.00224329
0.00222624
0.00220547
0.0021812
0.00215175
0.00211723
0.00207554
0.00202654
0.00196764
0.00189837
0.00181554
0.00171824
0.00160275
0.00146775
0.00130941
0.00112659
0.000916629
0.000680534
0.000420074
0.000142339
7.16494e-05
0.000212807
0.000347531
0.000473212
0.000587521
0.000690208
0.000780626
0.000859968
0.000928359
0.000987555
0.00103785
0.00108107
0.00111742
0.00114855
0.00117453
0.00119677
0.0012152
0.00123101
0.00124402
0.00125523
0.00126438
0.00127232
0.00127874
0.00128436
0.00128885
0.00129282
0.00129596
0.00129878
0.00130097
0.00130296
0.00130448
0.0013059
0.00130696
0.00130796
0.00130869
0.0013094
0.00130991
0.00131041
0.00131076
0.00131111
0.00131135
0.00131159
0.00131175
0.00131192
0.00131202
0.00131213
0.00131219
0.00131225
0.00131228
0.0013123
0.0013123
0.00131228
0.00131225
0.00131219
0.00131213
0.00131202
0.00131192
0.00131175
0.00131159
0.00131134
0.00131111
0.00131075
0.00131041
0.0013099
0.0013094
0.00130869
0.00130796
0.00130696
0.0013059
0.00130449
0.00130296
0.00130097
0.00129878
0.00129597
0.00129282
0.00128886
0.00128436
0.00127874
0.00127232
0.00126439
0.00125523
0.00124402
0.00123101
0.0012152
0.00119677
0.00117453
0.00114855
0.00111742
0.00108107
0.00103786
0.000987553
0.000928361
0.000859966
0.000780628
0.000690207
0.000587523
0.000473211
0.000347533
0.000212806
7.16501e-05
2.00808e-05
6.0009e-05
9.80749e-05
0.000134521
0.000167549
0.000198293
0.000225031
0.000249519
0.000270107
0.00028885
0.000304162
0.000318133
0.000329255
0.000339486
0.000347437
0.000354844
0.000360469
0.000365792
0.000369745
0.00037355
0.000376316
0.000379029
0.000380958
0.000382887
0.000384231
0.000385602
0.000386537
0.00038751
0.000388159
0.000388851
0.0003893
0.000389794
0.000390103
0.000390456
0.000390666
0.00039092
0.00039106
0.000391243
0.000391334
0.000391468
0.000391524
0.000391621
0.000391654
0.000391724
0.000391741
0.000391789
0.000391795
0.000391826
0.000391824
0.000391837
0.000391831
0.000391827
0.000391816
0.000391794
0.000391778
0.000391735
0.000391712
0.000391644
0.00039161
0.000391511
0.000391458
0.000391319
0.000391236
0.000391044
0.000390917
0.000390651
0.000390456
0.000390089
0.000389797
0.000389289
0.000388857
0.00038815
0.000387518
0.000386531
0.00038561
0.000384229
0.000382895
0.000380959
0.000379034
0.000376317
0.000373552
0.000369746
0.000365791
0.00036047
0.000354842
0.000347438
0.000339483
0.000329255
0.000318131
0.000304163
0.000288851
0.000270107
0.00024952
0.000225032
0.000198296
0.000167549
0.000134524
9.80745e-05
6.00115e-05
2.00807e-05
-2.92398e-05
-8.70909e-05
-0.000142081
-0.000194
-0.000240908
-0.000283844
-0.000321232
-0.000354867
-0.000383355
-0.000408791
-0.000429868
-0.000448667
-0.000463966
-0.000477654
-0.000488621
-0.000498486
-0.000506288
-0.000513348
-0.000518871
-0.000523894
-0.000527797
-0.000531355
-0.000534109
-0.000536618
-0.000538564
-0.000540328
-0.000541703
-0.000542938
-0.000543913
-0.000544773
-0.000545463
-0.000546061
-0.000546551
-0.000546966
-0.000547313
-0.000547602
-0.000547847
-0.00054805
-0.00054822
-0.000548362
-0.000548478
-0.000548579
-0.000548655
-0.000548727
-0.000548773
-0.000548823
-0.000548846
-0.00054888
-0.000548885
-0.000548904
-0.000548894
-0.000548898
-0.000548876
-0.000548864
-0.000548826
-0.000548792
-0.000548737
-0.000548675
-0.000548595
-0.000548495
-0.000548383
-0.000548232
-0.000548071
-0.000547854
-0.000547625
-0.000547315
-0.000546988
-0.00054655
-0.000546081
-0.000545459
-0.000544789
-0.000543905
-0.000542949
-0.000541694
-0.000540333
-0.000538554
-0.000536619
-0.000534101
-0.000531352
-0.000527795
-0.000523892
-0.000518875
-0.000513347
-0.000506295
-0.000498488
-0.000488629
-0.000477656
-0.000463972
-0.000448669
-0.00042987
-0.000408791
-0.000383353
-0.000354867
-0.000321228
-0.000283844
-0.000240903
-0.000194
-0.000142077
-8.70895e-05
-2.9238e-05
-9.73207e-05
-0.000287693
-0.000466982
-0.000631476
-0.000778989
-0.000909609
-0.00102352
-0.00112241
-0.00120721
-0.00128002
-0.00134177
-0.00139449
-0.00143885
-0.00147663
-0.00150823
-0.00153513
-0.00155751
-0.0015766
-0.00159238
-0.0016059
-0.001617
-0.00162656
-0.00163435
-0.00164112
-0.00164657
-0.00165136
-0.00165517
-0.00165856
-0.00166121
-0.00166361
-0.00166546
-0.00166717
-0.00166845
-0.00166966
-0.00167054
-0.00167141
-0.00167201
-0.00167263
-0.00167304
-0.00167348
-0.00167375
-0.00167406
-0.00167424
-0.00167446
-0.00167457
-0.00167471
-0.00167477
-0.00167485
-0.00167488
-0.00167491
-0.00167491
-0.00167489
-0.00167485
-0.00167478
-0.00167471
-0.00167457
-0.00167445
-0.00167424
-0.00167406
-0.00167375
-0.00167348
-0.00167304
-0.00167263
-0.00167201
-0.00167141
-0.00167054
-0.00166966
-0.00166844
-0.00166717
-0.00166546
-0.00166362
-0.00166121
-0.00165856
-0.00165516
-0.00165136
-0.00164657
-0.00164112
-0.00163435
-0.00162657
-0.001617
-0.0016059
-0.00159238
-0.0015766
-0.00155751
-0.00153513
-0.00150823
-0.00147663
-0.00143885
-0.00139449
-0.00134178
-0.00128002
-0.00120721
-0.00112241
-0.00102352
-0.000909608
-0.000778991
-0.000631474
-0.000466983
-0.000287692
-9.7321e-05
-0.000247666
-0.000711391
-0.00112214
-0.00147563
-0.00177616
-0.00202901
-0.00224162
-0.0024192
-0.00256816
-0.00269225
-0.0027964
-0.00288308
-0.00295591
-0.00301651
-0.00306748
-0.00310989
-0.00314559
-0.00317532
-0.00320033
-0.0032212
-0.00323872
-0.00325338
-0.00326566
-0.00327597
-0.00328456
-0.00329183
-0.00329784
-0.00330296
-0.00330716
-0.00331078
-0.00331371
-0.00331627
-0.00331831
-0.00332012
-0.00332154
-0.00332281
-0.0033238
-0.0033247
-0.00332538
-0.00332601
-0.00332647
-0.00332691
-0.00332723
-0.00332751
-0.00332773
-0.00332791
-0.00332804
-0.00332813
-0.0033282
-0.00332822
-0.00332823
-0.00332819
-0.00332814
-0.00332802
-0.0033279
-0.00332771
-0.00332751
-0.00332721
-0.00332689
-0.00332646
-0.00332599
-0.00332537
-0.00332468
-0.00332379
-0.0033228
-0.00332154
-0.0033201
-0.00331831
-0.00331625
-0.00331372
-0.00331077
-0.00330717
-0.00330296
-0.00329785
-0.00329183
-0.00328458
-0.00327597
-0.00326567
-0.00325339
-0.00323873
-0.0032212
-0.00320033
-0.00317532
-0.00314559
-0.00310989
-0.00306747
-0.0030165
-0.00295591
-0.00288308
-0.0027964
-0.00269225
-0.00256816
-0.0024192
-0.00224162
-0.00202901
-0.00177616
-0.00147563
-0.00112214
-0.000711392
-0.000247668
-0.000941786
-0.00225217
-0.0031916
-0.00388578
-0.004412
-0.00481959
-0.00514038
-0.00539639
-0.00560257
-0.00577017
-0.00590709
-0.00601964
-0.00611242
-0.00618922
-0.00625291
-0.00630584
-0.00634993
-0.00638662
-0.00641732
-0.00644286
-0.00646431
-0.00648213
-0.00649716
-0.0065096
-0.00652017
-0.00652885
-0.00653629
-0.00654235
-0.00654759
-0.00655182
-0.00655552
-0.00655847
-0.00656108
-0.00656313
-0.00656498
-0.0065664
-0.0065677
-0.00656868
-0.0065696
-0.00657028
-0.00657092
-0.00657138
-0.00657182
-0.00657212
-0.00657241
-0.00657261
-0.00657278
-0.00657289
-0.00657297
-0.00657301
-0.006573
-0.00657297
-0.00657289
-0.00657278
-0.0065726
-0.00657241
-0.00657212
-0.00657181
-0.00657137
-0.00657091
-0.00657028
-0.0065696
-0.00656868
-0.0065677
-0.0065664
-0.00656497
-0.00656313
-0.00656108
-0.00655847
-0.00655552
-0.00655183
-0.00654759
-0.00654236
-0.00653629
-0.00652886
-0.00652017
-0.00650961
-0.00649717
-0.00648213
-0.00646432
-0.00644286
-0.00641732
-0.00638662
-0.00634993
-0.00630583
-0.00625291
-0.00618922
-0.00611242
-0.00601964
-0.00590708
-0.00577017
-0.00560257
-0.00539639
-0.00514038
-0.00481959
-0.00441199
-0.00388578
-0.0031916
-0.00225217
-0.000941786
0.00170939
0.00404773
0.00571211
0.00693719
0.00786388
0.00858049
0.0091442
0.00959379
0.00995605
0.0102505
0.0104912
0.0106891
0.0108524
0.0109876
0.0110997
0.011193
0.0112707
0.0113355
0.0113895
0.0114347
0.0114725
0.0115041
0.0115305
0.0115526
0.0115711
0.0115867
0.0115996
0.0116105
0.0116196
0.0116273
0.0116336
0.011639
0.0116435
0.0116472
0.0116504
0.011653
0.0116552
0.0116571
0.0116586
0.0116599
0.0116609
0.0116618
0.0116625
0.0116631
0.0116636
0.011664
0.0116643
0.0116645
0.0116646
0.0116647
0.0116647
0.0116646
0.0116645
0.0116643
0.011664
0.0116636
0.0116631
0.0116625
0.0116618
0.0116609
0.0116599
0.0116586
0.0116571
0.0116552
0.011653
0.0116504
0.0116472
0.0116435
0.011639
0.0116336
0.0116273
0.0116196
0.0116105
0.0115996
0.0115867
0.0115711
0.0115526
0.0115305
0.0115041
0.0114725
0.0114347
0.0113895
0.0113355
0.0112707
0.011193
0.0110997
0.0109876
0.0108524
0.0106891
0.0104912
0.0102505
0.00995604
0.00959379
0.0091442
0.00858049
0.00786388
0.00693719
0.00571211
0.00404773
0.00170939
0.000772175
0.00215645
0.00331109
0.00424925
0.00500609
0.00561668
0.00611142
0.00651385
0.00684308
0.00711322
0.00733606
0.00752009
0.00767282
0.00779949
0.00790507
0.00799286
0.00806627
0.0081274
0.00817863
0.00822131
0.00825715
0.00828701
0.00831213
0.00833305
0.00835067
0.00836533
0.0083777
0.00838798
0.00839667
0.00840387
0.00840998
0.00841503
0.00841932
0.00842285
0.00842587
0.00842834
0.00843045
0.00843217
0.00843365
0.00843485
0.00843587
0.00843669
0.00843739
0.00843794
0.0084384
0.00843875
0.00843903
0.00843922
0.00843935
0.00843941
0.00843941
0.00843935
0.00843922
0.00843903
0.00843875
0.0084384
0.00843794
0.0084374
0.0084367
0.00843588
0.00843486
0.00843366
0.00843218
0.00843046
0.00842835
0.00842588
0.00842286
0.00841933
0.00841504
0.00840999
0.00840388
0.00839668
0.00838799
0.00837771
0.00836534
0.00835068
0.00833305
0.00831214
0.00828702
0.00825716
0.00822131
0.00817863
0.0081274
0.00806628
0.00799287
0.00790508
0.00779949
0.00767283
0.00752009
0.00733607
0.00711322
0.00684308
0.00651385
0.00611142
0.00561668
0.00500609
0.00424925
0.00331109
0.00215645
0.000772175
0.000417892
0.00121958
0.00194581
0.00258071
0.00312431
0.00358397
0.00397013
0.00429323
0.00456324
0.0047886
0.00497681
0.00513391
0.0052652
0.00537488
0.00546662
0.00554332
0.00560753
0.00566124
0.00570623
0.00574388
0.00577543
0.00580185
0.00582398
0.00584252
0.00585806
0.00587107
0.00588198
0.00589112
0.00589878
0.00590519
0.00591057
0.00591507
0.00591884
0.005922
0.00592465
0.00592686
0.00592871
0.00593026
0.00593155
0.00593263
0.00593352
0.00593426
0.00593486
0.00593536
0.00593576
0.00593608
0.00593632
0.0059365
0.0059366
0.00593667
0.00593666
0.00593661
0.00593649
0.00593632
0.00593608
0.00593577
0.00593537
0.00593487
0.00593427
0.00593352
0.00593264
0.00593156
0.00593027
0.00592872
0.00592688
0.00592465
0.00592202
0.00591885
0.00591509
0.00591057
0.00590521
0.00589878
0.00589113
0.00588198
0.00587108
0.00585806
0.00584253
0.00582398
0.00580185
0.00577543
0.00574389
0.00570623
0.00566124
0.00560753
0.00554332
0.00546663
0.00537488
0.00526521
0.00513391
0.00497681
0.0047886
0.00456324
0.00429323
0.00397013
0.00358397
0.00312431
0.00258071
0.00194581
0.00121958
0.000417893
0.000235076
0.000695204
0.0011277
0.00152291
0.00187478
0.00218411
0.00245141
0.00268181
0.00287765
0.00304487
0.00318563
0.00330536
0.00340548
0.00349058
0.00356139
0.00362163
0.00367155
0.0037141
0.0037492
0.00377923
0.00380388
0.00382506
0.00384235
0.00385728
0.0038694
0.00387993
0.00388842
0.00389584
0.00390178
0.00390702
0.00391117
0.00391486
0.00391776
0.00392037
0.00392239
0.00392423
0.00392563
0.00392692
0.00392789
0.0039288
0.00392947
0.00393009
0.00393054
0.00393097
0.00393126
0.00393153
0.00393171
0.00393186
0.00393194
0.00393199
0.00393199
0.00393194
0.00393186
0.00393171
0.00393154
0.00393126
0.00393097
0.00393055
0.0039301
0.00392947
0.00392881
0.0039279
0.00392693
0.00392564
0.00392424
0.0039224
0.00392038
0.00391777
0.00391487
0.00391118
0.00390703
0.00390179
0.00389585
0.00388843
0.00387993
0.00386941
0.00385728
0.00384236
0.00382506
0.00380389
0.00377923
0.00374921
0.0037141
0.00367155
0.00362163
0.00356139
0.00349058
0.00340548
0.00330536
0.00318563
0.00304487
0.00287765
0.00268181
0.00245141
0.00218411
0.00187478
0.00152291
0.00112771
0.000695204
0.000235077
0.000120587
0.000358015
0.000585512
0.000797554
0.000991674
0.0011656
0.00132005
0.00145483
0.0015723
0.00167303
0.00175985
0.0018334
0.00189644
0.00194937
0.00199464
0.00203236
0.00206464
0.00209136
0.00211429
0.00213313
0.00214937
0.00216262
0.00217411
0.0021834
0.00219153
0.00219804
0.00220378
0.00220833
0.00221239
0.00221556
0.00221844
0.00222065
0.00222269
0.00222422
0.00222566
0.00222673
0.00222775
0.00222848
0.0022292
0.0022297
0.00223021
0.00223055
0.00223089
0.00223112
0.00223135
0.00223149
0.00223163
0.00223171
0.00223178
0.0022318
0.0022318
0.00223178
0.00223171
0.00223163
0.00223149
0.00223135
0.00223112
0.00223089
0.00223054
0.00223021
0.0022297
0.0022292
0.00222848
0.00222775
0.00222673
0.00222567
0.00222422
0.00222269
0.00222065
0.00221844
0.00221557
0.00221239
0.00220833
0.00220378
0.00219804
0.00219153
0.00218341
0.00217411
0.00216263
0.00214937
0.00213314
0.00211428
0.00209137
0.00206464
0.00203237
0.00199463
0.00194937
0.00189644
0.00183341
0.00175985
0.00167303
0.0015723
0.00145484
0.00132005
0.0011656
0.000991671
0.000797557
0.000585511
0.000358018
0.000120586
3.41915e-05
0.000101381
0.000166819
0.000227792
0.000285163
0.000336327
0.000383333
0.000423798
0.00046049
0.000491176
0.00051888
0.000541483
0.00056194
0.000578263
0.000593149
0.00060478
0.00061551
0.000623723
0.00063141
0.000637174
0.00064266
0.000646688
0.000650596
0.000653402
0.000656183
0.000658131
0.000660111
0.000661459