/*--------------------------------*- C++ -*----------------------------------*\
| =========                 |                                                 |
| \\      /  F ield         | OpenFOAM: The Open Source CFD Toolbox           |
|  \\    /   O peration     | Version:  2012                                  |
|   \\  /    A nd           | Website:  www.openfoam.com                      |
|    \\/     M anipulation  |                                                 |
\*---------------------------------------------------------------------------*/
FoamFile
{
    version     2.0;
    format      ascii;
    class       volScalarField;
    location    "1";
    object      T;
}
// * * * * * * * * * * * * * * * * * * * * * * * * * * * * * * * * * * * * * //

dimensions      [0 0 0 1 0 0 0];


internalField   nonuniform List<scalar> 
10000
(
8.33804e-05
0.000154325
0.000190804
0.000212762
0.000227522
0.000238175
0.000246214
0.000252462
0.00025741
0.000261386
0.000264609
0.000267244
0.000269408
0.000271194
0.000272671
0.000273899
0.000274918
0.000275769
0.000276476
0.000277068
0.000277562
0.000277975
0.00027832
0.00027861
0.000278851
0.000279054
0.000279224
0.000279366
0.000279485
0.000279584
0.000279668
0.000279738
0.000279797
0.000279846
0.000279887
0.000279921
0.00027995
0.000279974
0.000279994
0.000280011
0.000280024
0.000280036
0.000280045
0.000280053
0.000280059
0.000280064
0.000280068
0.000280071
0.000280072
0.000280073
0.000280073
0.000280072
0.00028007
0.000280068
0.000280064
0.000280059
0.000280053
0.000280045
0.000280036
0.000280024
0.00028001
0.000279994
0.000279974
0.00027995
0.000279921
0.000279887
0.000279846
0.000279796
0.000279738
0.000279668
0.000279585
0.000279485
0.000279366
0.000279224
0.000279054
0.000278851
0.00027861
0.00027832
0.000277976
0.000277562
0.000277068
0.000276476
0.000275769
0.000274918
0.000273899
0.000272672
0.000271194
0.000269408
0.000267244
0.000264609
0.000261386
0.00025741
0.000252462
0.000246214
0.000238175
0.000227522
0.000212762
0.000190804
0.000154325
8.33804e-05
0.000126026
0.00026301
0.00034728
0.000404068
0.000444798
0.000475278
0.000498755
0.000517221
0.000531957
0.000543854
0.000553532
0.000561461
0.000567983
0.000573375
0.000577839
0.000581549
0.000584633
0.000587205
0.000589349
0.000591141
0.000592637
0.000593889
0.000594934
0.000595812
0.000596544
0.000597159
0.000597672
0.000598103
0.000598463
0.000598766
0.000599018
0.000599231
0.000599407
0.000599557
0.000599681
0.000599786
0.000599872
0.000599946
0.000600005
0.000600057
0.000600098
0.000600133
0.000600162
0.000600185
0.000600204
0.000600219
0.00060023
0.000600238
0.000600244
0.000600246
0.000600246
0.000600243
0.000600239
0.00060023
0.000600219
0.000600203
0.000600185
0.000600161
0.000600133
0.000600098
0.000600057
0.000600005
0.000599945
0.000599872
0.000599786
0.000599681
0.000599557
0.000599408
0.000599231
0.000599019
0.000598766
0.000598463
0.000598103
0.000597672
0.000597158
0.000596544
0.000595811
0.000594935
0.000593889
0.000592637
0.000591141
0.000589349
0.000587205
0.000584633
0.000581549
0.000577839
0.000573375
0.000567983
0.000561461
0.000553531
0.000543854
0.000531957
0.000517221
0.000498755
0.000475278
0.000444797
0.000404068
0.00034728
0.00026301
0.000126026
0.000144596
0.000316006
0.000429915
0.000511351
0.000572319
0.000619306
0.000656285
0.000685778
0.000709588
0.000728933
0.000744784
0.000757801
0.000768566
0.000777463
0.000784866
0.000791006
0.000796136
0.0008004
0.000803973
0.000806946
0.000809443
0.000811521
0.000813269
0.000814723
0.00081595
0.000816968
0.000817829
0.000818542
0.000819147
0.000819647
0.000820073
0.000820422
0.000820722
0.000820966
0.000821177
0.000821348
0.000821495
0.000821614
0.000821717
0.0008218
0.000821872
0.000821928
0.000821977
0.000822015
0.000822047
0.000822071
0.00082209
0.000822104
0.000822113
0.000822118
0.000822117
0.000822113
0.000822104
0.000822091
0.000822071
0.000822048
0.000822015
0.000821978
0.000821928
0.000821872
0.0008218
0.000821718
0.000821615
0.000821496
0.000821348
0.000821177
0.000820967
0.000820722
0.000820423
0.000820073
0.000819648
0.000819147
0.000818543
0.000817829
0.000816969
0.00081595
0.000814724
0.000813269
0.000811521
0.000809443
0.000806947
0.000803974
0.000800401
0.000796136
0.000791006
0.000784866
0.000777463
0.000768566
0.000757801
0.000744784
0.000728933
0.000709589
0.000685778
0.000656285
0.000619306
0.000572319
0.000511351
0.000429915
0.000316006
0.000144596
0.000154884
0.000346261
0.000478614
0.000576541
0.000651891
0.000711266
0.000758773
0.000797198
0.00082851
0.000854185
0.000875325
0.0008928
0.000907278
0.000919308
0.000929314
0.000937656
0.00094461
0.000950422
0.000955273
0.000959335
0.000962727
0.000965571
0.000967946
0.00096994
0.000971604
0.000973004
0.000974171
0.000975154
0.000975972
0.000976663
0.000977236
0.000977721
0.000978123
0.000978464
0.000978745
0.000978985
0.00097918
0.000979348
0.000979485
0.000979602
0.000979696
0.000979776
0.00097984
0.000979894
0.000979936
0.000979971
0.000979996
0.000980015
0.000980027
0.000980033
0.000980034
0.000980027
0.000980016
0.000979996
0.000979971
0.000979936
0.000979895
0.00097984
0.000979777
0.000979696
0.000979602
0.000979485
0.000979349
0.000979181
0.000978985
0.000978746
0.000978465
0.000978124
0.000977722
0.000977237
0.000976663
0.000975973
0.000975154
0.000974171
0.000973004
0.000971605
0.00096994
0.000967946
0.000965571
0.000962727
0.000959335
0.000955274
0.000950423
0.00094461
0.000937657
0.000929314
0.000919309
0.000907278
0.0008928
0.000875325
0.000854185
0.00082851
0.000797198
0.000758773
0.000711267
0.000651891
0.000576541
0.000478613
0.000346261
0.000154884
0.000160789
0.000363789
0.00050717
0.000615337
0.000699914
0.000767542
0.000822242
0.000866963
0.000903647
0.000933974
0.000959025
0.000979873
0.000997155
0.0010116
0.0010236
0.00103367
0.00104203
0.00104906
0.00105491
0.00105983
0.00106392
0.00106738
0.00107024
0.00107267
0.00107467
0.00107638
0.00107779
0.00107898
0.00107997
0.00108081
0.0010815
0.00108209
0.00108258
0.00108299
0.00108333
0.00108362
0.00108386
0.00108407
0.00108423
0.00108437
0.00108449
0.00108458
0.00108466
0.00108473
0.00108478
0.00108482
0.00108485
0.00108487
0.00108489
0.0010849
0.0010849
0.00108489
0.00108487
0.00108485
0.00108482
0.00108478
0.00108473
0.00108466
0.00108458
0.00108449
0.00108437
0.00108423
0.00108407
0.00108386
0.00108363
0.00108333
0.00108299
0.00108258
0.00108209
0.0010815
0.00108081
0.00107997
0.00107898
0.00107779
0.00107638
0.00107468
0.00107267
0.00107024
0.00106738
0.00106392
0.00105983
0.00105491
0.00104906
0.00104203
0.00103367
0.0010236
0.0010116
0.000997156
0.000979872
0.000959025
0.000933974
0.000903647
0.000866963
0.000822242
0.000767542
0.000699914
0.000615337
0.00050717
0.000363789
0.00016079
0.000163561
0.000371996
0.000520663
0.000633735
0.000722917
0.000794627
0.000853074
0.000900998
0.000940592
0.000973331
0.00100057
0.00102319
0.00104208
0.0010578
0.00107097
0.00108194
0.00109115
0.00109882
0.00110527
0.00111064
0.00111517
0.00111893
0.0011221
0.00112474
0.00112697
0.00112882
0.00113039
0.00113169
0.00113279
0.0011337
0.00113448
0.00113511
0.00113566
0.0011361
0.00113649
0.0011368
0.00113707
0.00113728
0.00113747
0.00113762
0.00113775
0.00113786
0.00113795
0.00113801
0.00113807
0.00113812
0.00113815
0.00113818
0.00113819
0.0011382
0.0011382
0.00113819
0.00113818
0.00113815
0.00113812
0.00113807
0.00113801
0.00113794
0.00113786
0.00113775
0.00113762
0.00113747
0.00113728
0.00113707
0.0011368
0.00113649
0.0011361
0.00113566
0.00113511
0.00113448
0.0011337
0.00113279
0.00113169
0.00113039
0.00112882
0.00112697
0.00112474
0.00112211
0.00111893
0.00111517
0.00111064
0.00110527
0.00109882
0.00109115
0.00108194
0.00107097
0.0010578
0.00104208
0.00102319
0.00100057
0.000973332
0.000940592
0.000900999
0.000853074
0.000794628
0.000722917
0.000633735
0.000520663
0.000371997
0.000163561
0.000163338
0.00037133
0.000519584
0.000632262
0.000721103
0.000792496
0.000850681
0.000898362
0.000937762
0.000970321
0.00099742
0.0010199
0.0010387
0.00105432
0.00106742
0.00107832
0.00108748
0.0010951
0.00110151
0.00110685
0.00111134
0.00111508
0.00111824
0.00112086
0.00112308
0.00112492
0.00112647
0.00112777
0.00112886
0.00112977
0.00113053
0.00113117
0.00113171
0.00113215
0.00113253
0.00113284
0.00113311
0.00113333
0.00113351
0.00113366
0.00113379
0.00113389
0.00113398
0.00113405
0.00113411
0.00113415
0.00113419
0.00113421
0.00113423
0.00113423
0.00113423
0.00113423
0.00113421
0.00113419
0.00113415
0.00113411
0.00113405
0.00113398
0.00113389
0.00113379
0.00113366
0.00113351
0.00113332
0.00113311
0.00113284
0.00113253
0.00113215
0.00113171
0.00113117
0.00113053
0.00112977
0.00112886
0.00112777
0.00112648
0.00112492
0.00112308
0.00112086
0.00111824
0.00111509
0.00111134
0.00110685
0.00110151
0.0010951
0.00108748
0.00107832
0.00106742
0.00105432
0.0010387
0.0010199
0.00099742
0.00097032
0.000937762
0.000898361
0.000850681
0.000792496
0.000721104
0.000632262
0.000519585
0.00037133
0.000163338
0.000159213
0.000359134
0.000499587
0.000605082
0.000687229
0.000752729
0.000805538
0.000848645
0.000883912
0.000913047
0.000937057
0.000957038
0.000973568
0.00098739
0.000998851
0.00100846
0.00101645
0.00102315
0.00102873
0.00103342
0.00103732
0.00104061
0.00104335
0.00104564
0.00104757
0.00104918
0.00105053
0.00105166
0.00105261
0.0010534
0.00105407
0.00105462
0.0010551
0.00105548
0.00105581
0.00105608
0.00105632
0.0010565
0.00105667
0.0010568
0.00105691
0.001057
0.00105707
0.00105714
0.00105718
0.00105722
0.00105725
0.00105728
0.00105729
0.0010573
0.00105729
0.00105729
0.00105727
0.00105725
0.00105722
0.00105718
0.00105713
0.00105707
0.00105699
0.0010569
0.00105679
0.00105666
0.0010565
0.00105631
0.00105608
0.00105581
0.00105548
0.00105509
0.00105462
0.00105407
0.0010534
0.00105261
0.00105166
0.00105053
0.00104918
0.00104757
0.00104565
0.00104335
0.00104061
0.00103733
0.00103342
0.00102873
0.00102315
0.00101644
0.00100846
0.00099885
0.000987389
0.000973567
0.000957037
0.000937057
0.000913047
0.000883911
0.000848646
0.000805538
0.00075273
0.000687229
0.000605084
0.000499587
0.000359136
0.000159214
0.000147847
0.000325639
0.000445534
0.000532333
0.000597988
0.000648959
0.000689308
0.0007216
0.000747749
0.000769022
0.000786477
0.000800817
0.00081268
0.000822489
0.000830643
0.000837416
0.00084306
0.000847768
0.000851692
0.000854978
0.000857713
0.000860015
0.000861923
0.000863539
0.000864871
0.000866009
0.000866939
0.00086774
0.000868389
0.000868955
0.000869407
0.000869807
0.000870121
0.000870404
0.000870622
0.000870822
0.000870973
0.000871114
0.000871219
0.000871317
0.000871389
0.000871457
0.000871505
0.000871551
0.000871583
0.000871612
0.000871631
0.000871647
0.000871656
0.000871662
0.000871661
0.000871656
0.000871647
0.000871631
0.000871612
0.000871582
0.000871551
0.000871504
0.000871456
0.000871388
0.000871316
0.000871218
0.000871113
0.000870973
0.000870822
0.000870622
0.000870404
0.000870121
0.000869807
0.000869407
0.000868955
0.00086839
0.000867741
0.00086694
0.00086601
0.000864872
0.00086354
0.000861924
0.000860016
0.000857713
0.000854979
0.000851692
0.000847768
0.00084306
0.000837416
0.000830642
0.000822488
0.00081268
0.000800816
0.000786477
0.000769021
0.00074775
0.000721599
0.000689308
0.000648958
0.000597989
0.000532333
0.000445535
0.000325639
0.000147847
0.000113543
0.000230266
0.000298821
0.000343285
0.00037419
0.000396729
0.000413733
0.000426885
0.000437243
0.000445518
0.000452194
0.000457631
0.000462077
0.000465741
0.000468761
0.000471269
0.000473345
0.000475079
0.000476516
0.000477722
0.000478721
0.000479564
0.00048026
0.000480851
0.000481337
0.000481751
0.000482091
0.000482383
0.00048262
0.000482825
0.00048299
0.000483135
0.000483251
0.000483353
0.000483433
0.000483505
0.000483561
0.000483612
0.00048365
0.000483686
0.000483712
0.000483737
0.000483754
0.000483771
0.000483782
0.000483793
0.0004838
0.000483806
0.000483809
0.000483811
0.000483811
0.000483809
0.000483806
0.0004838
0.000483793
0.000483782
0.000483771
0.000483754
0.000483737
0.000483712
0.000483686
0.00048365
0.000483612
0.000483561
0.000483505
0.000483433
0.000483353
0.000483251
0.000483135
0.000482991
0.000482825
0.00048262
0.000482382
0.000482091
0.000481751
0.000481337
0.00048085
0.000480261
0.000479563
0.000478721
0.000477722
0.000476516
0.000475078
0.000473345
0.000471269
0.000468761
0.000465741
0.000462077
0.000457631
0.000452194
0.000445519
0.000437243
0.000426886
0.000413733
0.00039673
0.00037419
0.000343286
0.000298821
0.000230266
0.000113543
0.000139274
0.000292517
0.000385334
0.000446544
0.000489678
0.000521558
0.00054593
0.000564999
0.000580177
0.000592398
0.000602335
0.00061046
0.000617147
0.000622663
0.000627237
0.00063103
0.000634189
0.000636817
0.000639013
0.000640843
0.000642374
0.000643653
0.000644724
0.000645619
0.000646369
0.000646996
0.000647522
0.000647962
0.000648331
0.00064864
0.000648898
0.000649115
0.000649296
0.000649449
0.000649576
0.000649683
0.000649771
0.000649846
0.000649908
0.00064996
0.000650003
0.000650038
0.000650067
0.000650091
0.000650111
0.000650125
0.000650137
0.000650145
0.000650151
0.000650153
0.000650154
0.000650151
0.000650146
0.000650137
0.000650126
0.00065011
0.000650091
0.000650067
0.000650038
0.000650002
0.000649959
0.000649908
0.000649846
0.000649771
0.000649682
0.000649576
0.000649449
0.000649297
0.000649115
0.000648899
0.00064864
0.000648332
0.000647962
0.000647523
0.000646996
0.00064637
0.000645619
0.000644725
0.000643653
0.000642375
0.000640843
0.000639013
0.000636817
0.000634189
0.00063103
0.000627237
0.000622664
0.000617146
0.00061046
0.000602334
0.000592399
0.000580177
0.000564999
0.00054593
0.000521558
0.000489678
0.000446544
0.000385334
0.000292517
0.000139274
0.000242521
0.000568801
0.000794954
0.000957274
0.00107762
0.00116927
0.0012406
0.00129702
0.00134225
0.00137883
0.00140866
0.00143312
0.00145328
0.00146993
0.00148375
0.00149522
0.00150477
0.00151273
0.00151937
0.00152492
0.00152955
0.00153343
0.00153667
0.00153938
0.00154166
0.00154356
0.00154515
0.00154648
0.00154761
0.00154854
0.00154933
0.00154998
0.00155053
0.00155099
0.00155138
0.0015517
0.00155197
0.00155219
0.00155238
0.00155254
0.00155267
0.00155278
0.00155287
0.00155294
0.001553
0.00155304
0.00155308
0.0015531
0.00155312
0.00155313
0.00155313
0.00155312
0.0015531
0.00155308
0.00155304
0.001553
0.00155294
0.00155287
0.00155278
0.00155267
0.00155254
0.00155239
0.0015522
0.00155197
0.0015517
0.00155138
0.00155099
0.00155053
0.00154998
0.00154933
0.00154854
0.00154761
0.00154649
0.00154515
0.00154356
0.00154166
0.00153939
0.00153667
0.00153343
0.00152955
0.00152492
0.00151937
0.00151273
0.00150477
0.00149522
0.00148375
0.00146993
0.00145328
0.00143312
0.00140866
0.00137883
0.00134225
0.00129702
0.0012406
0.00116927
0.00107762
0.000957273
0.000794954
0.000568801
0.000242521
0.000295545
0.000721669
0.00103526
0.00127138
0.00145282
0.00159474
0.00170727
0.00179758
0.00187063
0.00193022
0.00197902
0.00201925
0.00205245
0.00208001
0.00210285
0.0021219
0.00213773
0.00215098
0.002162
0.00217125
0.00217895
0.00218542
0.0021908
0.00219534
0.00219911
0.00220229
0.00220493
0.00220717
0.00220902
0.00221059
0.00221189
0.00221299
0.0022139
0.00221468
0.00221531
0.00221586
0.0022163
0.00221668
0.00221699
0.00221725
0.00221747
0.00221765
0.0022178
0.00221792
0.00221801
0.00221809
0.00221815
0.00221819
0.00221822
0.00221823
0.00221823
0.00221822
0.00221819
0.00221815
0.00221809
0.00221801
0.00221792
0.0022178
0.00221765
0.00221747
0.00221726
0.00221699
0.00221668
0.0022163
0.00221586
0.00221531
0.00221468
0.0022139
0.00221299
0.00221189
0.00221059
0.00220902
0.00220717
0.00220493
0.00220229
0.00219911
0.00219534
0.0021908
0.00218542
0.00217895
0.00217125
0.002162
0.00215098
0.00213773
0.0021219
0.00210285
0.00208001
0.00205245
0.00201925
0.00197902
0.00193022
0.00187063
0.00179758
0.00170727
0.00159474
0.00145281
0.00127138
0.00103526
0.000721669
0.000295545
0.000326489
0.000812785
0.00118226
0.00146849
0.00169388
0.00187368
0.00201859
0.0021363
0.00223252
0.00231156
0.00237676
0.00243069
0.00247544
0.00251262
0.00254358
0.00256938
0.00259092
0.0026089
0.00262394
0.0026365
0.00264702
0.00265582
0.00266319
0.00266935
0.00267453
0.00267885
0.00268248
0.00268551
0.00268806
0.00269018
0.00269198
0.00269347
0.00269473
0.00269577
0.00269665
0.00269738
0.002698
0.00269851
0.00269894
0.0026993
0.0026996
0.00269984
0.00270004
0.00270021
0.00270034
0.00270044
0.00270052
0.00270058
0.00270062
0.00270064
0.00270064
0.00270062
0.00270058
0.00270053
0.00270044
0.00270034
0.00270021
0.00270005
0.00269984
0.0026996
0.0026993
0.00269895
0.00269851
0.002698
0.00269738
0.00269665
0.00269577
0.00269473
0.00269347
0.00269198
0.00269019
0.00268806
0.00268551
0.00268248
0.00267885
0.00267453
0.00266936
0.00266319
0.00265582
0.00264703
0.0026365
0.00262394
0.0026089
0.00259092
0.00256938
0.00254358
0.00251262
0.00247544
0.00243069
0.00237676
0.00231156
0.00223252
0.0021363
0.00201859
0.00187368
0.00169388
0.00146849
0.00118226
0.000812785
0.000326489
0.000344553
0.000866319
0.00126964
0.00158715
0.00184101
0.00204604
0.00221325
0.00235019
0.00246316
0.00255639
0.00263384
0.00269803
0.00275161
0.00279611
0.00283339
0.00286438
0.00289041
0.00291206
0.00293028
0.00294542
0.00295819
0.0029688
0.00297776
0.00298519
0.00299148
0.0029967
0.00300112
0.00300478
0.00300788
0.00301045
0.00301263
0.00301443
0.00301596
0.00301722
0.00301829
0.00301918
0.00301993
0.00302054
0.00302107
0.0030215
0.00302186
0.00302215
0.0030224
0.0030226
0.00302276
0.00302289
0.00302299
0.00302306
0.0030231
0.00302312
0.00302313
0.0030231
0.00302306
0.00302299
0.00302289
0.00302276
0.0030226
0.0030224
0.00302216
0.00302186
0.0030215
0.00302107
0.00302055
0.00301993
0.00301918
0.0030183
0.00301722
0.00301596
0.00301443
0.00301263
0.00301045
0.00300788
0.00300478
0.00300112
0.0029967
0.00299149
0.0029852
0.00297776
0.0029688
0.00295819
0.00294542
0.00293028
0.00291206
0.00289041
0.00286439
0.00283339
0.00279612
0.00275161
0.00269803
0.00263384
0.00255639
0.00246316
0.00235019
0.00221325
0.00204604
0.00184101
0.00158715
0.00126964
0.000866319
0.000344553
0.000353034
0.000891636
0.00131103
0.00164386
0.00191163
0.00212953
0.00230797
0.00245514
0.00257674
0.00267777
0.00276163
0.00283163
0.00288987
0.00293863
0.00297923
0.00301331
0.00304168
0.00306555
0.00308541
0.00310215
0.00311607
0.00312782
0.00313757
0.00314583
0.00315267
0.00315847
0.00316326
0.00316734
0.0031707
0.00317357
0.00317593
0.00317794
0.00317959
0.00318101
0.00318217
0.00318316
0.00318397
0.00318466
0.00318523
0.00318571
0.0031861
0.00318643
0.0031867
0.00318692
0.00318709
0.00318724
0.00318734
0.00318742
0.00318747
0.00318749
0.00318749
0.00318747
0.00318742
0.00318734
0.00318724
0.00318709
0.00318692
0.0031867
0.00318643
0.0031861
0.00318571
0.00318523
0.00318467
0.00318397
0.00318316
0.00318217
0.00318101
0.0031796
0.00317795
0.00317593
0.00317357
0.00317071
0.00316734
0.00316327
0.00315847
0.00315267
0.00314583
0.00313757
0.00312782
0.00311607
0.00310215
0.00308541
0.00306555
0.00304168
0.0030133
0.00297923
0.00293863
0.00288987
0.00283163
0.00276164
0.00267777
0.00257674
0.00245513
0.00230797
0.00212953
0.00191163
0.00164385
0.00131103
0.000891635
0.000353034
0.000352347
0.000889613
0.00130771
0.00163937
0.00190606
0.00212302
0.00230062
0.00244707
0.00256804
0.00266855
0.00275195
0.00282157
0.00287947
0.00292795
0.00296832
0.00300219
0.0030304
0.00305411
0.00307387
0.00309049
0.00310433
0.003116
0.00312571
0.00313389
0.0031407
0.00314645
0.00315123
0.00315527
0.00315863
0.00316146
0.00316382
0.00316581
0.00316746
0.00316886
0.00317001
0.00317099
0.0031718
0.00317249
0.00317305
0.00317353
0.00317391
0.00317425
0.00317451
0.00317473
0.0031749
0.00317504
0.00317515
0.00317523
0.00317527
0.0031753
0.0031753
0.00317527
0.00317522
0.00317515
0.00317504
0.0031749
0.00317473
0.0031745
0.00317424
0.00317391
0.00317353
0.00317305
0.00317249
0.0031718
0.00317099
0.00317001
0.00316886
0.00316746
0.00316581
0.00316381
0.00316146
0.00315863
0.00315527
0.00315123
0.00314646
0.00314071
0.0031339
0.00312571
0.003116
0.00310434
0.00309049
0.00307387
0.00305412
0.0030304
0.00300219
0.00296831
0.00292795
0.00287947
0.00282157
0.00275195
0.00266855
0.00256803
0.00244707
0.00230061
0.00212302
0.00190606
0.00163937
0.00130771
0.000889614
0.000352347
0.000339764
0.000852108
0.00124654
0.0015558
0.00180229
0.00200069
0.00216217
0.00229406
0.00240273
0.00249221
0.00256651
0.00262797
0.00267926
0.0027218
0.00275743
0.00278702
0.00281186
0.00283252
0.00284987
0.00286433
0.00287648
0.00288661
0.00289511
0.00290223
0.00290819
0.00291319
0.00291736
0.00292088
0.00292379
0.00292627
0.00292832
0.00293006
0.00293149
0.00293272
0.00293371
0.00293458
0.00293527
0.00293588
0.00293636
0.00293678
0.00293712
0.00293741
0.00293763
0.00293783
0.00293798
0.0029381
0.00293819
0.00293826
0.0029383
0.00293832
0.00293832
0.0029383
0.00293826
0.00293818
0.0029381
0.00293797
0.00293782
0.00293763
0.0029374
0.00293711
0.00293677
0.00293636
0.00293587
0.00293527
0.00293457
0.00293372
0.00293271
0.00293149
0.00293005
0.00292832
0.00292627
0.0029238
0.00292087
0.00291736
0.00291319
0.00290819
0.00290223
0.00289512
0.00288661
0.00287648
0.00286433
0.00284987
0.00283252
0.00281186
0.00278702
0.00275742
0.0027218
0.00267926
0.00262797
0.00256651
0.00249221
0.00240273
0.00229406
0.00216217
0.00200069
0.00180229
0.0015558
0.00124655
0.000852108
0.000339765
0.000305453
0.000751009
0.00108276
0.00133524
0.00153094
0.0016851
0.00180791
0.00190686
0.00198707
0.00205263
0.00210636
0.00215068
0.00218728
0.00221764
0.00224283
0.0022638
0.00228127
0.00229583
0.00230801
0.00231815
0.00232667
0.00233375
0.00233972
0.00234466
0.00234886
0.00235231
0.00235527
0.00235767
0.00235976
0.00236144
0.00236291
0.00236408
0.00236512
0.00236594
0.00236667
0.00236724
0.00236775
0.00236814
0.00236851
0.00236878
0.00236903
0.00236921
0.00236939
0.00236951
0.00236963
0.0023697
0.00236977
0.00236982
0.00236985
0.00236986
0.00236986
0.00236985
0.00236981
0.00236977
0.0023697
0.00236962
0.00236951
0.00236939
0.00236921
0.00236903
0.00236878
0.00236851
0.00236814
0.00236775
0.00236724
0.00236667
0.00236594
0.00236512
0.00236408
0.00236291
0.00236144
0.00235976
0.00235768
0.00235527
0.00235231
0.00234886
0.00234466
0.00233972
0.00233375
0.00232667
0.00231815
0.00230801
0.00229584
0.00228127
0.0022638
0.00224283
0.00221764
0.00218728
0.00215068
0.00210636
0.00205263
0.00198706
0.00190686
0.00180791
0.0016851
0.00153093
0.00133524
0.00108276
0.000751012
0.000305452
0.000210847
0.000482014
0.000663109
0.00078899
0.000879772
0.000947303
0.000998845
0.00103897
0.00107073
0.00109615
0.00111673
0.00113348
0.00114723
0.00115854
0.0011679
0.00117564
0.00118208
0.00118743
0.0011919
0.00119561
0.00119873
0.00120132
0.0012035
0.0012053
0.00120683
0.00120809
0.00120917
0.00121005
0.00121081
0.00121142
0.00121196
0.00121238
0.00121276
0.00121306
0.00121333
0.00121353
0.00121372
0.00121386
0.001214
0.00121409
0.00121419
0.00121425
0.00121432
0.00121436
0.0012144
0.00121443
0.00121446
0.00121447
0.00121448
0.00121449
0.00121449
0.00121448
0.00121447
0.00121446
0.00121443
0.0012144
0.00121436
0.00121432
0.00121425
0.00121419
0.00121409
0.00121399
0.00121386
0.00121372
0.00121353
0.00121332
0.00121306
0.00121276
0.00121239
0.00121195
0.00121142
0.00121081
0.00121005
0.00120917
0.0012081
0.00120683
0.0012053
0.0012035
0.00120132
0.00119873
0.00119561
0.0011919
0.00118743
0.00118208
0.00117563
0.0011679
0.00115854
0.00114723
0.00113348
0.00111673
0.00109615
0.00107073
0.00103897
0.000998846
0.000947301
0.000879773
0.000788989
0.00066311
0.000482013
0.000210847
0.000166136
0.000367715
0.000500277
0.000593155
0.000661346
0.000713139
0.000753435
0.000785352
0.00081095
0.000831692
0.000848612
0.000862504
0.000873947
0.000883419
0.000891268
0.000897797
0.000903227
0.000907759
0.000911536
0.000914694
0.000917331
0.000919539
0.000921384
0.000922929
0.000924222
0.000925305
0.000926212
0.000926971
0.000927608
0.000928141
0.000928588
0.000928961
0.000929275
0.000929537
0.000929757
0.00092994
0.000930095
0.000930222
0.00093033
0.000930419
0.000930493
0.000930554
0.000930605
0.000930646
0.000930679
0.000930705
0.000930725
0.00093074
0.000930749
0.000930754
0.000930753
0.00093075
0.000930739
0.000930726
0.000930704
0.000930679
0.000930645
0.000930605
0.000930554
0.000930493
0.000930418
0.00093033
0.000930222
0.000930094
0.00092994
0.000929757
0.000929537
0.000929275
0.000928962
0.000928587
0.000928142
0.000927608
0.000926973
0.000926212
0.000925306
0.000924222
0.00092293
0.000921384
0.00091954
0.000917331
0.000914695
0.000911536
0.000907759
0.000903228
0.000897797
0.000891269
0.000883419
0.000873948
0.000862503
0.000848612
0.000831692
0.00081095
0.000785351
0.000753435
0.000713139
0.000661346
0.000593154
0.000500277
0.000367715
0.000166136
0.000311311
0.000764907
0.00109956
0.00135095
0.00154335
0.00169314
0.00181145
0.00190605
0.0019824
0.00204452
0.00209535
0.00213717
0.00217168
0.00220027
0.00222399
0.00224372
0.00226016
0.00227387
0.00228531
0.00229487
0.00230286
0.00230955
0.00231513
0.00231982
0.00232373
0.00232702
0.00232976
0.00233207
0.00233399
0.00233562
0.00233696
0.0023381
0.00233905
0.00233985
0.00234051
0.00234107
0.00234153
0.00234192
0.00234224
0.00234252
0.00234274
0.00234293
0.00234308
0.0023432
0.0023433
0.00234338
0.00234345
0.00234349
0.00234352
0.00234353
0.00234353
0.00234352
0.00234349
0.00234344
0.00234339
0.0023433
0.00234321
0.00234308
0.00234293
0.00234274
0.00234252
0.00234225
0.00234192
0.00234153
0.00234107
0.00234051
0.00233985
0.00233905
0.0023381
0.00233697
0.00233562
0.002334
0.00233207
0.00232977
0.00232702
0.00232374
0.00231982
0.00231513
0.00230955
0.00230286
0.00229487
0.00228531
0.00227387
0.00226016
0.00224373
0.00222399
0.00220027
0.00217168
0.00213717
0.00209535
0.00204452
0.0019824
0.00190605
0.00181145
0.00169314
0.00154334
0.00135095
0.00109956
0.000764907
0.000311311
0.000393945
0.00100457
0.00147898
0.00185007
0.00214299
0.00237627
0.00256372
0.0027154
0.00283902
0.00294022
0.00302352
0.00309224
0.00314919
0.00319641
0.00323573
0.00326842
0.00329573
0.00331848
0.00333753
0.00335341
0.00336673
0.00337784
0.00338718
0.00339495
0.0034015
0.00340695
0.00341155
0.00341537
0.0034186
0.00342128
0.00342355
0.00342543
0.00342702
0.00342833
0.00342945
0.00343037
0.00343116
0.0034318
0.00343235
0.00343279
0.00343317
0.00343348
0.00343374
0.00343394
0.00343411
0.00343424
0.00343434
0.00343442
0.00343446
0.00343449
0.00343449
0.00343446
0.00343442
0.00343435
0.00343424
0.00343411
0.00343394
0.00343374
0.00343348
0.00343317
0.00343279
0.00343235
0.0034318
0.00343116
0.00343038
0.00342946
0.00342834
0.00342702
0.00342543
0.00342355
0.00342128
0.0034186
0.00341538
0.00341155
0.00340696
0.0034015
0.00339496
0.00338718
0.00337784
0.00336673
0.00335341
0.00333753
0.00331848
0.00329573
0.00326842
0.00323573
0.00319641
0.00314919
0.00309224
0.00302352
0.00294022
0.00283902
0.0027154
0.00256372
0.00237627
0.00214299
0.00185006
0.00147898
0.00100457
0.000393945
0.000444647
0.00115416
0.00172083
0.00217527
0.00254166
0.00283871
0.00308081
0.00327905
0.00344204
0.00357651
0.00368777
0.00378004
0.00385673
0.00392055
0.00397375
0.00401814
0.0040552
0.00408618
0.00411207
0.00413374
0.00415186
0.00416705
0.00417975
0.00419039
0.0041993
0.00420677
0.00421302
0.00421827
0.00422265
0.00422634
0.00422941
0.004232
0.00423415
0.00423597
0.00423748
0.00423876
0.00423981
0.0042407
0.00424144
0.00424206
0.00424256
0.00424299
0.00424334
0.00424362
0.00424385
0.00424403
0.00424417
0.00424427
0.00424434
0.00424437
0.00424437
0.00424434
0.00424427
0.00424417
0.00424404
0.00424385
0.00424363
0.00424334
0.004243
0.00424257
0.00424206
0.00424144
0.00424071
0.00423981
0.00423876
0.00423748
0.00423598
0.00423416
0.004232
0.00422942
0.00422634
0.00422266
0.00421827
0.00421303
0.00420678
0.0041993
0.0041904
0.00417975
0.00416705
0.00415187
0.00413374
0.00411207
0.00408618
0.0040552
0.00401814
0.00397375
0.00392056
0.00385673
0.00378005
0.00368777
0.00357651
0.00344204
0.00327905
0.00308081
0.00283871
0.00254166
0.00217527
0.00172083
0.00115416
0.000444647
0.000474915
0.00124406
0.00186752
0.00237488
0.0027892
0.00312926
0.00340902
0.00364031
0.00383162
0.00399064
0.00412261
0.00423275
0.00432435
0.00440101
0.00446483
0.00451838
0.00456296
0.00460045
0.00463165
0.00465792
0.00467978
0.00469822
0.00471354
0.00472649
0.00473723
0.00474633
0.00475386
0.00476026
0.00476554
0.00477003
0.00477374
0.0047769
0.00477949
0.00478171
0.00478353
0.00478509
0.00478636
0.00478745
0.00478833
0.00478909
0.0047897
0.00479022
0.00479064
0.00479099
0.00479126
0.00479148
0.00479165
0.00479177
0.00479185
0.00479189
0.00479189
0.00479185
0.00479177
0.00479165
0.00479148
0.00479126
0.00479099
0.00479064
0.00479022
0.0047897
0.00478909
0.00478833
0.00478745
0.00478636
0.00478509
0.00478353
0.00478172
0.0047795
0.0047769
0.00477374
0.00477004
0.00476555
0.00476026
0.00475387
0.00474633
0.00473724
0.00472649
0.00471354
0.00469822
0.00467978
0.00465792
0.00463165
0.00460045
0.00456297
0.00451838
0.00446483
0.00440101
0.00432435
0.00423275
0.00412261
0.00399063
0.00383162
0.00364031
0.00340902
0.00312926
0.0027892
0.00237488
0.00186752
0.00124406
0.000474915
0.000489333
0.00128682
0.00193783
0.00247087
0.00290926
0.00327081
0.00357024
0.00381848
0.0040251
0.00419695
0.00434048
0.00446005
0.00456017
0.00464365
0.00471368
0.00477207
0.00482114
0.00486203
0.00489646
0.00492512
0.00494929
0.00496939
0.00498637
0.00500046
0.0050124
0.00502228
0.00503067
0.0050376
0.0050435
0.00504836
0.00505251
0.00505591
0.00505883
0.00506121
0.00506326
0.00506493
0.00506636
0.00506753
0.00506853
0.00506934
0.00507003
0.00507059
0.00507106
0.00507143
0.00507174
0.00507198
0.00507217
0.0050723
0.00507239
0.00507243
0.00507243
0.00507239
0.0050723
0.00507217
0.00507198
0.00507174
0.00507143
0.00507106
0.00507059
0.00507004
0.00506934
0.00506853
0.00506753
0.00506637
0.00506493
0.00506327
0.00506122
0.00505883
0.00505592
0.00505251
0.00504836
0.0050435
0.00503761
0.00503067
0.00502229
0.0050124
0.00500047
0.00498637
0.00496939
0.00494929
0.00492512
0.00489646
0.00486204
0.00482114
0.00477207
0.00471368
0.00464365
0.00456017