/*--------------------------------*- C++ -*----------------------------------*\
| =========                 |                                                 |
| \\      /  F ield         | OpenFOAM: The Open Source CFD Toolbox           |
|  \\    /   O peration     | Version:  v1906                                 |
|   \\  /    A nd           | Web:      www.OpenFOAM.com                      |
|    \\/     M anipulation  |                                                 |
\*---------------------------------------------------------------------------*/
FoamFile
{
    version     2.0;
    format      ascii;
    class       volScalarField;
    location    "1300";
    object      epsilon;
}
// * * * * * * * * * * * * * * * * * * * * * * * * * * * * * * * * * * * * * //

dimensions      [0 2 -3 0 0 0 0];


internalField   nonuniform List<scalar> 
12225
(
8534.02
8352.96
7991.41
7605.15
7244.43
6922.53
6639.34
6393.75
6175.47
5989.25
5816.42
5677.43
5566.48
5477.1
5396.29
5338.34
5270.34
5245.1
612.84
1496.62
1698.52
1689.05
1643.05
1564.95
1506.99
1460.94
1422.68
1390.1
1362.66
1338.49
1319.78
1303.49
1289.41
1278.52
1262.42
1254.5
136.092
458.853
618.695
686.913
717.298
720.657
717.554
710.204
700.242
689.679
679.639
669.645
660.518
652.032
643.862
637.268
628.714
624.738
58.4939
196.181
292.428
349.166
383.806
402.631
412.968
418.16
419.597
419.049
417.505
414.754
411.547
408.137
404.469
401.243
396.79
395.049
35.9829
104.797
162.954
203.261
231.266
250.088
262.822
271.455
277.077
280.613
282.783
283.863
284.057
283.831
283.209
282.383
280.814
280.726
26.8376
65.6335
102.216
130.424
151.686
167.443
179.138
187.867
194.347
199.131
202.673
205.251
207.047
208.285
209.079
209.557
209.655
210.184
22.3043
46.1289
70.0861
90.0234
105.967
118.522
128.392
136.18
142.33
147.189
151.043
154.098
156.502
158.391
159.865
161.013
161.834
162.868
19.7657
35.3022
51.5619
65.8838
77.882
87.7543
95.8402
102.471
107.917
112.399
116.099
119.161
121.695
123.794
125.532
126.974
128.153
129.399
18.225
28.7914
40.1553
50.6099
59.7066
67.454
74.004
79.5355
84.2111
88.1699
91.5308
94.3914
96.8303
98.9133
100.696
102.225
103.544
104.835
17.2354
24.6376
32.7693
40.5136
47.4708
53.5688
58.8608
63.4386
67.3974
70.8242
73.7963
76.3794
78.629
80.5917
82.3081
83.8134
85.1466
86.4082
16.5719
21.8682
27.7955
33.6054
38.971
43.7928
48.0726
51.8516
55.1829
58.1195
60.7111
63.0017
65.0295
66.8278
68.4262
69.8511
71.1336
72.3295
16.15
20.1179
24.628
29.1491
33.4178
37.3321
40.8703
44.0468
46.8901
49.433
51.7078
53.7444
55.5701
57.2089
58.6828
60.0122
61.2205
62.3417
15.8382
18.8307
22.2845
25.8206
29.2303
32.418
35.35
38.024
40.4523
42.6531
44.6463
46.4519
48.0884
49.5731
50.9221
52.1508
53.2762
54.3201
15.58
17.773
20.3479
23.0452
25.7062
28.2468
30.6285
32.8379
34.8755
36.7483
38.4667
40.042
41.4861
42.8102
44.0254
45.1425
46.1733
47.1311
15.3746
16.94
18.8139
20.8268
22.8629
24.8525
26.7567
28.5564
30.2438
31.818
33.2821
34.6411
35.901
37.0686
38.1507
39.1543
40.0869
40.9566
15.2202
16.3202
17.6661
19.152
20.697
22.2452
23.7608
25.2219
26.6162
27.9374
29.1833
30.3542
31.4521
32.48
33.4416
34.3408
35.1819
35.9693
15.1154
15.9033
16.8898
18.01
19.2074
20.4381
21.6702
22.8813
24.0568
25.1872
26.2671
27.2937
28.2662
29.185
30.0516
30.8678
31.636
32.3578
15.0629
15.6954
16.5005
17.433
18.4492
19.5121
20.5926
21.6689
22.7256
23.7518
24.7406
25.6877
26.5909
27.4494
28.2633
29.0336
29.7619
30.4501
15.079
15.7585
16.6173
17.6041
18.6719
19.7823
20.9056
22.0203
23.1112
24.1681
25.1845
26.1565
27.0822
27.961
28.7931
29.5795
30.3211
31.0187
15.1988
16.233
17.5008
18.906
20.374
21.8525
23.3073
24.7168
26.0682
27.3546
28.5731
29.7231
30.8058
31.8233
32.7781
33.6727
34.5093
35.2889
15.4072
17.0667
19.0415
21.1515
23.2774
25.349
27.3281
29.1966
30.9479
32.5821
34.1027
35.5156
36.8272
38.0444
39.1737
40.2208
41.19
42.0819
15.7671
18.525
21.7124
24.9936
28.1794
31.1796
33.9601
36.515
38.8522
40.9859
42.9326
44.7088
46.3306
47.813
49.1695
50.4117
51.548
52.5772
16.3868
21.066
26.3185
31.5138
36.3623
40.7675
44.7217
48.2521
51.3982
54.2017
56.7026
58.9369
60.937
62.7313
64.3455
65.8009
67.1152
68.2802
17.4988
25.6604
34.531
42.8945
50.3479
56.85
62.4809
67.344
71.5454
75.1818
78.3366
81.0807
83.4743
85.568
87.407
89.028
90.4692
91.7085
19.6475
34.5756
50.1054
63.8333
75.384
84.9733
92.9193
99.4907
104.938
109.469
113.248
116.409
119.06
121.287
123.169
124.76
126.148
127.278
24.2998
53.9038
82.4119
105.381
123.267
137.151
147.963
156.311
162.793
167.845
171.776
174.832
177.195
179
180.399
181.439
182.298
182.841
36.4922
103.325
158.513
197.274
224.159
242.907
255.963
264.564
270.354
274.159
276.474
277.742
278.222
278.123
277.772
277.025
276.274
275.232
81.6126
262.529
372.085
433.124
466.547
484.631
492.865
493.501
492.272
489.347
485.128
480.477
475.723
470.826
466.236
461.473
457.512
453.153
390.158
975.278
1160.19
1205.52
1197.67
1174.1
1134.77
1094.96
1063.54
1037.66
1015.64
996.533
979.905
965.106
952.25
940.493
930.603
921.162
6457.22
6260.43
5992.3
5735.75
5500.32
5289.54
5101.33
4933.87
4785.02
4652.37
4533.68
4426.92
4330.74
4243.34
4164.36
4091.62
4026.05
3964.35
12.2687
10.4103
16.613
19.7743
22.5084
24.3091
25.9788
27.2863
28.5032
29.557
30.5354
31.4128
32.2625
33.081
33.896
34.6748
35.4278
36.0963
36.6357
37.0052
37.2484
37.2639
37.2958
37.2161
36.794
35.3248
32.0712
26.5764
18.844
13.5933
10.8519
9.88522
9.60199
9.20217
8.91324
9.37641
11.1542
13.9357
17.6194
22.2373
27.9523
35.176
43.1612
51.0129
58.7743
66.4724
74.1072
81.6798
89.1892
96.6129
103.949
111.194
118.347
125.409
132.384
139.279
146.101
152.86
159.564
166.224
172.85
179.45
186.034
192.612
199.189
205.775
212.375
218.995
225.639
232.309
239.006
245.73
252.48
259.253
266.045
272.852
279.669
286.49
293.311
300.125
306.926
313.707
320.461
327.18
333.853
340.47
347.018
353.48
359.837
366.062
372.122
377.967
383.531
388.727
393.448
398.04
402.505
406.899
411.244
415.502
419.628
423.647
427.539
431.307
434.946
438.454
441.828
445.059
448.126
451.019
453.702
456.065
458.025
459.81
461.309
462.472
463.263
463.614
463.661
463.14
462.281
461.026
459.397
457.387
454.998
452.237
449.12
445.668
441.91
437.888
433.635
429.199
424.618
419.932
415.184
410.412
405.657
400.953
396.331
391.809
387.407
383.151
379.065
375.19
371.576
368.381
366.011
365.062
366.321
369.784
374.474
376.507
378.27
380.794
384.147
388.223
392.966
398.133
403.787
409.563
415.415
422.337
430.453
432.188
425.397
405.032
368.61
318.182
263.934
216.634
192.087
192.823
211.531
239.769
272.538
303.109
332.77
355.032
375.18
363.887
35.3853
22.0756
17.7786
16.6018
16.0251
15.8911
15.8466
15.9226
16.0767
16.3483
16.7359
17.1825
17.6629
18.153
18.6455
19.1385
19.6484
20.2139
20.8266
21.4637
22.1004
22.7108
23.2759
23.8076
24.3383
24.9654
26.2916
28.2951
30.8647
33.8919
36.9655
39.7411
42.0704
43.8465
44.9626
45.5267
45.9021
46.3195
46.8221
47.4415
48.2121
49.152
50.2345
51.4317
52.7611
54.1836
55.7084
57.3335
59.0506
60.849
62.7181
64.6485
66.6321
68.6617
70.7313
72.8352
74.9687
77.1272
79.3068
81.5043
83.7167
85.9417
88.1774
90.4221
92.6743
94.9325
97.1952
99.4613
101.729
103.998
106.266
108.534
110.799
113.062
115.323
117.58
119.834
122.083
124.327
126.564
128.792
131.01
133.216
135.408
137.584
139.742
141.879
143.991
146.074
148.126
150.141
152.116
154.046
155.934
157.787
159.622
161.445
163.267
165.082
166.843
168.55
170.203
171.803
173.35
174.841
176.272
177.635
178.919
180.12
181.236
182.256
183.165
183.965
184.705
185.391
185.996
186.545
187.083
187.704
188.514
189.299
190.01
190.632
191.158
191.579
191.891
192.091
192.176
192.148
192.008
191.754
191.388
190.909
190.321
189.632
188.85
187.983
187.042
186.036
184.979
183.889
182.788
181.708
180.679
179.739
178.98
178.495
178.399
178.675
179.033
179.368
179.491
179.691
180.056
180.577
181.223
181.952
182.659
183.297
183.847
184.288
184.328
183.757
181.672
177.137
170.285
162.986
158.012
154.445
149.491
145.691
145.747
148.64
153.92
159.003
162.294
163.794
163.941
164.241
170.343
61.8712
30.6563
23.5276
20.3876
18.8622
18.0394
17.5879
17.4671
17.5118
17.7501
18.1476
18.6597
19.2585
19.8979
20.5539
21.1951
21.8047
22.3702
22.8955
23.3967
23.9101
24.4973
25.1875
26.0222
27.0939
28.602
30.8289
33.8788
37.6023
41.5604
45.3079
48.4898
50.8894
52.4055
53.0594
53.065
52.5867
51.8793
51.1478
50.5199
50.0793
49.8829
49.904
50.1544
50.6084
51.2687
52.1066
53.093
54.2005
55.4052
56.6873
58.0311
59.4247
60.8591
62.3278
63.8262
65.351
66.8996
68.4703
70.0616
71.6721
73.3004
74.9451
76.6047
78.2774
79.9616
81.6556
83.3575
85.0656
86.7781
88.4934
90.2099
91.9264
93.6416
95.3544
97.064
98.7694
100.47
102.165
103.855
105.537
107.213
108.881
110.541
112.192
113.833
115.464
117.085
118.696
120.297
121.892
123.485
125.084
126.706
128.35
129.993
131.626
133.242
134.832
136.389
137.912
139.398
140.845
142.252
143.616
144.935
146.204
147.42
148.584
149.695
150.754
151.763
152.724
153.645
154.532
155.393
156.237
157.074
157.91
158.734
159.511
160.231
160.888
161.476
161.993
162.433
162.794
163.076
163.28
163.402
163.439
163.384
163.222
162.956
162.588
162.122
161.565
160.927
160.218
159.453
158.654
157.85
157.09
156.388
155.762
155.257
154.911
154.807
154.891
155.047
155.222
155.435
155.751
156.168
156.651
157.142
157.566
157.822
157.765
157.301
156.08
153.951
150.77
146.439
141.187
135.615
130.443
126.973
125.754
125.857
126.784
128.445
130.163
131.359
131.806
131.85
132.037
132.737
135.195
140.419
81.1395
38.8516
28.6241
24.2183
22.1482
20.9125
20.3008
20.0226
20.04
20.2779
20.7145
21.3016
22.0051
22.7808
23.5932
24.4079
25.2007
25.9548
26.6637
27.3285
27.9624
28.5958
29.2775
30.073
31.0566
32.2958
33.8491
35.7647
38.055
40.6624
43.3225
45.6701
47.4376
48.5494
49.0939
49.2444
49.1359
48.8911
48.6441
48.5012
48.4913
48.6493
48.9771
49.4734
50.1183
50.8878
51.7593
52.7148
53.7409
54.8279
55.9689
57.1591
58.3955
59.6755
60.997
62.358
63.7562
65.1894
66.655
68.1508
69.6747
71.2249
72.7996
74.3969
76.0149
77.6512
79.3034
80.9691
82.6459
84.3317
86.0243
87.722
89.4237
91.1284
92.8356
94.545
96.2562
97.9687
99.6819
101.395
103.109
104.821
106.532
108.241
109.948
111.652
113.353
115.052
116.747
118.44
120.131
121.821
123.513
125.205
126.895
128.578
130.249
131.905
133.543
135.16
136.752
138.317
139.851
141.351
142.816
144.242
145.628
146.973
148.274
149.534
150.752
151.929
153.065
154.163
155.227
156.257
157.257
158.224
159.156
160.044
160.881
161.661
162.382
163.04
163.633
164.16
164.619
165.014
165.352
165.655
165.88
165.993
166.014
165.925
165.718
165.4
164.979
164.463
163.865
163.202
162.498
161.784
161.098
160.482
159.975
159.623
159.435
159.393
159.467
159.634
159.871
160.175
160.543
160.93
161.267
161.447
161.346
160.818
159.684
157.779
154.947
151.038
146.078
140.363
134.457
128.942
124.236
120.668
118.664
118.486
119.144
120.1
120.805
121.094
121.366
122.552
124.339
126.616
129.594
133.868
102.658
46.4153
33.2994
27.7018
25.1939
23.6776
22.858
22.4104
22.2704
22.3524
22.6438
23.1088
23.7247
24.4572
25.2756
26.1474
27.044
27.9388
28.8085
29.6328
30.3975
31.0977
31.7414
32.3534
32.9743
33.6579
34.4649
35.4659
36.7181
38.1046
39.6089
41.0517
42.2457
43.1366
43.7957
44.3207
44.7795
45.2227
45.6958
46.2345
46.8577
47.5716
48.3732
49.2543
50.2045
51.2128
52.275
53.3855
54.5408
55.7384
56.9773
58.257
59.5772
60.9374
62.337
63.7746
65.2482
66.7555
68.2941
69.8615
71.4558
73.0756
74.7195
76.3866
78.0757
79.7856
81.5145
83.2605
85.0217
86.796
88.5819
90.3785
92.1851
94.0018
95.8289
97.6661
99.5132
101.369
103.233
105.103
106.979
108.861
110.749
112.641
114.537
116.438
118.342
120.25
122.16
124.074
125.99
127.908
129.827
131.746
133.661
135.571
137.472
139.361
141.237
143.097
144.939
146.758
148.552
150.319
152.055
153.757
155.424
157.052
158.642
160.192
161.703
163.174
164.605
165.994
167.342
168.649
169.913
171.13
172.297
173.411
174.467
175.464
176.396
177.262
178.058
178.781
179.426
179.989
180.461
180.833
181.084
181.203
181.212
181.075
180.795
180.373
179.816
179.133
178.334
177.436
176.465
175.455
174.454
173.532
172.744
172.187
171.843
171.619
171.502
171.473
171.501
171.575
171.666
171.678
171.498
170.993
170.021
168.425
166.039
162.725
158.403
153.113
147.076
140.721
134.62
129.256
124.849
121.47
119.221
118.164
118.067
118.332
118.701
119.162
120.028
121.595
123.532
126.039
129.334
133.24
109.137
51.1719
36.4834
30.2186
27.3611
25.6093
24.6266
24.0386
23.7726
23.7242
23.8727
24.1876
24.6567
25.2591
25.9758
26.7817
27.6501
28.5494
29.4469
30.3099
31.1099
31.8244
32.4413
32.9629
33.4128
33.8405
34.3219
34.9487
35.7214
36.5293
37.335
38.179
39.0373
39.8466
40.6127
41.3703
42.1499
42.9721
43.851
44.7958
45.8108
46.8961
48.0457
49.2517
50.5055
51.8069
53.1512
54.5322
55.9453
57.3871
58.8555
60.3491
61.8674
63.4104
64.9782
66.571
68.189
69.832
71.5
73.1928
74.9108
76.6546
78.4252
80.2236
82.0503
83.9051
85.7869
87.6939
89.6236
91.5731
93.5401
95.523
97.521
99.534
101.562
103.606
105.665
107.739
109.827
111.928
114.041
116.166
118.302
120.45
122.608
124.777
126.957
129.146
131.345
133.551
135.765
137.984
140.206
142.43
144.653
146.873
149.087
151.292
153.486
155.666
157.83
159.973
162.094
164.188
166.253
168.286
170.286
172.25
174.177
176.065
177.913
179.718
181.48
183.195
184.864
186.484
188.054
189.57
191.031
192.43
193.765
195.034
196.232
197.356
198.4
199.357
200.218
200.973
201.609
202.112
202.471
202.671
202.722
202.609
202.317
201.851
201.217
200.421
199.475
198.398
197.219
195.978
194.742
193.623
192.649
191.759
190.932
190.174
189.527
188.99
188.497
188.003
187.453
186.734
185.704
184.212
182.103
179.237
175.499
170.833
165.286
159.04
152.404
145.78
139.616
134.183
129.609
125.988
123.353
121.716
120.953
120.809
121.064
121.737
122.902
124.578
126.624
129.159
132.41
135.938
125.053
55.4216
38.8247
31.8643
28.6283
26.6512
25.5089
24.8016
24.4324
24.2923
24.3396
24.5445
24.8944
25.373
25.9688
26.6633
27.4338
28.2521
29.0882
29.9118
30.6948
31.4133
32.0506
32.6001
33.0702
33.4888
33.905
34.3877
35.0136
35.7184
36.4402
37.1641
37.9013
38.6678
39.4762
40.3372
41.2626
42.2671
43.3576
44.5295
45.7768
47.0921
48.4754
49.9253
51.4365
52.9979
54.5997
56.236
57.9017
59.5924
61.3049
63.0375
64.7893
66.5603
68.3509
70.1616
71.9929
73.8455
75.7203
77.6195
79.5455
81.5015
83.49
85.5133
87.572
89.6657
91.7928
93.9501
96.1333
98.3387
100.564
102.807
105.07
107.353
109.659
111.989
114.343
116.721
119.121
121.541
123.981
126.44
128.917
131.415
133.931
136.465
139.018
141.586
144.17
146.767
149.376
151.994
154.62
157.25
159.882
162.512
165.139
167.759
170.369
172.966
175.547
178.108
180.645
183.157
185.638
188.085
190.495
192.866
195.195
197.481
199.72
201.912
204.053
206.14
208.173
210.149
212.066
213.922
215.714
217.437
219.089
220.663
222.156
223.563
224.877
226.089
227.188
228.16
228.991
229.668
230.175
230.498
230.631
230.571
230.302
229.826
229.145
228.265
227.196
225.956
224.569
223.066
221.483
219.845
218.16
216.43
214.679
212.958
211.39
210.01
208.643
207.237
205.759
204.05
201.947
199.299
195.97
191.863
186.924
181.183
174.774
167.966
161.073
154.372
148.231
142.628
137.636
133.48
130.329
128.208
126.995
126.517
126.627
127.249
128.396
130.026
132.153
134.732
137.859
141.019
128.009
57.1784
39.9657
32.667
29.2411
27.1284
25.8875
25.1006
24.6613
24.4568
24.4376
24.5671
24.8298
25.2088
25.6936
26.2698
26.9227
27.6321
28.3751
29.1273
29.8654
30.5695
31.2245
31.8229
32.367
32.8728
33.3713
33.9082
34.5386
35.2809
36.0764
36.8924
37.7201
38.565
39.4399
40.3604
41.3448
42.4123
43.5808
44.8656
46.2541
47.7381
49.3054
50.9459
52.6531
54.4199
56.2396
58.1054
60.0114
61.9525
63.9245
65.9242
67.949
69.9966
72.065
74.1525
76.2585
78.3842
80.5327
82.7085
84.9168
87.1625
89.4492
91.779
94.1528
96.5696
99.0263
101.518
104.038
106.583
109.15
111.74
114.355
116.999
119.673
122.379
125.118
127.886
130.682
133.504
136.351
139.223
142.122
145.048
147.999
150.976
153.975
156.996
160.036
163.093
166.163
169.246
172.337
175.433
178.531
181.628
184.72
187.803
190.875
193.931
196.967
199.979
202.963
205.916
208.833
211.712
214.549
217.342
220.087
222.781
225.422
228.007
230.531
232.995
235.394
237.727
239.993
242.188
244.311
246.356
248.319
250.197
251.984
253.673
255.256
256.724
258.066
259.265
260.307
261.173
261.848
262.315
262.557
262.577
262.362
261.907
261.211
260.278
259.117
257.742
256.169
254.414
252.497
250.431
248.23
245.913
243.505
241.04
238.538
235.986
233.36
230.682
228.045
225.147
221.814
217.927
213.393
208.162
202.235
195.693
188.715
181.615
174.689
167.857
161.192
154.817
148.999
144.046
140.158
137.369
135.579
134.623
134.359
134.653
135.486
136.82
138.686
140.975
143.738
146.441
133.35
58.0497
40.3929
32.8891
29.3565
27.1768
25.8932
25.0766
24.6154
24.3906
24.3509
24.4521
24.6758
25.0026
25.4224
25.9226
26.4921
27.1169
27.7821
28.471
29.1672
29.8562
30.5267
31.1721
31.7923
32.3953
32.9987
33.6297
34.3217
35.1106
35.9717
36.8734
37.7976
38.7423
39.7169
40.7376
41.8234
42.9942
44.2712
45.6762
47.1954
48.8169
50.5321
52.3336
54.215
56.1702
58.1936
60.2795
62.4228
64.6185
66.8616
69.1473
71.4706
73.8264
76.2108
78.6217
81.0596
83.5278
86.0318
88.5776
91.1703
93.8138
96.5104
99.261
102.064
104.915
107.808
110.736
113.692
116.674
119.683
122.723
125.797
128.909
132.062
135.255
138.487
141.752
145.05
148.378
151.74
155.135
158.564
162.026
165.518
169.039
172.585
176.154
179.744
183.35
186.971
190.602
194.241
197.882
201.522
205.156
208.78
212.39
215.98
219.548
223.088
226.596
230.067
233.495
236.876
240.206
243.482
246.699
249.856
252.948
255.973
258.927
261.808
264.613
267.341
269.99
272.557
275.041
277.439
279.748
281.964
284.083
286.1
288.009
289.803
291.471
293
294.374
295.574
296.583
297.38
297.946
298.266
298.335
298.143
297.682
296.948
295.946
294.682
293.165
291.406
289.419
287.218
284.816
282.23
279.475
276.567
273.518
270.327
266.989
263.492
259.815
255.902
251.641
246.954
241.785
236.099
229.892
223.19
216.064
208.615
200.954
193.149
185.248
177.387
169.815
162.883
156.918
152.118
148.51
145.989
144.384
143.535
143.313
143.641
144.493
145.902
147.737
150.019
152.221
133.656
57.8816
40.277
32.827
29.219
27.0072
25.7124
24.892
24.4337
24.213
24.1785
24.2827
24.5057
24.8244
25.2274
25.7015
26.2377
26.825
27.4539
28.1135
28.7943
29.4866
30.1819
30.8748
31.5641
32.2535
32.9523
33.6757
34.4456
35.2881
36.207
37.1821
38.2014
39.2596
40.3593
41.5086
42.7207
44.0129
45.4048
46.9169
48.5512
50.2984
52.1512
54.1036
56.1508
58.2888
60.5137
62.8217
65.2085
67.6693
70.1982
72.7888
75.4344
78.1292
80.8697
83.6556
86.4896
89.3768
92.3225
95.331
98.4051
101.546
104.754
108.026
111.357
114.738
118.162
121.62
125.11
128.633
132.193
135.796
139.446
143.147
146.898
150.694
154.53
158.403
162.312
166.257
170.239
174.26
178.317
182.407
186.527
190.673
194.842
199.03
203.234
207.451
211.676
215.905
220.133
224.355
228.566
232.761
236.934
241.08
245.194
249.27
253.303
257.287
261.219
265.093
268.904
272.647
276.319
279.916
283.434
286.869
290.219
293.479
296.649
299.726
302.71
305.598
308.389
311.082
313.674
316.163
318.547
320.823
322.986
325.032
326.954
328.742
330.381
331.852
333.135
334.212
335.059
335.657
335.992
336.052
335.83
335.309
334.494
333.389
331.997
330.327
328.389
326.195
323.761
321.101
318.23
315.161
311.904
308.459
304.822
300.978
296.899
292.54
287.837
282.721
277.134
271.032
264.393
257.212
249.514
241.341
232.746
223.784
214.528
205.1
195.72
186.717
178.48
171.337
165.47
160.889
157.479
155.055
153.438
152.484
152.14
152.344
153.122
154.37
156.088
157.748
133.527
57.1935
39.8415
32.5433
28.9152
26.7101
25.4347
24.6376
24.2072
24.0141
24.0073
24.1389
24.3883
24.7304
25.1535
25.6433
26.1913
26.7879
27.4261
28.0984
28.7984
29.5198
30.257
31.006
31.7657
32.5379
33.329
34.1495
35.0124
35.9323
36.9247
37.9834
39.0996
40.2686
41.4906
42.772
44.1234
45.5588
47.0949
48.7507
50.5289
52.4253
54.4363
56.5596
58.7931
61.1352
63.584
66.1372
68.7911
71.541
74.3809
77.3046
80.3066
83.3833
86.5344
89.7624
93.0713
96.4655
99.9476
103.518
107.177
110.92
114.745
118.643
122.606
126.623
130.685
134.79
138.936
143.13
147.377
151.682
156.045
160.467
164.942
169.464
174.028
178.631
183.273
187.955
192.677
197.435
202.226
207.046
211.888
216.75
221.628
226.516
231.41
236.305
241.196
246.077
250.941
255.783
260.595
265.373
270.111
274.803
279.442
284.021
288.534
292.975
297.336
301.613
305.8
309.894
313.89
317.785
321.575
325.257
328.828
332.286
335.631
338.861
341.977
344.976
347.861
350.629
353.28
355.814
358.228
360.521
362.69
364.732
366.642
368.409
370.016
371.444
372.672
373.676
374.436
374.933
375.151
375.074
374.691
373.991
372.987
371.679
370.07
368.17
365.99
363.548
360.859
357.942
354.815
351.49
347.976
344.273
340.372
336.246
331.856
327.142
322.031
316.444
310.302
303.537
296.099
287.966
279.143
269.663
259.58
248.973
237.97
226.769
215.667
205.058
195.354
186.878
179.795
174.102
169.667
166.287
163.768
161.952
160.781
160.227
160.318
160.898
161.992
163.077
132.384
56.2437
39.2264
32.139
28.5382
26.3744
25.1429
24.3876
24.0012
23.8488
23.885
24.0595
24.3531
24.7387
25.2054
25.7387
26.3312
26.9739
27.6611
28.3864
29.1451
29.9323
30.7449
31.5806
32.4388
33.3203
34.2284
35.1682
36.1474
37.1753
38.2624
39.4189
40.644
41.9357
43.2956
44.7288
46.2437
47.8515
49.5656
51.4015
53.3611
55.4447
57.6529
59.9865
62.4464
65.033
67.7464
70.585
73.5465
76.6271
79.8225
83.1291
86.5447
90.0696
93.7065
97.4594
101.332
105.325
109.438
113.667
118.008
122.453
126.995
131.62
136.318
141.078
145.893
150.763
155.692
160.686
165.75
170.884
176.087
181.354
186.675
192.043
197.452
202.9
208.384
213.905
219.46
225.042
230.647
236.267
241.897
247.532
253.167
258.794
264.41
270.006
275.576
281.113
286.61
292.059
297.451
302.781
308.041
313.225
318.326
323.338
328.253
333.064
337.765
342.35
346.813
351.152
355.361
359.438
363.381
367.186
370.853
374.381
377.77
381.02
384.133
387.108
389.948
392.652
395.223
397.659
399.959
402.123
404.151
406.039
407.785
409.375
410.792
412.015
413.022
413.79
414.299
414.532
414.465
414.085
413.378
412.359
411.025
409.379
407.428
405.182
402.659
399.879
396.863
393.636
390.219
386.632
382.889
378.993
374.935
370.687
366.201
361.405
356.205
350.49
344.134
337.018
329.037
320.123
310.252
299.457
287.819
275.473
262.623
249.549
236.625
224.297
213.001
203.06
194.629
187.695
182.115
177.667
174.136
171.352
169.258
167.837
167.155
167.08
167.503
167.996
130.456
54.9997
38.4863
31.6787
28.173
26.0944
24.9089
24.2033
23.8707
23.77
23.8622
24.0929
24.4458
24.895
25.4307
26.0377
26.709
27.4351
28.2109
29.03
29.8879
30.7802
31.7047
32.6594
33.6442
34.6601
35.7095
36.7959
37.9251
39.1042
40.3411
41.6431
43.0168
44.4689
46.0065
47.6342
49.3599
51.1946
53.1463
55.2218
57.4262
59.7641
62.2395
64.8561
67.6168
70.5239
73.5787
76.7812
80.1306
83.6257
87.2653
91.0495
94.9801
99.0605
103.295
107.687
112.238
116.945
121.805
126.809
131.95
137.216
142.595
148.072
153.634
159.274
164.985
170.77
176.632
182.574
188.599
194.702
200.878
207.117
213.408
219.742
226.113
232.516
238.948
245.406
251.884
258.373
264.867
271.356
277.835
284.295
290.73
297.131
303.489
309.796
316.044
322.224
328.329
334.351
340.281
346.111
351.833
357.439
362.921
368.272
373.485
378.553
383.469
388.228
392.827
397.261
401.529
405.628
409.558
413.318
416.907
420.327
423.579
426.666
429.588
432.35
434.952
437.399
439.692
441.832
443.818
445.65
447.331
448.859
450.231
451.432
452.442
453.241
453.808
454.118
454.15
453.898
453.313
452.415
451.199
449.666
447.815
445.652
443.187
440.436
437.42
434.165
430.699
427.05
423.25
419.327
415.301
411.187
406.983
402.668
398.195
393.485
388.427
382.871
376.641
369.544
361.398
352.058
341.448
329.578
316.554
302.573
287.923
272.973
258.182
244.056
231.063
219.537
209.639
201.356
194.537
188.94
184.328
180.517
177.45
175.127
173.624
172.802
172.607
172.519
127.413
53.4714
37.6208
31.1606
27.8077
25.8567
24.7377
24.0999
23.8377
23.8039
23.9687
24.2774
24.7155
25.2549
25.887
26.596
27.3767
28.2197
29.1205
30.0726
31.072
32.1145
33.1978
34.3198
35.4805
36.6799
37.92
39.2054
40.5422
41.9367
43.3955
44.9259
46.5359
48.2333
50.0267
51.9246
53.9356
56.0683
58.3307
60.7301
63.2732
65.9666
68.816
71.8267
75.0031
78.3486
81.8657
85.5565
89.4222
93.4647
97.6865
102.091
106.684
111.469
116.451
121.632
127.009
132.577
138.329
144.253
150.337
156.568
162.929
169.404
175.979
182.647
189.403
196.247
203.181
210.205
217.317
224.509
231.771
239.091
246.456
253.853
261.275
268.713
276.162
283.614
291.059
298.489
305.894
313.262
320.587
327.859
335.068
342.203
349.256
356.215
363.068
369.806
376.422
382.906
389.25
395.448
401.491
407.37
413.079
418.61
423.956
429.112
434.071
438.83
443.385
447.734
451.877
455.811
459.54
463.062
466.38
469.497
472.414
475.135
477.664
480.004
482.16
484.137
485.938
487.566
489.017
490.296
491.406
492.351
493.123
493.702
494.066
494.205
494.094
493.695
492.996
492.004
490.699
489.08
487.143
484.891
482.329
479.465
476.315
472.899
469.243
465.376
461.33
457.142
452.847
448.481
444.076
439.656
435.235
430.804
426.329
421.738
416.915
411.691
405.846
399.119
391.238
381.955
371.101
358.623
344.613
329.311
313.082
296.39
279.788
263.857
249.111
235.915
224.453
214.73
206.596
199.794
194.058
189.191
185.136
181.909
179.595
178.056
177.225
176.561
123.656
51.7293
36.6583
30.5874
27.4404
25.6522
24.6439
24.1133
23.9385
23.9991
24.2689
24.6883
25.2446
25.9087
26.6747
27.5273
28.4625
29.4709
30.5492
31.6909
32.8928
34.1508
35.4626
36.8256
38.239
39.7026
41.2189
42.7923
44.4292
46.1356
47.919
49.7873
51.748
53.81
55.9835
58.2782
60.704
63.2702
65.9858
68.8596
71.8997
75.1139
78.5092
82.0921
85.8677
89.8407
94.0151
98.3942
102.982
107.783
112.802
118.046
123.52
129.231
135.18
141.365
147.782
154.421
161.27
168.316
175.542
182.933
190.468
198.132
205.908
213.787
221.763
229.833
237.993
246.241
254.569
262.966
271.419
279.913
288.432
296.961
305.489
314.004
322.496
330.955
339.37
347.729
356.02
364.23
372.35
380.364
388.261
396.031
403.664
411.149
418.475
425.631
432.606
439.392
445.981
452.364
458.534
464.483
470.205
475.694
480.943
485.948
490.706
495.213
499.467
503.469
507.22
510.721
513.975
516.983
519.75
522.28
524.577
526.646
528.492
530.119
531.536
532.753
533.772
534.592
535.212
535.641
535.892
535.971
535.859
535.517
534.935
534.116
533.033
531.666
530.006
528.047
525.783
523.214
520.343
517.176
513.721
509.993
506.011
501.798
497.385
492.802
488.085
483.27
478.398
473.506
468.633
463.812
459.07
454.417
449.837
445.279
440.643
435.765
430.413
424.284
417.028
408.289
397.77
385.302
370.904
354.797
337.393
319.243
301.001
283.341
266.845
251.933
238.836
227.599
218.091
210.041
203.16
197.236
192.211
188.114
185.028
182.808
181.356
180.104
118.403
49.6767
35.5552
29.9494
27.0713
25.4986
24.6555
24.2803
24.2447
24.4535
24.8808
25.4653
26.1994
27.0533
28.0241
29.0957
30.2666
31.5274
32.8767
34.3086
35.8215
37.4114
39.0766
40.8144
42.6243
44.506
46.4621
48.4964
50.6119
52.8136
55.1113
57.5138
60.0296
62.6691
65.4439
68.3658
71.4459
74.6944
78.1215
81.7369
85.5503
89.5705
93.8054
98.2621
102.946
107.864
113.019
118.415
124.059
129.956
136.111
142.532
149.225
156.192
163.434
170.945
178.716
186.732
194.976
203.43
212.075
220.889
229.851
238.94
248.139
257.434
266.816
276.275
285.805
295.396
305.039
314.718
324.418
334.121
343.808
353.462
363.067
372.61
382.077
391.456
400.733
409.895
418.928
427.82
436.555
445.116
453.492
461.67
469.639
477.387
484.907
492.189
499.224
506.002
512.518
518.763
524.731
530.416
535.812
540.915
545.721
550.226
554.429
558.33
561.927
565.224
568.223
570.929
573.345
575.476
577.325
578.901
580.211
581.259
582.047
582.589
582.899
582.991
582.865
582.499
581.908
581.123
580.15
578.988
577.621
576.029
574.201
572.124
569.783
567.168
564.274
561.1
557.646
553.92
549.929
545.686
541.2
536.488
531.574
526.488
521.261
515.924
510.511
505.056
499.595
494.165
488.802
483.542
478.418
473.452
468.65
463.987
459.394
454.74
449.816
444.323
437.876
430.037
420.379
408.578
394.502
378.276
360.286
341.133
321.563
302.354
284.181
267.546
252.759
239.93
228.969
219.607
211.544
204.556
198.585
193.662
189.861
187.013
184.98
183.171
112.809
47.4431
34.401
29.3079
26.7726
25.4799
24.8694
24.7255
24.9179
25.3657
26.0399
26.8866
27.9039
29.06
30.3565
31.7774
33.325
34.9903
36.7754
38.6753
40.6913
42.8204
45.0631
47.4176
49.8843
52.4639
55.1588
57.97
60.8983
63.9482
67.124
70.4284
73.8725
77.4749
81.2507
85.2105
89.3626
93.7186
98.2903
103.089
108.125
113.408
118.945
124.744
130.809
137.145
143.756
150.645
157.816
165.273
173.019
181.06
189.397
198.03
206.956
216.163
225.636
235.357
245.302
255.447
265.766
276.233
286.822
297.508
308.27
319.088
329.947
340.835
351.738
362.644
373.538
384.405
395.226
405.981
416.652
427.219
437.666
447.977
458.136
468.128
477.939
487.553
496.958
506.14
515.083
523.775
532.203
540.355
548.218
555.783
563.041
569.983
576.603
582.892
588.847
594.461
599.731
604.653
609.224
613.442
617.305
620.812
623.966
626.769
629.221
631.328
633.097
634.536
635.648
636.434
636.906
637.078
636.957
636.535
635.812
634.831
633.601
632.128
630.414
628.462
626.288
623.91
621.341
618.581
615.623
612.456
609.069
605.455
601.606
597.516
593.188
588.629
583.848
578.856
573.672
568.306
562.759
557.059
551.238
545.326
539.353
533.348
527.341
521.36
515.434
509.591
503.859
498.267
492.843
487.611
482.585
477.758
473.095
468.508
463.838
458.836
453.146
446.313
437.832
427.235
414.195
398.649
380.855
361.376
341.003
320.608
300.977
282.721
266.252
251.78
239.281
228.524
219.216
211.141
204.241
198.542
194.089
190.671
188.095
185.753
105.98
45.362
33.3247
28.7818
26.6543
25.7036
25.4192
25.6048
26.1315
26.9298
27.9745
29.2173
30.6641
32.2804
34.0753
36.0322
38.1602
40.452
42.9151
45.5465
48.3519
51.3303
54.4859
57.8185
61.3317
65.0269
68.9076
72.9725
77.2205
81.6504
86.2602
91.0443
96.004
101.157
106.515
112.088
117.89
123.931
130.222
136.774
143.596
150.695
158.078
165.751
173.717
181.978
190.535
199.386
208.53
217.967
227.695
237.712
248.014
258.596
269.446
280.551
291.889
303.435
315.162
327.038
339.032
351.113
363.25
375.413
387.576
399.716
411.812
423.849
435.81
447.679
459.442
471.081
482.579
493.917
505.078
516.043
526.798
537.327
547.614
557.646
567.408
576.886
586.066
594.935
603.477
611.682
619.54
627.041
634.177
640.942
647.329
653.334