/*--------------------------------*- C++ -*----------------------------------*\
| =========                 |                                                 |
| \\      /  F ield         | OpenFOAM: The Open Source CFD Toolbox           |
|  \\    /   O peration     | Version:  v1906                                 |
|   \\  /    A nd           | Web:      www.OpenFOAM.com                      |
|    \\/     M anipulation  |                                                 |
\*---------------------------------------------------------------------------*/
FoamFile
{
    version     2.0;
    format      ascii;
    class       volScalarField;
    location    "1300";
    object      k;
}
// * * * * * * * * * * * * * * * * * * * * * * * * * * * * * * * * * * * * * //

dimensions      [0 2 -2 0 0 0 0];


internalField   nonuniform List<scalar> 
12225
(
2.25874
2.22668
2.16195
2.09171
2.02504
1.9646
1.91065
1.86323
1.82058
1.7838
1.74931
1.72133
1.69883
1.6806
1.66402
1.65209
1.63803
1.63279
2.25029
2.13779
1.98565
1.87243
1.78123
1.71368
1.66068
1.61696
1.58115
1.55028
1.52539
1.50222
1.48555
1.46759
1.45721
1.44235
1.43601
1.42166
2.25785
2.21888
2.14361
2.07156
2.00395
1.94415
1.89184
1.84559
1.80508
1.76894
1.73738
1.70854
1.68386
1.66053
1.64133
1.62199
1.6075
1.59168
2.25839
2.23538
2.18791
2.13577
2.08419
2.03588
1.99183
1.95174
1.91552
1.88262
1.85297
1.82581
1.80146
1.77891
1.75885
1.73988
1.72363
1.70667
2.25891
2.24457
2.21501
2.18006
2.14383
2.10824
2.07435
2.04243
2.01264
1.9849
1.95922
1.93533
1.91328
1.89274
1.87385
1.85616
1.84028
1.82453
2.25905
2.24839
2.22761
2.20199
2.17442
2.14647
2.1191
2.09277
2.0677
2.04397
2.02165
2.00065
1.98097
1.9625
1.94524
1.92905
1.91401
1.8993
2.25918
2.25077
2.23561
2.21657
2.19561
2.17389
2.1522
2.13093
2.11033
2.09055
2.07166
2.05368
2.03662
2.02045
2.00518
1.99075
1.97722
1.96412
2.25922
2.25211
2.24034
2.22548
2.20884
2.19132
2.17352
2.15582
2.13846
2.12159
2.10531
2.08967
2.07469
2.06038
2.04675
2.03379
2.02145
2.00956
2.25927
2.2531
2.24365
2.23178
2.2184
2.20416
2.18953
2.17482
2.16025
2.14595
2.13202
2.11853
2.10551
2.09299
2.08098
2.06949
2.05851
2.04792
2.25929
2.25376
2.24586
2.23607
2.22499
2.21312
2.20081
2.18832
2.17584
2.16349
2.15138
2.13956
2.12808
2.11697
2.10626
2.09594
2.08601
2.07643
2.25932
2.2543
2.24753
2.23929
2.22998
2.21996
2.20951
2.19884
2.1881
2.17742
2.16687
2.15652
2.14642
2.13658
2.12705
2.11784
2.10894
2.10032
2.25934
2.25466
2.24864
2.24143
2.23332
2.22458
2.21543
2.20605
2.19656
2.18706
2.17764
2.16836
2.15925
2.15036
2.1417
2.13329
2.12513
2.11723
2.25937
2.25498
2.24954
2.24315
2.23601
2.22832
2.22024
2.21192
2.20348
2.195
2.18656
2.1782
2.16997
2.16191
2.15403
2.14635
2.13889
2.13164
2.25939
2.25525
2.25032
2.24464
2.23834
2.23156
2.22443
2.21707
2.20957
2.20201
2.19445
2.18694
2.17951
2.17221
2.16505
2.15805
2.15122
2.14458
2.25943
2.25552
2.25102
2.24594
2.24036
2.23438
2.22809
2.22158
2.21492
2.20819
2.20143
2.1947
2.18802
2.18142
2.17494
2.16858
2.16236
2.15628
2.25946
2.25574
2.25157
2.24697
2.24196
2.23661
2.23099
2.22517
2.21921
2.21315
2.20706
2.20097
2.19491
2.18891
2.18299
2.17717
2.17147
2.16589
2.25949
2.25592
2.252
2.24774
2.24315
2.23826
2.23314
2.22783
2.22237
2.21683
2.21124
2.20563
2.20003
2.19448
2.18899
2.18359
2.17827
2.17307
2.25951
2.25603
2.25225
2.24818
2.24381
2.23919
2.23434
2.22932
2.22417
2.21892
2.21362
2.2083
2.20298
2.1977
2.19247
2.18731
2.18223
2.17724
2.2595
2.25599
2.25218
2.24806
2.24363
2.23894
2.23402
2.22892
2.22369
2.21835
2.21297
2.20756
2.20216
2.1968
2.19149
2.18625
2.18112
2.17609
2.25949
2.25585
2.25179
2.24732
2.24248
2.23731
2.23189
2.22627
2.22051
2.21466
2.20877
2.20287
2.197
2.19118
2.18544
2.17978
2.17421
2.16874
2.25943
2.25553
2.25102
2.24592
2.24031
2.23429
2.22796
2.2214
2.2147
2.20791
2.20109
2.1943
2.18755
2.18088
2.17432
2.16789
2.16161
2.15551
2.25941
2.25519
2.25002
2.24399
2.23727
2.23003
2.22243
2.2146
2.20663
2.19862
2.19062
2.18268
2.17486
2.16717
2.15964
2.15229
2.14513
2.13811
2.25935
2.25456
2.24826
2.24066
2.23209
2.22284
2.21316
2.20324
2.19322
2.1832
2.17327
2.16348
2.15389
2.14452
2.13539
2.12652
2.11792
2.10968
2.25935
2.25385
2.24584
2.23594
2.22475
2.21278
2.20039
2.18783
2.17527
2.16285
2.15065
2.13875
2.12718
2.11597
2.10516
2.09475
2.08478
2.07514
2.25927
2.25242
2.24124
2.22717
2.21139
2.1947
2.17766
2.16062
2.14384
2.12747
2.11162
2.09634
2.08166
2.0676
2.05413
2.04125
2.02886
2.01715
2.25924
2.25041
2.23397
2.21363
2.19147
2.16867
2.14591
2.12362
2.10205
2.08135
2.06159
2.0428
2.02496
2.00806
1.99207
1.97698
1.96285
1.94964
2.25889
2.24472
2.21618
2.18219
2.14678
2.11175
2.07806
2.04624
2.01648
1.98877
1.96301
1.9391
1.91688
1.89626
1.87703
1.85918
1.84218
1.8264
2.25872
2.23436
2.18569
2.13367
2.08299
2.03496
1.99028
1.9496
1.91262
1.879
1.84839
1.82053
1.79503
1.77174
1.7503
1.7307
1.71258
1.69707
2.25333
2.17275
2.05404
1.95318
1.87048
1.80144
1.74471
1.69878
1.66016
1.6271
1.59838
1.57342
1.55129
1.53199
1.51452
1.49936
1.48524
1.47203
2.25474
2.20869
2.14517
2.08349
2.02608
1.97399
1.92688
1.88447
1.84638
1.8121
1.78115
1.75307
1.72759
1.70427
1.68306
1.6634
1.64558
1.62872
0.0402573
0.0598608
0.0817467
0.0917996
0.100066
0.105323
0.110086
0.113744
0.117104
0.11998
0.12262
0.124961
0.127201
0.129327
0.131408
0.133362
0.135218
0.136813
0.138061
0.138879
0.13935
0.139306
0.1393
0.139059
0.137796
0.133733
0.124923
0.109914
0.087313
0.0707131
0.0613326
0.057842
0.0566566
0.0549352
0.0536107
0.0551362
0.0617103
0.0715402
0.0836223
0.0976238
0.113659
0.132416
0.151829
0.169748
0.18655
0.202476
0.217653
0.23218
0.246129
0.259521
0.272405
0.284816
0.296791
0.308365
0.319569
0.330439
0.341004
0.351296
0.361343
0.371172
0.380808
0.390274
0.399588
0.408772
0.41784
0.426808
0.435687
0.44449
0.453222
0.461891
0.4705
0.479051
0.487544
0.495977
0.504347
0.512651
0.520883
0.529042
0.53712
0.545114
0.553017
0.560824
0.568529
0.576123
0.583598
0.590944
0.598147
0.605192
0.612059
0.618723
0.625148
0.631282
0.637061
0.642394
0.647172
0.651743
0.656169
0.660486
0.664731
0.668853
0.67281
0.67663
0.680294
0.683807
0.687165
0.690368
0.693415
0.696301
0.699002
0.701511
0.703798
0.705776
0.707324
0.708673
0.709721
0.710399
0.710703
0.710611
0.710182
0.709173
0.707813
0.70605
0.703906
0.701371
0.698447
0.695138
0.691459
0.687426
0.683065
0.678414
0.673508
0.668391
0.663105
0.657692
0.652193
0.64665
0.641105
0.635595
0.630154
0.624801
0.619559
0.614453
0.609503
0.604754
0.600259
0.596143
0.592747
0.590785
0.590941
0.593553
0.597762
0.599631
0.600632
0.602341
0.604935
0.608255
0.612286
0.616863
0.621778
0.62701
0.63215
0.637846
0.645203
0.648929
0.645103
0.628883
0.596331
0.546431
0.485425
0.424684
0.37996
0.373794
0.388163
0.421481
0.458593
0.493619
0.52633
0.550512
0.573158
0.561796
0.0815747
0.141281
0.19393
0.220185
0.242082
0.259425
0.275741
0.290892
0.305748
0.320111
0.33419
0.347769
0.360704
0.372672
0.383385
0.392488
0.399686
0.404756
0.407604
0.408266
0.406891
0.403681
0.399433
0.3954
0.393534
0.395879
0.404302
0.420432
0.442261
0.465806
0.488801
0.509829
0.528732
0.545548
0.559897
0.571764
0.582187
0.591719
0.600196
0.607623
0.614228
0.620294
0.626462
0.633647
0.642451
0.653158
0.665775
0.680134
0.695984
0.713043
0.731044
0.749746
0.768945
0.788472
0.808189
0.827985
0.847773
0.867485
0.887071
0.906493
0.925726
0.944755
0.96357
0.982169
1.00055
1.01872
1.03668
1.05443
1.07198
1.08932
1.10647
1.12342
1.14017
1.15673
1.17309
1.18925
1.20522
1.221
1.23656
1.25191
1.26704
1.28194
1.29661
1.31102
1.32518
1.33908
1.3527
1.36603
1.37905
1.39176
1.40412
1.41612
1.42771
1.43889
1.44962
1.45989
1.46965
1.47883
1.4873
1.49509
1.5023
1.50898
1.51518
1.52091
1.52619
1.53101
1.53535
1.5392
1.54255
1.54544
1.54788
1.5499
1.55123
1.5518
1.55181
1.55152
1.55088
1.54982
1.54835
1.54643
1.5441
1.5414
1.53836
1.53496
1.53122
1.52713
1.52269
1.51788
1.51269
1.50715
1.50124
1.49498
1.48835
1.48135
1.47398
1.46622
1.45806
1.44951
1.44055
1.43115
1.42129
1.41096
1.40013
1.38878
1.37696
1.3647
1.35216
1.33973
1.32853
1.31954
1.31138
1.30288
1.29446
1.28661
1.2797
1.27393
1.2696
1.26684
1.26549
1.26534
1.26618
1.26905
1.27522
1.28229
1.28587
1.28572
1.28784
1.2972
1.31359
1.33709
1.36915
1.40535
1.43563
1.44952
1.4438
1.41875
1.38879
1.35987
1.33728
1.30679
0.118386
0.204847
0.266738
0.298184
0.324566
0.344974
0.36413
0.381788
0.399529
0.41712
0.435059
0.453093
0.47125
0.489209
0.50674
0.523416
0.538849
0.552593
0.564305
0.573741
0.580877
0.58598
0.589736
0.593321
0.598421
0.606988
0.62078
0.640736
0.666361
0.695725
0.726216
0.755499
0.78187
0.804277
0.822387
0.83627
0.846506
0.854255
0.860715
0.866822
0.873353
0.88096
0.890152
0.901273
0.914498
0.929825
0.94711
0.966105
0.986512
1.00802
1.03035
1.05324
1.07648
1.09992
1.12342
1.1469
1.1703
1.19356
1.21667
1.2396
1.26235
1.28491
1.30728
1.32945
1.35142
1.37319
1.39475
1.41608
1.43717
1.45802
1.4786
1.4989
1.5189
1.53859
1.55796
1.57698
1.59565
1.61397
1.63192
1.6495
1.66671
1.68354
1.7
1.71607
1.73177
1.74707
1.76199
1.77652
1.79065
1.80437
1.81768
1.83056
1.84301
1.85501
1.86654
1.87758
1.88812
1.89813
1.90759
1.91651
1.92489
1.93274
1.94005
1.94684
1.95309
1.9588
1.96398
1.96864
1.97277
1.97636
1.97941
1.98193
1.98393
1.98538
1.98618
1.98642
1.98627
1.98578
1.98491
1.98365
1.982
1.97995
1.9775
1.97464
1.97135
1.96762
1.96344
1.95877
1.9536
1.94793
1.94174
1.93505
1.92782
1.92005
1.91173
1.90286
1.89344
1.88348
1.87296
1.86189
1.85027
1.83811
1.82544
1.8123
1.79877
1.78497
1.771
1.75703
1.74334
1.73024
1.71768
1.70552
1.69409
1.68385
1.67529
1.66884
1.66488
1.66345
1.66426
1.66784
1.67539
1.68678
1.70093
1.71541
1.72791
1.73837
1.75174
1.77289
1.79996
1.82771
1.85005
1.85986
1.85374
1.83093
1.79833
1.76265
1.73303
1.71006
1.69411
1.67398
0.141856
0.247439
0.319919
0.35744
0.388033
0.412094
0.433783
0.453455
0.472624
0.491607
0.510917
0.530551
0.550496
0.570518
0.590377
0.609753
0.628346
0.645854
0.661998
0.676515
0.689225
0.700116
0.709432
0.717698
0.72566
0.734168
0.744203
0.756971
0.773576
0.794364
0.818426
0.843651
0.867708
0.889436
0.909047
0.927036
0.943714
0.95956
0.975226
0.991282
1.00812
1.02599
1.04503
1.06527
1.08665
1.10907
1.13239
1.15644
1.18107
1.20615
1.23154
1.25716
1.28291
1.30875
1.33462
1.36049
1.38632
1.4121
1.4378
1.46339
1.48888
1.51424
1.53947
1.56456
1.5895
1.61426
1.63883
1.66319
1.68731
1.71117
1.73474
1.758
1.78093
1.8035
1.8257
1.84752
1.86895
1.88999
1.91062
1.93084
1.95064
1.97003
1.98899
2.00753
2.02565
2.04333
2.06059
2.07741
2.09378
2.10971
2.12518
2.14019
2.15472
2.16875
2.18228
2.19528
2.20774
2.21964
2.23099
2.24176
2.25195
2.26153
2.2705
2.27885
2.28656
2.29364
2.30006
2.30584
2.31099
2.3155
2.31937
2.32263
2.32527
2.32731
2.32878
2.32963
2.32995
2.3298
2.32916
2.32806
2.32647
2.32439
2.3218
2.31868
2.31503
2.31082
2.30602
2.30062
2.29458
2.2879
2.28055
2.27252
2.26379
2.25435
2.24419
2.23332
2.22176
2.20951
2.19661
2.18305
2.16888
2.15414
2.13887
2.12316
2.10712
2.09089
2.07464
2.05851
2.04266
2.02727
2.01255
1.99882
1.98648
1.97603
1.96801
1.96293
1.96111
1.96201
1.96625
1.97487
1.98757
2.00339
2.02045
2.03605
2.04818
2.05744
2.06697
2.07932
2.09301
2.10372
2.10572
2.09638
2.07554
2.04718
2.01753
1.99123
1.97217
1.95767
1.94612
1.92774
0.165985
0.284809
0.364769
0.405706
0.438711
0.464861
0.488205
0.509118
0.528923
0.548011
0.567033
0.586237
0.605833
0.625791
0.646027
0.66636
0.68658
0.70642
0.725568
0.743665
0.760339
0.775253
0.788191
0.79915
0.808426
0.816628
0.824678
0.833868
0.845745
0.861438
0.88081
0.902377
0.924315
0.945732
0.966831
0.988091
1.00976
1.03197
1.05487
1.0786
1.10324
1.12877
1.15514
1.18223
1.20991
1.23807
1.26657
1.29531
1.32421
1.35319
1.38221
1.41123
1.44023
1.46918
1.49808
1.5269
1.55563
1.58426
1.61275
1.6411
1.66929
1.69731
1.72516
1.75282
1.7803
1.80759
1.83468
1.86155
1.88818
1.91454
1.94061
1.96637
1.99181
2.0169
2.04164
2.06603
2.09004
2.11368
2.13693
2.15977
2.18221
2.20422
2.22582
2.247
2.26775
2.28807
2.30795
2.32739
2.34639
2.36492
2.383
2.40059
2.41769
2.43428
2.45034
2.46585
2.4808
2.49517
2.50895
2.52212
2.53466
2.54656
2.5578
2.56837
2.57825
2.58743
2.59591
2.60369
2.61076
2.61713
2.62281
2.6278
2.63212
2.63577
2.63877
2.64114
2.64289
2.64402
2.64455
2.64452
2.64387
2.64261
2.64073
2.63821
2.63501
2.63112
2.6265
2.62112
2.61496
2.60798
2.60017
2.5915
2.58195
2.5715
2.56015
2.54794
2.53488
2.521
2.50635
2.49096
2.4749
2.45823
2.44106
2.42347
2.40561
2.38762
2.36964
2.35186
2.3345
2.31783
2.30217
2.28787
2.27536
2.26512
2.25768
2.25354
2.25266
2.2545
2.25986
2.26874
2.28016
2.29269
2.30445
2.31325
2.31773
2.31767
2.31517
2.31274
2.31016
2.305
2.29462
2.27809
2.2569
2.23425
2.21417
2.19848
2.18777
2.17819
2.16746
2.14786
0.17301
0.302624
0.391891
0.437223
0.473275
0.501694
0.526922
0.549301
0.570172
0.589871
0.609035
0.627965
0.647032
0.666419
0.686248
0.706508
0.7271
0.747812
0.768342
0.788307
0.807284
0.824836
0.840567
0.854208
0.865728
0.875462
0.884185
0.893108
0.903674
0.917064
0.933621
0.952747
0.973488
0.995232
1.01789
1.0416
1.06647
1.09251
1.11967
1.1479
1.17713
1.20726
1.23819
1.26978
1.3019
1.33443
1.36724
1.40021
1.43323
1.46622
1.49912
1.53186
1.56441
1.59675
1.62886
1.66074
1.69237
1.72377
1.75492
1.78583
1.81651
1.84697
1.87722
1.90728
1.93718
1.96691
1.99648
2.02587
2.05505
2.084
2.11268
2.14107
2.16913
2.19685
2.22423
2.25127
2.27795
2.30426
2.33021
2.35579
2.38097
2.40576
2.43015
2.45413
2.47771
2.50088
2.52363
2.54596
2.56786
2.58932
2.61031
2.63083
2.65085
2.67036
2.68932
2.70772
2.72554
2.74275
2.75934
2.77528
2.79056
2.80516
2.81906
2.83223
2.84467
2.85638
2.86734
2.87755
2.88702
2.89575
2.90374
2.91099
2.91751
2.9233
2.92838
2.93275
2.93642
2.9394
2.94169
2.94325
2.94407
2.94423
2.94364
2.94227
2.94009
2.93707
2.93317
2.92833
2.92253
2.91572
2.90788
2.89899
2.88901
2.87794
2.86579
2.85259
2.83839
2.82322
2.80714
2.79022
2.77254
2.75422
2.7354
2.7162
2.69678
2.67728
2.65786
2.63869
2.61999
2.60207
2.58527
2.56997
2.55656
2.54549
2.53716
2.53188
2.52967
2.53001
2.53271
2.53746
2.543
2.54785
2.55045
2.54909
2.54297
2.53289
2.52055
2.50756
2.49437
2.4802
2.46416
2.44618
2.42759
2.4102
2.3959
2.38462
2.37557
2.36511
2.35138
2.32773
0.189506
0.324286
0.415391
0.461788
0.498626
0.527891
0.553937
0.577161
0.598816
0.619186
0.638848
0.658079
0.677235
0.696533
0.71618
0.736261
0.756774
0.777592
0.798495
0.819189
0.839333
0.858561
0.876513
0.892888
0.907531
0.920526
0.932295
0.943615
0.955519
0.969026
0.984805
1.00301
1.02342
1.04574
1.06978
1.09542
1.12257
1.15113
1.18097
1.21197
1.244
1.27695
1.31069
1.34512
1.38011
1.41556
1.45133
1.4873
1.52336
1.55942
1.59539
1.6312
1.66681
1.70218
1.7373
1.77214
1.80669
1.84095
1.87491
1.90859
1.94201
1.97521
2.00822
2.04108
2.0738
2.10639
2.13885
2.17115
2.20324
2.23508
2.26663
2.29786
2.32877
2.35934
2.3896
2.41955
2.44919
2.47853
2.50755
2.53623
2.56455
2.59252
2.62013
2.64738
2.67427
2.70079
2.72693
2.75267
2.77801
2.80293
2.82739
2.85139
2.87489
2.89786
2.92029
2.94214
2.96338
2.984
3.00396
3.02325
3.04183
3.05969
3.07681
3.09317
3.10876
3.12356
3.13755
3.15074
3.16312
3.1747
3.18548
3.19546
3.20464
3.21302
3.2206
3.22739
3.23339
3.23859
3.24299
3.24657
3.24932
3.25119
3.25217
3.2523
3.25146
3.24963
3.24675
3.24276
3.23762
3.23129
3.22372
3.21489
3.20478
3.19336
3.18068
3.16676
3.15166
3.13541
3.11808
3.09975
3.08054
3.06057
3.03998
3.01893
2.99756
2.97602
2.95449
2.93319
2.91237
2.89228
2.87322
2.85552
2.8395
2.82552
2.81388
2.80473
2.79795
2.79323
2.79007
2.78759
2.78465
2.77999
2.77241
2.76108
2.74579
2.72727
2.70712
2.68692
2.66744
2.64863
2.63025
2.61231
2.59553
2.58057
2.568
2.55696
2.54634
2.53294
2.51519
2.48725
0.192499
0.333924
0.428064
0.476222
0.514523
0.54497
0.572122
0.596375
0.619023
0.640314
0.660798
0.680696
0.700348
0.719965
0.739762
0.759852
0.780299
0.801064
0.82203
0.843006
0.863755
0.884016
0.903528
0.922055
0.939446
0.955688
0.970974
0.985724
1.00056
1.0162
1.03329
1.05225
1.07327
1.09635
1.12138
1.14823
1.17672
1.20669
1.23798
1.27045
1.30398
1.33846
1.3738
1.40988
1.44662
1.4839
1.52163
1.55969
1.59798
1.63641
1.67489
1.71334
1.75171
1.78991
1.82791
1.86565
1.90308
1.94021
1.97703
2.01359
2.04994
2.08611
2.12216
2.15812
2.19402
2.22984
2.26557
2.30115
2.33652
2.37162
2.40641
2.44086
2.475
2.50883
2.54238
2.57567
2.6087
2.64146
2.67392
2.70606
2.73788
2.76938
2.80057
2.83144
2.86199
2.8922
2.92207
2.95157
2.98067
3.00936
3.03761
3.06538
3.09264
3.11936
3.14552
3.17107
3.19598
3.22024
3.2438
3.26664
3.28873
3.31005
3.33057
3.35029
3.36917
3.38722
3.40442
3.42077
3.43626
3.45089
3.46465
3.47754
3.48955
3.50069
3.51095
3.52032
3.52882
3.53642
3.54312
3.54888
3.55369
3.55752
3.56034
3.56209
3.56278
3.56235
3.56072
3.55782
3.55359
3.54799
3.54096
3.53247
3.52249
3.51102
3.49809
3.48374
3.46799
3.4509
3.43254
3.41299
3.39237
3.37078
3.34836
3.32525
3.30157
3.2775
3.2532
3.22891
3.20486
3.1813
3.15847
3.13664
3.11609
3.09707
3.0798
3.06438
3.05069
3.03843
3.02705
3.01577
3.00369
2.98982
2.97333
2.95375
2.93114
2.90629
2.88067
2.85573
2.83232
2.81059
2.79039
2.77157
2.75424
2.73844
2.72416
2.71041
2.69619
2.67868
2.65661
2.62451
0.19787
0.342798
0.436905
0.485675
0.524846
0.556191
0.584308
0.609554
0.633245
0.655591
0.677128
0.698021
0.71857
0.738931
0.759304
0.779803
0.800514
0.821449
0.842578
0.863816
0.885034
0.906078
0.926786
0.947006
0.966628
0.985616
1.00405
1.02215
1.04026
1.05883
1.07833
1.09916
1.12161
1.14582
1.17181
1.19952
1.22883
1.2596
1.29169
1.32499
1.35939
1.39478
1.43109
1.46821
1.50608
1.54461
1.58372
1.62332
1.66333
1.70366
1.74423
1.78494
1.8257
1.86643
1.90705
1.94748
1.98771
2.02773
2.06759
2.10733
2.14699
2.18662
2.22625
2.26588
2.30551
2.34511
2.38461
2.42391
2.46296
2.5017
2.54011
2.57821
2.61603
2.6536
2.69095
2.72808
2.76498
2.80162
2.83798
2.87406
2.90986
2.94539
2.98065
3.01563
3.05033
3.0847
3.11874
3.15241
3.18569
3.21854
3.25093
3.28283
3.3142
3.345
3.37519
3.40474
3.4336
3.46175
3.48914
3.51576
3.54157
3.56654
3.59066
3.61388
3.6362
3.65759
3.67805
3.69757
3.71615
3.73378
3.75045
3.76615
3.78088
3.79464
3.80741
3.8192
3.83
3.83979
3.84856
3.85629
3.86295
3.8685
3.87292
3.87618
3.87821
3.87898
3.87844
3.87648
3.87305
3.86807
3.86149
3.85327
3.84338
3.83182
3.81862
3.8038
3.78739
3.76942
3.74998
3.72913
3.70698
3.68362
3.65918
3.63376
3.6075
3.58054
3.55302
3.52511
3.49699
3.46886
3.44092
3.41342
3.38658
3.36064
3.33578
3.31215
3.28973
3.26836
3.24768
3.22715
3.20605
3.18365
3.15933
3.13272
3.10398
3.07399
3.04409
3.01554
2.98906
2.96473
2.9423
2.9214
2.90185
2.88339
2.86588
2.84847
2.83031
2.80881
2.78272
2.74691
0.198186
0.345936
0.440466
0.490247
0.530521
0.562873
0.592023
0.61829
0.643044
0.666462
0.689094
0.711065
0.732655
0.753979
0.77521
0.796438
0.817762
0.839221
0.860835
0.882578
0.904411
0.926269
0.948063
0.969707
0.991135
1.01232
1.03331
1.05421
1.07522
1.0966
1.11867
1.14171
1.16597
1.19162
1.21873
1.24733
1.27736
1.30874
1.3414
1.37524
1.41019
1.44617
1.48312
1.52098
1.55968
1.59917
1.63938
1.68027
1.72174
1.76373
1.80613
1.84884
1.89177
1.9348
1.97786
2.02092
2.06397
2.10704
2.15016
2.19337
2.23669
2.28012
2.32367
2.36732
2.41101
2.45466
2.49818
2.54146
2.58446
2.62715
2.66956
2.71173
2.75369
2.79547
2.83709
2.87851
2.91971
2.96066
3.00133
3.04175
3.08192
3.12185
3.16152
3.20092
3.24002
3.27878
3.31719
3.3552
3.39278
3.4299
3.46652
3.5026
3.5381
3.57297
3.60716
3.64065
3.67338
3.70532
3.73642
3.76666
3.796
3.82441
3.85188
3.87838
3.90388
3.92837
3.95184
3.97427
3.99567
4.01601
4.03529
4.05349
4.07063
4.08668
4.10164
4.11552
4.12829
4.13995
4.15048
4.15985
4.16805
4.17504
4.18079
4.18527
4.18843
4.1902
4.19053
4.18933
4.1865
4.18198
4.1757
4.16763
4.15772
4.14598
4.13242
4.11705
4.09989
4.08097
4.06037
4.03815
4.0144
3.98921
3.96268
3.93491
3.90599
3.87605
3.84517
3.81346
3.78104
3.74802
3.71454
3.68075
3.64683
3.613
3.5795
3.54657
3.51437
3.483
3.45239
3.42225
3.39213
3.36145
3.32972
3.29669
3.26255
3.22813
3.19456
3.16283
3.13344
3.10635
3.08117
3.05737
3.03464
3.01266
2.99134
2.97002
2.94801
2.92287
2.89334
2.85438
0.198051
0.347627
0.441951
0.492529
0.533721
0.56696
0.59703
0.624212
0.649922
0.674309
0.697943
0.720925
0.743533
0.765851
0.788037
0.810159
0.832314
0.854545
0.876905
0.899408
0.922058
0.944838
0.96772
0.990666
1.01365
1.03665
1.05971
1.08288
1.10629
1.13008
1.15447
1.17964
1.20578
1.23302
1.26146
1.29114
1.32208
1.35424
1.38758
1.42207
1.45766
1.49431
1.53199
1.57064
1.61024
1.65074
1.69212
1.7343
1.77722
1.8208
1.86494
1.90954
1.95451
1.99978
2.04531
2.0911
2.13716
2.18351
2.23017
2.27714
2.3244
2.37193
2.41968
2.46758
2.51555
2.56346
2.61122
2.65875
2.70604
2.7531
2.79996
2.84666
2.89322
2.93965
2.98593
3.03201
3.07786
3.12347
3.16883
3.21395
3.25883
3.30346
3.34782
3.39187
3.43559
3.47892
3.52185
3.56433
3.60633
3.6478
3.6887
3.72898
3.76858
3.80747
3.84559
3.88289
3.91935
3.95492
3.98955
4.02321
4.05585
4.08744
4.11796
4.14738
4.17567
4.20283
4.22883
4.25369
4.27737
4.29987
4.32119
4.34132
4.36026
4.378
4.39455
4.40989
4.42403
4.43695
4.44865
4.45908
4.46825
4.47611
4.48265
4.48782
4.49159
4.49388
4.49461
4.49369
4.49102
4.48651
4.48012
4.47179
4.46148
4.44919
4.43491
4.41863
4.40038
4.38018
4.3581
4.3342
4.30857
4.28129
4.25245
4.22214
4.19046
4.15746
4.12323
4.0878
4.05121
4.0135
3.97469
3.93485
3.89406
3.8525
3.81039
3.76805
3.72583
3.68407
3.64303
3.60278
3.56318
3.52392
3.48464
3.44519
3.40574
3.36699
3.32983
3.29498
3.26271
3.23283
3.20482
3.17807
3.15217
3.12685
3.1021
3.07744
3.05225
3.02416
2.99184
2.95037
0.196925
0.347121
0.441242
0.492632
0.534765
0.56887
0.59981
0.62783
0.654403
0.679645
0.704161
0.728031
0.751549
0.774779
0.797883
0.820912
0.843966
0.86709
0.890348
0.913767
0.937372
0.961167
0.985152
1.00933
1.0337
1.05828
1.08308
1.10815
1.13356
1.15941
1.18583
1.21295
1.24089
1.26977
1.29966
1.33063
1.3627
1.3959
1.43021
1.46562
1.50213
1.53972
1.57837
1.61808
1.65881
1.70054
1.74324
1.78685
1.83131
1.87655
1.92248
1.96903
2.01615
2.06379
2.11197
2.1607
2.20999
2.25984
2.31023
2.36112
2.41247
2.4642
2.51625
2.56848
2.62079
2.67306
2.72521
2.77719
2.82902
2.88071
2.93231
2.98382
3.03525
3.08657
3.13774
3.1887
3.23943
3.28991
3.34012
3.39009
3.43978
3.48917
3.53823
3.58691
3.63518
3.683
3.73033
3.77712
3.82333
3.86892
3.91383
3.95801
4.00141
4.04396
4.08561
4.12633
4.16606
4.20476
4.2424
4.27892
4.31431
4.34851
4.3815
4.41326
4.44375
4.47298
4.50093
4.52759
4.55295
4.57702
4.59978
4.62123
4.64139
4.66024
4.6778
4.69407
4.70903
4.72269
4.73504
4.74605
4.75569
4.76396
4.77082
4.77624
4.78017
4.78253
4.78321
4.78212
4.77914
4.7742
4.76726
4.75825
4.74713
4.73387
4.71845
4.70086
4.68111
4.65925
4.63531
4.60938
4.58152
4.55184
4.52043
4.48738
4.45277
4.41667
4.37912
4.34014
4.29971
4.25779
4.21432
4.16922
4.12248
4.07412
4.02428
3.97326
3.92148
3.86949
3.81787
3.76712
3.71751
3.6691
3.62182
3.5756
3.53062
3.48738
3.44654
3.40855
3.3735
3.34105
3.31057
3.28134
3.25288
3.22491
3.19754
3.17038
3.14292
3.11276
3.07848
3.03524
0.194966
0.345727
0.439362
0.491368
0.534211
0.569063
0.600794
0.629559
0.656889
0.682873
0.708154
0.732792
0.757105
0.781143
0.805083
0.828971
0.852913
0.876949
0.901149
0.925536
0.950146
0.974994
1.00011
1.0255
1.05118
1.07717
1.10351
1.13023
1.15738
1.18504
1.21329
1.24223
1.27193
1.30249
1.33397
1.36645
1.39995
1.43451
1.47016
1.5069
1.54474
1.58369
1.62375
1.66491
1.70716
1.75049
1.79485
1.84021
1.88651
1.93369
1.98171
2.03053
2.08013
2.13051
2.18168
2.23366
2.28645
2.34002
2.39432
2.44928
2.50483
2.56087
2.61728
2.67394
2.73071
2.78751
2.84427
2.90096
2.9576
3.0142
3.07077
3.1273
3.18376
3.24011
3.29628
3.35223
3.40792
3.46334
3.51846
3.57328
3.62776
3.68186
3.73554
3.78875
3.84146
3.8936
3.94515
3.99603
4.04619
4.09559
4.14415
4.19184
4.23859
4.28435
4.32907
4.3727
4.41518
4.45647
4.49653
4.53531
4.57279
4.60892
4.64368
4.67705
4.709
4.73955
4.76867
4.79637
4.82264
4.84749
4.87093
4.89295
4.91357
4.93279
4.95063
4.96709
4.98218
4.99588
5.0082
5.01912
5.02861
5.03665
5.04322
5.04827
5.05176
5.05358
5.0536
5.05172
5.04781
5.04186
5.0338
5.02355
5.01106
4.99627
4.97918
4.95975
4.938
4.91397
4.8877
4.85927
4.82877
4.79628
4.76193
4.7258
4.68801
4.64862
4.60769
4.56523
4.5212
4.47552
4.42806
4.37865
4.32711
4.27331
4.2172
4.15892
4.09881
4.0375
3.97579
3.91455
3.85458
3.79644
3.74044
3.68676
3.63561
3.58741
3.54259
3.50139
3.46373
3.42916
3.39694
3.36618
3.33627
3.3069
3.27815
3.24976
3.22119
3.19
3.15466
3.11042
0.191874
0.342907
0.435976
0.488523
0.532007
0.567469
0.599829
0.629211
0.657212
0.683866
0.709843
0.735178
0.760217
0.785003
0.809729
0.834436
0.85924
0.884178
0.909323
0.934698
0.960348
0.98629
1.01256
1.03917
1.06615
1.09352
1.1213
1.14955
1.17833
1.20769
1.2377
1.26842
1.29992
1.33227
1.36552
1.39974
1.43498
1.47127
1.50865
1.54714
1.58677
1.62754
1.66946
1.71254
1.75677
1.80212
1.84858
1.89611
1.94467
1.99424
2.0448
2.09633
2.14886
2.20239
2.25694
2.3125
2.36906
2.42657
2.48494
2.54411
2.60395
2.66437
2.72521
2.78636
2.8477
2.90913
2.9706
3.0321
3.09361
3.15514
3.21669
3.2782
3.33965
3.40096
3.46206
3.52291
3.58345
3.64366
3.70349
3.76293
3.82191
3.88041
3.93835
3.9957
4.05239
4.10839
4.16363
4.21805
4.2716
4.3242
4.3758
4.42632
4.47573
4.52396
4.57097
4.61672
4.66115
4.70422
4.74589
4.78612
4.82488
4.86215
4.89789
4.93209
4.96474
4.99583
5.02538
5.05337
5.07983
5.10475
5.12816
5.15006
5.17046
5.18939
5.20686
5.22288
5.23746
5.25061
5.26231
5.27256
5.28134
5.28861
5.29435
5.29852
5.30104
5.30177
5.3006
5.29735
5.29202
5.28456
5.27488
5.26289
5.24854
5.23175
5.21251
5.1908
5.16661
5.14
5.11101
5.07971
5.0462
5.01057
4.97296
4.93347
4.89223
4.84932
4.80484
4.75881
4.71122
4.66198
4.61096
4.55792
4.50258
4.44464
4.38385
4.32007
4.25343
4.18441
4.11384
4.04285
3.97269
3.90449
3.83914
3.77721
3.71913
3.66532
3.61608
3.5715
3.53139
3.49522
3.46212
3.43099
3.401
3.37171
3.34314
3.31503
3.28676
3.2558
3.22049
3.17614
0.188041
0.338719
0.431019
0.483879
0.52784
0.563847
0.596814
0.626768
0.655357
0.682588
0.709192
0.735188
0.76095
0.786489
0.812013
0.837552
0.863242
0.889115
0.915252
0.941677
0.968442
0.995565
1.02308
1.05101
1.07937
1.10818
1.13749
1.16734
1.19781
1.22894
1.26079
1.29342
1.32688
1.36122
1.39651
1.4328
1.47014
1.50859
1.54816
1.5889
1.63082
1.67395
1.7183
1.76386
1.81063
1.85859
1.90774
1.95803
2.00948
2.06205
2.11576
2.17063
2.22666
2.28389
2.3423
2.40189
2.46259
2.52435
2.58708
2.65066
2.715
2.77995
2.8454
2.91119
2.97723
3.04343
3.10973
3.1761
3.24252
3.30897
3.37541
3.44179
3.50806
3.57413
3.63994
3.70542
3.77051
3.83515
3.89931
3.96293
4.02597
4.08837
4.15006
4.21099
4.2711
4.33031
4.38856
4.44581
4.50199
4.55703
4.61087
4.66346
4.71473
4.76462
4.8131
4.86011
4.90562
4.94957
4.99194
5.03269
5.0718
5.10924
5.14499
5.17906
5.21142
5.2421
5.2711
5.29843
5.32411
5.34815
5.37059
5.39143
5.41071
5.42844
5.44467
5.45939
5.47265
5.48443
5.49475
5.50359
5.51093
5.51676
5.52103
5.52368
5.52462
5.52366
5.52063
5.51551
5.50829
5.49884
5.48708
5.47292
5.45627
5.4371
5.41535
5.39102
5.36411
5.33465
5.3027
5.26834
5.23165
5.19275
5.15175
5.10878
5.06396
5.01742
4.96925
4.91953
4.86827
4.81545
4.76095
4.70456
4.64597
4.58479
4.52059
4.453
4.38181
4.30718
4.22971
4.15052
4.07112
3.99318
3.91819
3.84733
3.78148
3.72124
3.66692
3.61857
3.57597
3.53857
3.50535
3.47499
3.44639
3.41887
3.39228
3.36622
3.33988
3.31059
3.27647
3.23297
0.182627
0.332156
0.423673
0.476701
0.521022
0.55747
0.590997
0.62154
0.650803
0.678719
0.706062
0.732806
0.759355
0.785723
0.812152
0.838662
0.865389
0.892361
0.919675
0.947355
0.975461
1.00401
1.03305
1.06258
1.09264
1.12325
1.15445
1.1863
1.21883
1.25208
1.28614
1.32107
1.3569
1.39369
1.43151
1.47041
1.51045
1.55167
1.5941
1.63778
1.68272
1.72895
1.77647
1.82529
1.8754
1.92678
1.97942
2.03332
2.08847
2.14487
2.20255
2.26151
2.32178
2.38337
2.44627
2.51043
2.57579
2.64226
2.70973
2.77809
2.84722
2.91697
2.98722
3.05784
3.12872
3.19975
3.27089
3.34208
3.41328
3.48445
3.55553
3.62646
3.69718
3.76759
3.83763
3.9072
3.97624
4.04469
4.11249
4.17959
4.24591
4.3114
4.37599
4.43963
4.50222
4.5637
4.624
4.68306
4.74082
4.7972
4.85217
4.90567
4.95764
5.00804
5.05681
5.10392
5.14933
5.193
5.2349
5.275
5.31329
5.34975
5.38436
5.41714
5.44809
5.47721
5.50454
5.53009
5.55389
5.57596
5.59635
5.61507
5.63218
5.6477
5.66168
5.67416
5.68515
5.69468
5.70275
5.70934
5.71446
5.71809
5.72017
5.72061
5.71927
5.71589
5.71055
5.70317
5.69363
5.68182
5.66764
5.65101
5.63183
5.61007
5.58566
5.5586
5.5289
5.49658
5.46171
5.42435
5.38459
5.34255
5.29833
5.25205
5.20382
5.15378
5.10202
5.04863
4.99367
4.93718
4.87909
4.81928
4.75751
4.69339
4.62648
4.55623
4.48216
4.40403
4.32201
4.2369
4.15011
4.06357
3.97934
3.89929
3.82495
3.75736
3.69705
3.64418
3.59862
3.55987
3.52686
3.49808
3.47211
3.44795
3.42514
3.40302
3.38041
3.35436
3.32273
3.2811
0.176785
0.323893
0.414137
0.467051
0.511587
0.548414
0.582481
0.613629
0.643617
0.672312
0.700536
0.728222
0.755812
0.783276
0.810869
0.838597
0.866635
0.895016
0.923848
0.953159
0.983022
1.01346
1.04452
1.07622
1.10858
1.14164
1.17544
1.21
1.24535
1.28153
1.31859
1.35655
1.39547
1.43545
1.4766
1.51897
1.56256
1.60743
1.6536
1.70112
1.75
1.80025
1.85189
1.90491
1.9593
2.01505
2.07214
2.13056
2.19032
2.25141
2.31385
2.37764
2.44281
2.50933
2.57719
2.64633
2.71667
2.7881
2.86051
2.93377
3.00773
3.08227
3.15724
3.23252
3.30798
3.38354
3.45911
3.53462
3.61001
3.68523
3.76022
3.83489
3.90917
3.98298
4.05624
4.12885
4.20074
4.27184
4.34209
4.41141
4.47974
4.54699
4.61312
4.67805
4.74171
4.80404
4.86495
4.9244
4.98232
5.03863
5.0933
5.14627
5.19749
5.24691
5.2945
5.34022
5.38404
5.42592
5.46586
5.50383
5.53982
5.57382
5.60584
5.63589
5.66398
5.69014
5.71441
5.73682
5.75741
5.77621
5.79327
5.80864
5.82237
5.83451
5.84513
5.85427
5.86199
5.86829
5.87318
5.87668
5.87879
5.87948
5.87865
5.8761
5.87182
5.86579
5.8579
5.84801
5.83598
5.82171
5.8051
5.78606
5.7645
5.74036
5.71359
5.68417
5.6521
5.61742
5.58017
5.54042
5.49825
5.45377
5.40706
5.35824
5.3074
5.25463
5.20003
5.14367
5.08561
5.0259
4.96455
4.9015
4.83663
4.76968
4.70029
4.62795
4.5521
4.47221
4.38801
4.29976
4.20843
4.11574
4.02396
3.93554
3.85271
3.77719
3.70999
3.65163
3.60218
3.56138
3.52826
3.50125
3.47869
3.45918
3.44182
3.42551
3.40849
3.38731
3.35951
3.32085
0.169542
0.313866
0.402891
0.455778
0.500529