/*--------------------------------*- C++ -*----------------------------------*\
| =========                 |                                                 |
| \\      /  F ield         | OpenFOAM: The Open Source CFD Toolbox           |
|  \\    /   O peration     | Version:  v1906                                 |
|   \\  /    A nd           | Web:      www.OpenFOAM.com                      |
|    \\/     M anipulation  |                                                 |
\*---------------------------------------------------------------------------*/
FoamFile
{
    version     2.0;
    format      ascii;
    class       volScalarField;
    location    "1300";
    object      nut;
}
// * * * * * * * * * * * * * * * * * * * * * * * * * * * * * * * * * * * * * //

dimensions      [0 2 -1 0 0 0 0];


internalField   nonuniform List<scalar> 
12225
(
5.38048e-05
5.34216e-05
5.26394e-05
5.17773e-05
5.09453e-05
5.01793e-05
4.94855e-05
4.88676e-05
4.83051e-05
4.78146e-05
4.73501e-05
4.69699e-05
4.66619e-05
4.64108e-05
4.61813e-05
4.60154e-05
4.58191e-05
4.57459e-05
0.000743659
0.000274829
0.000208918
0.000186815
0.000173794
0.000168889
0.000164703
0.000161068
0.000158154
0.000155602
0.00015368
0.000151739
0.000150493
0.000148711
0.000148217
0.000146446
0.000147012
0.000144999
0.00337131
0.000965692
0.00066843
0.000562255
0.000503868
0.000472032
0.000448905
0.000431649
0.000418781
0.000408341
0.00039972
0.000392329
0.000386338
0.000380598
0.000376568
0.000371549
0.000369907
0.000364969
0.00784749
0.00229239
0.00147327
0.00117577
0.00101861
0.000926492
0.000864632
0.000819866
0.000787019
0.000761206
0.00074015
0.000723376
0.000709697
0.000697825
0.000688362
0.000679007
0.000673863
0.000663576
0.0127628
0.00432674
0.00270976
0.00210439
0.00178859
0.00159951
0.00147348
0.00138306
0.00131576
0.0012636
0.00122168
0.00118752
0.00115983
0.00113596
0.00111585
0.00109808
0.00108541
0.00106725
0.0171139
0.00693202
0.00436919
0.00334594
0.00280532
0.00247642
0.00225611
0.00209813
0.00197988
0.00188822
0.00181493
0.00175509
0.00170581
0.0016642
0.00162884
0.00159818
0.00157262
0.00154464
0.0205947
0.00988399
0.00641803
0.00491192
0.00409431
0.00358857
0.00324689
0.003001
0.0028161
0.00267231
0.00255729
0.00246326
0.0023853
0.00231958
0.00226358
0.00221521
0.00217411
0.00213179
0.0232407
0.0129306
0.00876073
0.00676564
0.00563809
0.00492476
0.00443632
0.00408195
0.00381378
0.00360417
0.00343595
0.00329809
0.00318329
0.00308631
0.00300344
0.00293182
0.00286974
0.00280877
0.0252064
0.0158687
0.0112826
0.0088575
0.00741823
0.00648219
0.00583029
0.00535217
0.00498748
0.00470069
0.00446951
0.00427938
0.00412048
0.00398587
0.0038705
0.00377061
0.0036832
0.00360049
0.0266542
0.018555
0.0138529
0.0111074
0.00938585
0.00822887
0.00740595
0.00679376
0.00632196
0.005948
0.0056447
0.00539405
0.00518366
0.00500476
0.0048509
0.00471722
0.00459946
0.00449077
0.0277222
0.0209148
0.016356
0.0134293
0.0114842
0.0101281
0.00913978
0.00839203
0.00780862
0.00734184
0.00696051
0.00664352
0.00637617
0.00614787
0.00595082
0.00577902
0.00562724
0.00548907
0.0284468
0.0227417
0.0184778
0.015512
0.0134328
0.0119305
0.0108082
0.00994393
0.00926074
0.00870858
0.00825391
0.00787356
0.00755105
0.00727443
0.00703473
0.00682499
0.00663923
0.00647142
0.0290075
0.0243031
0.0204375
0.0175386
0.0153942
0.0137851
0.0125503
0.0115804
0.0108023
0.0101663
0.00963782
0.00919253
0.00881273
0.00848536
0.00820048
0.00795032
0.00772836
0.00752851
0.0294889
0.0257557
0.0223981
0.0196768
0.017541
0.0158668
0.0145397
0.0134718
0.0125991
0.0118753
0.011267
0.0107498
0.0103053
0.0099197
0.00958241
0.00928496
0.00902035
0.00878254
0.0298838
0.0270287
0.0242394
0.0217981
0.0197582
0.0180795
0.0166984
0.0155547
0.014599
0.0137925
0.0131052
0.0125141
0.0120015
0.0115535
0.0111592
0.0108097
0.0104977
0.0102171
0.0301877
0.0280605
0.0258271
0.0237258
0.021857
0.0202389
0.0188529
0.0176681
0.0166529
0.015779
0.0150223
0.0143632
0.0137856
0.0132764
0.012825
0.0124227
0.0120623
0.0117377
0.0303978
0.0288006
0.0270245
0.0252477
0.023577
0.0220609
0.0207115
0.019522
0.0184773
0.0175601
0.0167533
0.0160415
0.0154111
0.0148507
0.0143504
0.013902
0.0134985
0.0131345
0.0305044
0.0291849
0.0276681
0.0260935
0.0245606
0.023127
0.0218188
0.0206419
0.0195912
0.0186565
0.0178253
0.0170857
0.016426
0.015836
0.0153069
0.0148307
0.0144007
0.0140109
0.0304715
0.029067
0.0274719
0.0258371
0.0242637
0.0228061
0.021486
0.0203053
0.019256
0.0183257
0.0175008
0.0167683
0.016116
0.0155335
0.0150118
0.014543
0.0141207
0.0137396
0.030231
0.0282139
0.026076
0.0240422
0.0222138
0.0206155
0.0192351
0.018047
0.017023
0.0161371
0.0153669
0.0146936
0.0141017
0.0135786
0.013114
0.0126995
0.0123285
0.0119955
0.0298206
0.026828
0.0239496
0.021463
0.0194055
0.017724
0.0163473
0.0152112
0.0142639
0.0134656
0.0127859
0.0122015
0.0116947
0.0112517
0.0108617
0.0105164
0.0102095
0.00993687
0.0291395
0.0247087
0.0209849
0.0181324
0.0159863
0.0143547
0.0130897
0.0120882
0.0112794
0.0106147
0.0100598
0.00959029
0.00918831
0.00884059
0.00853707
0.00827014
0.0080341
0.00782538
0.028036
0.0217163
0.0172852
0.0143382
0.0123314
0.010908
0.00985715
0.00905421
0.00842284
0.00791437
0.00749663
0.00714762
0.00685185
0.00659808
0.00637791
0.00618514
0.00601506
0.00586652
0.0262543
0.0178167
0.013146
0.0104897
0.00884758
0.00775156
0.00697421
0.00639689
0.00595232
0.00559991
0.00531395
0.00507743
0.00487862
0.00470924
0.00456317
0.00443589
0.00432378
0.00422598
0.0233814
0.0132059
0.00902265
0.00699362
0.00583839
0.00510164
0.0045932
0.00422296
0.00394179
0.00372116
0.00354358
0.00339765
0.00327564
0.00317221
0.00308319
0.00300577
0.00293673
0.00287718
0.0189046
0.00845561
0.00545013
0.00418495
0.00350644
0.00308624
0.00280099
0.0025966
0.00244283
0.00232287
0.00222682
0.0021482
0.00208269
0.00202741
0.00197979
0.00193872
0.00190211
0.00187101
0.0125844
0.00438896
0.00278861
0.00217249
0.00185039
0.0016523
0.00151838
0.00142438
0.00135362
0.0012984
0.0012544
0.00121843
0.00118862
0.00116359
0.00114156
0.00112296
0.00110552
0.00109078
0.00562612
0.00171149
0.00115552
0.000945985
0.00083699
0.000769028
0.000723342
0.00069318
0.000668798
0.000649353
0.000633834
0.00062082
0.000609578
0.000600043
0.000591376
0.000584172
0.000576954
0.000572
0.00117126
0.000435644
0.000327291
0.000284807
0.000262912
0.000248757
0.000241426
0.000237204
0.000233232
0.000229623
0.000226392
0.000223584
0.000221026
0.000218865
0.000216791
0.000215129
0.00021334
0.000211708
7.08579e-05
7.01306e-05
6.91148e-05
6.8114e-05
6.7169e-05
6.62998e-05
6.5504e-05
6.47792e-05
6.41212e-05
6.35231e-05
6.29782e-05
6.248e-05
6.20242e-05
6.16042e-05
6.12196e-05
6.0861e-05
6.05342e-05
6.02234e-05
1.18887e-05
3.0979e-05
3.62022e-05
3.83551e-05
4.00382e-05
4.10697e-05
4.19841e-05
4.26729e-05
4.33007e-05
4.38328e-05
4.4316e-05
4.4739e-05
4.51362e-05
4.55035e-05
4.585e-05
4.6163e-05
4.64478e-05
4.667e-05
4.6825e-05
4.69086e-05
4.69192e-05
4.68697e-05
4.68257e-05
4.67639e-05
4.64452e-05
4.55659e-05
4.37935e-05
4.09122e-05
3.64106e-05
3.31068e-05
3.11975e-05
3.04609e-05
3.00872e-05
2.95158e-05
2.90209e-05
2.91796e-05
3.07269e-05
3.30533e-05
3.57188e-05
3.8572e-05
4.15945e-05
4.48615e-05
4.80684e-05
5.08358e-05
5.32897e-05
5.55071e-05
5.75324e-05
5.93987e-05
6.11302e-05
6.27412e-05
6.42466e-05
6.56583e-05
6.69866e-05
6.82407e-05
6.94283e-05
7.05566e-05
7.16319e-05
7.26599e-05
7.36455e-05
7.45932e-05
7.55069e-05
7.63901e-05
7.72459e-05
7.80768e-05
7.88854e-05
7.96735e-05
8.0443e-05
8.11952e-05
8.19314e-05
8.26526e-05
8.33592e-05
8.4052e-05
8.47311e-05
8.53968e-05
8.6049e-05
8.66878e-05
8.73131e-05
8.7925e-05
8.85231e-05
8.91075e-05
8.9678e-05
9.02343e-05
9.07762e-05
9.13034e-05
9.18153e-05
9.23114e-05
9.27911e-05
9.32533e-05
9.36967e-05
9.41197e-05
9.45197e-05
9.48934e-05
9.52364e-05
9.55432e-05
9.58063e-05
9.60437e-05
9.62724e-05
9.64902e-05
9.67019e-05
9.69015e-05
9.70874e-05
9.72616e-05
9.74228e-05
9.75716e-05
9.77079e-05
9.78318e-05
9.79437e-05
9.80434e-05
9.81294e-05
9.82013e-05
9.8258e-05
9.82991e-05
9.83081e-05
9.83006e-05
9.82712e-05
9.82113e-05
9.81276e-05
9.80278e-05
9.78996e-05
9.77313e-05
9.75381e-05
9.73169e-05
9.70697e-05
9.67953e-05
9.6494e-05
9.61655e-05
9.58104e-05
9.54295e-05
9.50239e-05
9.45953e-05
9.41463e-05
9.36796e-05
9.31986e-05
9.27061e-05
9.22049e-05
9.16982e-05
9.11889e-05
9.06798e-05
9.01733e-05
8.9671e-05
8.91745e-05
8.86848e-05
8.82024e-05
8.77302e-05
8.72714e-05
8.68252e-05
8.63947e-05
8.60468e-05
8.57964e-05
8.57459e-05
8.58773e-05
8.59484e-05
8.58337e-05
8.57505e-05
8.57359e-05
8.57695e-05
8.58612e-05
8.60186e-05
8.6171e-05
8.63914e-05
8.65766e-05
8.66993e-05
8.70382e-05
8.7693e-05
8.80454e-05
8.78805e-05
8.6826e-05
8.44574e-05
8.0351e-05
7.49286e-05
6.76424e-05
6.52151e-05
6.41057e-05
6.66814e-05
6.94498e-05
7.23481e-05
7.49227e-05
7.68261e-05
7.88046e-05
7.80609e-05
1.69251e-05
8.13758e-05
0.000190386
0.000262822
0.000329131
0.000381164
0.000431828
0.000478289
0.000523327
0.000564118
0.000600593
0.000633486
0.000662952
0.000688569
0.00070948
0.000724417
0.000731734
0.000729423
0.000717962
0.000698913
0.000674215
0.000645783
0.000616911
0.000591015
0.000572686
0.000564974
0.00055955
0.000562241
0.000570347
0.000576176
0.000581715
0.000588643
0.00059805
0.000610905
0.000627491
0.000646263
0.00066456
0.000680315
0.000692435
0.000700409
0.000704282
0.000704526
0.000703121
0.000702598
0.000704059
0.000708617
0.000716105
0.000726146
0.000738272
0.000752005
0.000766896
0.000782551
0.000798639
0.000814894
0.000831107
0.000847122
0.000862823
0.000878131
0.000892994
0.000907384
0.000921289
0.000934709
0.000947658
0.000960152
0.000972215
0.000983871
0.000995145
0.00100606
0.00101664
0.00102691
0.00103687
0.00104655
0.00105595
0.00106509
0.00107396
0.00108258
0.00109094
0.00109904
0.0011069
0.0011145
0.00112185
0.00112895
0.0011358
0.0011424
0.00114875
0.00115485
0.00116072
0.00116634
0.00117174
0.0011769
0.00118182
0.0011865
0.0011909
0.00119496
0.00119861
0.00120168
0.00120406
0.00120553
0.00120598
0.00120578
0.0012051
0.00120404
0.00120265
0.00120096
0.001199
0.00119678
0.00119434
0.00119173
0.00118894
0.00118604
0.00118313
0.00118035
0.00117722
0.00117337
0.00116905
0.00116481
0.00116042
0.00115551
0.00114949
0.00114172
0.00113356
0.00112538
0.00111727
0.00110929
0.00110147
0.00109381
0.00108632
0.00107899
0.00107179
0.00106472
0.00105779
0.00105098
0.00104431
0.0010377
0.00103113
0.00102452
0.00101783
0.00101099
0.00100392
0.000996526
0.000988677
0.000980224
0.00097096
0.000960737
0.000949378
0.000936507
0.000921875
0.000905489
0.000889045
0.000875288
0.000862883
0.000851154
0.000839255
0.00082743
0.0008162
0.000805976
0.000797297
0.000790767
0.000786331
0.000783794
0.000782957
0.000786336
0.000796463
0.000814572
0.000840101
0.000873685
0.000915837
0.000958439
0.00100552
0.00107634
0.00115801
0.0012196
0.00124793
0.00122857
0.00117992
0.00111622
0.00105979
0.00101519
0.000979952
0.000902257
2.0387e-05
0.000123192
0.000272167
0.000392506
0.00050264
0.000593736
0.000678489
0.000751047
0.00082037
0.000882191
0.000938687
0.000990175
0.00103782
0.00108249
0.00112439
0.00116332
0.00119847
0.00122853
0.00125176
0.00126625
0.00127008
0.00126151
0.00124272
0.00121752
0.00118956
0.00115933
0.00112502
0.00109062
0.00106279
0.00104818
0.00104761
0.0010594
0.00108115
0.00111091
0.00114718
0.00118612
0.00122638
0.00126597
0.00130357
0.00133857
0.00137077
0.00140024
0.00142901
0.00145763
0.00148726
0.00151772
0.00154935
0.00158217
0.00161601
0.00165056
0.00168548
0.00172041
0.00175504
0.00178911
0.00182241
0.0018548
0.00188618
0.0019165
0.00194573
0.0019739
0.00200102
0.00202713
0.00205227
0.0020765
0.00209986
0.00212238
0.00214411
0.00216507
0.00218528
0.00220475
0.00222348
0.00224148
0.00225872
0.00227521
0.00229093
0.00230588
0.00232005
0.00233343
0.00234604
0.00235788
0.00236895
0.00237927
0.00238884
0.00239768
0.0024058
0.00241322
0.00241993
0.00242594
0.00243123
0.00243578
0.00243951
0.0024423
0.00244398
0.0024442
0.00244299
0.00244073
0.00243758
0.00243362
0.00242896
0.00242373
0.00241798
0.00241175
0.00240508
0.00239797
0.00239046
0.00238258
0.00237442
0.00236601
0.00235735
0.00234837
0.00233908
0.00232945
0.00231945
0.00230894
0.00229753
0.00228535
0.00227266
0.00225944
0.0022455
0.00223103
0.00221646
0.00220194
0.00218752
0.00217324
0.00215911
0.00214513
0.00213126
0.00211747
0.00210369
0.00208992
0.00207621
0.0020626
0.00204926
0.00203609
0.00202306
0.00201009
0.0019971
0.00198397
0.00197055
0.00195666
0.00194204
0.00192638
0.0019091
0.00189016
0.00186953
0.00184694
0.0018222
0.00179477
0.00176596
0.00173776
0.00171069
0.00168426
0.00165838
0.00163402
0.00161247
0.00159508
0.00158324
0.00157794
0.00158007
0.00159155
0.00161855
0.00166333
0.00172703
0.00180852
0.00190322
0.00200549
0.00211721
0.0022279
0.0023187
0.00238881
0.00242965
0.00242375
0.00237602
0.0022968
0.00220824
0.00212077
0.00204718
0.00198279
0.00191057
0.00179603
2.23207e-05
0.00014183
0.000321804
0.000474794
0.000611846
0.00073085
0.000834211
0.000924249
0.00100318
0.00107265
0.00113414
0.00118928
0.00123945
0.00128592
0.00132958
0.00137094
0.00141003
0.00144642
0.00147923
0.00150724
0.00152894
0.0015427
0.00154714
0.00154152
0.001526
0.00150206
0.00147258
0.00144194
0.00141526
0.00139665
0.00139151
0.00140261
0.00142845
0.00146652
0.00151491
0.00157065
0.00163126
0.00169495
0.00175964
0.00182341
0.00188628
0.0019474
0.00200682
0.00206437
0.00212043
0.00217544
0.00222969
0.00228326
0.0023361
0.00238805
0.00243891
0.00248849
0.00253663
0.00258321
0.00262815
0.00267141
0.002713
0.00275294
0.00279129
0.0028281
0.00286343
0.00289736
0.00292994
0.00296124
0.00299132
0.00302023
0.00304802
0.00307472
0.00310035
0.00312492
0.00314842
0.00317083
0.00319214
0.00321233
0.00323137
0.00324924
0.00326596
0.0032815
0.00329589
0.00330914
0.00332125
0.00333225
0.00334217
0.00335101
0.00335879
0.00336553
0.00337124
0.00337592
0.00337956
0.00338214
0.00338362
0.00338395
0.00338307
0.00338096
0.00337767
0.0033733
0.00336793
0.00336161
0.0033544
0.00334635
0.00333752
0.00332792
0.00331758
0.00330655
0.00329483
0.00328246
0.00326946
0.00325587
0.00324169
0.00322694
0.0032116
0.00319568
0.00317917
0.00316206
0.00314435
0.0031259
0.0031069
0.00308749
0.00306775
0.00304784
0.00302785
0.00300783
0.00298781
0.00296777
0.00294771
0.00292757
0.00290729
0.00288676
0.00286576
0.00284388
0.0028218
0.00280007
0.00277825
0.00275658
0.00273521
0.00271399
0.00269282
0.00267158
0.00265009
0.00262812
0.00260535
0.00258139
0.00255576
0.00252802
0.00249787
0.00246496
0.00242965
0.00239266
0.00235486
0.00231707
0.00228017
0.00224489
0.00221218
0.0021837
0.00216148
0.00214794
0.0021453
0.00215432
0.00217902
0.00222469
0.00229458
0.0023916
0.0025151
0.00265807
0.00280799
0.00295463
0.00309503
0.00322474
0.0033225
0.00336165
0.00334944
0.00329337
0.00320936
0.00311481
0.00301847
0.0029118
0.00281531
0.00272414
0.00263026
0.00249839
2.41538e-05
0.000157286
0.000359619
0.000534759
0.000687551
0.000821395
0.000938444
0.00104095
0.00113058
0.0012092
0.00127794
0.00133848
0.00139235
0.0014411
0.00148608
0.00152838
0.00156875
0.00160753
0.00164467
0.00167967
0.00171166
0.00173941
0.00176148
0.00177655
0.0017838
0.00178322
0.00177597
0.00176452
0.00175324
0.00175273
0.00176284
0.0017852
0.00182012
0.00186609
0.00192093
0.00198258
0.00204927
0.00211943
0.0021916
0.00226464
0.00233777
0.00241051
0.0024826
0.00255388
0.00262427
0.00269372
0.00276189
0.00282856
0.00289356
0.00295669
0.0030178
0.00307675
0.00313348
0.00318795
0.00324016
0.00329016
0.00333802
0.00338381
0.00342764
0.00346957
0.0035097
0.00354808
0.0035848
0.00361994
0.00365354
0.0036857
0.00371646
0.00374587
0.00377397
0.00380077
0.00382627
0.00385044
0.00387326
0.00389471
0.00391476
0.00393342
0.00395069
0.00396659
0.00398113
0.00399433
0.00400622
0.00401681
0.00402612
0.00403417
0.00404098
0.00404657
0.00405095
0.00405414
0.00405613
0.00405692
0.00405651
0.00405489
0.00405206
0.00404804
0.00404286
0.00403656
0.00402916
0.00402071
0.00401123
0.00400075
0.00398931
0.00397694
0.00396366
0.00394951
0.00393451
0.00391872
0.00390217
0.00388488
0.00386686
0.00384814
0.00382874
0.00380868
0.00378801
0.00376673
0.0037449
0.00372257
0.00369978
0.00367659
0.00365315
0.00362961
0.00360585
0.00358198
0.00355797
0.00353382
0.00350949
0.00348499
0.00346028
0.00343536
0.00341026
0.00338512
0.00336021
0.00333564
0.00331094
0.00328666
0.00326278
0.00323928
0.00321608
0.00319312
0.00317025
0.00314728
0.00312391
0.00309973
0.00307409
0.00304607
0.00301502
0.0029797
0.00294086
0.00290067
0.00285996
0.00281974
0.00278133
0.0027457
0.0027143
0.00268975
0.0026749
0.00267296
0.00268616
0.00271604
0.00276818
0.00284681
0.00295398
0.00308974
0.00324964
0.00342238
0.00359136
0.00374019
0.00386385
0.00396302
0.00402879
0.00404668
0.0040136
0.00394713
0.00386201
0.00377025
0.00367607
0.00357744
0.0034871
0.00338787
0.00326912
0.00311616
2.46836e-05
0.000161071
0.00037886
0.000569344
0.000736776
0.000884548
0.00101468
0.00112968
0.00123077
0.00131997
0.00139838
0.0014673
0.00152813
0.00158241
0.00163169
0.00167741
0.00172081
0.00176291
0.00180431
0.00184522
0.00188537
0.00192405
0.00196015
0.00199225
0.0020188
0.00203835
0.00205001
0.00205409
0.00205749
0.00207205
0.0021012
0.0021398
0.00218486
0.00223718
0.00229605
0.00236025
0.00242855
0.00249979
0.002573
0.00264734
0.0027222
0.00279709
0.00287183
0.00294629
0.00302038
0.00309349
0.00316533
0.00323574
0.00330454
0.00337155
0.0034366
0.00349954
0.00356028
0.00361873
0.00367488
0.00372871
0.00378024
0.00382952
0.0038766
0.00392153
0.00396437
0.00400518
0.00404405
0.00408104
0.00411624
0.00414976
0.00418167
0.00421206
0.00424098
0.00426846
0.00429451
0.00431911
0.00434224
0.00436388
0.004384
0.00440262
0.00441975
0.00443542
0.00444965
0.00446248
0.00447393
0.00448402
0.00449277
0.0045002
0.00450634
0.00451119
0.00451479
0.00451715
0.00451828
0.00451819
0.0045169
0.0045144
0.00451072
0.00450587
0.00449986
0.00449271
0.00448444
0.00447507
0.00446462
0.00445311
0.00444056
0.00442701
0.00441249
0.00439702
0.00438065
0.0043634
0.00434532
0.00432643
0.00430678
0.00428639
0.0042653
0.00424357
0.00422123
0.00419832
0.00417489
0.00415098
0.00412665
0.00410196
0.00407693
0.00405156
0.00402588
0.00400014
0.00397413
0.00394782
0.00392123
0.0038944
0.00386734
0.00384012
0.00381285
0.00378565
0.00375865
0.00373202
0.00370544
0.00367915
0.00365342
0.0036282
0.00360349
0.00357924
0.00355536
0.00353168
0.00350792
0.00348362
0.00345798
0.00342933
0.00339755
0.00336415
0.00332988
0.0032951
0.00325966
0.00322434
0.00319116
0.00316179
0.00313806
0.00312293
0.00311973
0.00313192
0.00316266
0.00321409
0.00328958
0.00339211
0.00352128
0.00367354
0.00384131
0.00401157
0.0041686
0.00430305
0.00441162
0.00449177
0.00453957
0.00454849
0.00451817
0.00445777
0.00438105
0.00429463
0.00420358
0.00410807
0.00401109
0.00389781
0.0037581
0.0035873
2.58461e-05
0.000170774
0.000399989
0.000602315
0.000781622
0.000941053
0.00108261
0.00120881
0.00132088
0.00142042
0.00150912
0.00158797
0.00165814
0.00172089
0.00177761
0.00182975
0.00187884
0.00192617
0.00197274
0.00201915
0.0020656
0.00211189
0.00215736
0.00220099
0.00224145
0.00227728
0.0023072
0.00233039
0.00234685
0.00236604
0.00239531
0.00243628
0.0024871
0.0025453
0.00260911
0.0026773
0.00274863
0.00282157
0.00289506
0.00296879
0.00304256
0.00311631
0.00318949
0.00326169
0.00333273
0.00340281
0.00347202
0.00354017
0.0036071
0.00367264
0.00373662
0.00379889
0.00385931
0.00391777
0.00397418
0.00402846
0.00408058
0.0041305
0.00417823
0.00422375
0.00426709
0.00430829
0.00434742
0.00438458
0.00441987
0.00445342
0.00448533
0.00451569
0.00454457
0.00457199
0.00459795
0.0046224
0.00464533
0.00466669
0.00468649
0.00470474
0.00472149
0.00473677
0.00475065
0.00476315
0.00477431
0.00478414
0.00479266
0.0047999
0.00480588
0.00481062
0.00481415
0.0048165
0.00481766
0.00481767
0.00481653
0.00481424
0.00481082
0.00480628
0.00480061
0.00479384
0.00478596
0.00477699
0.00476695
0.00475585
0.00474372
0.00473058
0.00471647
0.00470141
0.00468544
0.0046686
0.00465093
0.00463246
0.00461324
0.0045933
0.00457268
0.00455143
0.00452959
0.00450719
0.00448426
0.00446084
0.00443696
0.00441264
0.00438789
0.00436273
0.00433718
0.00431119
0.00428481
0.00425819
0.00423113
0.0042037
0.00417595
0.00414795
0.0041198
0.00409161
0.0040635
0.00403562
0.00400794
0.00398047
0.00395353
0.00392713
0.0039013
0.00387606
0.00385136
0.00382712
0.00380317
0.00377931
0.00375529
0.00373104
0.00370683
0.00368295
0.00365948
0.00363605
0.00361118
0.00358493
0.00356105
0.00354116
0.00352669
0.00352129
0.00352872
0.00355239
0.00359526
0.00365988
0.00374807
0.00385996
0.00399308
0.00414104
0.00429472
0.0044446
0.0045776
0.00469347
0.00479208
0.0048678
0.00491348
0.00492459
0.00490286
0.0048545
0.00478814
0.00470998
0.00462255
0.00452544
0.00441569
0.00428567
0.00412999
0.00394823
2.6053e-05
0.000175512
0.000412642
0.000624816
0.000814812
0.000985291
0.00113797
0.00127526
0.00139843
0.00150879
0.00160813
0.00169744
0.00177786
0.0018506
0.00191691
0.00197808
0.00203539
0.00209008
0.00214329
0.00219585
0.00224831
0.00230078
0.00235304
0.00240446
0.00245405
0.00250057
0.00254264
0.00257898
0.00260871
0.00263429
0.00266358
0.00270113
0.00274845
0.00280508
0.00286955
0.00293996
0.00301415
0.00308987
0.00316498
0.00323774
0.00330853
0.00337746
0.00344504
0.00351155
0.00357707
0.00364163
0.00370526
0.00376793
0.0038296
0.00389017
0.00394955
0.00400762
0.00406426
0.00411936
0.0041728
0.0042245
0.00427435
0.00432226
0.00436816
0.00441201
0.00445378
0.00449352
0.0045313
0.00456722
0.00460139
0.00463393
0.00466495
0.00469452
0.0047227
0.00474948
0.00477481
0.00479866
0.00482098
0.00484176
0.00486103
0.00487883
0.00489522
0.00491027
0.00492403
0.00493655
0.00494783
0.00495789
0.00496676
0.00497446
0.00498102
0.00498647
0.00499083
0.00499413
0.00499637
0.00499756
0.0049977
0.0049968
0.00499486
0.00499187
0.00498784
0.00498277
0.00497666
0.00496952
0.00496136
0.00495219
0.00494203
0.00493091
0.00491885
0.00490588
0.00489204
0.00487736
0.00486187
0.0048456
0.00482859
0.00481089
0.00479252
0.00477352
0.00475392
0.00473373
0.00471298
0.00469168
0.00466985
0.00464747
0.00462456
0.00460111
0.00457711
0.00455255
0.00452744
0.00450173
0.00447552
0.00444887
0.00442168
0.00439405
0.00436608
0.00433788
0.00430959
0.00428131
0.00425322
0.00422524
0.00419763
0.00417049
0.00414388
0.00411784
0.00409238
0.00406749
0.00404317
0.00401941
0.00399624
0.00397376
0.00395211
0.00393138
0.00391162
0.00389283
0.00387527
0.00385981
0.00384743
0.00383848
0.00383214
0.00383423
0.00384856
0.00387807
0.00392517
0.00399154
0.00407779
0.00418277
0.00430275
0.00442976
0.00455474
0.00467791
0.00479703
0.00491024
0.00501238
0.00509537
0.00515121
0.00517544
0.00516867
0.00513538
0.00508135
0.00501226
0.00492963
0.00483242
0.00471749
0.00458081
0.00441902
0.00423327
2.64247e-05
0.000182188
0.000425315
0.000645477
0.000844504
0.00102445
0.0011867
0.00133351
0.00146615
0.00158594
0.0016946
0.00179335
0.00188326
0.00196547
0.00204107
0.00211123
0.00217703
0.00223956
0.00229984
0.00235875
0.00241695
0.0024748
0.00253234
0.0025893
0.00264508
0.00269884
0.00274953
0.00279608
0.00283765
0.0028738
0.00290927
0.00294884
0.00299545
0.00304992
0.00311158
0.00317878
0.00324941
0.00332122
0.00339188
0.00345923
0.00352395
0.00358662
0.00364759
0.00370715
0.00376548
0.00382275
0.00387905
0.00393444
0.00398893
0.00404252
0.00409517
0.0041468
0.00419736
0.00424674
0.00429485
0.00434156
0.00438675
0.00443029
0.00447211
0.00451215
0.00455041
0.00458694
0.00462184
0.00465519
0.00468711
0.0047177
0.00474704
0.00477517
0.00480207
0.00482768
0.00485194
0.00487479
0.0048962
0.00491621
0.00493486
0.00495223
0.00496842
0.00498347
0.00499742
0.00501031
0.00502213
0.0050329
0.00504267
0.00505145
0.00505929
0.00506621
0.00507222
0.00507733
0.00508155
0.00508486
0.00508726
0.00508875
0.00508931
0.00508895
0.00508764
0.0050854
0.00508221
0.00507808
0.005073
0.005067
0.00506007
0.00505224
0.00504354
0.00503398
0.00502361
0.00501243
0.00500048
0.00498779
0.00497439
0.0049603
0.00494555
0.00493015
0.00491412
0.00489746
0.00488019
0.00486229
0.00484376
0.00482459
0.00480477
0.00478427
0.00476307
0.00474115
0.00471849
0.00469509
0.00467092
0.00464605
0.00462051
0.0045943
0.00456753
0.0045403
0.00451276
0.00448502
0.00445722
0.00442944
0.00440181
0.00437448
0.00434752
0.00432095
0.00429483
0.00426919
0.00424408
0.00421954
0.00419564
0.00417245
0.00415005
0.00412854
0.00410805
0.00408885
0.00407137
0.00405623
0.00404412
0.00403606
0.0040336
0.00403928
0.00405529
0.0040835
0.00412542
0.00418195
0.00425318
0.00433809
0.00443442
0.00453939
0.00465093
0.00476793
0.00488831
0.00500806
0.00512014
0.00521554
0.00528603
0.00532669
0.00533699
0.00531995
0.00528002
0.00522113
0.00514611
0.00505382
0.00494138
0.00480613
0.00464552
0.00446124
2.64484e-05
0.000186077
0.000433521
0.000658934
0.000866928
0.00105581
0.00122681
0.00138219
0.00152312
0.00165099
0.00176754
0.00187397
0.0019714
0.00206102
0.00214392
0.0022212
0.00229388
0.00236295
0.00242929
0.00249364
0.00255663
0.00261874
0.00268022
0.00274106
0.00280101
0.00285959
0.0029162
0.00297015
0.00302065
0.00306698
0.00311065
0.00315513
0.00320285
0.00325513
0.00331218
0.00337337
0.00343738
0.00350245
0.00356663
0.00362804
0.00368636
0.00374221
0.00379605
0.00384823
0.00389902
0.00394861
0.00399714
0.00404472
0.00409142
0.00413726
0.00418229
0.00422648
0.00426981
0.00431221
0.00435359
0.00439385
0.00443288
0.00447058
0.0045069
0.00454185
0.00457546
0.0046078
0.00463897
0.00466904
0.00469812
0.00472626
0.00475347
0.00477974
0.00480496
0.00482906
0.00485195
0.00487359
0.00489401
0.00491326
0.00493143
0.00494861
0.00496488
0.00498028
0.00499484
0.00500854
0.00502142
0.00503349
0.00504479
0.00505535
0.0050652
0.00507434
0.00508277
0.00509049
0.00509749
0.00510376
0.00510926
0.00511401
0.00511796
0.00512112
0.00512346
0.00512497
0.00512563
0.00512545
0.00512442
0.00512254
0.00511982
0.00511627
0.00511191
0.00510674
0.00510079
0.00509408
0.00508662
0.00507844
0.00506955
0.00505996
0.0050497
0.00503876
0.00502715
0.00501485
0.00500186
0.00498817
0.00497376
0.0049586
0.00494266
0.00492592
0.00490834
0.00488988
0.00487052
0.00485023
0.004829
0.00480682
0.00478373
0.00475978
0.00473503
0.0047096
0.00468361
0.00465719
0.00463045
0.00460353
0.00457649
0.00454956
0.0045227
0.00449592
0.0044693
0.00444287
0.00441667
0.00439075
0.00436512
0.0043398
0.00431484
0.0042903
0.00426632
0.00424311
0.00422103
0.0042006
0.00418257
0.00416802
0.00415841
0.00415548
0.00416101
0.00417674
0.00420425
0.00424482
0.00429919
0.00436752
0.00444944
0.00454431
0.00465131
0.00476904
0.00489467
0.00502297
0.00514605
0.00525462
0.00534032
0.0053978
0.00542562
0.00542568
0.00540161
0.00535696
0.00529334
0.00521118
0.00510814
0.00498079
0.00482695
0.0046484
2.64379e-05
0.000190162
0.00044122
0.00067088
0.000886636
0.00108311
0.00126127
0.00142334
0.00157043
0.00170409
0.00182616
0.00193778
0.00204015
0.00213452
0.00222197
0.00230361
0.00238045
0.00245343
0.00252339
0.00259104
0.00265699
0.00272172
0.00278558
0.00284873
0.00291111
0.00297249
0.00303245
0.00309043
0.00314597
0.00319874
0.00324857
0.00329723
0.00334662
0.00339795
0.00345175
0.00350777
0.00356522
0.00362292
0.00367948
0.00373341
0.00378458
0.00383341
0.00388028
0.00392544
0.00396914
0.00401154
0.00405279
0.00409301
0.00413229
0.00417071
0.00420833
0.00424517
0.00428122
0.00431646
0.00435083
0.00438426
0.00441671
0.00444816
0.00447865
0.00450822
0.00453696
0.00456494
0.00459225
0.00461895
0.00464511
0.00467071
0.0046957
0.00471999
0.00474345
0.004766
0.00478758
0.00480818
0.00482787
0.00484673
0.00486484
0.0048823
0.00489915
0.0049154
0.00493106
0.00494613
0.00496063
0.00497459
0.00498804
0.00500099
0.00501345
0.00502541
0.00503686
0.00504778
0.00505815
0.00506794
0.00507713
0.0050857
0.00509362
0.00510087
0.00510742
0.00511325
0.00511834
0.00512268
0.00512624
0.00512904
0.00513108
0.00513235
0.00513286
0.00513263
0.00513165
0.00512994
0.00512751
0.00512437
0.00512052
0.00511597
0.00511071
0.00510475
0.00509806
0.00509064
0.00508247
0.00507352
0.00506377
0.00505318
0.00504172
0.00502934
0.005016
0.00500166
0.00498628
0.00496981
0.00495223
0.00493351
0.00491368
0.00489278
0.00487086
0.00484803
0.00482441
0.00480011
0.00477525
0.00474995
0.00472432
0.00469847
0.00467227
0.00464578
0.00461905
0.00459211
0.00456498
0.00453763
0.00451006
0.00448224
0.00445414
0.00442575
0.00439712
0.00436835
0.00433969
0.00431152
0.00428449
0.00425953
0.0042379
0.00422115
0.00421113
0.00420984
0.00421941
0.00424187
0.00427899
0.00433208
0.00440198
0.00448892
0.00459237
0.00471068
0.0048404
0.00497565
0.00510816
0.00522864
0.0053287
0.00540262
0.0054482
0.00546651
0.00546051
0.00543337
0.00538667
0.00531967
0.00523
0.00511563
0.00497307
0.00480399
2.63638e-05
0.00019281
0.000446701
0.000679603
0.000901866
0.0011043
0.00128782
0.00145465
0.00160583
0.00174317
0.00186837
0.00198269
0.00208739
0.00218384
0.00227315
0.0023564
0.00243457
0.00250858
0.00257925
0.0026473
0.00271332
0.00277779
0.00284104
0.00290328
0.00296463
0.00302506
0.00308445
0.00314259
0.00319928
0.00325434
0.00330762
0.0033591
0.00340967
0.00346023
0.00351121
0.0035626
0.00361404
0.00366483
0.00371415
0.00376106
0.00380568
0.00384827
0.00388903
0.00392814
0.00396577
0.00400205
0.0040371
0.00407104
0.00410398
0.00413599
0.00416717
0.00419754
0.00422713
0.00425595
0.004284
0.0043113
0.00433787
0.0043638
0.00438918
0.00441411
0.00443868
0.00446298
0.00448708
0.004511
0.00453476
0.00455829
0.0045815
0.00460425
0.00462644
0.00464797
0.00466884
0.00468907
0.00470873
0.00472791
0.00474668
0.0047651
0.0047832
0.00480096
0.0048184
0.00483551
0.0048523
0.0048688
0.00488502
0.00490094
0.00491658
0.00493189
0.00494686
0.00496145
0.00497565
0.00498941
0.00500271
0.00501551
0.00502777
0.00503948
0.00505058
0.00506106
0.0050709
0.00508006
0.00508853
0.0050963
0.00510335
0.0051097
0.00511533
0.00512024
0.00512444
0.00512793
0.00513071
0.00513277
0.00513413
0.00513477
0.00513469
0.00513386
0.00513228
0.00512993
0.00512678
0.00512281
0.00511799
0.00511227
0.00510561
0.00509795
0.00508926
0.00507949
0.00506858
0.00505647
0.00504311
0.00502847
0.00501255
0.00499541
0.004977
0.0049575
0.00493703
0.00491562