/*--------------------------------*- C++ -*----------------------------------*\
| =========                 |                                                 |
| \\      /  F ield         | OpenFOAM: The Open Source CFD Toolbox           |
|  \\    /   O peration     | Version:  v1906                                 |
|   \\  /    A nd           | Web:      www.OpenFOAM.com                      |
|    \\/     M anipulation  |                                                 |
\*---------------------------------------------------------------------------*/
FoamFile
{
    version     2.0;
    format      ascii;
    class       volScalarField;
    location    "1300";
    object      p;
}
// * * * * * * * * * * * * * * * * * * * * * * * * * * * * * * * * * * * * * //

dimensions      [0 2 -2 0 0 0 0];


internalField   nonuniform List<scalar> 
12225
(
-2.48918
-3.69167
-3.742
-3.74741
-3.8834
-4.02183
-4.12821
-4.22286
-4.31422
-4.40072
-4.4814
-4.56067
-4.64235
-4.72831
-4.81907
-4.92082
-5.04382
-5.20575
-4.24969
-4.76464
-4.92256
-4.90859
-4.96428
-5.02952
-5.07828
-5.12769
-5.18272
-5.23959
-5.29658
-5.35543
-5.41956
-5.48866
-5.56447
-5.64961
-5.74559
-5.88454
-3.66466
-4.44519
-4.58483
-4.55343
-4.58668
-4.63638
-4.67795
-4.72143
-4.76978
-4.81981
-4.87044
-4.92271
-4.97929
-5.03965
-5.10592
-5.1763
-5.25267
-5.31239
-4.31983
-4.78648
-5.0044
-5.07876
-5.17159
-5.2557
-5.31785
-5.37267
-5.427
-5.4805
-5.53352
-5.58769
-5.64507
-5.70602
-5.77096
-5.83974
-5.91001
-5.98893
-4.12889
-4.58759
-4.803
-4.86391
-4.92652
-4.98187
-5.02387
-5.0637
-5.10532
-5.14779
-5.19085
-5.23537
-5.28228
-5.33208
-5.38314
-5.4365
-5.47972
-5.51234
-4.50623
-4.80821
-5.01452
-5.11759
-5.22151
-5.31418
-5.38987
-5.45737
-5.52107
-5.58176
-5.64036
-5.69836
-5.75684
-5.81645
-5.87608
-5.93626
-5.99244
-6.0527
-4.44078
-4.68836
-4.8885
-4.9871
-5.07417
-5.1455
-5.20166
-5.25131
-5.29841
-5.34381
-5.38812
-5.43223
-5.47647
-5.52108
-5.56411
-5.60547
-5.63517
-5.6513
-4.68157
-4.86527
-5.04028
-5.14812
-5.25263
-5.34521
-5.42521
-5.49801
-5.56623
-5.63082
-5.69265
-5.75266
-5.81139
-5.8691
-5.92489
-5.97864
-6.02932
-6.08056
-4.66878
-4.79557
-4.95643
-5.05853
-5.1524
-5.2313
-5.29734
-5.3558
-5.40945
-5.45959
-5.50709
-5.55268
-5.59649
-5.6385
-5.67716
-5.71188
-5.73605
-5.74879
-4.83023
-4.93991
-5.0795
-5.17948
-5.27854
-5.36758
-5.44763
-5.52159
-5.59094
-5.65652
-5.71896
-5.7788
-5.83628
-5.89141
-5.94383
-5.99322
-6.04082
-6.08668
-4.84004
-4.90478
-5.0251
-5.11638
-5.20611
-5.28522
-5.35517
-5.41839
-5.47634
-5.53005
-5.5802
-5.62726
-5.67129
-5.71217
-5.74888
-5.78095
-5.80458
-5.82027
-4.94272
-5.00928
-5.11736
-5.20465
-5.29427
-5.37696
-5.45353
-5.52513
-5.59242
-5.65597
-5.71617
-5.77329
-5.82744
-5.87853
-5.92655
-5.97107
-6.01383
-6.05298
-4.95974
-4.99692
-5.08694
-5.16533
-5.24673
-5.32217
-5.39175
-5.4561
-5.51573
-5.57117
-5.62278
-5.67083
-5.71533
-5.75617
-5.79284
-5.82506
-5.85138
-5.87229
-5.04426
-5.08803
-5.17009
-5.24479
-5.32382
-5.39995
-5.47255
-5.54161
-5.60708
-5.6691
-5.72777
-5.78317
-5.83535
-5.88425
-5.93002
-5.97231
-6.01216
-6.04752
-5.06652
-5.08881
-5.15178
-5.21602
-5.28574
-5.35462
-5.42084
-5.48385
-5.54328
-5.59908
-5.6513
-5.69995
-5.74506
-5.78655
-5.82445
-5.8586
-5.88958
-5.91693
-5.13357
-5.16086
-5.21856
-5.27877
-5.34396
-5.40984
-5.4743
-5.53652
-5.59589
-5.65207
-5.70489
-5.75426
-5.8001
-5.8424
-5.881
-5.91599
-5.94657
-5.97369
-5.15851
-5.1779
-5.22523
-5.28002
-5.34125
-5.40544
-5.46992
-5.53346
-5.59521
-5.65464
-5.71151
-5.76562
-5.81703
-5.86554
-5.91167
-5.95471
-5.99693
-6.03448
-5.16859
-5.18297
-5.22121
-5.26656
-5.31632
-5.36782
-5.41845
-5.46686
-5.51219
-5.55388
-5.59162
-5.62535
-5.65491
-5.68064
-5.70206
-5.72066
-5.73393
-5.74795
-5.20841
-5.23647
-5.29086
-5.35323
-5.42238
-5.49627
-5.57226
-5.64908
-5.72589
-5.80203
-5.87711
-5.95077
-6.02286
-6.09283
-6.16089
-6.2254
-6.28812
-6.34327
-5.07311
-5.08014
-5.11496
-5.15625
-5.1994
-5.24174
-5.28056
-5.31483
-5.34412
-5.36825
-5.38723
-5.40127
-5.41043
-5.41535
-5.41586
-5.4141
-5.40813
-5.40605
-5.10117
-5.14681
-5.22227
-5.29818
-5.37778
-5.45924
-5.53996
-5.61931
-5.69699
-5.77285
-5.84696
-5.9195
-5.99098
-6.0616
-6.13248
-6.2027
-6.2755
-6.34326
-4.91624
-4.93527
-4.99996
-5.05932
-5.11389
-5.16232
-5.20266
-5.23564
-5.26231
-5.28338
-5.2993
-5.31039
-5.31658
-5.31786
-5.31296
-5.3025
-5.28165
-5.25829
-4.94401
-5.02581
-5.14065
-5.23798
-5.3334
-5.42663
-5.51433
-5.59687
-5.67507
-5.74931
-5.82005
-5.88792
-5.95392
-6.01905
-6.08568
-6.15516
-6.23508
-6.32163
-4.68085
-4.75541
-4.8786
-4.95854
-5.02019
-5.06961
-5.10619
-5.1338
-5.15592
-5.17398
-5.18858
-5.2001
-5.20849
-5.21346
-5.2131
-5.20586
-5.18197
-5.14098
-4.74484
-4.90361
-5.07419
-5.19118
-5.29914
-5.40134
-5.49056
-5.5691
-5.6405
-5.706
-5.76639
-5.82268
-5.87593
-5.92712
-5.97839
-6.03215
-6.10002
-6.18984
-4.3311
-4.57343
-4.76069
-4.83033
-4.87396
-4.91009
-4.93426
-4.95237
-4.96975
-4.98673
-5.00263
-5.01738
-5.03094
-5.04312
-5.05287
-5.05885
-5.05037
-5.01481
-4.5229
-4.8241
-5.05471
-5.16991
-5.27442
-5.37018
-5.44224
-5.49932
-5.55004
-5.59636
-5.63875
-5.67817
-5.71549
-5.75109
-5.78576
-5.8204
-5.86441
-5.93448
-3.7865
-4.39146
-4.55587
-4.53571
-4.54135
-4.57043
-4.59417
-4.61623
-4.64211
-4.66949
-4.69615
-4.72179
-4.74644
-4.76996
-4.79207
-4.81297
-4.82659
-4.81766
-4.4114
-4.79791
-5.02163
-5.03408
-5.07411
-5.12257
-5.15529
-5.18442
-5.21729
-5.252
-5.28624
-5.31974
-5.35255
-5.38449
-5.41528
-5.44502
-5.47834
-5.52986
-2.54068
-3.66138
-3.73174
-3.71154
-3.81061
-3.92901
-4.02055
-4.09778
-4.17099
-4.23944
-4.30184
-4.35896
-4.41176
-4.46058
-4.50549
-4.5462
-4.58121
-4.60892
-5.20401
-5.25721
-5.29984
-5.34367
-5.3873
-5.43339
-5.47637
-5.51799
-5.55697
-5.59467
-5.6309
-5.66688
-5.70308
-5.74058
-5.77992
-5.82179
-5.86644
-5.91382
-5.96343
-6.01394
-6.06329
-6.10789
-6.14296
-6.16144
-6.15945
-6.13628
-6.09326
-6.03409
-5.96873
-5.91519
-5.88593
-5.87873
-5.88251
-5.88678
-5.88851
-5.89339
-5.90523
-5.92379
-5.94907
-5.98123
-6.0207
-6.06669
-6.11641
-6.16752
-6.21929
-6.2713
-6.323
-6.37381
-6.42318
-6.47059
-6.51565
-6.55804
-6.59755
-6.63404
-6.66742
-6.69769
-6.72483
-6.74891
-6.76995
-6.78804
-6.80321
-6.81554
-6.82505
-6.83183
-6.83589
-6.83728
-6.836
-6.8321
-6.82555
-6.81637
-6.80452
-6.78999
-6.77272
-6.75269
-6.72982
-6.70408
-6.67537
-6.64365
-6.60881
-6.57081
-6.52952
-6.4849
-6.43684
-6.38527
-6.33008
-6.27121
-6.20856
-6.14204
-6.07156
-5.99701
-5.91833
-5.83544
-5.74816
-5.65632
-5.55984
-5.45884
-5.35339
-5.24326
-5.12793
-5.0074
-4.88194
-4.75156
-4.6162
-4.47573
-4.33003
-4.17887
-4.022
-3.85919
-3.69032
-3.51512
-3.33321
-3.14434
-2.94837
-2.74503
-2.53384
-2.31419
-2.08543
-1.8472
-1.59937
-1.34152
-1.07322
-0.794224
-0.504257
-0.2032
0.108967
0.432083
0.765854
1.10979
1.46328
1.82549
2.1955
2.57221
2.95443
3.34087
3.73018
4.12096
4.51174
4.90108
5.28747
5.66951
6.0458
6.41496
6.77563
7.12645
7.46613
7.7933
8.10615
8.40285
8.68375
8.95116
9.2038
9.43632
9.64438
9.82493
9.97489
10.0909
10.1695
10.2074
10.2018
10.1508
10.0527
9.90709
9.71911
9.5049
9.30444
9.17628
9.14697
9.19807
9.2917
9.3852
9.45671
9.51132
9.57209
9.65315
9.76884
9.91522
10.1078
10.3268
10.6205
10.9148
-5.24422
-5.35127
-5.39573
-5.46225
-5.50046
-5.54809
-5.58396
-5.62403
-5.65789
-5.69341
-5.72668
-5.76143
-5.79632
-5.83328
-5.87188
-5.9131
-5.95682
-6.00339
-6.05259
-6.10398
-6.15637
-6.20689
-6.25243
-6.28863
-6.30617
-6.29356
-6.24447
-6.1627
-6.06556
-5.98047
-5.92732
-5.90788
-5.90976
-5.91853
-5.92679
-5.93763
-5.95675
-5.98412
-6.01984
-6.06345
-6.11402
-6.17003
-6.2296
-6.29126
-6.35396
-6.4167
-6.47861
-6.53888
-6.59684
-6.65199
-6.70399
-6.75262
-6.79777
-6.83942
-6.87761
-6.91244
-6.94399
-6.97238
-6.99771
-7.02008
-7.03958
-7.05628
-7.07024
-7.08152
-7.09015
-7.09618
-7.09961
-7.10045
-7.09869
-7.09431
-7.08726
-7.07752
-7.06501
-7.04969
-7.03148
-7.01033
-6.98617
-6.95895
-6.92859
-6.89503
-6.85819
-6.81798
-6.77431
-6.7271
-6.67625
-6.62167
-6.56326
-6.50092
-6.43453
-6.36399
-6.28918
-6.21001
-6.12635
-6.03809
-5.94519
-5.84756
-5.74488
-5.63684
-5.52407
-5.40702
-5.28527
-5.15873
-5.02725
-4.89069
-4.74893
-4.60179
-4.44915
-4.2909
-4.12684
-3.95664
-3.77997
-3.5964
-3.40553
-3.20722
-3.00133
-2.78723
-2.56424
-2.33207
-2.09026
-1.83831
-1.5759
-1.30271
-1.01849
-0.723061
-0.416352
-0.0984542
0.230397
0.569788
0.919142
1.2777
1.64458
2.01873
2.39899
2.78412
3.1728
3.56363
3.95519
4.34603
4.7347
5.11977
5.4999
5.87373
6.23994
6.59722
6.94438
7.28011
7.60253
7.90992
8.19953
8.46666
8.71234
8.93924
9.1439
9.32248
9.47148
9.58742
9.66712
9.70747
9.70562
9.65971
9.56909
9.43381
9.25668
9.04576
8.83624
8.70297
8.70324
8.82017
8.98869
9.14749
9.26333
9.3347
9.38658
9.44061
9.5192
9.61941
9.76464
9.93392
10.1834
10.4461
-5.23917
-5.36893
-5.39895
-5.47256
-5.49525
-5.54996
-5.5769
-5.61862
-5.64589
-5.68083
-5.70842
-5.74011
-5.7692
-5.80176
-5.83478
-5.87167
-5.91117
-5.95513
-6.00306
-6.0554
-6.11092
-6.1677
-6.22266
-6.27124
-6.30627
-6.31959
-6.30154
-6.24575
-6.1627
-6.07846
-6.01662
-5.98587
-5.98065
-5.98636
-5.99689
-6.01208
-6.0329
-6.05917
-6.09031
-6.12597
-6.16585
-6.20931
-6.25544
-6.30332
-6.35216
-6.40124
-6.44995
-6.49775
-6.54419
-6.58891
-6.6316
-6.67206
-6.71011
-6.74565
-6.7786
-6.8089
-6.83652
-6.86143
-6.88363
-6.90313
-6.91993
-6.93406
-6.94553
-6.95438
-6.96062
-6.96426
-6.96533
-6.96384
-6.95977
-6.95313
-6.94389
-6.93203
-6.9175
-6.90027
-6.88028
-6.85749
-6.83181
-6.80318
-6.77151
-6.73672
-6.69873
-6.65745
-6.6128
-6.56469
-6.51304
-6.45776
-6.39875
-6.33594
-6.26923
-6.19852
-6.12374
-6.04478
-5.96155
-5.87393
-5.78188
-5.68539
-5.58438
-5.4787
-5.36841
-5.25341
-5.13365
-5.00908
-4.87962
-4.74516
-4.60559
-4.46072
-4.31027
-4.15414
-3.99209
-3.82396
-3.64959
-3.46862
-3.28046
-3.08472
-2.88133
-2.67002
-2.45009
-2.22113
-1.98285
-1.73469
-1.47626
-1.20718
-0.927179
-0.636059
-0.333754
-0.0203284
0.303983
0.63879
0.983524
1.33745
1.69967
2.06916
2.44476
2.82519
3.20916
3.59527
3.98207
4.3681
4.75187
5.13194
5.50687
5.87526
6.23571
6.58681
6.92717
7.25542
7.57065
7.87248
8.15992
8.43031
8.68105
8.91121
9.11894
9.3012
9.45455
9.57563
9.66134
9.70873
9.71507
9.67865
9.59892
9.47656
9.31518
9.12347
8.92805
8.78419
8.74873
8.82682
8.97017
9.11926
9.23931
9.32376
9.3916
9.45896
9.55133
9.66015
9.81345
9.97943
10.2214
10.4617
-5.21911
-5.38055
-5.42138
-5.50779
-5.53367
-5.59069
-5.62298
-5.6684
-5.70102
-5.73713
-5.76743
-5.79918
-5.82882
-5.86012
-5.89201
-5.92649
-5.9635
-6.00425
-6.04906
-6.09847
-6.15201
-6.20858
-6.26617
-6.32096
-6.36677
-6.39465
-6.39228
-6.35277
-6.28514
-6.21147
-6.15366
-6.12116
-6.11039
-6.11209
-6.12144
-6.13741
-6.15989
-6.18815
-6.22143
-6.25904
-6.30035
-6.34477
-6.39169
-6.44057
-6.49085
-6.54199
-6.59339
-6.64449
-6.69472
-6.74357
-6.79061
-6.83551
-6.878
-6.91792
-6.95517
-6.98971
-7.02154
-7.05068
-7.07714
-7.10095
-7.12213
-7.14071
-7.1567
-7.17013
-7.18102
-7.18939
-7.19525
-7.19857
-7.19935
-7.19755
-7.19312
-7.18599
-7.1761
-7.16337
-7.14772
-7.12911
-7.10747
-7.08276
-7.05492
-7.02388
-6.98958
-6.95193
-6.91085
-6.86625
-6.81805
-6.76615
-6.71047
-6.6509
-6.58734
-6.51971
-6.44789
-6.3718
-6.29134
-6.20642
-6.11694
-6.02284
-5.92402
-5.82041
-5.71213
-5.59917
-5.48144
-5.35887
-5.23137
-5.09881
-4.96106
-4.81797
-4.66928
-4.51486
-4.35449
-4.1879
-4.01488
-3.83529
-3.64875
-3.45459
-3.25225
-3.04155
-2.82224
-2.59378
-2.35573
-2.10753
-1.84881
-1.57919
-1.2984
-1.00624
-0.702633
-0.387657
-0.06155
0.275292
0.622294
0.978708
1.34362
1.71596
2.09456
2.47814
2.86537
3.25487
3.64518
4.03481
4.4223
4.80619
5.18509
5.55762
5.92246
6.27821
6.62361
6.95726
7.2776
7.58376
7.87433
8.14735
8.40169
8.63599
8.84805
9.0347
9.19247
9.31818
9.40856
9.46037
9.47084
9.43863
9.36291
9.24392
9.0842
8.89371
8.70608
8.58072
8.55845
8.63058
8.75456
8.87989
8.97759
9.04259
9.09348
9.14227
9.21636
9.3088
9.45021
9.60937
9.85161
10.0959
-5.17674
-5.36268
-5.40684
-5.49921
-5.52209
-5.57942
-5.60775
-5.65099
-5.6818
-5.71832
-5.74795
-5.77876
-5.80686
-5.83632
-5.86576
-5.89742
-5.93102
-5.96781
-6.00782
-6.05149
-6.09853
-6.14834
-6.19944
-6.24898
-6.29241
-6.32392
-6.33654
-6.32568
-6.29539
-6.25809
-6.22687
-6.20822
-6.20192
-6.20518
-6.21561
-6.23135
-6.25141
-6.27512
-6.30204
-6.33182
-6.36419
-6.3989
-6.43565
-6.47408
-6.51378
-6.55426
-6.59507
-6.63574
-6.67586
-6.71507
-6.75306
-6.78956
-6.8244
-6.8574
-6.88845
-6.91744
-6.94431
-6.96898
-6.99138
-7.01148
-7.02923
-7.04459
-7.05754
-7.06807
-7.07617
-7.08183
-7.08507
-7.08586
-7.0842
-7.08005
-7.07337
-7.06409
-7.05215
-7.0375
-7.02006
-6.9998
-6.97666
-6.95056
-6.92144
-6.88921
-6.85379
-6.81509
-6.77303
-6.72751
-6.67847
-6.6258
-6.56943
-6.50927
-6.44524
-6.37724
-6.30521
-6.22905
-6.1487
-6.06408
-5.97514
-5.88181
-5.78403
-5.68169
-5.57476
-5.46317
-5.34686
-5.22577
-5.09984
-4.96896
-4.83297
-4.69187
-4.54572
-4.3941
-4.2368
-4.07355
-3.90403
-3.72796
-3.54509
-3.35507
-3.15725
-2.95102
-2.73619
-2.51233
-2.27893
-2.03554
-1.78172
-1.51699
-1.241
-0.953553
-0.654526
-0.343986
-0.0221485
0.310578
0.653631
1.00627
1.36757
1.73647
2.11173
2.49209
2.87619
3.26263
3.64992
4.03654
4.42098
4.80175
5.17742
5.54653
5.90765
6.25948
6.60095
6.93112
7.2489
7.55347
7.84356
8.11722
8.37265
8.60825
8.82202
9.01109
9.17229
9.30255
9.39876
9.45772
9.47683
9.45489
9.3917
9.28809
9.14627
8.97238
8.79053
8.65178
8.60144
8.64033
8.73452
8.83995
8.92956
8.99463
9.05052
9.10522
9.18595
9.28404
9.43371
9.59876
9.84524
10.0892
-5.16331
-5.36205
-5.41513
-5.51707
-5.54074
-5.60236
-5.63123
-5.67755
-5.7098
-5.74892
-5.78181
-5.81689
-5.84821
-5.8797
-5.90986
-5.9407
-5.97175
-6.00422
-6.03813
-6.07405
-6.11183
-6.15116
-6.19113
-6.22986
-6.26451
-6.29139
-6.30708
-6.31011
-6.30319
-6.29278
-6.28537
-6.2841
-6.28938
-6.30071
-6.31738
-6.33837
-6.36283
-6.39013
-6.42004
-6.45243
-6.48726
-6.52439
-6.56363
-6.60464
-6.64698
-6.69017
-6.73369
-6.77708
-6.81991
-6.8618
-6.90247
-6.94167
-6.97921
-7.01498
-7.04887
-7.08082
-7.11077
-7.13868
-7.16448
-7.18811
-7.20952
-7.22864
-7.24544
-7.25991
-7.27204
-7.28183
-7.28929
-7.29438
-7.29707
-7.29729
-7.29496
-7.28996
-7.2822
-7.27158
-7.25801
-7.24144
-7.22181
-7.19908
-7.1732
-7.1441
-7.11169
-7.07591
-7.03666
-6.99388
-6.94748
-6.89738
-6.84351
-6.78578
-6.7241
-6.65841
-6.5886
-6.51461
-6.43634
-6.35373
-6.2667
-6.17518
-6.07913
-5.97848
-5.87323
-5.76333
-5.64871
-5.5293
-5.40507
-5.27587
-5.14146
-5.00144
-4.8558
-4.70443
-4.54717
-4.38381
-4.21409
-4.03769
-3.85427
-3.66346
-3.46483
-3.25784
-3.04199
-2.8168
-2.58179
-2.33655
-2.08062
-1.81359
-1.53513
-1.24497
-0.942962
-0.629198
-0.303904
0.0324862
0.379381
0.736007
1.10142
1.4745
1.854
2.23862
2.62702
3.01777
3.40937
3.80028
4.18904
4.57412
4.95406
5.32745
5.69293
6.04921
6.39501
6.72912
7.05044
7.35806
7.65085
7.92738
8.18616
8.42549
8.64328
8.83674
9.00281
9.13846
9.24047
9.30563
9.33156
9.31706
9.26234
9.16961
9.04389
8.89451
8.74204
8.62196
8.5646
8.57246
8.62347
8.68559
8.73876
8.77478
8.80652
8.83994
8.90225
8.98624
9.12947
9.2956
9.55342
9.80851
-5.14446
-5.35374
-5.40767
-5.51196
-5.53512
-5.59651
-5.62375
-5.66863
-5.69875
-5.73638
-5.76716
-5.8007
-5.83113
-5.86255
-5.89197
-5.92149
-5.95055
-5.98022
-6.01016
-6.04087
-6.0721
-6.1037
-6.13519
-6.16589
-6.19475
-6.2205
-6.24208
-6.25916
-6.27297
-6.28591
-6.30016
-6.31677
-6.33596
-6.3576
-6.38132
-6.40655
-6.43287
-6.46001
-6.488
-6.51702
-6.54727
-6.57883
-6.61168
-6.64565
-6.68047
-6.71578
-6.75125
-6.78655
-6.82141
-6.85559
-6.88891
-6.9212
-6.95234
-6.98224
-7.01079
-7.03793
-7.06356
-7.08759
-7.10989
-7.13036
-7.14887
-7.16533
-7.17967
-7.19184
-7.20182
-7.2096
-7.21518
-7.21854
-7.21965
-7.21843
-7.21477
-7.20856
-7.19969
-7.18807
-7.17362
-7.15631
-7.13609
-7.11292
-7.08674
-7.05745
-7.02496
-6.98915
-6.94995
-6.90727
-6.86103
-6.81114
-6.75751
-6.70007
-6.63873
-6.57342
-6.50406
-6.43058
-6.35292
-6.27102
-6.18482
-6.09427
-5.9993
-5.89985
-5.79587
-5.68733
-5.57413
-5.45621
-5.33352
-5.20614
-5.07416
-4.93738
-4.79551
-4.6483
-4.49549
-4.33683
-4.17203
-4.00078
-3.82269
-3.63733
-3.44423
-3.24291
-3.03289
-2.81364
-2.58457
-2.34513
-2.0948
-1.83316
-1.55986
-1.27463
-0.977317
-0.667899
-0.346611
-0.0138857
0.329674
0.683292
1.046
1.41665
1.79393
2.17653
2.56309
2.95216
3.34218
3.7316
4.11891
4.50252
4.88104
5.25311
5.61733
5.97246
6.31742
6.65108
6.97239
7.28038
7.57388
7.85151
8.11186
8.35337
8.57413
8.77173
8.9434
9.08642
9.19776
9.27438
9.31422
9.31607
9.27962
9.20648
9.10073
8.97053
8.83397
8.72011
8.65286
8.63539
8.65252
8.6804
8.70466
8.71837
8.73378
8.7554
8.81039
8.89109
9.0361
9.20664
9.47036
9.727
-5.1562
-5.3765
-5.42821
-5.53813
-5.56017
-5.62546
-5.65235
-5.69971
-5.72987
-5.76916
-5.80052
-5.83563
-5.86664
-5.89882
-5.92892
-5.95934
-5.9881
-6.01651
-6.04419
-6.07173
-6.09872
-6.12528
-6.15108
-6.17589
-6.19943
-6.22149
-6.24218
-6.26201
-6.28204
-6.30351
-6.32731
-6.35355
-6.38188
-6.41177
-6.44271
-6.47424
-6.50606
-6.53809
-6.57048
-6.60349
-6.63741
-6.67244
-6.70862
-6.74587
-6.78396
-6.82262
-6.86152
-6.90035
-6.93879
-6.9766
-7.01354
-7.04944
-7.08414
-7.11756
-7.14959
-7.18018
-7.20924
-7.23665
-7.2623
-7.28606
-7.30784
-7.32754
-7.34512
-7.36055
-7.37384
-7.38502
-7.39409
-7.40106
-7.40585
-7.40835
-7.4084
-7.40583
-7.40048
-7.39223
-7.381
-7.36673
-7.34941
-7.32898
-7.30541
-7.2786
-7.24845
-7.21484
-7.17772
-7.137
-7.09263
-7.04455
-6.99268
-6.93697
-6.87733
-6.8137
-6.74601
-6.67421
-6.59821
-6.51796
-6.4334
-6.34449
-6.25115
-6.15335
-6.05104
-5.94422
-5.83276
-5.71659
-5.59539
-5.46905
-5.33742
-5.20052
-5.05823
-4.9104
-4.75685
-4.59734
-4.43161
-4.25935
-4.08019
-3.89372
-3.69945
-3.49686
-3.28544
-3.06466
-2.83399
-2.5929
-2.34081
-2.07716
-1.80156
-1.51374
-1.21368
-0.901335
-0.576922
-0.240898
0.106105
0.463284
0.829643
1.204
1.58502
1.97137
2.36168
2.75445
3.14811
3.54108
3.93193
4.31912
4.70112
5.07653
5.444
5.80226
6.15013
6.48652
6.8104
7.12083
7.4168
7.69712
7.96052
8.20556
8.43045
8.63302
8.81075
8.96116
9.08158
9.16925
9.22246
9.24032
9.22288
9.17193
9.09128
8.98694
8.87181
8.76664
8.6888
8.6427
8.61997
8.60463
8.58768
8.56433
8.54709
8.54111
8.57471
8.64205
8.78421
8.95989
9.23909
9.50677
-5.17237
-5.39717
-5.44106
-5.55174
-5.56979
-5.63576
-5.65979
-5.70717
-5.73505
-5.77386
-5.8034
-5.8379
-5.86774
-5.89962
-5.92878
-5.95848
-5.98669
-6.015
-6.04199
-6.06861
-6.09461
-6.12021
-6.14528
-6.16997
-6.19426
-6.21835
-6.2425
-6.26716
-6.29294
-6.32039
-6.34983
-6.38114
-6.4139
-6.44751
-6.48144
-6.51522
-6.5486
-6.58152
-6.61411
-6.64658
-6.67922
-6.71221
-6.74564
-6.7795
-6.81369
-6.84804
-6.88234
-6.91639
-6.94999
-6.98298
-7.01522
-7.04661
-7.07708
-7.10658
-7.13505
-7.16241
-7.18854
-7.2133
-7.23654
-7.2581
-7.27787
-7.29577
-7.31174
-7.32575
-7.33782
-7.34798
-7.35625
-7.36262
-7.367
-7.36924
-7.36911
-7.36644
-7.36104
-7.35282
-7.34169
-7.32764
-7.31068
-7.29079
-7.26789
-7.24186
-7.21255
-7.17985
-7.14367
-7.10393
-7.06056
-7.01349
-6.96263
-6.9079
-6.84923
-6.78654
-6.71978
-6.64888
-6.57378
-6.49443
-6.41078
-6.32281
-6.23045
-6.13361
-6.03233
-5.92654
-5.81639
-5.70191
-5.58308
-5.45976
-5.33177
-5.19895
-5.06109
-4.91797
-4.76935
-4.61498
-4.45455
-4.28775
-4.11415
-3.93332
-3.74476
-3.54794
-3.34227
-3.12716
-2.902
-2.66622
-2.41924
-2.16053
-1.88957
-1.60595
-1.30956
-1.0005
-0.678997
-0.345505
-0.000626563
0.354791
0.719706
1.09289
1.47296
1.85854
2.24827
2.64061
3.03398
3.42677
3.81746
4.20454
4.58657
4.96214
5.32992
5.68868
6.03727
6.37462
6.69972
7.01162
7.30933
7.59183
7.858
8.10662
8.33621
8.54493
8.73067
8.89122
9.02426
9.12729
9.19853
9.23671
9.24133
9.21331
9.15554
9.07237
8.97337
8.87363
8.78662
8.71689
8.66081
8.60867
8.55625
8.50129
8.45713
8.42964
8.44752
8.50589
8.64639
8.82452
9.11079
9.38203
-5.20784
-5.43262
-5.47186
-5.58489
-5.60092
-5.66977
-5.69248
-5.74197
-5.76892
-5.80899
-5.83779
-5.8729
-5.90212
-5.93423
-5.96307
-5.99303
-6.0209
-6.04894
-6.07578
-6.1026
-6.12825
-6.15341
-6.17806
-6.20243
-6.22665
-6.25109
-6.27605
-6.30198
-6.32928
-6.35831
-6.38922
-6.4219
-6.45604
-6.49119
-6.52692
-6.56284
-6.5987
-6.63442
-6.67004
-6.70571
-6.7416
-6.77785
-6.81453
-6.85166
-6.88914
-6.92686
-6.96462
-7.00226
-7.03957
-7.0764
-7.11259
-7.14803
-7.18262
-7.21626
-7.24885
-7.28022
-7.31021
-7.33866
-7.36542
-7.39039
-7.41347
-7.43463
-7.45382
-7.47105
-7.48637
-7.49984
-7.5115
-7.52131
-7.52914
-7.53479
-7.538
-7.53857
-7.5363
-7.53108
-7.52285
-7.51158
-7.49726
-7.47986
-7.45929
-7.43541
-7.4081
-7.37724
-7.34277
-7.30464
-7.2628
-7.21721
-7.16778
-7.11447
-7.05721
-6.99595
-6.93066
-6.86126
-6.78771
-6.70995
-6.62797
-6.54174
-6.45113
-6.35614
-6.25656
-6.15225
-6.04319
-5.92929
-5.81057
-5.68696
-5.55841
-5.42481
-5.28606
-5.14197
-4.99234
-4.83695
-4.6755
-4.50768
-4.33309
-4.15129
-3.96177
-3.76399
-3.55736
-3.34128
-3.11512
-2.87826
-2.63009
-2.37001
-2.0975
-1.81221
-1.5139
-1.20259
-0.878678
-0.542647
-0.195134
0.163007
0.530711
0.906729
1.28968
1.67813
2.07064
2.46569
2.86168
3.25704
3.65025
4.03978
4.42414
4.80194
5.17186
5.53267
5.88325
6.22256
6.54966
6.86366
7.1637
7.44888
7.71826
7.9708
8.20527
8.42017
8.61379
8.78427
8.92959
9.04764
9.13671
9.19542
9.22272
9.21859
9.18437
9.12224
9.03836
8.94271
8.84584
8.75268
8.66331
8.57293
8.48134
8.38889
8.31063
8.25441
8.25065
8.2968
8.43575
8.61923
8.91941
9.19886
-5.2484
-5.46759
-5.50006
-5.61216
-5.62448
-5.69374
-5.71332
-5.76321
-5.78768
-5.82785
-5.85476
-5.88973
-5.91759
-5.9495
-5.97744
-6.00731
-6.03488
-6.06329
-6.09018
-6.11751
-6.14408
-6.17048
-6.19629
-6.22236
-6.24859
-6.2753
-6.30264
-6.33097
-6.36042
-6.39122
-6.42337
-6.45681
-6.49131
-6.52659
-6.56233
-6.59824
-6.63411
-6.66984
-6.70542
-6.7409
-6.77638
-6.81192
-6.84757
-6.88331
-6.91908
-6.95479
-6.99034
-7.02559
-7.06044
-7.0948
-7.12858
-7.16173
-7.19417
-7.2258
-7.25649
-7.28608
-7.31438
-7.34125
-7.36659
-7.39031
-7.41236
-7.43268
-7.45126
-7.46811
-7.48331
-7.4969
-7.50892
-7.51926
-7.52774
-7.5341
-7.53807
-7.5394
-7.53793
-7.53355
-7.52624
-7.51601
-7.50285
-7.48671
-7.46748
-7.445
-7.41911
-7.3897
-7.35669
-7.32003
-7.27964
-7.23545
-7.18738
-7.13534
-7.07926
-7.01908
-6.95474
-6.88621
-6.81337
-6.73625
-6.6548
-6.56903
-6.47902
-6.38485
-6.28643
-6.18382
-6.07688
-5.96558
-5.84987
-5.72962
-5.60473
-5.47504
-5.34038
-5.20055
-5.05531
-4.90442
-4.74757
-4.58442
-4.41455
-4.23748
-4.05269
-3.85959
-3.65756
-3.44594
-3.22406
-2.99126
-2.7469
-2.49034
-2.22101
-1.93849
-1.64257
-1.33323
-1.01084
-0.675955
-0.329257
0.0283525
0.395762
0.771707
1.15477
1.54352
1.93644
2.33196
2.72849
3.12441
3.51821
3.90835
4.29339
4.67194
5.0427
5.40446
5.75612
6.09667
6.4252
6.74089
7.04297
7.33069
7.60331
7.86004
8.09992
8.32183
8.52442
8.70616
8.86523
8.99968
9.10758
9.18713
9.23655
9.25476
9.24151
9.19694
9.12475
9.03168
8.92632
8.81387
8.69707
8.57494
8.45034
8.32593
8.21819
8.13688
8.11364
8.14821
8.28341
8.46808
8.77665
9.06075
-5.29322
-5.50528
-5.53266
-5.64444
-5.65453
-5.72568
-5.74341
-5.79499
-5.81798
-5.85936
-5.8852
-5.92095
-5.9481
-5.9805
-6.00807
-6.03835
-6.06584
-6.09465
-6.12179
-6.14956
-6.17627
-6.20348
-6.23043
-6.25749
-6.28448
-6.31215
-6.34049
-6.36975
-6.39996
-6.43132
-6.46378
-6.49737
-6.53193
-6.56732
-6.60334
-6.63979
-6.67654
-6.71348
-6.75058
-6.78786
-6.82534
-6.86304
-6.90096
-6.93908
-6.97734
-7.01567
-7.05397
-7.09216
-7.13014
-7.16782
-7.20513
-7.24196
-7.27819
-7.31366
-7.34817
-7.38151
-7.4135
-7.44401
-7.47295
-7.50028
-7.52591
-7.5498
-7.57194
-7.59234
-7.61107
-7.62818
-7.64366
-7.6574
-7.6692
-7.67882
-7.68599
-7.69049
-7.69213
-7.69082
-7.68649
-7.67912
-7.66866
-7.65506
-7.63818
-7.61788
-7.59403
-7.56651
-7.53527
-7.50026
-7.46141
-7.4187
-7.37205
-7.32143
-7.26678
-7.20803
-7.14528
-7.07834
-7.00724
-6.93186
-6.85206
-6.76776
-6.67893
-6.5855
-6.4875
-6.38491
-6.27771
-6.16588
-6.04941
-5.92824
-5.80232
-5.67154
-5.53577
-5.39483
-5.24852
-5.09659
-4.93875
-4.77466
-4.60391
-4.42605
-4.24054
-4.04679
-3.84414
-3.63193
-3.40944
-3.176
-2.93092
-2.67356
-2.40329
-2.11964
-1.82234
-1.51141
-1.18723
-0.850346
-0.501458
-0.141558
0.228202
0.606524
0.991972
1.38304
1.77821
2.17586
2.57441
2.97226
3.36785
3.75969
4.14632
4.52638
4.89859
5.26176
5.61484
5.95686
6.28696
6.6044
6.9085
7.19866
7.47431
7.73486
7.97967
8.20795
8.41871
8.61078
8.78261
8.93237
9.05805
9.15739
9.22789
9.26732
9.27381
9.24553
9.18375
9.09265
8.97934
8.84945
8.70771
8.55609
8.39961
8.243
8.10434
7.99602
7.9517
7.97446
8.10657
8.29473
8.61355
8.90387
-5.33694
-5.53994
-5.56235
-5.67191
-5.67876
-5.75007
-5.76521
-5.81759
-5.83843
-5.88033
-5.9045
-5.9406
-5.9667
-5.99946
-6.02656
-6.05731
-6.08485
-6.11432
-6.14195
-6.1706
-6.19827
-6.2265
-6.25426
-6.28277
-6.31159
-6.34082
-6.3704
-6.40095
-6.4321
-6.46419
-6.4971
-6.53093
-6.56553
-6.60084
-6.63674
-6.67308
-6.70976
-6.74669
-6.78385
-6.82117
-6.85867
-6.89631
-6.93408
-6.97191
-7.00977
-7.04759
-7.0853
-7.12285
-7.16017
-7.19722
-7.23391
-7.27016
-7.30583
-7.34075
-7.37471
-7.40755
-7.43909
-7.46927
-7.49802
-7.5253
-7.55107
-7.57528
-7.59793
-7.61904
-7.63867
-7.65684
-7.67348
-7.68844
-7.70149
-7.71237
-7.72082
-7.72663
-7.72962
-7.7297
-7.72681
-7.72093
-7.71199
-7.69992
-7.68458
-7.66582
-7.64349
-7.61751
-7.58777
-7.55421
-7.51675
-7.47531
-7.42984
-7.38024
-7.32638
-7.26833
-7.20594
-7.13933
-7.06852
-6.99353
-6.91434
-6.83093
-6.74322
-6.65123
-6.55491
-6.45424
-6.34918
-6.23972
-6.12579
-6.00732
-5.88423
-5.75638
-5.62362
-5.48577
-5.34261
-5.19387
-5.03926
-4.87843
-4.71095
-4.53635
-4.35409
-4.16353
-3.96398
-3.75473
-3.53505
-3.30421
-3.06149
-2.80619
-2.53761
-2.25527
-1.95886
-1.64847
-1.32447
-0.987379
-0.638025
-0.277477
0.0930977
0.47236
0.858837
1.25099
1.64722
2.04593
2.44548
2.84427
3.24078
3.63349
4.02099
4.40193
4.77505
5.1392
5.49336
5.83658
6.16806
6.48711
6.79315
7.08567
7.36427
7.62855
7.87813
8.1125
8.33103
8.53278
8.71649
8.88037
9.02226
9.13944
9.22866
9.28658
9.30981
9.29498
9.24161
9.1523
9.03312
8.88992
8.72884
8.55397
8.3717
8.18818
8.02262
7.88986
7.82545
7.83581
7.96212
8.15114
8.47674
8.77155
-5.3786
-5.57136
-5.58978
-5.69754
-5.70262
-5.7745
-5.78761
-5.841
-5.86042
-5.90358
-5.92694
-5.96403
-5.98959
-6.02308
-6.05003
-6.0815
-6.10924
-6.13946
-6.16759
-6.19708
-6.22548
-6.25471
-6.28347
-6.3128
-6.3421
-6.37227
-6.40311
-6.43445
-6.46612
-6.49875
-6.53199
-6.56607
-6.60091
-6.63647
-6.67268
-6.70947
-6.74678
-6.78454
-6.82272
-6.86126
-6.90016
-6.93935
-6.97881
-7.01847
-7.0583
-7.09823
-7.13821
-7.17819
-7.21812
-7.25795
-7.29759
-7.33693
-7.3758
-7.41402
-7.45137
-7.48765
-7.52271
-7.55646
-7.58884
-7.61979
-7.64926
-7.67718
-7.70352
-7.72828
-7.75148
-7.77313
-7.79315
-7.81141
-7.82769
-7.84179
-7.85346
-7.86248
-7.86869
-7.87195
-7.87218
-7.86928
-7.86319
-7.8538
-7.84097
-7.82457
-7.80447
-7.78056
-7.75275
-7.721
-7.68519
-7.64538
-7.60148
-7.55344
-7.50119
-7.44468
-7.38373
-7.31838
-7.24851
-7.17416
-7.09532
-7.01196
-6.92405
-6.83159
-6.7346
-6.63306
-6.52698
-6.41636
-6.30118
-6.18142
-6.05701
-5.92785
-5.79383
-5.65475
-5.51042
-5.36059
-5.20495
-5.04317
-4.87481
-4.6994
-4.51639
-4.32513
-4.12493
-3.91503
-3.69468
-3.46314
-3.21964
-2.96344
-2.69383
-2.41022
-2.11234
-1.80033
-1.47445
-1.13526
-0.783742
-0.420965
-0.0481407
0.333348
0.721988
1.1162
1.51435
1.91482
2.31597
2.71621
3.11401
3.5079
3.89647
4.27841
4.6525
5.01764
5.37282
5.71717
6.04992
6.37044
6.67822
6.97285
7.25402
7.52151
7.77509
8.01452
8.23941
8.44913
8.64263
8.8183
8.97386
9.10629
9.21173
9.2859
9.32408
9.32152
9.27602
9.18902
9.0658
8.91243
8.73612
8.54244
8.33844
8.13103
7.94043
7.78419
7.70018
7.69839
7.81898
8.00905
8.34038
8.63955
-5.41553
-5.59698
-5.61158
-5.71621
-5.71908
-5.79077
-5.80189
-5.85592
-5.87362
-5.91743
-5.93958
-5.9774
-6.00255
-6.0369
-6.06384
-6.09606
-6.12413
-6.15522
-6.18404
-6.21457
-6.24394
-6.27431
-6.30421
-6.33479
-6.36541
-6.39654
-6.42826
-6.46078
-6.49341
-6.5265
-6.56028
-6.59493
-6.63022
-6.66614
-6.70273
-6.73987
-6.7776
-6.8158
-6.8545
-6.8936
-6.93311
-6.97293
-7.01304
-7.05337
-7.09386
-7.13446
-7.17512
-7.21579
-7.25643
-7.29698
-7.33735
-7.37743
-7.41707
-7.45607
-7.49423
-7.53137
-7.56736
-7.60211
-7.63555
-7.66765
-7.69834
-7.72759
-7.75536
-7.78162
-7.80638
-7.8296
-7.85118
-7.87098
-7.8888
-7.9044
-7.91758
-7.92812
-7.93586
-7.94064
-7.94237
-7.94095
-7.93627
-7.92822
-7.91667
-7.90147
-7.8825
-7.85965
-7.83281
-7.80188
-7.76681
-7.72749
-7.68396
-7.63619
-7.5842
-7.52788
-7.46737
-7.40248
-7.33322
-7.25958
-7.18155
-7.09912
-7.01225
-6.92094
-6.82519
-6.72498
-6.62031
-6.51116
-6.3975
-6.27931
-6.15649
-6.02896
-5.89658
-5.75916
-5.6165
-5.46833
-5.31436
-5.15422
-4.98749
-4.81368
-4.63223
-4.44247
-4.24367
-4.03502
-3.81577
-3.58514
-3.34234
-3.0866
-2.81711
-2.53333
-2.23505
-1.92228
-1.59531
-1.25488
-0.901996
-0.537745
-0.163398
0.219609
0.609721
1.00531
1.40474
1.80633
2.20846
2.60956
3.0081
3.40263
3.79179
4.17429
4.54897
4.91475
5.27067
5.61592
5.94976
6.27161
6.581
6.87759
7.16112
7.43146
7.68848
7.9321
8.16209
8.37805
8.57912
8.76385
8.92999
9.07431
9.19255
9.27967
9.32991
9.33755
9.29916
9.2153
9.09056
8.93112
8.7448
8.5382
8.31831
8.09219
7.88061
7.70367
7.60133
7.5869
7.70013
7.88947
8.22359
8.52585
-5.44842
-5.61725
-5.62971
-5.73075
-5.73263
-5.80397
-5.81394
-5.86873
-5.88557
-5.93046
-5.95221
-5.9911
-6.01614
-6.05141
-6.07872
-6.11205
-6.14078
-6.17293
-6.2026
-6.23426
-6.26466
-6.29625
-6.32731
-6.35915
-6.39093
-6.42329
-6.45593
-6.4889
-6.52252
-6.55703
-6.59166
-6.62673
-6.66283
-6.69942
-6.73668
-6.77461
-6.81324
-6.85253
-6.89243
-6.9329
-6.97391
-7.01538
-7.05728
-7.09954
-7.1421
-7.18491
-7.22792
-7.27106
-7.3143
-7.35757
-7.40078
-7.44381
-7.48651
-7.5287
-7.57016
-7.61073
-7.65024
-7.68856
-7.72563
-7.76136
-7.7957
-7.82857
-7.85991
-7.88969
-7.91787
-7.9444
-7.9692
-7.99213
-8.01302
-8.03167
-8.04789
-8.06147
-8.07223
-8.08
-8.08465
-8.08605
-8.08407
-8.07859
-8.06945
-8.05655
-8.03974
-8.01887
-7.99392
-7.96475
-7.93127
-7.89332
-7.85096
-7.8041
-7.75266
-7.69671
-7.63621
-7.57114
-7.50147
-7.4272
-7.34834
-7.26487
-7.17681
-7.08415
-6.98692
-6.88513
-6.77879
-6.66791
-6.55249
-6.43251
-6.30792
-6.17863
-6.04451
-5.90539
-5.76107
-5.61128
-5.45572
-5.29404
-5.12579