/*--------------------------------*- C++ -*----------------------------------*\
| =========                 |                                                 |
| \\      /  F ield         | OpenFOAM: The Open Source CFD Toolbox           |
|  \\    /   O peration     | Version:  v1906                                 |
|   \\  /    A nd           | Web:      www.OpenFOAM.com                      |
|    \\/     M anipulation  |                                                 |
\*---------------------------------------------------------------------------*/
FoamFile
{
    version     2.0;
    format      ascii;
    class       surfaceScalarField;
    location    "1300";
    object      phi;
}
// * * * * * * * * * * * * * * * * * * * * * * * * * * * * * * * * * * * * * //

dimensions      [0 3 -1 0 0 0 0];
oriented        oriented;


internalField   nonuniform List<scalar> 
24170
(
3.08283e-06
1.0558e-07
2.98701e-06
9.58121e-08
2.92072e-06
6.62939e-08
2.86473e-06
5.59924e-08
2.81592e-06
4.88069e-08
2.7731e-06
4.28168e-08
2.73506e-06
3.80432e-08
2.70091e-06
3.41525e-08
2.67015e-06
3.07574e-08
2.64244e-06
2.7717e-08
2.61732e-06
2.51137e-08
2.59442e-06
2.29015e-08
2.57365e-06
2.07753e-08
2.55505e-06
1.85969e-08
2.53899e-06
1.60618e-08
2.52595e-06
1.30376e-08
2.51687e-06
9.07919e-09
-3.13481e-09
2.52001e-06
3.44276e-06
8.00717e-08
3.44404e-06
9.45265e-08
3.43233e-06
7.8006e-08
3.41873e-06
6.9591e-08
3.40401e-06
6.35305e-08
3.38922e-06
5.76032e-08
3.37487e-06
5.23972e-08
3.36106e-06
4.79649e-08
3.34781e-06
4.40015e-08
3.33517e-06
4.03572e-08
3.3232e-06
3.70887e-08
3.31194e-06
3.41638e-08
3.30131e-06
3.1401e-08
3.29133e-06
2.8574e-08
3.28188e-06
2.55161e-08
3.27303e-06
2.18903e-08
3.26557e-06
1.65346e-08
5.68987e-09
3.25675e-06
3.67627e-06
6.63156e-08
3.67857e-06
9.22281e-08
3.6728e-06
8.3776e-08
3.66529e-06
7.70983e-08
3.65772e-06
7.10998e-08
3.65058e-06
6.47474e-08
3.64392e-06
5.90605e-08
3.63767e-06
5.42136e-08
3.63177e-06
4.98974e-08
3.62619e-06
4.59421e-08
3.62093e-06
4.23462e-08
3.61604e-06
3.90576e-08
3.61152e-06
3.59171e-08
3.6074e-06
3.26949e-08
3.60366e-06
2.92538e-08
3.60048e-06
2.50732e-08
3.59665e-06
2.0366e-08
1.30144e-08
3.58932e-06
3.93547e-06
5.62375e-08
3.94303e-06
8.46671e-08
3.94512e-06
8.16791e-08
3.94515e-06
7.70688e-08
3.94399e-06
7.22621e-08
3.942e-06
6.67377e-08
3.93954e-06
6.15182e-08
3.93687e-06
5.68907e-08
3.93411e-06
5.26565e-08
3.93135e-06
4.87004e-08
3.92868e-06
4.50202e-08
3.92616e-06
4.15693e-08
3.92387e-06
3.82129e-08
3.92182e-06
3.47445e-08
3.92004e-06
3.10378e-08
3.91845e-06
2.66537e-08
3.91733e-06
2.14937e-08
1.33907e-08
3.91695e-06
4.2181e-06
4.52608e-08
4.22759e-06
7.51804e-08
4.23153e-06
7.77346e-08
4.23291e-06
7.56947e-08
4.23311e-06
7.20619e-08
4.23265e-06
6.71933e-08
4.23189e-06
6.22847e-08
4.23101e-06
5.77717e-08
4.23009e-06
5.35735e-08
4.22917e-06
4.96202e-08
4.22829e-06
4.59027e-08
4.22749e-06
4.23671e-08
4.2268e-06
3.88996e-08
4.22623e-06
3.5314e-08
4.22573e-06
3.15459e-08
4.22519e-06
2.71887e-08
4.22385e-06
2.28296e-08
1.74989e-08
4.21975e-06
4.5171e-06
3.72513e-08
4.52583e-06
6.64486e-08
4.53157e-06
7.19966e-08
4.53562e-06
7.16362e-08
4.53868e-06
6.90053e-08
4.54092e-06
6.49517e-08
4.54258e-06
6.06327e-08
4.54384e-06
5.65042e-08
4.54485e-06
5.25647e-08
4.54568e-06
4.87868e-08
4.54642e-06
4.5168e-08
4.54712e-06
4.16644e-08
4.54784e-06
3.81862e-08
4.54856e-06
3.45902e-08
4.5493e-06
3.08026e-08
4.54991e-06
2.65802e-08
4.55081e-06
2.19353e-08
1.63194e-08
4.55199e-06
4.83986e-06
3.01099e-08
4.8484e-06
5.79123e-08
4.85442e-06
6.5975e-08
4.85859e-06
6.74636e-08
4.86162e-06
6.59748e-08
4.86384e-06
6.27299e-08
4.86556e-06
5.89218e-08
4.86698e-06
5.508e-08
4.86824e-06
5.13092e-08
4.86938e-06
4.76376e-08
4.87047e-06
4.408e-08
4.87153e-06
4.06037e-08
4.87257e-06
3.71453e-08
4.87357e-06
3.35922e-08
4.87444e-06
2.99313e-08
4.87503e-06
2.59985e-08
4.87473e-06
2.22279e-08
1.82694e-08
4.87278e-06
5.18534e-06
2.43547e-08
5.19298e-06
5.02672e-08
5.19936e-06
5.95948e-08
5.20464e-06
6.21858e-08
5.20914e-06
6.14788e-08
5.21296e-06
5.89054e-08
5.21627e-06
5.56152e-08
5.21921e-06
5.21413e-08
5.22187e-06
4.86417e-08
5.22433e-06
4.51762e-08
5.22664e-06
4.17697e-08
5.22885e-06
3.84031e-08
5.23096e-06
3.50316e-08
5.23297e-06
3.15814e-08
5.23488e-06
2.80225e-08
5.2366e-06
2.42749e-08
5.2385e-06
2.03309e-08
1.62415e-08
5.24053e-06
5.55573e-06
1.99633e-08
5.56256e-06
4.3437e-08
5.56881e-06
5.33406e-08
5.57406e-06
5.69384e-08
5.57844e-06
5.70961e-08
5.5821e-06
5.52525e-08
5.58521e-06
5.25019e-08
5.58796e-06
4.93944e-08
5.59045e-06
4.61505e-08
5.59275e-06
4.28725e-08
5.59491e-06
3.9609e-08
5.59695e-06
3.63607e-08
5.59888e-06
3.3111e-08
5.60064e-06
2.98146e-08
5.60217e-06
2.64984e-08
5.60332e-06
2.31242e-08
5.60367e-06
1.998e-08
1.68631e-08
5.60305e-06
5.95382e-06
1.59197e-08
5.96021e-06
3.70471e-08
5.96647e-06
4.70807e-08
5.9722e-06
5.121e-08
5.9774e-06
5.18975e-08
5.98208e-06
5.0573e-08
5.98632e-06
4.82586e-08
5.99022e-06
4.54916e-08
5.99385e-06
4.25198e-08
5.99726e-06
3.94658e-08
6.00048e-06
3.63895e-08
6.00353e-06
3.33058e-08
6.00643e-06
3.02102e-08
6.00917e-06
2.70823e-08
6.01174e-06
2.39234e-08
6.01414e-06
2.07289e-08
6.01662e-06
1.74999e-08
1.44541e-08
6.01903e-06
6.37948e-06
1.3248e-08
6.38481e-06
3.17243e-08
6.39065e-06
4.12352e-08
6.39622e-06
4.56451e-08
6.40129e-06
4.68253e-08
6.40582e-06
4.60402e-08
6.40988e-06
4.41971e-08
6.41357e-06
4.1807e-08
6.41695e-06
3.91377e-08
6.42008e-06
3.63336e-08
6.423e-06
3.34731e-08
6.42572e-06
3.0589e-08
6.42823e-06
2.77004e-08
6.4305e-06
2.48068e-08
6.43247e-06
2.19518e-08
6.43406e-06
1.91401e-08
6.43502e-06
1.65425e-08
1.40751e-08
6.4354e-06
5.74324e-06
1.08402e-08
5.7477e-06
2.72635e-08
5.75265e-06
3.62851e-08
5.75754e-06
4.07568e-08
5.76221e-06
4.21608e-08
5.76656e-06
4.16818e-08
5.77062e-06
4.01368e-08
5.77442e-06
3.80098e-08
5.77799e-06
3.55715e-08
5.78135e-06
3.29734e-08
5.78452e-06
3.03003e-08
5.78752e-06
2.75944e-08
5.79034e-06
2.48798e-08
5.79297e-06
2.21689e-08
5.79544e-06
1.94818e-08
5.79774e-06
1.68465e-08
5.80001e-06
1.42676e-08
1.19577e-08
5.80213e-06
6.99986e-06
9.13258e-09
7.00401e-06
2.3112e-08
7.00917e-06
3.11255e-08
7.01454e-06
3.53876e-08
7.01976e-06
3.69459e-08
7.02466e-06
3.67844e-08
7.0292e-06
3.55881e-08
7.03342e-06
3.37898e-08
7.03735e-06
3.16502e-08
7.041e-06
2.93242e-08
7.04439e-06
2.69046e-08
7.04754e-06
2.44445e-08
7.05044e-06
2.19814e-08
7.05307e-06
1.95393e-08
7.05539e-06
1.71563e-08
7.05738e-06
1.48569e-08
7.05895e-06
1.27029e-08
1.06036e-08
7.0603e-06
8.53319e-06
6.78722e-09
8.5381e-06
1.82082e-08
8.54404e-06
2.51863e-08
8.55033e-06
2.90925e-08
8.55662e-06
3.0655e-08
8.56272e-06
3.06825e-08
8.56856e-06
2.97498e-08
8.57412e-06
2.8236e-08
8.57938e-06
2.63823e-08
8.58437e-06
2.43373e-08
8.58908e-06
2.21927e-08
8.59352e-06
2.00047e-08
8.59769e-06
1.78109e-08
8.60159e-06
1.56393e-08
8.60523e-06
1.35164e-08
8.60861e-06
1.14765e-08
8.61178e-06
9.53919e-09
7.87724e-09
8.6145e-06
1.04007e-05
5.32707e-09
1.04049e-05
1.39517e-08
1.04108e-05
1.93299e-08
1.04174e-05
2.24462e-08
1.04243e-05
2.37829e-08
1.04311e-05
2.38985e-08
1.04376e-05
2.32136e-08
1.04438e-05
2.20195e-08
1.04497e-05
2.05135e-08
1.04552e-05
1.88246e-08
1.04604e-05
1.70373e-08
1.04652e-05
1.52078e-08
1.04696e-05
1.33744e-08
1.04737e-05
1.15676e-08
1.04774e-05
9.80547e-09
1.04808e-05
8.11247e-09
1.04838e-05
6.48128e-09
4.90243e-09
1.04868e-05
1.26789e-05
3.21459e-09
1.2684e-05
8.90099e-09
1.26906e-05
1.26367e-08
1.26982e-05
1.48658e-08
1.27062e-05
1.58478e-08
1.27141e-05
1.5937e-08
1.27219e-05
1.54236e-08
1.27294e-05
1.45161e-08
1.27366e-05
1.33628e-08
1.27433e-05
1.20642e-08
1.27497e-05
1.06887e-08
1.27556e-05
9.28316e-09
1.27611e-05
7.88286e-09
1.27661e-05
6.51474e-09
1.27707e-05
5.20832e-09
1.27749e-05
3.98389e-09
1.27785e-05
2.86721e-09
1.9024e-09
1.27815e-05
1.5455e-05
1.43269e-09
1.54599e-05
3.94216e-09
1.54671e-05
5.50285e-09
1.54756e-05
6.33728e-09
1.54849e-05
6.56179e-09
1.54945e-05
6.33857e-09
1.55041e-05
5.80655e-09
1.55135e-05
5.06676e-09
1.55227e-05
4.19453e-09
1.55315e-05
3.24457e-09
1.554e-05
2.25477e-09
1.5548e-05
1.2549e-09
1.55556e-05
2.62247e-10
1.55628e-05
-7.01091e-10
1.55697e-05
-1.63613e-09
1.55762e-05
-2.51276e-09
1.55824e-05
-3.36257e-09
-4.06275e-09
1.55884e-05
1.88392e-05
-9.62221e-11
1.88439e-05
-8.37707e-10
1.8851e-05
-1.53435e-09
1.88594e-05
-2.07573e-09
1.88685e-05
-2.51011e-09
1.88777e-05
-2.87463e-09
1.88867e-05
-3.19725e-09
1.88952e-05
-3.49782e-09
1.89032e-05
-3.78633e-09
1.89105e-05
-4.06739e-09
1.89171e-05
-4.34172e-09
1.8923e-05
-4.60955e-09
1.89281e-05
-4.86837e-09
1.89326e-05
-5.12086e-09
1.89363e-05
-5.36625e-09
1.89394e-05
-5.60744e-09
1.89419e-05
-5.86429e-09
-6.1978e-09
1.8944e-05
2.29673e-05
-4.02465e-09
2.29763e-05
-9.83355e-09
2.29885e-05
-1.38087e-08
2.3003e-05
-1.65282e-08
2.30188e-05
-1.83525e-08
2.30355e-05
-1.95318e-08
2.30526e-05
-2.02667e-08
2.30698e-05
-2.07042e-08
2.30869e-05
-2.09425e-08
2.31039e-05
-2.10442e-08
2.31206e-05
-2.1047e-08
2.3137e-05
-2.09687e-08
2.31529e-05
-2.08139e-08
2.31684e-05
-2.05719e-08
2.31832e-05
-2.02282e-08
2.31974e-05
-1.97474e-08
2.32106e-05
-1.91247e-08
-1.80004e-08
2.32224e-05
1.68112e-05
-4.55947e-09
1.68147e-05
-1.33337e-08
1.68203e-05
-1.93378e-08
1.68268e-05
-2.30627e-08
1.68336e-05
-2.51146e-08
1.684e-05
-2.6015e-08
1.6846e-05
-2.61805e-08
1.68512e-05
-2.58981e-08
1.68556e-05
-2.53485e-08
1.68592e-05
-2.4642e-08
1.6862e-05
-2.3843e-08
1.6864e-05
-2.29898e-08
1.68653e-05
-2.2101e-08
1.68659e-05
-2.11974e-08
1.68659e-05
-2.02852e-08
1.68656e-05
-1.94122e-08
1.68651e-05
-1.85777e-08
-1.82492e-08
1.68653e-05
1.46387e-05
-8.66219e-09
1.46468e-05
-2.14505e-08
1.46568e-05
-2.93036e-08
1.46676e-05
-3.39215e-08
1.46789e-05
-3.63823e-08
1.46902e-05
-3.73725e-08
1.47015e-05
-3.74358e-08
1.47125e-05
-3.69514e-08
1.47234e-05
-3.61539e-08
1.47339e-05
-3.51886e-08
1.47442e-05
-3.41496e-08
1.47543e-05
-3.30956e-08
1.47643e-05
-3.20681e-08
1.47742e-05
-3.10852e-08
1.47841e-05
-3.01722e-08
1.47939e-05
-2.92957e-08
1.48039e-05
-2.84906e-08
-2.71169e-08
1.48127e-05
1.27416e-05
-1.01348e-08
1.27467e-05
-2.65921e-08
1.27534e-05
-3.59092e-08
1.27601e-05
-4.06265e-08
1.27662e-05
-4.25299e-08
1.27715e-05
-4.2694e-08
1.2776e-05
-4.18909e-08
1.27796e-05
-4.06058e-08
1.27826e-05
-3.90914e-08
1.27849e-05
-3.74774e-08
1.27865e-05
-3.58317e-08
1.27876e-05
-3.41864e-08
1.27881e-05
-3.2542e-08
1.27879e-05
-3.08918e-08
1.27869e-05
-2.91891e-08
1.27851e-05
-2.74375e-08
1.27821e-05
-2.55239e-08
-2.41723e-08
1.27792e-05
1.10965e-05
-1.57529e-08
1.11062e-05
-3.62419e-08
1.11165e-05
-4.62412e-08
1.11267e-05
-5.08e-08
1.11365e-05
-5.23589e-08
1.11459e-05
-5.20277e-08
1.11546e-05
-5.06731e-08
1.11629e-05
-4.8861e-08
1.11707e-05
-4.68647e-08
1.1178e-05
-4.48205e-08
1.1185e-05
-4.28126e-08
1.11917e-05
-4.0892e-08
1.11983e-05
-3.9098e-08
1.12048e-05
-3.74607e-08
1.12117e-05
-3.60556e-08
1.12192e-05
-3.49206e-08
1.1228e-05
-3.42963e-08
-3.34176e-08
1.12372e-05
9.65974e-06
-2.02739e-08
9.66816e-06
-4.46634e-08
9.67606e-06
-5.41392e-08
9.68238e-06
-5.71296e-08
9.68723e-06
-5.72071e-08
9.69082e-06
-5.56194e-08
9.69346e-06
-5.33091e-08
9.69543e-06
-5.08316e-08
9.69693e-06
-4.83636e-08
9.69807e-06
-4.59552e-08
9.69889e-06
-4.3637e-08
9.69942e-06
-4.14239e-08
9.69963e-06
-3.93035e-08
9.69942e-06
-3.72546e-08
9.69854e-06
-3.51788e-08
9.69661e-06
-3.29863e-08
9.69253e-06
-3.02151e-08
-2.73621e-08
9.68647e-06
8.41352e-06
-2.8438e-08
8.42508e-06
-5.62287e-08
8.43525e-06
-6.43054e-08
8.444e-06
-6.58856e-08
8.4517e-06
-6.49078e-08
8.45835e-06
-6.22644e-08
8.46404e-06
-5.90014e-08
8.46896e-06
-5.57536e-08
8.47326e-06
-5.26641e-08
8.47706e-06
-4.97468e-08
8.48044e-06
-4.70185e-08
8.4835e-06
-4.4485e-08
8.48634e-06
-4.21457e-08
8.48908e-06
-3.99973e-08
8.49201e-06
-3.81064e-08
8.49557e-06
-3.65493e-08
8.50127e-06
-3.5914e-08
-3.59512e-08
8.50986e-06
7.32785e-06
-3.90053e-08
7.33967e-06
-6.80429e-08
7.34637e-06
-7.10107e-08
7.34963e-06
-6.9148e-08
7.35105e-06
-6.63276e-08
7.35137e-06
-6.25799e-08
7.3511e-06
-5.873e-08
7.35057e-06
-5.52289e-08
7.34993e-06
-5.20212e-08
7.34921e-06
-4.9022e-08
7.34841e-06
-4.62183e-08
7.34753e-06
-4.36101e-08
7.34657e-06
-4.11807e-08
7.34549e-06
-3.89233e-08
7.34415e-06
-3.6762e-08
7.34224e-06
-3.46396e-08
7.33811e-06
-3.1785e-08
-2.76833e-08
7.32984e-06
6.38127e-06
-5.02057e-08
6.39311e-06
-7.98864e-08
6.39987e-06
-7.77723e-08
6.40406e-06
-7.33315e-08
6.40648e-06
-6.87533e-08
6.40741e-06
-6.35068e-08
6.4073e-06
-5.86219e-08
6.40653e-06
-5.44594e-08
6.40534e-06
-5.08303e-08
6.40388e-06
-4.7558e-08
6.40224e-06
-4.45799e-08
6.40049e-06
-4.18644e-08
6.39869e-06
-3.93816e-08
6.39687e-06
-3.71e-08
6.39515e-06
-3.5043e-08
6.3937e-06
-3.3194e-08
6.39422e-06
-3.23004e-08
-3.29461e-08
6.39948e-06
5.563e-06
-6.77386e-08
5.56908e-06
-8.59737e-08
5.56467e-06
-7.33601e-08
5.55723e-06
-6.58902e-08
5.54944e-06
-6.09627e-08
5.54201e-06
-5.60749e-08
5.53514e-06
-5.1754e-08
5.52879e-06
-4.81049e-08
5.52282e-06
-4.48623e-08
5.51715e-06
-4.18938e-08
5.51174e-06
-3.91641e-08
5.50653e-06
-3.66597e-08
5.50151e-06
-3.43583e-08
5.49667e-06
-3.2258e-08
5.49195e-06
-3.03265e-08
5.48738e-06
-2.86258e-08
5.48151e-06
-2.64227e-08
-2.22541e-08
5.47082e-06
4.85296e-06
-9.30957e-08
4.85866e-06
-9.16732e-08
4.84879e-06
-6.34874e-08
4.83769e-06
-5.47916e-08
4.82548e-06
-4.87513e-08
4.81327e-06
-4.38675e-08
4.80155e-06
-4.00328e-08
4.79039e-06
-3.69418e-08
4.77977e-06
-3.42459e-08
4.76965e-06
-3.17731e-08
4.75998e-06
-2.94906e-08
4.75071e-06
-2.73919e-08
4.74183e-06
-2.54714e-08
4.73329e-06
-2.37212e-08
4.72514e-06
-2.21757e-08
4.71735e-06
-2.08375e-08
4.71149e-06
-2.05667e-08
-2.17641e-08
4.711e-06
4.10958e-06
4.01791e-06
3.95442e-06
3.89963e-06
3.85088e-06
3.80701e-06
3.76698e-06
3.73003e-06
3.69579e-06
3.66402e-06
3.63453e-06
3.60713e-06
3.58166e-06
3.55794e-06
3.53577e-06
3.51493e-06
3.49436e-06
3.4726e-06
1.1098e-07
-1.10977e-07
2.02624e-07
-9.16674e-08
2.97882e-07
-9.52383e-08
3.70179e-07
-7.23173e-08
4.37183e-07
-6.69768e-08
4.91647e-07
-5.44766e-08
5.39891e-07
-4.82056e-08
5.79319e-07
-3.94301e-08
6.1341e-07
-3.40479e-08
6.41978e-07
-2.8562e-08
6.6729e-07
-2.5274e-08
6.89859e-07
-2.25611e-08
7.11283e-07
-2.13995e-08
7.32267e-07
-2.09747e-08
7.53954e-07
-2.16851e-08
7.76993e-07
-2.30188e-08
8.01916e-07
-2.49473e-08
8.28922e-07
-2.69491e-08
8.57496e-07
-2.86155e-08
8.86704e-07
-2.9084e-08
9.14007e-07
-2.73368e-08
9.35956e-07
-2.17966e-08
9.47127e-07
-1.11848e-08
9.4079e-07
6.39426e-09
9.09779e-07
3.0993e-08
8.50168e-07
5.9524e-08
7.62161e-07
8.79755e-08
6.51861e-07
1.10183e-07
5.31378e-07
1.20457e-07
4.15281e-07
1.16096e-07
3.16007e-07
9.92768e-08
2.38147e-07
7.79718e-08
1.73829e-07
6.43222e-08
1.08216e-07
6.57175e-08
3.34699e-08
7.46994e-08
-5.13789e-08
8.48816e-08
-1.43318e-07
9.18667e-08
-2.38684e-07
9.53563e-08
-3.35351e-07
9.66082e-08
-4.31454e-07
9.60818e-08
-5.25693e-07
9.41958e-08
-6.1728e-07
9.15666e-08
-7.06146e-07
8.88358e-08
-7.92269e-07
8.6108e-08
-8.75431e-07
8.31393e-08
-9.55262e-07
7.98211e-08
-1.03148e-06
7.61967e-08
-1.10385e-06
7.23639e-08
-1.17231e-06
6.84406e-08
-1.23686e-06
6.4543e-08
-1.29764e-06
6.07665e-08
-1.35484e-06
5.71855e-08
-1.4087e-06
5.38494e-08
-1.4595e-06
5.0785e-08
-1.50752e-06
4.80018e-08
-1.55303e-06
4.54932e-08
-1.59629e-06
4.32464e-08
-1.63754e-06
4.12393e-08
-1.677e-06
3.94515e-08
-1.71488e-06
3.78567e-08
-1.75132e-06
3.64348e-08
-1.78649e-06
3.51604e-08
-1.82051e-06
3.40155e-08
-1.8535e-06
3.29767e-08
-1.88553e-06
3.2029e-08
-1.91669e-06
3.11519e-08
-1.94703e-06
3.0333e-08
-1.97659e-06
2.95538e-08
-2.00539e-06
2.88036e-08
-2.03346e-06
2.80664e-08
-2.0608e-06
2.73346e-08
-2.0874e-06
2.65966e-08
-2.11325e-06
2.58485e-08
-2.13834e-06
2.50826e-08
-2.16263e-06
2.42974e-08
-2.18613e-06
2.34867e-08
-2.20878e-06
2.26502e-08
-2.23057e-06
2.17839e-08
-2.25146e-06
2.08902e-08
-2.27143e-06
1.99679e-08
-2.29045e-06
1.9021e-08
-2.30851e-06
1.80483e-08
-2.32556e-06
1.7052e-08
-2.34159e-06
1.60305e-08
-2.35658e-06
1.49869e-08
-2.3705e-06
1.39201e-08
-2.38333e-06
1.28344e-08
-2.39506e-06
1.17296e-08
-2.40566e-06
1.06087e-08
-2.41513e-06
9.47337e-09
-2.42344e-06
8.32418e-09
-2.4306e-06
7.16944e-09
-2.43661e-06
6.01612e-09
-2.44146e-06
4.85697e-09
-2.4451e-06
3.6531e-09
-2.44747e-06
2.37725e-09
-2.44851e-06
1.04376e-09
-2.44826e-06
-2.42393e-10
-2.447e-06
-1.24695e-09
-2.445e-06
-1.99382e-09
-2.44227e-06
-2.71488e-09
-2.43884e-06
-3.42594e-09
-2.43467e-06
-4.16138e-09
-2.42973e-06
-4.93104e-09
-2.42399e-06
-5.74551e-09
-2.41737e-06
-6.61588e-09
-2.40982e-06
-7.55474e-09
-2.40127e-06
-8.56059e-09
-2.39168e-06
-9.59215e-09
-2.381e-06
-1.06846e-08
-2.36916e-06
-1.18513e-08
-2.35605e-06
-1.31184e-08
-2.34155e-06
-1.44995e-08
-2.32552e-06
-1.60345e-08
-2.30778e-06
-1.77256e-08
-2.28822e-06
-1.95562e-08
-2.2667e-06
-2.15058e-08
-2.24309e-06
-2.35961e-08
-2.21718e-06
-2.58908e-08
-2.18877e-06
-2.83854e-08
-2.15769e-06
-3.10674e-08
-2.12373e-06
-3.39473e-08
-2.08671e-06
-3.69949e-08
-2.04649e-06
-4.02015e-08
-2.0029e-06
-4.35421e-08
-1.95585e-06
-4.70015e-08
-1.90524e-06
-5.05487e-08
-1.85101e-06
-5.41595e-08
-1.79312e-06
-5.77981e-08
-1.7316e-06
-6.1434e-08
-1.66646e-06
-6.50336e-08
-1.59779e-06
-6.85692e-08
-1.52565e-06
-7.20195e-08
-1.45017e-06
-7.53659e-08
-1.37147e-06
-7.85976e-08
-1.28967e-06
-8.1692e-08
-1.20494e-06
-8.46423e-08
-1.11744e-06
-8.74333e-08
-1.02738e-06
-9.00728e-08
-9.34894e-07
-9.25463e-08
-8.40124e-07
-9.48738e-08
-7.43172e-07
-9.70842e-08
-6.44097e-07
-9.92216e-08
-5.42912e-07
-1.01356e-07
-4.39532e-07
-1.0357e-07
-3.33745e-07
-1.06016e-07
-2.25025e-07
-1.08995e-07
-1.12903e-07
-1.12421e-07
2.69555e-09
-1.1592e-07
1.24806e-07
-1.22404e-07
2.54656e-07
-1.30146e-07
3.89541e-07
-1.35179e-07
5.29027e-07
-1.39807e-07
6.73444e-07
-1.44749e-07
8.23227e-07
-1.50137e-07
9.785e-07
-1.55645e-07
1.13932e-06
-1.61207e-07
1.30539e-06
-1.66469e-07
1.4756e-06
-1.70587e-07
1.64847e-06
-1.73226e-07
1.82322e-06
-1.75075e-07
2.00127e-06
-1.7838e-07
2.18397e-06
-1.83068e-07
2.36077e-06
-1.77215e-07
2.49141e-06
-1.30996e-07
2.52017e-06
-2.89576e-08
2.42956e-06
9.06873e-08
2.24525e-06
1.84499e-07
2.0061e-06
2.39458e-07
1.75008e-06
2.56353e-07
1.50971e-06
2.40736e-07
1.3045e-06
2.05724e-07
1.13878e-06
1.66313e-07
1.00518e-06
1.34385e-07
8.97679e-07
1.08255e-07
8.07504e-07
9.10305e-08
7.35195e-07
7.3016e-08
6.70963e-07
6.49418e-08
6.18664e-07
5.29071e-08
4.53425e-08
5.73849e-07
5.30099e-08
-1.63987e-07
7.00969e-08
-1.0876e-07
8.87962e-08
-1.13934e-07
1.0518e-07
-8.87041e-08
1.27638e-07
-8.94286e-08
1.47435e-07
-7.42736e-08
1.66712e-07
-6.74721e-08
1.80908e-07
-5.36226e-08
1.92771e-07
-4.58996e-08
2.01986e-07
-3.77717e-08
2.1077e-07
-3.40465e-08
2.19845e-07
-3.16309e-08
2.30971e-07
-3.25181e-08
2.44958e-07
-3.49555e-08
2.62833e-07
-3.95578e-08
2.85071e-07
-4.52498e-08
3.12088e-07
-5.19676e-08
3.43983e-07
-5.8832e-08
3.80574e-07
-6.52135e-08
4.20999e-07
-6.94857e-08
4.63398e-07
-6.97332e-08
5.05454e-07
-6.38198e-08
5.43949e-07
-4.96698e-08
5.75069e-07
-2.4713e-08
5.92679e-07
1.33793e-08
5.8554e-07
6.66342e-08
5.41197e-07
1.32295e-07
4.55957e-07
1.95391e-07
3.40381e-07
2.36015e-07
2.12478e-07
2.43993e-07
8.81037e-08
2.23656e-07
-2.71945e-08
1.93282e-07
-1.40187e-07
1.77324e-07
-2.58196e-07
1.83731e-07
-3.77311e-07
1.93814e-07
-4.90181e-07
1.97748e-07
-5.97609e-07
1.99289e-07
-7.01285e-07
1.99025e-07
-7.99878e-07
1.95193e-07
-8.9205e-07
1.88247e-07
-9.77058e-07
1.79196e-07
-1.05428e-06
1.6878e-07
-1.12304e-06
1.57595e-07
-1.18298e-06
1.46042e-07
-1.23427e-06
1.34424e-07
-1.2775e-06
1.23044e-07
-1.31348e-06
1.1217e-07
-1.34312e-06
1.02003e-07
-1.36736e-06
9.26767e-08
-1.38708e-06
8.42634e-08
-1.4031e-06
7.67811e-08
-1.41613e-06
7.02086e-08
-1.42678e-06
6.44953e-08
-1.43558e-06
5.95726e-08
-1.44294e-06
5.53603e-08
-1.44923e-06
5.17715e-08
-1.4547e-06
4.87181e-08
-1.45958e-06
4.61127e-08
-1.46401e-06
4.38752e-08
-1.4681e-06
4.19326e-08
-1.47189e-06
4.02253e-08
-1.47544e-06
3.87014e-08
-1.47875e-06
3.73213e-08
-1.48183e-06
3.605e-08
-1.48466e-06
3.48613e-08
-1.48724e-06
3.37304e-08
-1.48955e-06
3.26396e-08
-1.49157e-06
3.15709e-08
-1.49328e-06
3.05131e-08
-1.49467e-06
2.94541e-08
-1.49573e-06
2.83886e-08
-1.49644e-06
2.73111e-08
-1.49682e-06
2.62232e-08
-1.49687e-06
2.51273e-08
-1.4966e-06
2.40327e-08
-1.49607e-06
2.29478e-08
-1.4953e-06
2.18827e-08
-1.49436e-06
2.08404e-08
-1.49329e-06
1.98219e-08
-1.49215e-06
1.88234e-08
-1.49098e-06
1.78455e-08
-1.48982e-06
1.68872e-08
-1.48872e-06
1.59516e-08
-1.48773e-06
1.50384e-08
-1.48689e-06
1.41508e-08
-1.48626e-06
1.32892e-08
-1.48588e-06
1.24586e-08
-1.48582e-06
1.16614e-08
-1.48611e-06
1.09045e-08
-1.48682e-06
1.0191e-08
-1.48803e-06
9.52998e-09
-1.48979e-06
8.93161e-09
-1.49217e-06
8.40353e-09
-1.49525e-06
7.94095e-09
-1.49912e-06
7.52297e-09
-1.50389e-06
7.14542e-09
-1.50966e-06
6.81082e-09
-1.51639e-06
6.48533e-09
-1.52367e-06
6.03928e-09
-1.53117e-06
5.50568e-09
-1.53878e-06
4.89656e-09
-1.54642e-06
4.21123e-09
-1.55405e-06
3.45837e-09
-1.56162e-06
2.64013e-09
-1.56913e-06
1.757e-09
-1.57655e-06
8.01392e-10
-1.58384e-06
-2.74827e-10
-1.59083e-06
-1.58013e-09
-1.59733e-06
-3.10157e-09
-1.6032e-06
-4.82432e-09
-1.60829e-06
-6.77404e-09
-1.61244e-06
-8.97403e-09
-1.61553e-06
-1.14245e-08
-1.61744e-06
-1.41228e-08
-1.61804e-06
-1.71282e-08
-1.61709e-06
-2.05118e-08
-1.61434e-06
-2.42623e-08
-1.60957e-06
-2.83595e-08
-1.60255e-06
-3.28993e-08
-1.59306e-06
-3.78701e-08
-1.58086e-06
-4.32677e-08
-1.5657e-06
-4.91006e-08
-1.54736e-06
-5.53371e-08
-1.5256e-06
-6.19499e-08
-1.50024e-06
-6.88936e-08
-1.47109e-06
-7.61227e-08
-1.43804e-06
-8.35729e-08
-1.40098e-06
-9.11856e-08
-1.35985e-06
-9.88879e-08
-1.31463e-06
-1.06613e-07
-1.26532e-06
-1.14288e-07
-1.21198e-06
-1.21854e-07
-1.15469e-06
-1.29259e-07
-1.09353e-06
-1.36471e-07
-1.02861e-06
-1.43464e-07
-9.60049e-07
-1.50208e-07
-8.87972e-07
-1.56678e-07
-8.12522e-07
-1.62864e-07
-7.33834e-07
-1.68765e-07
-6.52023e-07
-1.7439e-07
-5.67163e-07
-1.79776e-07
-4.79293e-07
-1.85003e-07
-3.88391e-07
-1.9017e-07
-2.94335e-07
-1.95466e-07
-1.96856e-07
-2.01106e-07
-9.55103e-08
-2.07437e-07
1.01621e-08
-2.14749e-07
1.20348e-07
-2.22708e-07
2.35529e-07
-2.31201e-07
3.54169e-07
-2.41158e-07
4.76187e-07
-2.52278e-07
6.04349e-07
-2.63478e-07
7.38892e-07
-2.74495e-07
8.79756e-07
-2.85787e-07
1.027e-06
-2.97564e-07
1.18072e-06
-3.09573e-07
1.34082e-06
-3.21523e-07
1.50647e-06
-3.32366e-07
1.67656e-06
-3.40912e-07
1.85022e-06
-3.47137e-07
2.02678e-06
-3.51864e-07
2.20317e-06
-3.55025e-07
2.37045e-06
-3.50598e-07
2.5135e-06
-3.20523e-07
2.61894e-06
-2.36645e-07
2.67404e-06
-8.40914e-08
2.66067e-06
1.0417e-07
2.57794e-06
2.67467e-07
2.44885e-06
3.6883e-07
2.29894e-06
4.0657e-07
2.14063e-06
3.99339e-07
1.97391e-06
3.72767e-07
1.79638e-06
3.44176e-07
1.60928e-06
3.21865e-07
1.41962e-06
2.98292e-07
1.23734e-06
2.73711e-07
1.07803e-06
2.32695e-07
9.50101e-07
1.93208e-07
8.6672e-07
1.36561e-07
9.52774e-08
8.16976e-07
-7.74527e-09
-1.56239e-07
-1.66711e-08
-9.98371e-08
-2.31335e-08
-1.07468e-07
-1.95125e-08
-9.23272e-08
-1.49218e-08
-9.40147e-08
-3.23757e-09
-8.59581e-08
8.08044e-09
-7.87844e-08
1.99414e-08
-6.54818e-08
2.80385e-08
-5.39905e-08
3.31016e-08
-4.28321e-08
3.4183e-08
-3.51219e-08
3.30437e-08
-3.04886e-08
3.02928e-08
-2.97625e-08
2.74136e-08
-3.2074e-08
2.49776e-08
-3.71192e-08
2.4042e-08
-4.4313e-08
2.52446e-08
-5.31702e-08
2.93728e-08
-6.29589e-08
3.65923e-08
-7.24354e-08
4.669e-08
-7.95778e-08
5.8976e-08
-8.20194e-08
7.23557e-08
-7.71847e-08
8.46626e-08
-6.19711e-08
9.25439e-08
-3.25834e-08
9.14254e-08
1.4499e-08
7.58778e-08
8.21725e-08
3.93756e-08
1.68784e-07
-2.32739e-08
2.58023e-07
-1.09436e-07
3.22164e-07
-2.08094e-07
3.42646e-07
-3.08353e-07
3.23911e-07
-4.07884e-07
2.92817e-07
-5.09437e-07
2.78878e-07
-6.11277e-07
2.85574e-07
-7.10442e-07
2.92977e-07
-8.03289e-07
2.90594e-07
-8.86904e-07
2.829e-07
-9.61262e-07
2.73381e-07
-1.02744e-06
2.61369e-07
-1.08595e-06
2.46755e-07
-1.13722e-06
2.30454e-07
-1.18185e-06
2.13414e-07
-1.22058e-06
1.96319e-07
-1.2542e-06
1.79661e-07
-1.28359e-06
1.63812e-07
-1.3096e-06
1.49055e-07
-1.333e-06
1.35567e-07
-1.35443e-06
1.23426e-07
-1.37438e-06
1.12629e-07
-1.39324e-06
1.03121e-07
-1.41128e-06
9.48145e-08
-1.42867e-06
8.75999e-08
-1.44554e-06
8.13605e-08
-1.46195e-06
7.59787e-08
-1.47793e-06
7.13419e-08
-1.49351e-06
6.73447e-08
-1.50869e-06
6.38916e-08
-1.52347e-06
6.0897e-08
-1.53789e-06
5.82881e-08
-1.55196e-06
5.60012e-08
-1.56572e-06
5.39827e-08
-1.57921e-06
5.21842e-08
-1.59245e-06
5.05644e-08
-1.60549e-06
4.90871e-08
-1.61836e-06
4.77246e-08
-1.63108e-06
4.64528e-08
-1.6437e-06
4.52532e-08
-1.65624e-06
4.41073e-08
-1.66872e-06
4.29988e-08
-1.68118e-06
4.19113e-08
-1.69363e-06
4.08325e-08
-1.70607e-06
3.97518e-08
-1.71851e-06
3.86634e-08
-1.73095e-06
3.7563e-08
-1.74336e-06
3.64502e-08
-1.75574e-06
3.53236e-08
-1.76804e-06
3.41844e-08
-1.78024e-06
3.30328e-08
-1.79229e-06
3.18716e-08
-1.80417e-06
3.07006e-08
-1.81584e-06
2.95203e-08
-1.82728e-06
2.83286e-08
-1.83846e-06
2.71267e-08
-1.84934e-06
2.59166e-08
-1.85989e-06
2.47034e-08
-1.87009e-06
2.3491e-08
-1.87992e-06
2.22853e-08
-1.88935e-06
2.10915e-08
-1.89836e-06
1.99166e-08
-1.90694e-06
1.87674e-08
-1.91506e-06
1.76528e-08
-1.92271e-06
1.65826e-08
-1.92988e-06
1.55662e-08
-1.93655e-06
1.46063e-08
-1.94272e-06
1.36999e-08
-1.94843e-06
1.28446e-08
-1.95364e-06
1.20237e-08
-1.95833e-06
1.11696e-08
-1.96248e-06
1.01776e-08
-1.96603e-06
9.05482e-09
-1.96897e-06
7.82945e-09
-1.97126e-06
6.49555e-09
-1.97286e-06
5.05202e-09
-1.97372e-06
3.48493e-09
-1.97375e-06
1.77712e-09
-1.97287e-06
-8.41328e-11
-1.97105e-06
-2.10041e-09
-1.96837e-06
-4.27034e-09
-1.96481e-06
-6.67811e-09
-1.96028e-06
-9.3648e-09
-1.95468e-06
-1.2379e-08
-1.94792e-06
-1.57505e-08
-1.93986e-06
-1.94971e-08
-1.93034e-06
-2.36422e-08
-1.91925e-06
-2.82295e-08
-1.90645e-06
-3.33192e-08
-1.89171e-06
-3.90023e-08
-1.87482e-06
-4.52543e-08
-1.8556e-06
-5.21215e-08
-1.83383e-06
-5.96343e-08
-1.80931e-06
-6.77874e-08
-1.78183e-06
-7.65875e-08
-1.75117e-06
-8.59978e-08
-1.71715e-06
-9.5973e-08
-1.67958e-06
-1.06456e-07
-1.63831e-06
-1.17371e-07
-1.59324e-06
-1.28632e-07
-1.54425e-06
-1.40144e-07
-1.49131e-06
-1.51809e-07
-1.43436e-06
-1.63524e-07
-1.37343e-06
-1.75184e-07
-1.30855e-06
-1.86694e-07
-1.23979e-06
-1.97982e-07
-1.16721e-06
-2.09007e-07
-1.0909e-06
-2.19734e-07
-1.01094e-06
-2.30123e-07
-9.27452e-07
-2.40132e-07
-8.40545e-07
-2.49746e-07
-7.50331e-07
-2.58971e-07
-6.56896e-07
-2.67825e-07
-5.60307e-07
-2.76373e-07
-4.60602e-07
-2.84708e-07
-3.57788e-07
-2.92984e-07
-2.51831e-07
-3.01416e-07
-1.42701e-07
-3.10236e-07
-3.04105e-08
-3.19725e-07
8.49314e-08
-3.30104e-07
2.03426e-07
-3.41219e-07
3.25559e-07
-3.53364e-07
4.51423e-07
-3.67052e-07
5.80983e-07
-3.81886e-07
7.14701e-07
-3.97246e-07
8.53108e-07
-4.12969e-07
9.96461e-07
-4.29208e-07
1.14458e-06
-4.45766e-07
1.29689e-06
-4.61971e-07
1.45209e-06
-4.76821e-07
1.60813e-06
-4.88517e-07
1.76262e-06
-4.95506e-07
1.91197e-06
-4.96591e-07
2.05058e-06
-4.90572e-07
2.17039e-06
-4.7494e-07
2.26216e-06
-4.42485e-07
2.31924e-06
-3.7771e-07
2.34251e-06
-2.59961e-07
2.33863e-06
-8.01811e-08
2.31017e-06
1.32765e-07
2.25373e-06
3.24045e-07
2.16517e-06
4.5751e-07
2.04259e-06
5.29201e-07
1.88715e-06
5.54789e-07
1.70407e-06
5.5583e-07
1.50343e-06
5.448e-07
1.2985e-06
5.2678e-07
1.10452e-06
4.92247e-07
9.35717e-07
4.42472e-07
8.03877e-07
3.64471e-07
7.14725e-07
2.82303e-07
6.75326e-07
1.75917e-07
1.03539e-07
6.6705e-07
-3.0719e-08
-1.25512e-07
-4.82432e-08
-8.2316e-08
-7.23713e-08
-8.33337e-08
-9.15394e-08
-7.31612e-08
-1.12325e-07
-7.32235e-08
-1.27933e-07
-7.03511e-08
-1.40189e-07
-6.65234e-08
-1.47224e-07
-5.84458e-08
-1.53449e-07
-4.7761e-08
-1.60668e-07
-3.56108e-08
-1.71289e-07
-2.4497e-08
-1.85884e-07
-1.58905e-08
-2.04395e-07
-1.12478e-08
-2.25639e-07
-1.08279e-08
-2.48306e-07
-1.445e-08
-2.70809e-07
-2.18087e-08
-2.91892e-07
-3.20881e-08
-3.10931e-07
-4.39194e-08
-3.28164e-07
-5.52048e-08
-3.44077e-07
-6.36614e-08
-3.59093e-07
-6.7005e-08
-3.73733e-07
-6.25345e-08
-3.89112e-07
-4.65875e-08
-4.06942e-07
-1.47425e-08
-4.29061e-07
3.66229e-08
-4.5501e-07
1.08121e-07
-4.82006e-07
1.95777e-07
-5.10423e-07
2.86432e-07
-5.45335e-07
3.57069e-07
-5.91148e-07
3.88457e-07
-6.4934e-07
3.82101e-07
-7.17586e-07
3.61067e-07
-7.87832e-07
3.49124e-07
-8.51642e-07
3.49386e-07
-9.08138e-07
3.49471e-07
-9.59242e-07
3.41698e-07
-1.00421e-06
3.27869e-07
-1.04227e-06
3.11439e-07
-1.07466e-06
2.93748e-07
-1.10317e-06
2.75264e-07
-1.12926e-06
2.5654e-07
-1.15397e-06
2.38127e-07
-1.17803e-06
2.20372e-07
-1.20179e-06
2.0342e-07
-1.22531e-06
1.87335e-07
-1.24845e-06
1.72194e-07
-1.27097e-06
1.58083e-07
-1.29262e-06
1.45075e-07
-1.3132e-06
1.33207e-07
-1.33257e-06
1.22489e-07
-1.35066e-06
1.12901e-07
-1.36746e-06
1.04402e-07
-1.38304e-06
9.69339e-08
-1.39748e-06
9.04225e-08
-1.41093e-06
8.47844e-08
-1.42351e-06
7.99271e-08
-1.43537e-06
7.57526e-08
-1.44664e-06
7.21622e-08
-1.45742e-06
6.90643e-08
-1.4678e-06
6.63818e-08
-1.47788e-06
6.40555e-08
-1.48773e-06
6.20405e-08
-1.49747e-06
6.02992e-08
-1.50718e-06
5.87943e-08
-1.51694e-06
5.74867e-08
-1.52683e-06
5.63351e-08
-1.53687e-06
5.52999e-08
-1.54711e-06
5.43451e-08
-1.55755e-06
5.34389e-08
-1.5682e-06
5.25507e-08
-1.57901e-06
5.16506e-08
-1.58998e-06
5.07121e-08
-1.60103e-06
4.97189e-08
-1.61214e-06
4.86673e-08
-1.62325e-06
4.75627e-08
-1.63434e-06
4.64124e-08
-1.64538e-06
4.52214e-08
-1.65634e-06
4.39928e-08
-1.6672e-06
4.27313e-08
-1.67794e-06
4.14409e-08
-1.68854e-06
4.01226e-08
-1.69899e-06
3.87731e-08
-1.70925e-06
3.739e-08
-1.71931e-06
3.59751e-08
-1.72914e-06
3.45348e-08
-1.73873e-06
3.30753e-08
-1.74804e-06
3.16019e-08
-1.75707e-06
3.01186e-08
-1.76578e-06
2.86308e-08
-1.77416e-06
2.71433e-08
-1.78217e-06
2.56628e-08
-1.78979e-06
2.41954e-08
-1.79697e-06
2.27453e-08
-1.80368e-06
2.13113e-08
-1.80987e-06
1.98857e-08
-1.81549e-06
1.84583e-08
-1.82048e-06
1.70131e-08
-1.82484e-06
1.55185e-08
-1.82859e-06
1.39288e-08
-1.83179e-06
1.22375e-08
-1.8344e-06
1.04384e-08
-1.83644e-06
8.52219e-09
-1.83788e-06
6.47744e-09
-1.83868e-06
4.27684e-09
-1.83881e-06
1.89726e-09
-1.83822e-06
-6.81035e-10
-1.83682e-06
-3.5194e-09
-1.8345e-06
-6.59847e-09
-1.83121e-06
-9.98226e-09
-1.82686e-06
-1.37291e-08
-1.82136e-06
-1.78851e-08
-1.81463e-06