/*--------------------------------*- C++ -*----------------------------------*\
| =========                 |                                                 |
| \\      /  F ield         | OpenFOAM: The Open Source CFD Toolbox           |
|  \\    /   O peration     | Version:  v1906                                 |
|   \\  /    A nd           | Web:      www.OpenFOAM.com                      |
|    \\/     M anipulation  |                                                 |
\*---------------------------------------------------------------------------*/
FoamFile
{
    version     2.0;
    format      ascii;
    class       volSymmTensorField;
    location    "1300";
    object      R;
}
// * * * * * * * * * * * * * * * * * * * * * * * * * * * * * * * * * * * * * //

dimensions      [0 2 -2 0 0 0 0];


internalField   nonuniform List<symmTensor> 
12225
(
(1.62918 -0.333427 0 1.36079 0 1.52752)
(1.99603 -0.597711 0 0.915075 0 1.54224)
(2.14976 -0.586214 0 0.685672 0 1.48847)
(2.16281 -0.548291 0 0.594797 0 1.42582)
(2.13002 -0.521065 0 0.549807 0 1.37024)
(2.08413 -0.501334 0 0.52182 0 1.32324)
(2.03691 -0.485876 0 0.501267 0 1.28312)
(1.99281 -0.473145 0 0.484941 0 1.24871)
(1.95168 -0.462109 0 0.471154 0 1.21833)
(1.91574 -0.45272 0 0.459635 0 1.19222)
(1.88115 -0.444012 0 0.449259 0 1.16821)
(1.85378 -0.437411 0 0.440669 0 1.14821)
(1.83186 -0.432243 0 0.433719 0 1.13208)
(1.81452 -0.427991 0 0.428012 0 1.11866)
(1.79836 -0.424097 0 0.422904 0 1.10678)
(1.78697 -0.421656 0 0.419406 0 1.0978)
(1.7736 -0.417763 0 0.414625 0 1.08783)
(1.76827 -0.418519 0 0.413954 0 1.08337)
(1.52372 -0.0379486 0 1.4601 0 1.51677)
(1.5765 -0.140429 0 1.18694 0 1.51213)
(1.5867 -0.19003 0 0.927636 0 1.45696)
(1.57201 -0.209334 0 0.773789 0 1.39906)
(1.54342 -0.218143 0 0.676216 0 1.34284)
(1.51871 -0.225212 0 0.611086 0 1.29756)
(1.49702 -0.2314 0 0.564405 0 1.25992)
(1.47752 -0.236811 0 0.52904 0 1.22736)
(1.46098 -0.241789 0 0.501445 0 1.19988)
(1.44622 -0.246037 0 0.479077 0 1.17527)
(1.43462 -0.250287 0 0.461008 0 1.15516)
(1.42349 -0.253528 0 0.445342 0 1.13561)
(1.41639 -0.257674 0 0.433242 0 1.12148)
(1.40862 -0.259918 0 0.421304 0 1.10525)
(1.40446 -0.264151 0 0.413836 0 1.09613)
(1.39949 -0.2651 0 0.403367 0 1.08185)
(1.39597 -0.269051 0 0.399675 0 1.07637)
(1.3912 -0.268402 0 0.38983 0 1.0623)
(1.51161 -0.00809838 0 1.49388 0 1.51021)
(1.5345 -0.0358563 0 1.38469 0 1.51858)
(1.54641 -0.0615022 0 1.2352 0 1.5056)
(1.54332 -0.079827 0 1.11805 0 1.48174)
(1.52916 -0.0934233 0 1.02647 0 1.45228)
(1.51227 -0.105297 0 0.953042 0 1.42298)
(1.49496 -0.115956 0 0.893234 0 1.39547)
(1.47789 -0.125566 0 0.843565 0 1.36973)
(1.46199 -0.134385 0 0.801801 0 1.34637)
(1.4471 -0.142323 0 0.766092 0 1.32469)
(1.43383 -0.149796 0 0.735459 0 1.30548)
(1.42145 -0.156359 0 0.70845 0 1.28719)
(1.41061 -0.162828 0 0.685404 0 1.2717)
(1.40108 -0.168172 0 0.663921 0 1.25606)
(1.39137 -0.173778 0 0.647149 0 1.24415)
(1.38656 -0.177997 0 0.627578 0 1.22984)
(1.37222 -0.182403 0 0.620077 0 1.22271)
(1.38633 -0.185147 0 0.590438 0 1.20659)
(1.51151 -0.00606459 0 1.49419 0 1.51108)
(1.52717 -0.0162692 0 1.42188 0 1.52171)
(1.53966 -0.0294594 0 1.31303 0 1.52312)
(1.5428 -0.0418849 0 1.21368 0 1.51508)
(1.53766 -0.0521673 0 1.12993 0 1.50079)
(1.52858 -0.0612318 0 1.05934 0 1.48385)
(1.51767 -0.0694699 0 0.999809 0 1.46618)
(1.50583 -0.0770242 0 0.949179 0 1.44846)
(1.49391 -0.0840505 0 0.905743 0 1.43139)
(1.48218 -0.0905182 0 0.868091 0 1.41497)
(1.47101 -0.0966098 0 0.83529 0 1.39965)
(1.46034 -0.102166 0 0.806307 0 1.38498)
(1.45033 -0.107481 0 0.780941 0 1.37165)
(1.4412 -0.112163 0 0.757933 0 1.3587)
(1.43208 -0.116705 0 0.738245 0 1.34739)
(1.42516 -0.120463 0 0.718813 0 1.33579)
(1.41566 -0.123942 0 0.70479 0 1.32682)
(1.41242 -0.126789 0 0.684964 0 1.31595)
(1.50986 -0.00453536 0 1.49823 0 1.50974)
(1.52087 -0.00881155 0 1.44955 0 1.51873)
(1.53211 -0.0148891 0 1.37345 0 1.52447)
(1.53777 -0.0219326 0 1.29858 0 1.52377)
(1.53764 -0.0285462 0 1.23204 0 1.51797)
(1.53393 -0.0348304 0 1.17338 0 1.50917)
(1.52808 -0.0409122 0 1.12184 0 1.49878)
(1.52086 -0.0467604 0 1.07647 0 1.48754)
(1.51294 -0.052369 0 1.03633 0 1.47602)
(1.50468 -0.057683 0 1.00065 0 1.46447)
(1.49639 -0.0627477 0 0.968834 0 1.45323)
(1.48817 -0.0674878 0 0.940251 0 1.44223)
(1.48017 -0.0719851 0 0.914605 0 1.43178)
(1.47254 -0.0760764 0 0.891295 0 1.42165)
(1.46505 -0.0798843 0 0.870411 0 1.41224)
(1.45842 -0.0832102 0 0.850857 0 1.40304)
(1.45161 -0.0860764 0 0.833955 0 1.395)
(1.44669 -0.0887328 0 0.815649 0 1.38673)
(1.50977 -0.00410848 0 1.49855 0 1.50978)
(1.51842 -0.00583287 0 1.46077 0 1.51758)
(1.5282 -0.00835786 0 1.40252 0 1.52449)
(1.53467 -0.0121484 0 1.34207 0 1.52725)
(1.5371 -0.0161909 0 1.28563 0 1.5261)
(1.53658 -0.0202877 0 1.23412 0 1.52223)
(1.53402 -0.0244362 0 1.18762 0 1.51657)
(1.52999 -0.0285601 0 1.14581 0 1.50973)
(1.525 -0.0326056 0 1.10819 0 1.5022)
(1.5194 -0.0365214 0 1.07427 0 1.49426)
(1.51347 -0.0403006 0 1.04364 0 1.4862)
(1.50735 -0.0438938 0 1.01586 0 1.47809)
(1.50118 -0.0473032 0 0.990632 0 1.47014)
(1.4951 -0.0504504 0 0.967588 0 1.46232)
(1.4891 -0.0533383 0 0.946573 0 1.45482)
(1.48347 -0.0559084 0 0.927081 0 1.44754)
(1.47791 -0.0581299 0 0.909334 0 1.44077)
(1.47303 -0.0602824 0 0.891522 0 1.43404)
(1.50946 -0.00338266 0 1.49937 0 1.50953)
(1.5163 -0.00431921 0 1.46917 0 1.51607)
(1.52445 -0.00506433 0 1.42406 0 1.5227)
(1.53069 -0.00673005 0 1.37571 0 1.52675)
(1.53415 -0.00883765 0 1.32912 0 1.52794)
(1.53532 -0.0112102 0 1.28559 0 1.52688)
(1.53473 -0.0138117 0 1.2455 0 1.52417)
(1.53278 -0.0165511 0 1.20879 0 1.52027)
(1.52987 -0.0193468 0 1.17524 0 1.51555)
(1.52626 -0.022136 0 1.14456 0 1.51028)
(1.52218 -0.0248808 0 1.11647 0 1.50467)
(1.51779 -0.0275322 0 1.09071 0 1.49886)
(1.51322 -0.0300593 0 1.06704 0 1.49298)
(1.50859 -0.032412 0 1.04522 0 1.4871)
(1.50396 -0.0345626 0 1.02507 0 1.48133)
(1.49948 -0.0364975 0 1.00631 0 1.4757)
(1.49521 -0.0381922 0 0.988854 0 1.47037)
(1.49112 -0.039888 0 0.971993 0 1.46513)
(1.50951 -0.00298481 0 1.49932 0 1.50962)
(1.51528 -0.00358735 0 1.47358 0 1.51536)
(1.52209 -0.00346533 0 1.43717 0 1.52141)
(1.52783 -0.00393187 0 1.39723 0 1.52589)
(1.53168 -0.00485268 0 1.35767 0 1.52833)
(1.53379 -0.0061097 0 1.31986 0 1.52898)
(1.53445 -0.00765248 0 1.28438 0 1.52822)
(1.53392 -0.00939074 0 1.25138 0 1.52634)
(1.53248 -0.011241 0 1.2208 0 1.52364)
(1.53034 -0.013141 0 1.19252 0 1.52032)
(1.52769 -0.0150448 0 1.16636 0 1.51657)
(1.52466 -0.0169071 0 1.14215 0 1.51253)
(1.52138 -0.0186899 0 1.1197 0 1.50829)
(1.51795 -0.0203569 0 1.09886 0 1.50396)
(1.51444 -0.0218817 0 1.07944 0 1.49962)
(1.51097 -0.0232642 0 1.06128 0 1.49533)
(1.5075 -0.0245259 0 1.04427 0 1.49114)
(1.50392 -0.0258037 0 1.02818 0 1.48702)
(1.50947 -0.00244319 0 1.49948 0 1.5096)
(1.51436 -0.00302938 0 1.47723 0 1.51462)
(1.52002 -0.00256116 0 1.4473 0 1.51997)
(1.5251 -0.00231849 0 1.4141 0 1.52437)
(1.5289 -0.00241672 0 1.38059 0 1.52732)
(1.53139 -0.00283659 0 1.34804 0 1.5289)
(1.53272 -0.00355141 0 1.31705 0 1.52929)
(1.53305 -0.00449029 0 1.28789 0 1.52871)
(1.53257 -0.00557948 0 1.26056 0 1.52737)
(1.53144 -0.00675941 0 1.23503 0 1.52542)
(1.52982 -0.00798165 0 1.2112 0 1.52303)
(1.52781 -0.00920195 0 1.18895 0 1.5203)
(1.52553 -0.0103822 0 1.16816 0 1.51734)
(1.52305 -0.0114928 0 1.1487 0 1.51422)
(1.52047 -0.0125139 0 1.13046 0 1.51104)
(1.51784 -0.0134528 0 1.1133 0 1.50783)
(1.51517 -0.0143257 0 1.09718 0 1.50468)
(1.51219 -0.0152512 0 1.08212 0 1.50153)
(1.5095 -0.00208723 0 1.49945 0 1.50964)
(1.51383 -0.0026918 0 1.4795 0 1.5142)
(1.51862 -0.00210598 0 1.45414 0 1.51895)
(1.52308 -0.00149841 0 1.42596 0 1.5231)
(1.52666 -0.00111906 0 1.39709 0 1.52624)
(1.52928 -0.00101969 0 1.36863 0 1.52832)
(1.53098 -0.00119461 0 1.34118 0 1.52946)
(1.53186 -0.00159035 0 1.31501 0 1.52976)
(1.53205 -0.0021449 0 1.29024 0 1.52938)
(1.53166 -0.00280465 0 1.26687 0 1.52845)
(1.53081 -0.00352411 0 1.24487 0 1.52708)
(1.52958 -0.0042635 0 1.22417 0 1.52536)
(1.52808 -0.00498948 0 1.20469 0 1.52339)
(1.52636 -0.00567906 0 1.18634 0 1.52124)
(1.5245 -0.00632009 0 1.16904 0 1.51897)
(1.52252 -0.00692315 0 1.15272 0 1.51663)
(1.52037 -0.00752164 0 1.13738 0 1.51426)
(1.51785 -0.00816939 0 1.12313 0 1.51187)
(1.50947 -0.00167498 0 1.49956 0 1.50961)
(1.51334 -0.00230274 0 1.4815 0 1.51377)
(1.51741 -0.00174238 0 1.45967 0 1.51798)
(1.52127 -0.000971564 0 1.43552 0 1.52179)
(1.52454 -0.000301216 0 1.41054 0 1.52488)
(1.5271 0.000160426 0 1.38564 0 1.52718)
(1.52894 0.000390843 0 1.36136 0 1.52871)
(1.53012 0.000420132 0 1.338 0 1.52956)
(1.53071 0.00029401 0 1.31568 0 1.52982)
(1.53081 5.6837e-05 0 1.29445 0 1.52958)
(1.53049 -0.000251545 0 1.27432 0 1.52893)
(1.52983 -0.000596533 0 1.25525 0 1.52796)
(1.52891 -0.000949951 0 1.23719 0 1.52674)
(1.52777 -0.00129365 0 1.22008 0 1.52532)
(1.52647 -0.00161951 0 1.20387 0 1.52376)
(1.52502 -0.00193721 0 1.18854 0 1.52211)
(1.52336 -0.00226427 0 1.17411 0 1.52041)
(1.52127 -0.00266468 0 1.16073 0 1.51864)
(1.50943 -0.00140995 0 1.49967 0 1.50958)
(1.51301 -0.00203868 0 1.48283 0 1.51349)
(1.51659 -0.0015418 0 1.46337 0 1.51731)
(1.52 -0.000735805 0 1.44204 0 1.52082)
(1.52297 5.68823e-05 0 1.41988 0 1.52379)
(1.5254 0.000699678 0 1.39762 0 1.52615)
(1.52727 0.00115224 0 1.37571 0 1.52789)
(1.52859 0.00142788 0 1.35444 0 1.52906)
(1.52943 0.00155963 0 1.33397 0 1.52971)
(1.52983 0.00158355 0 1.31436 0 1.52993)
(1.52987 0.00153346 0 1.29563 0 1.52978)
(1.5296 0.00143852 0 1.27778 0 1.52933)
(1.52908 0.00132174 0 1.26079 0 1.52863)
(1.52835 0.00119698 0 1.24463 0 1.52773)
(1.52744 0.00106876 0 1.22926 0 1.52669)
(1.52635 0.00092805 0 1.21469 0 1.52554)
(1.525 0.00075356 0 1.20097 0 1.5243)
(1.52324 0.000526304 0 1.18824 0 1.52298)
(1.50937 -0.00113629 0 1.49984 0 1.50953)
(1.51268 -0.00172691 0 1.48407 0 1.5132)
(1.51586 -0.0013067 0 1.46654 0 1.51668)
(1.51886 -0.000522161 0 1.44755 0 1.5199)
(1.52154 0.000322316 0 1.42778 0 1.52271)
(1.52381 0.00107656 0 1.40779 0 1.52504)
(1.52563 0.00168587 0 1.38798 0 1.52687)
(1.52701 0.00214795 0 1.36861 0 1.52823)
(1.52799 0.00248309 0 1.34982 0 1.52915)
(1.52859 0.00271832 0 1.33172 0 1.5297)
(1.52888 0.00288068 0 1.31433 0 1.52991)
(1.5289 0.00299385 0 1.29766 0 1.52984)
(1.52868 0.00307613 0 1.28172 0 1.52954)
(1.52826 0.00313854 0 1.2665 0 1.52905)
(1.52766 0.00318437 0 1.25198 0 1.52842)
(1.52686 0.00320922 0 1.23819 0 1.52766)
(1.5258 0.00320392 0 1.22518 0 1.5268)
(1.52432 0.00313937 0 1.2131 0 1.52585)
(1.50928 -0.000907579 0 1.50006 0 1.50944)
(1.51237 -0.00144332 0 1.48523 0 1.51291)
(1.5152 -0.00110751 0 1.46934 0 1.5161)
(1.51784 -0.000390236 0 1.45241 0 1.51904)
(1.52022 0.000438751 0 1.4348 0 1.52166)
(1.52229 0.00122983 0 1.41692 0 1.52391)
(1.52402 0.00191981 0 1.39907 0 1.52578)
(1.52541 0.00249422 0 1.38148 0 1.52726)
(1.52647 0.00296214 0 1.3643 0 1.52838)
(1.52722 0.00334172 0 1.34762 0 1.52918)
(1.52771 0.00365291 0 1.3315 0 1.52969)
(1.52796 0.00391348 0 1.31597 0 1.52995)
(1.528 0.00413697 0 1.30103 0 1.53)
(1.52784 0.00433082 0 1.28671 0 1.52987)
(1.5275 0.00449645 0 1.27302 0 1.52958)
(1.52695 0.00462912 0 1.25997 0 1.52918)
(1.52614 0.00471849 0 1.24765 0 1.52866)
(1.52498 0.00477676 0 1.23613 0 1.52805)
(1.50917 -0.000634233 0 1.50035 0 1.50933)
(1.51202 -0.00103583 0 1.48644 0 1.51258)
(1.51453 -0.000758614 0 1.47202 0 1.51549)
(1.51683 -0.00012958 0 1.45689 0 1.51816)
(1.51893 0.000640916 0 1.44123 0 1.52057)
(1.52078 0.0014217 0 1.42527 0 1.5227)
(1.52239 0.00214888 0 1.40925 0 1.52454)
(1.52373 0.0027994 0 1.39335 0 1.52607)
(1.52482 0.00337214 0 1.37771 0 1.52731)
(1.52567 0.00387609 0 1.36243 0 1.52829)
(1.52629 0.00432349 0 1.34756 0 1.52902)
(1.52671 0.00472614 0 1.33315 0 1.52953)
(1.52694 0.00509317 0 1.31924 0 1.52985)
(1.527 0.00543041 0 1.30584 0 1.53001)
(1.52687 0.00573973 0 1.29298 0 1.53002)
(1.52655 0.00601983 0 1.2807 0 1.5299)
(1.52598 0.00626628 0 1.26906 0 1.52967)
(1.52508 0.00645084 0 1.25814 0 1.52934)
(1.50903 -0.00043036 0 1.50069 0 1.5092)
(1.51167 -0.000704752 0 1.48757 0 1.51224)
(1.51393 -0.000485831 0 1.47428 0 1.51493)
(1.51597 2.41048e-05 0 1.46059 0 1.51738)
(1.51782 0.000674328 0 1.4465 0 1.5196)
(1.51948 0.00136145 0 1.43214 0 1.5216)
(1.52094 0.00202879 0 1.41767 0 1.52337)
(1.52221 0.00265079 0 1.40322 0 1.52491)
(1.52329 0.00322002 0 1.38891 0 1.52621)
(1.52417 0.00373839 0 1.37484 0 1.52729)
(1.52488 0.00421155 0 1.36108 0 1.52817)
(1.52541 0.00464556 0 1.34767 0 1.52886)
(1.52578 0.00504524 0 1.33466 0 1.52938)
(1.52598 0.00541321 0 1.32209 0 1.52974)
(1.52603 0.00575036 0 1.30997 0 1.52998)
(1.52589 0.00605737 0 1.29836 0 1.53009)
(1.52554 0.00633495 0 1.2873 0 1.53009)
(1.52493 0.00661067 0 1.27685 0 1.53)
(1.50889 -0.000162077 0 1.50104 0 1.50905)
(1.51133 -0.000199394 0 1.4886 0 1.51191)
(1.5134 4.91126e-05 0 1.47619 0 1.51442)
(1.51523 0.000488846 0 1.46356 0 1.51668)
(1.51689 0.00103831 0 1.45065 0 1.51875)
(1.51839 0.00163558 0 1.4375 0 1.52064)
(1.51973 0.0022429 0 1.42421 0 1.52233)
(1.52093 0.00284038 0 1.41089 0 1.52384)
(1.52197 0.00341925 0 1.39763 0 1.52515)
(1.52286 0.00397705 0 1.38452 0 1.52629)
(1.52359 0.00451415 0 1.37163 0 1.52725)
(1.52419 0.00503179 0 1.35903 0 1.52804)
(1.52463 0.00553064 0 1.34675 0 1.52868)
(1.52494 0.00601045 0 1.33484 0 1.52918)
(1.52509 0.00646927 0 1.32334 0 1.52956)
(1.52509 0.00690289 0 1.31227 0 1.52981)
(1.5249 0.00730468 0 1.30169 0 1.52996)
(1.52451 0.00764747 0 1.29163 0 1.53001)
(1.50877 8.5959e-08 0 1.50131 0 1.50894)
(1.51109 0.000137245 0 1.4893 0 1.51166)
(1.51306 0.0003769 0 1.47737 0 1.51407)
(1.5148 0.00069155 0 1.46531 0 1.51625)
(1.51637 0.00105763 0 1.45302 0 1.51824)
(1.51779 0.00145487 0 1.44054 0 1.52005)
(1.51907 0.00186905 0 1.42791 0 1.5217)
(1.52023 0.00229085 0 1.41523 0 1.52318)
(1.52126 0.00271426 0 1.40258 0 1.52449)
(1.52215 0.00313544 0 1.39005 0 1.52564)
(1.52291 0.00355176 0 1.37769 0 1.52664)
(1.52354 0.00396127 0 1.36557 0 1.52748)
(1.52405 0.00436249 0 1.35373 0 1.52818)
(1.52443 0.00475468 0 1.34222 0 1.52875)
(1.52468 0.00513787 0 1.33106 0 1.5292)
(1.5248 0.00551531 0 1.32029 0 1.52954)
(1.52476 0.00589105 0 1.30994 0 1.52977)
(1.52455 0.0062906 0 1.30003 0 1.52989)
(1.50879 0.000347044 0 1.50124 0 1.50896)
(1.51114 0.00086869 0 1.48913 0 1.51171)
(1.51314 0.00126153 0 1.47707 0 1.51414)
(1.51492 0.00158876 0 1.46485 0 1.51634)
(1.51651 0.00190102 0 1.45241 0 1.51835)
(1.51795 0.00223109 0 1.43977 0 1.52017)
(1.51924 0.00259697 0 1.42699 0 1.52181)
(1.52039 0.00300567 0 1.41417 0 1.52328)
(1.5214 0.00345709 0 1.40139 0 1.52458)
(1.52227 0.00394703 0 1.38873 0 1.5257)
(1.523 0.00446907 0 1.37627 0 1.52666)
(1.5236 0.00501573 0 1.36405 0 1.52747)
(1.52407 0.00557894 0 1.35212 0 1.52813)
(1.52442 0.00615018 0 1.34052 0 1.52865)
(1.52466 0.00672026 0 1.32925 0 1.52906)
(1.52479 0.00727835 0 1.31835 0 1.52936)
(1.52483 0.00781161 0 1.30783 0 1.52958)
(1.52479 0.00829532 0 1.29768 0 1.52972)
(1.50904 0.000528355 0 1.50076 0 1.50918)
(1.51172 0.0011956 0 1.48777 0 1.51221)
(1.51402 0.0015171 0 1.47468 0 1.51489)
(1.51609 0.0016508 0 1.46124 0 1.51732)
(1.51798 0.00171389 0 1.44745 0 1.51953)
(1.51969 0.00178096 0 1.43341 0 1.52152)
(1.52122 0.00189279 0 1.41927 0 1.52329)
(1.52256 0.00206574 0 1.40514 0 1.52483)
(1.52372 0.00230128 0 1.39114 0 1.52616)
(1.52469 0.00259282 0 1.37736 0 1.52727)
(1.5255 0.00292975 0 1.36386 0 1.52818)
(1.52614 0.00329978 0 1.3507 0 1.52891)
(1.52662 0.00369057 0 1.33792 0 1.52946)
(1.52696 0.0040906 0 1.32555 0 1.52986)
(1.52716 0.0044912 0 1.3136 0 1.53011)
(1.52722 0.0048879 0 1.3021 0 1.53023)
(1.52713 0.00528555 0 1.29106 0 1.53023)
(1.52688 0.00571203 0 1.2805 0 1.53009)
(1.50921 0.000893826 0 1.5003 0 1.50935)
(1.51222 0.00184623 0 1.48615 0 1.51269)
(1.51491 0.00219141 0 1.47143 0 1.51569)
(1.51739 0.0022589 0 1.45601 0 1.51844)
(1.51964 0.00225165 0 1.44006 0 1.52091)
(1.52165 0.00228032 0 1.42384 0 1.52309)
(1.52338 0.00239756 0 1.40758 0 1.52495)
(1.52485 0.00261848 0 1.39144 0 1.52651)
(1.52605 0.002938 0 1.37558 0 1.52776)
(1.527 0.00334265 0 1.36008 0 1.52874)
(1.52771 0.00381672 0 1.34501 0 1.52946)
(1.52821 0.00434544 0 1.33043 0 1.52995)
(1.52851 0.00491656 0 1.31635 0 1.53024)
(1.52863 0.00552161 0 1.3028 0 1.53033)
(1.52859 0.00615551 0 1.28978 0 1.53027)
(1.52842 0.00681672 0 1.27729 0 1.53007)
(1.52815 0.00750128 0 1.2653 0 1.52977)
(1.52785 0.00818609 0 1.25378 0 1.5294)
(1.50941 0.00115956 0 1.49989 0 1.50953)
(1.51281 0.00222139 0 1.48439 0 1.51318)
(1.51601 0.00247599 0 1.46743 0 1.51659)
(1.51905 0.00243787 0 1.44919 0 1.51974)
(1.52178 0.00235917 0 1.43026 0 1.5225)
(1.52414 0.00235713 0 1.4111 0 1.52482)
(1.5261 0.00248308 0 1.39209 0 1.52668)
(1.52765 0.00274612 0 1.37345 0 1.5281)
(1.52882 0.00313345 0 1.35533 0 1.52912)
(1.52965 0.00362491 0 1.33781 0 1.52977)
(1.53018 0.00419914 0 1.32094 0 1.53011)
(1.53045 0.00483546 0 1.30474 0 1.53018)
(1.53049 0.00551442 0 1.28921 0 1.53002)
(1.53033 0.00621709 0 1.27435 0 1.52965)
(1.53002 0.00692482 0 1.26013 0 1.52913)
(1.52957 0.00761768 0 1.24655 0 1.52846)
(1.52899 0.00828118 0 1.23359 0 1.52768)
(1.52819 0.00893084 0 1.22129 0 1.52674)
(1.50955 0.00172721 0 1.49949 0 1.50966)
(1.51349 0.00299806 0 1.48185 0 1.51379)
(1.51752 0.00325852 0 1.46116 0 1.51784)
(1.52135 0.00332882 0 1.43846 0 1.52152)
(1.52467 0.00348534 0 1.41493 0 1.52457)
(1.52737 0.00380665 0 1.39138 0 1.52694)
(1.52945 0.00431214 0 1.36826 0 1.52862)
(1.53093 0.00498341 0 1.34586 0 1.52969)
(1.53188 0.00578535 0 1.32434 0 1.53022)
(1.53236 0.0066839 0 1.30376 0 1.53028)
(1.53244 0.00765077 0 1.28414 0 1.52995)
(1.53219 0.00866285 0 1.26548 0 1.52929)
(1.53166 0.00970206 0 1.24776 0 1.52836)
(1.53088 0.0107562 0 1.23096 0 1.5272)
(1.52988 0.0118199 0 1.21503 0 1.52586)
(1.52872 0.0129 0 1.19996 0 1.52437)
(1.5274 0.0140132 0 1.18569 0 1.52275)
(1.52611 0.0151686 0 1.17213 0 1.52112)
(1.50958 0.00209672 0 1.49945 0 1.50966)
(1.51415 0.00347159 0 1.47928 0 1.51426)
(1.51923 0.00388529 0 1.45343 0 1.51902)
(1.52398 0.00430711 0 1.42477 0 1.52313)
(1.52781 0.00491617 0 1.39553 0 1.52616)
(1.53061 0.00571948 0 1.36686 0 1.52809)
(1.53245 0.00672196 0 1.33929 0 1.52904)
(1.53344 0.00790003 0 1.31306 0 1.52916)
(1.53371 0.00920987 0 1.28824 0 1.52858)
(1.5334 0.010612 0 1.26483 0 1.52746)
(1.53263 0.012076 0 1.24277 0 1.5259)
(1.53148 0.0135779 0 1.222 0 1.52401)
(1.53005 0.0150986 0 1.20244 0 1.52186)
(1.52841 0.0166227 0 1.18401 0 1.51953)
(1.52662 0.0181351 0 1.16663 0 1.51707)
(1.52475 0.0196105 0 1.15023 0 1.51453)
(1.52287 0.0210067 0 1.13471 0 1.51198)
(1.52083 0.0222747 0 1.1201 0 1.50935)
(1.50975 0.00299774 0 1.49898 0 1.5098)
(1.51562 0.00468386 0 1.47377 0 1.51543)
(1.52244 0.00580901 0 1.43879 0 1.52124)
(1.52834 0.00739774 0 1.40037 0 1.52564)
(1.53255 0.00931919 0 1.36205 0 1.52817)
(1.5351 0.0113984 0 1.32525 0 1.52904)
(1.53624 0.0135921 0 1.29051 0 1.52856)
(1.53622 0.0158664 0 1.25803 0 1.52699)
(1.53528 0.018169 0 1.2278 0 1.52459)
(1.53364 0.0204638 0 1.19972 0 1.52159)
(1.53146 0.0227311 0 1.17364 0 1.51813)
(1.52889 0.0249567 0 1.14941 0 1.51437)
(1.52604 0.0271289 0 1.12689 0 1.5104)
(1.52299 0.0292377 0 1.10593 0 1.50629)
(1.51977 0.0312729 0 1.0864 0 1.50209)
(1.51643 0.0332334 0 1.06821 0 1.49785)
(1.51289 0.0351348 0 1.05128 0 1.49354)
(1.50943 0.0370666 0 1.03554 0 1.48934)
(1.50955 0.00334816 0 1.4994 0 1.50954)
(1.51697 0.00626426 0 1.46776 0 1.51608)
(1.52589 0.00943813 0 1.41959 0 1.52245)
(1.53253 0.0131645 0 1.36892 0 1.52579)
(1.53612 0.0169876 0 1.32076 0 1.52606)
(1.53712 0.020716 0 1.27623 0 1.52398)
(1.53619 0.0244005 0 1.23543 0 1.5202)
(1.53385 0.0280745 0 1.19812 0 1.51526)
(1.53051 0.0316885 0 1.16405 0 1.50954)
(1.52649 0.0352075 0 1.13287 0 1.50334)
(1.52203 0.0386177 0 1.10429 0 1.49687)
(1.5173 0.0419115 0 1.07803 0 1.49028)
(1.51242 0.0450849 0 1.05384 0 1.48366)
(1.50749 0.0481402 0 1.03152 0 1.47711)
(1.5026 0.0510826 0 1.01087 0 1.47068)
(1.49781 0.0539215 0 0.991738 0 1.46441)
(1.49336 0.056648 0 0.973912 0 1.45843)
(1.48915 0.0590977 0 0.957382 0 1.45274)
(1.51072 0.00497821 0 1.49653 0 1.51053)
(1.52208 0.0113522 0 1.44805 0 1.51932)
(1.5342 0.0199426 0 1.37294 0 1.52521)
(1.54099 0.0285892 0 1.2983 0 1.52509)
(1.54246 0.0362734 0 1.23084 0 1.52027)
(1.54004 0.0428967 0 1.17111 0 1.51236)
(1.53508 0.0487964 0 1.11846 0 1.50258)
(1.52863 0.0542557 0 1.07203 0 1.49183)
(1.52129 0.0593138 0 1.03101 0 1.48066)
(1.5135 0.0640184 0 0.994603 0 1.46944)
(1.50554 0.0684199 0 0.962117 0 1.45837)
(1.49761 0.0725515 0 0.932989 0 1.4476)
(1.48983 0.0764341 0 0.906745 0 1.43719)
(1.48229 0.0800909 0 0.883003 0 1.42722)
(1.47499 0.0835262 0 0.861422 0 1.41765)
(1.46803 0.0867536 0 0.841762 0 1.40857)
(1.46095 0.0897205 0 0.823721 0 1.39968)
(1.45404 0.0925113 0 0.807489 0 1.39128)
(1.50986 0.00579346 0 1.49843 0 1.50915)
(1.52695 0.0254829 0 1.42427 0 1.51751)
(1.54205 0.0456314 0 1.31347 0 1.51586)
(1.54569 0.0606 0 1.21735 0 1.5043)
(1.54106 0.0722118 0 1.13752 0 1.4874)
(1.53136 0.081625 0 1.07059 0 1.46797)
(1.51923 0.0898519 0 1.01355 0 1.44778)
(1.50655 0.0974333 0 0.964532 0 1.42812)
(1.49381 0.104351 0 0.922098 0 1.40933)
(1.48138 0.110673 0 0.885033 0 1.39159)
(1.46947 0.116476 0 0.852401 0 1.37492)
(1.45823 0.12183 0 0.823472 0 1.35935)
(1.44762 0.126771 0 0.797639 0 1.34479)
(1.43776 0.131354 0 0.774471 0 1.33126)
(1.42853 0.135624 0 0.753509 0 1.31857)
(1.41995 0.139587 0 0.734619 0 1.30683)
(1.41219 0.143442 0 0.717194 0 1.29578)
(1.40586 0.146755 0 0.702023 0 1.28625)
(1.5189 0.0284585 0 1.47294 0 1.51483)
(1.5634 0.112016 0 1.26339 0 1.5187)
(1.58322 0.161042 0 1.03771 0 1.48715)
(1.57567 0.18198 0 0.887053 0 1.44363)
(1.55684 0.192591 0 0.784384 0 1.39973)
(1.53314 0.198884 0 0.71147 0 1.35826)
(1.51043 0.204117 0 0.657305 0 1.32169)
(1.49092 0.2092 0 0.61592 0 1.29073)
(1.47356 0.213996 0 0.583025 0 1.26373)
(1.45811 0.218457 0 0.556162 0 1.23993)
(1.44425 0.222557 0 0.5338 0 1.2187)
(1.43208 0.226357 0 0.514904 0 1.19986)
(1.42112 0.229848 0 0.498673 0 1.18279)
(1.41168 0.233085 0 0.484652 0 1.16764)
(1.40301 0.236083 0 0.472351 0 1.15367)
(1.3958 0.238847 0 0.461562 0 1.14136)
(1.38878 0.241475 0 0.451982 0 1.12972)
(1.38191 0.243685 0 0.443226 0 1.11892)
(1.59274 0.291964 0 1.39581 0 1.52093)
(1.91623 0.578694 0 0.968061 0 1.53309)
(2.06904 0.585626 0 0.732303 0 1.48899)
(2.10353 0.552952 0 0.628163 0 1.43529)
(2.09255 0.525586 0 0.573903 0 1.38571)
(2.06468 0.505445 0 0.540731 0 1.34256)
(2.03082 0.48995 0 0.517669 0 1.30527)
(1.99592 0.477413 0 0.500086 0 1.27294)
(1.96233 0.466892 0 0.4858 0 1.24464)
(1.93084 0.457798 0 0.473745 0 1.2196)
(1.90169 0.449781 0 0.463333 0 1.19727)
(1.87476 0.442619 0 0.454195 0 1.1772)
(1.85002 0.436174 0 0.446089 0 1.15907)
(1.82712 0.430326 0 0.438828 0 1.14258)
(1.80621 0.424991 0 0.432283 0 1.12762)
(1.78661 0.420132 0 0.426365 0 1.11382)
(1.76893 0.415578 0 0.42092 0 1.10131)
(1.75186 0.411359 0 0.416058 0 1.08952)
(0.0119615 0.00567987 0 0.0364439 0 0.0321092)
(0.0237545 -0.00176352 0 0.0434906 0 0.0524765)
(0.0443806 -0.00388972 0 0.0482184 0 0.0708944)
(0.0578847 -0.00640709 0 0.0461796 0 0.0795349)
(0.0694485 -0.0072268 0 0.0445045 0 0.08618)
(0.0782973 -0.00779786 0 0.0420874 0 0.0902619)
(0.0864265 -0.00784341 0 0.0400851 0 0.0936595)
(0.093326 -0.00773097 0 0.0380718 0 0.0960894)
(0.0996233 -0.00733976 0 0.0364035 0 0.0981818)
(0.105141 -0.00681827 0 0.0349512 0 0.0998674)
(0.110073 -0.0061739 0 0.0338231 0 0.101344)
(0.114368 -0.00549434 0 0.0329515 0 0.102603)
(0.118217 -0.00479879 0 0.0323748 0 0.10381)
(0.121628 -0.00415119 0 0.0320474 0 0.104979)
(0.124681 -0.0035939 0 0.031966 0 0.10617)
(0.12732 -0.00320511 0 0.0320798 0 0.107325)
(0.129614 -0.00304654 0 0.0323611 0 0.10846)
(0.131446 -0.00322341 0 0.0327418 0 0.109439)
(0.132805 -0.00383217 0 0.0331552 0 0.110162)
(0.13369 -0.00489121 0 0.0335236 0 0.110545)
(0.134414 -0.00689175 0 0.0337988 0 0.110487)
(0.134742 -0.0088056 0 0.0338344 0 0.110035)
(0.135712 -0.0116098 0 0.033696 0 0.109191)
(0.13652 -0.0139705 0 0.0333666 0 0.108232)
(0.137012 -0.015916 0 0.0324963 0 0.106084)
(0.134164 -0.0158672 0 0.0310881 0 0.102214)
(0.126049 -0.0145386 0 0.0288538 0 0.0949431)
(0.110927 -0.0122987 0 0.0256852 0 0.083216)
(0.0871495 -0.00981205 0 0.0214054 0 0.066071)
(0.0707967 -0.00700543 0 0.0170899 0 0.0535396)
(0.0627471 -0.00381986 0 0.0136479 0 0.0462701)
(0.0607317 -0.00117426 0 0.011641 0 0.0433113)
(0.0603491 0.000173843 0 0.0107383 0 0.0422256)
(0.0584881 0.000578854 0 0.010354 0 0.0410284)
(0.0563499 0.000801635 0 0.0104682 0 0.0404034)
(0.0570141 0.00122959 0 0.0112924 0 0.0419659)
(0.0633465 0.00228532 0 0.0129898 0 0.0470844)
(0.0730735 0.00388009 0 0.015455 0 0.0545519)
(0.0850674 0.0057555 0 0.0185056 0 0.0636717)
(0.0990371 0.00777202 0 0.0220089 0 0.0742015)
(0.1152 0.009878 0 0.0258829 0 0.0862358)
(0.134474 0.0121076 0 0.0300504 0 0.100307)
(0.154608 0.0144875 0 0.0341975 0 0.114853)
(0.173119 0.0169675 0 0.0381404 0 0.128236)
(0.190371 0.0194252 0 0.0419479 0 0.14078)
(0.206658 0.0218366 0 0.0456375 0 0.152657)
(0.222133 0.0241763 0 0.0492148 0 0.163959)
(0.236918 0.0264338 0 0.0526818 0 0.17476)
(0.251102 0.0286023 0 0.0560396 0 0.185116)
(0.264717 0.0306734 0 0.0592803 0 0.195045)
(0.277817 0.0326486 0 0.062407 0 0.204586)
(0.290442 0.034531 0 0.0654225 0 0.213768)
(0.302631 0.0363263 0 0.0683321 0 0.222619)
(0.314419 0.0380413 0 0.0711421 0 0.231168)
(0.325839 0.0396836 0 0.0738599 0 0.23944)
(0.336921 0.041261 0 0.0764937 0 0.247462)
(0.347697 0.0427812 0 0.079052 0 0.255259)
(0.358196 0.0442514 0 0.0815433 0 0.262853)
(0.368444 0.0456779 0 0.0839755 0 0.270267)
(0.378467 0.0470667 0 0.0863565 0 0.277521)
(0.388289 0.0484232 0 0.0886929 0 0.284635)
(0.397932 0.0497521 0 0.0909914 0 0.291624)
(0.407414 0.0510577 0 0.0932578 0 0.298505)
(0.416755 0.0523439 0 0.0954973 0 0.305291)
(0.42597 0.0536142 0 0.0977147 0 0.311995)
(0.435073 0.0548715 0 0.0999142 0 0.318628)
(0.444077 0.0561181 0 0.102099 0 0.325199)
(0.45299 0.0573562 0 0.104273 0 0.331716)
(0.461822 0.0585869 0 0.106438 0 0.338184)
(0.470577 0.059811 0 0.108597 0 0.344608)
(0.479259 0.0610288 0 0.11075 0 0.350992)
(0.48787 0.0622398 0 0.112897 0 0.357336)
(0.496408 0.0634433 0 0.11504 0 0.363639)
(0.504874 0.0646383 0 0.117179 0 0.369902)
(0.513262 0.0658238 0 0.119311 0 0.376121)
(0.52157 0.0669988 0 0.121439 0 0.382293)
(0.529792 0.0681623 0 0.123559 0 0.388416)
(0.537924 0.0693126 0 0.125673 0 0.394485)
(0.545961 0.0704478 0 0.12778 0 0.400499)
(0.553897 0.0715661 0 0.129879 0 0.406452)
(0.561726 0.0726655 0 0.131968 0 0.412341)
(0.569442 0.0737438 0 0.134046 0 0.418161)
(0.577039 0.0747992 0 0.136112 0 0.423907)
(0.584508 0.0758292 0 0.138165 0 0.429573)
(0.591841 0.0768314 0 0.1402 0 0.435154)
(0.599029 0.0778031 0 0.142217 0 0.440642)
(0.606056 0.0787415 0 0.14421 0 0.446027)
(0.61291 0.0796432 0 0.146175 0 0.451299)
(0.619568 0.080504 0 0.148107 0 0.456444)
(0.626004 0.0813188 0 0.149998 0 0.461445)
(0.632179 0.0820811 0 0.151838 0 0.466278)
(0.638035 0.0827828 0 0.153616 0 0.470914)
(0.643492 0.0834072 0 0.155317 0 0.475312)
(0.648435 0.0839071 0 0.156927 0 0.479426)
(0.652706 0.0841302 0 0.158427 0 0.48321)
(0.656731 0.0842201 0 0.159899 0 0.486856)
(0.660604 0.084293 0 0.161351 0 0.490382)
(0.664364 0.0843532 0 0.1628 0 0.493808)
(0.668057 0.0844442 0 0.16426 0 0.497145)
(0.671603 0.084543 0 0.165726 0 0.500377)
(0.674946 0.0846152 0 0.167183 0 0.503491)
(0.678121 0.0846603 0 0.168637 0 0.506503)
(0.681098 0.0846722 0 0.170085 0 0.509405)
(0.683882 0.0846489 0 0.171529 0 0.512203)
(0.686462 0.0845883 0 0.172973 0 0.514896)
(0.68883 0.0844877 0 0.17442 0 0.517485)
(0.690978 0.0843412 0 0.175878 0 0.519974)
(0.692891 0.084138 0 0.177351 0 0.52236)
(0.694541 0.0838638 0 0.178832 0 0.524631)
(0.695915 0.0835081 0 0.180326 0 0.526782)
(0.696978 0.0830608 0 0.181827 0 0.528792)
(0.697643 0.0825313 0 0.183314 0 0.530596)
(0.697772 0.0819658 0 0.18475 0 0.532125)
(0.697465 0.0812354 0 0.186304 0 0.533578)
(0.696965 0.0803185 0 0.187752 0 0.534725)
(0.696281 0.0794411 0 0.188969 0 0.535548)
(0.695111 0.0784689 0 0.190171 0 0.536124)
(0.692382 0.076991 0 0.192038 0 0.536802)
(0.68999 0.0755769 0 0.193424 0 0.53695)
(0.686656 0.0739944 0 0.194885 0 0.536804)
(0.682887 0.0722034 0 0.196326 0 0.536413)
(0.678561 0.0701881 0 0.197762 0 0.535777)
(0.673729 0.0679346 0 0.199185 0 0.534899)
(0.668384 0.0654313 0 0.200587 0 0.533772)
(0.662541 0.0626685 0 0.201959 0 0.532395)
(0.656218 0.0596372 0 0.203292 0 0.530766)
(0.649463 0.0563405 0 0.204569 0 0.528885)
(0.642315 0.0527801 0 0.205777 0 0.526759)
(0.634825 0.0489608 0 0.206905 0 0.5244)
(0.627058 0.0448897 0 0.207943 0 0.521827)
(0.619078 0.0405777 0 0.20888 0 0.519058)
(0.610957 0.0360392 0 0.209708 0 0.516117)
(0.602766 0.0312914 0 0.21042 0 0.513024)
(0.594568 0.0263538 0 0.211012 0 0.509803)
(0.586431 0.0212457 0 0.211482 0 0.506473)
(0.578416 0.0159871 0 0.211827 0 0.503057)
(0.570588 0.0105992 0 0.212046 0 0.499575)
(0.563004 0.0051041 0 0.21214 0 0.496047)
(0.55571 -0.000475564 0 0.212112 0 0.492487)
(0.548736 -0.00611653 0 0.211963 0 0.488903)
(0.542114 -0.0117963 0 0.211703 0 0.485302)
(0.535868 -0.0174952 0 0.211344 0 0.481694)
(0.530017 -0.0231967 0 0.210905 0 0.478084)
(0.524591 -0.0288957 0 0.210423 0 0.474494)
(0.519622 -0.0346042 0 0.209949 0 0.470947)
(0.515194 -0.0403861 0 0.209579 0 0.467513)
(0.511589 -0.046515 0 0.209525 0 0.46438)
(0.50948 -0.0527549 0 0.209979 0 0.462111)
(0.509564 -0.0608864 0 0.211196 0 0.461121)
(0.512657 -0.0696015 0 0.212433 0 0.462016)
(0.51807 -0.0779843 0 0.213492 0 0.463963)
(0.523062 -0.0833345 0 0.211451 0 0.464749)
(0.527487 -0.0867818 0 0.208698 0 0.465079)
(0.532036 -0.0902326 0 0.207036 0 0.465609)
(0.537394 -0.0939212 0 0.20595 0 0.466526)
(0.543583 -0.0976569 0 0.205124 0 0.467802)
(0.550764 -0.101376 0 0.204356 0 0.469453)
(0.558882 -0.105005 0 0.203476 0 0.471368)
(0.567927 -0.108299 0 0.20217 0 0.473459)
(0.577609 -0.111523 0 0.2007 0 0.475711)
(0.587651 -0.114411 0 0.198827 0 0.477821)
(0.598358 -0.117227 0 0.196925 0 0.480409)
(0.61286 -0.119693 0 0.194292 0 0.483254)