/*--------------------------------*- C++ -*----------------------------------*\
| =========                 |                                                 |
| \\      /  F ield         | OpenFOAM: The Open Source CFD Toolbox           |
|  \\    /   O peration     | Version:  v1906                                 |
|   \\  /    A nd           | Web:      www.OpenFOAM.com                      |
|    \\/     M anipulation  |                                                 |
\*---------------------------------------------------------------------------*/
FoamFile
{
    version     2.0;
    format      ascii;
    class       volVectorField;
    location    "1300";
    object      U;
}
// * * * * * * * * * * * * * * * * * * * * * * * * * * * * * * * * * * * * * //

dimensions      [0 1 -1 0 0 0 0];


internalField   nonuniform List<vector> 
12225
(
(9.79727 -0.108751 0)
(9.50671 -0.356758 0)
(9.26442 -0.488273 0)
(9.06604 -0.540825 0)
(8.90313 -0.559458 0)
(8.76209 -0.565138 0)
(8.63602 -0.565582 0)
(8.52285 -0.563568 0)
(8.42123 -0.56018 0)
(8.32973 -0.555991 0)
(8.24738 -0.551103 0)
(8.17205 -0.54553 0)
(8.10352 -0.539752 0)
(8.04156 -0.534048 0)
(7.98695 -0.528627 0)
(7.94083 -0.524923 0)
(7.90529 -0.517781 0)
(7.88554 -0.538387 0)
(10.0492 0.150441 0)
(10.0911 0.259744 0)
(10.0684 0.319241 0)
(10.0256 0.363316 0)
(9.98278 0.392925 0)
(9.94001 0.411564 0)
(9.89722 0.423506 0)
(9.85572 0.4313 0)
(9.81613 0.436137 0)
(9.77822 0.438877 0)
(9.74221 0.440114 0)
(9.70814 0.440291 0)
(9.67616 0.439464 0)
(9.64598 0.43788 0)
(9.61776 0.435044 0)
(9.5906 0.432117 0)
(9.56677 0.424224 0)
(9.54282 0.419147 0)
(10.0166 0.00775698 0)
(10.0499 -0.0105849 0)
(10.0415 -0.0528771 0)
(10.0182 -0.0930629 0)
(9.99674 -0.127479 0)
(9.9771 -0.15586 0)
(9.95828 -0.178191 0)
(9.94058 -0.195591 0)
(9.92402 -0.209401 0)
(9.9084 -0.220629 0)
(9.89355 -0.229792 0)
(9.87971 -0.237366 0)
(9.86674 -0.243756 0)
(9.85508 -0.249625 0)
(9.84414 -0.255131 0)
(9.83472 -0.26171 0)
(9.82618 -0.268671 0)
(9.81065 -0.285551 0)
(10.0096 0.0582906 0)
(10.039 0.0976283 0)
(10.0507 0.115007 0)
(10.0512 0.134071 0)
(10.0493 0.152939 0)
(10.0454 0.169359 0)
(10.0395 0.183337 0)
(10.0328 0.195105 0)
(10.0258 0.204846 0)
(10.0188 0.21286 0)
(10.0118 0.219498 0)
(10.0051 0.225002 0)
(9.99895 0.229451 0)
(9.99343 0.232826 0)
(9.98849 0.235119 0)
(9.98429 0.235947 0)
(9.9806 0.235179 0)
(9.97843 0.231461 0)
(10.0094 0.0199234 0)
(10.0407 0.0291153 0)
(10.0563 0.0219757 0)
(10.0606 0.0109199 0)
(10.0619 -0.00228786 0)
(10.0616 -0.01672 0)
(10.0599 -0.0307121 0)
(10.0579 -0.0435027 0)
(10.0557 -0.0550728 0)
(10.0535 -0.0655408 0)
(10.0513 -0.075017 0)
(10.0493 -0.0836674 0)
(10.0475 -0.091737 0)
(10.046 -0.0995583 0)
(10.0449 -0.107398 0)
(10.0434 -0.115959 0)
(10.0425 -0.124952 0)
(10.0354 -0.13728 0)
(10.0058 0.0332819 0)
(10.0286 0.0619923 0)
(10.0451 0.0730809 0)
(10.0549 0.081143 0)
(10.0626 0.0886749 0)
(10.0685 0.0956998 0)
(10.0727 0.102545 0)
(10.0758 0.109159 0)
(10.0783 0.115308 0)
(10.0803 0.120881 0)
(10.082 0.125874 0)
(10.0836 0.130278 0)
(10.0851 0.134045 0)
(10.0867 0.137051 0)
(10.0883 0.139241 0)
(10.0899 0.140331 0)
(10.0912 0.140399 0)
(10.094 0.13955 0)
(10.0046 0.0159958 0)
(10.0242 0.0297425 0)
(10.0401 0.0320109 0)
(10.0498 0.0301614 0)
(10.0571 0.0258461 0)
(10.0624 0.0196638 0)
(10.0664 0.0126301 0)
(10.0695 0.00536473 0)
(10.0722 -0.00189592 0)
(10.0747 -0.00903383 0)
(10.077 -0.0159854 0)
(10.0792 -0.0227702 0)
(10.0814 -0.0294781 0)
(10.0835 -0.0362813 0)
(10.0855 -0.0432772 0)
(10.087 -0.0508154 0)
(10.088 -0.058509 0)
(10.0853 -0.067847 0)
(10.0032 0.0203209 0)
(10.0185 0.0433308 0)
(10.0328 0.0542521 0)
(10.0436 0.0607064 0)
(10.053 0.0652465 0)
(10.061 0.0687771 0)
(10.0678 0.0720138 0)
(10.0738 0.0751995 0)
(10.0791 0.0782995 0)
(10.0841 0.0812481 0)
(10.0887 0.0839941 0)
(10.093 0.0864724 0)
(10.0972 0.0886063 0)
(10.1011 0.0902862 0)
(10.1049 0.0914579 0)
(10.1085 0.0920116 0)
(10.1116 0.0919742 0)
(10.1159 0.0920357 0)
(10.0019 0.0115288 0)
(10.0136 0.0247553 0)
(10.0264 0.030047 0)
(10.0365 0.0315397 0)
(10.0452 0.0306546 0)
(10.0524 0.0280674 0)
(10.0584 0.024484 0)
(10.0636 0.0203277 0)
(10.0683 0.0158055 0)
(10.0726 0.0110424 0)
(10.0766 0.00611509 0)
(10.0803 0.00104187 0)
(10.0839 -0.00419616 0)
(10.0873 -0.00966852 0)
(10.0903 -0.0153857 0)
(10.0927 -0.0214734 0)
(10.0945 -0.027646 0)
(10.0938 -0.0347993 0)
(10.0017 0.01272 0)
(10.0116 0.030683 0)
(10.023 0.0409372 0)
(10.033 0.0471555 0)
(10.0422 0.0510728 0)
(10.0505 0.0536561 0)
(10.0579 0.0556225 0)
(10.0648 0.0573224 0)
(10.0711 0.0588774 0)
(10.077 0.0603209 0)
(10.0825 0.0616486 0)
(10.0878 0.0628258 0)
(10.0928 0.0638087 0)
(10.0976 0.064538 0)
(10.102 0.064997 0)
(10.1062 0.065178 0)
(10.11 0.0651089 0)
(10.1146 0.0655425 0)
(10.0007 0.00802064 0)
(10.0076 0.0191404 0)
(10.0172 0.0249332 0)
(10.0261 0.0276203 0)
(10.0345 0.0281667 0)
(10.0421 0.0272055 0)
(10.0488 0.0252727 0)
(10.0548 0.0226916 0)
(10.0603 0.0196436 0)
(10.0654 0.0162397 0)
(10.0702 0.0125482 0)
(10.0746 0.00859872 0)
(10.0787 0.00440263 0)
(10.0825 -5.33848e-05 0)
(10.0859 -0.00474823 0)
(10.0886 -0.00972269 0)
(10.0909 -0.0147875 0)
(10.0916 -0.0205614 0)
(10.0008 0.00817077 0)
(10.0074 0.0214547 0)
(10.0162 0.0300026 0)
(10.0248 0.0355336 0)
(10.0332 0.0389823 0)
(10.0411 0.0411013 0)
(10.0484 0.0424525 0)
(10.0552 0.0433668 0)
(10.0616 0.0440191 0)
(10.0677 0.0444982 0)
(10.0734 0.0448449 0)
(10.0787 0.045067 0)
(10.0838 0.0451635 0)
(10.0886 0.0451215 0)
(10.093 0.0449625 0)
(10.0972 0.0447194 0)
(10.101 0.0444356 0)
(10.1052 0.0447715 0)
(10.0002 0.0057196 0)
(10.0046 0.01457 0)
(10.0119 0.0197825 0)
(10.0195 0.0226584 0)
(10.0272 0.0237186 0)
(10.0344 0.0234954 0)
(10.0412 0.0223828 0)
(10.0474 0.0206378 0)
(10.0532 0.0184196 0)
(10.0586 0.0158274 0)
(10.0637 0.0129232 0)
(10.0684 0.00974259 0)
(10.0727 0.00630806 0)
(10.0766 0.00263466 0)
(10.0802 -0.00125897 0)
(10.0833 -0.0053682 0)
(10.0859 -0.00961924 0)
(10.0878 -0.0145113 0)
(10.0005 0.00536958 0)
(10.005 0.0151159 0)
(10.0118 0.0221245 0)
(10.019 0.0271424 0)
(10.0265 0.0305497 0)
(10.0338 0.0328595 0)
(10.0408 0.0344635 0)
(10.0475 0.0356286 0)
(10.0538 0.0365256 0)
(10.0598 0.0372573 0)
(10.0655 0.0378853 0)
(10.0709 0.0384424 0)
(10.0759 0.0389536 0)
(10.0807 0.0394342 0)
(10.0851 0.0399224 0)
(10.0892 0.0404735 0)
(10.093 0.0410921 0)
(10.0967 0.0424033 0)
(10.0001 0.00338893 0)
(10.0028 0.00893388 0)
(10.008 0.0123099 0)
(10.0141 0.0141336 0)
(10.0207 0.0146301 0)
(10.0274 0.0141224 0)
(10.0338 0.0128552 0)
(10.0399 0.0109993 0)
(10.0458 0.00867221 0)
(10.0512 0.00595207 0)
(10.0564 0.00289047 0)
(10.0612 -0.000476106 0)
(10.0656 -0.00412476 0)
(10.0697 -0.00803097 0)
(10.0734 -0.0121862 0)
(10.0769 -0.016581 0)
(10.0799 -0.0211461 0)
(10.0828 -0.0263208 0)
(10.0002 0.00301034 0)
(10.0031 0.00888399 0)
(10.008 0.0136558 0)
(10.0137 0.0175024 0)
(10.0199 0.0205101 0)
(10.0263 0.0228987 0)
(10.0325 0.0248702 0)
(10.0386 0.0265817 0)
(10.0444 0.0281513 0)
(10.0498 0.029662 0)
(10.055 0.0311715 0)
(10.0599 0.0327189 0)
(10.0644 0.0343362 0)
(10.0685 0.0360454 0)
(10.0724 0.0378732 0)
(10.0758 0.0398592 0)
(10.0789 0.0419245 0)
(10.0815 0.0446092 0)
(10.0001 0.000990679 0)
(10.0022 0.00243773 0)
(10.0063 0.00288876 0)
(10.0115 0.00253672 0)
(10.0174 0.00144948 0)
(10.0235 -0.000262763 0)
(10.0298 -0.00250439 0)
(10.036 -0.0052071 0)
(10.042 -0.00832 0)
(10.0478 -0.0118053 0)
(10.0534 -0.0156349 0)
(10.0588 -0.0197831 0)
(10.0638 -0.0242304 0)
(10.0686 -0.0289462 0)
(10.0732 -0.0339052 0)
(10.0775 -0.0390805 0)
(10.0815 -0.0443459 0)
(10.0857 -0.0500716 0)
(10 0.000950957 0)
(10.0016 0.00301999 0)
(10.0049 0.00516244 0)
(10.0091 0.00737495 0)
(10.0139 0.0096368 0)
(10.0188 0.0119726 0)
(10.0236 0.0144158 0)
(10.0283 0.0169969 0)
(10.0327 0.0197432 0)
(10.0368 0.0226755 0)
(10.0405 0.0258077 0)
(10.0438 0.0291472 0)
(10.0468 0.0326955 0)
(10.0493 0.0364475 0)
(10.0515 0.0403776 0)
(10.0532 0.0444951 0)
(10.0548 0.0486286 0)
(10.0558 0.0532303 0)
(10.0003 -0.0019298 0)
(10.0031 -0.00593363 0)
(10.008 -0.00990558 0)
(10.0139 -0.013824 0)
(10.0205 -0.0177494 0)
(10.0277 -0.0217562 0)
(10.035 -0.025919 0)
(10.0425 -0.0302993 0)
(10.05 -0.0349397 0)
(10.0575 -0.0398654 0)
(10.0648 -0.0450877 0)
(10.072 -0.0506069 0)
(10.0791 -0.0564152 0)
(10.0859 -0.0624964 0)
(10.0925 -0.0688267 0)
(10.0989 -0.0753823 0)
(10.1048 -0.0820685 0)
(10.1105 -0.0890493 0)
(9.99985 -0.00211989 0)
(10.0009 -0.00540973 0)
(10.0038 -0.00731315 0)
(10.0075 -0.00811809 0)
(10.0115 -0.00802119 0)
(10.0156 -0.00717589 0)
(10.0193 -0.00572116 0)
(10.0226 -0.00376667 0)
(10.0255 -0.00139432 0)
(10.0279 0.0013354 0)
(10.0298 0.00438076 0)
(10.0312 0.00771652 0)
(10.0322 0.0113375 0)
(10.0327 0.0152504 0)
(10.0329 0.0194894 0)
(10.0328 0.0240893 0)
(10.0326 0.0290749 0)
(10.032 0.034712 0)
(10.0006 -0.00471665 0)
(10.005 -0.0137052 0)
(10.0115 -0.0209764 0)
(10.0187 -0.0268425 0)
(10.0263 -0.0317135 0)
(10.0341 -0.0359453 0)
(10.0418 -0.0398413 0)
(10.0495 -0.0436102 0)
(10.0569 -0.0473721 0)
(10.0642 -0.0511888 0)
(10.0714 -0.0550882 0)
(10.0783 -0.0590821 0)
(10.0852 -0.0631813 0)
(10.092 -0.0674047 0)
(10.0987 -0.0718024 0)
(10.1055 -0.0764484 0)
(10.1121 -0.0814527 0)
(10.1192 -0.0871697 0)
(9.99993 -0.00475476 0)
(10.0025 -0.0119842 0)
(10.0076 -0.016061 0)
(10.013 -0.0179021 0)
(10.0181 -0.0180513 0)
(10.0227 -0.0168609 0)
(10.0265 -0.0146723 0)
(10.0297 -0.0117697 0)
(10.0323 -0.00836294 0)
(10.0343 -0.00461131 0)
(10.0359 -0.000638231 0)
(10.037 0.00346574 0)
(10.0376 0.00764363 0)
(10.0377 0.0118716 0)
(10.0373 0.0161798 0)
(10.0361 0.020657 0)
(10.0345 0.0254818 0)
(10.0313 0.0312077 0)
(10.0012 -0.00958176 0)
(10.0087 -0.0254645 0)
(10.0184 -0.0362481 0)
(10.0277 -0.044016 0)
(10.0367 -0.0501748 0)
(10.0454 -0.0554778 0)
(10.0535 -0.0604341 0)
(10.0612 -0.0653136 0)
(10.0684 -0.070191 0)
(10.0752 -0.0750544 0)
(10.0817 -0.079866 0)
(10.0878 -0.0845821 0)
(10.0938 -0.089161 0)
(10.0997 -0.0935747 0)
(10.1056 -0.0978289 0)
(10.1121 -0.101992 0)
(10.119 -0.106262 0)
(10.1281 -0.111313 0)
(10.0009 -0.00810685 0)
(10.0083 -0.0182644 0)
(10.0179 -0.0220428 0)
(10.0252 -0.0221018 0)
(10.0309 -0.0196385 0)
(10.0353 -0.0152227 0)
(10.0384 -0.00954276 0)
(10.0408 -0.00318479 0)
(10.0425 0.00347898 0)
(10.0439 0.0102013 0)
(10.0449 0.016803 0)
(10.0456 0.0231599 0)
(10.046 0.0291869 0)
(10.046 0.0348237 0)
(10.0456 0.0400351 0)
(10.0441 0.044835 0)
(10.0417 0.0493808 0)
(10.0354 0.0544731 0)
(10.0027 -0.0199703 0)
(10.0162 -0.0449099 0)
(10.0301 -0.0584948 0)
(10.0411 -0.0683675 0)
(10.0507 -0.077345 0)
(10.0593 -0.0859605 0)
(10.0666 -0.0944751 0)
(10.0729 -0.102919 0)
(10.0784 -0.111117 0)
(10.0831 -0.118903 0)
(10.0874 -0.126192 0)
(10.0912 -0.132944 0)
(10.0947 -0.139135 0)
(10.098 -0.144741 0)
(10.1012 -0.149724 0)
(10.1051 -0.154045 0)
(10.1096 -0.157698 0)
(10.1191 -0.161247 0)
(10.0045 -0.0117422 0)
(10.0233 -0.0210148 0)
(10.037 -0.0181458 0)
(10.0429 -0.00991394 0)
(10.0456 0.00142788 0)
(10.0466 0.0147375 0)
(10.0466 0.0284908 0)
(10.0459 0.0416881 0)
(10.0451 0.0539501 0)
(10.0442 0.065168 0)
(10.0431 0.0753206 0)
(10.042 0.0844352 0)
(10.0407 0.0925634 0)
(10.0393 0.0997538 0)
(10.0378 0.106018 0)
(10.0355 0.111319 0)
(10.0325 0.115582 0)
(10.0234 0.119291 0)
(10.0057 -0.0439058 0)
(10.0279 -0.081824 0)
(10.0434 -0.101297 0)
(10.051 -0.120686 0)
(10.0557 -0.140559 0)
(10.0584 -0.15891 0)
(10.059 -0.175314 0)
(10.0581 -0.189786 0)
(10.0565 -0.2023 0)
(10.0543 -0.212974 0)
(10.0519 -0.222039 0)
(10.0492 -0.229719 0)
(10.0464 -0.236199 0)
(10.0436 -0.241633 0)
(10.0407 -0.246111 0)
(10.0383 -0.249661 0)
(10.0363 -0.252103 0)
(10.0412 -0.253176 0)
(10.0127 -0.00410236 0)
(10.0433 0.00726652 0)
(10.0436 0.0413023 0)
(10.029 0.077449 0)
(10.0138 0.110668 0)
(10.0003 0.139442 0)
(9.98756 0.163083 0)
(9.97557 0.182029 0)
(9.96447 0.197227 0)
(9.95403 0.209509 0)
(9.94407 0.219459 0)
(9.9345 0.227505 0)
(9.92528 0.233978 0)
(9.91637 0.239131 0)
(9.90783 0.243126 0)
(9.8992 0.246065 0)
(9.8911 0.24783 0)
(9.87602 0.248651 0)
(10.0321 -0.126626 0)
(10.0676 -0.225599 0)
(10.0594 -0.280268 0)
(10.0339 -0.322909 0)
(10.008 -0.353521 0)
(9.98309 -0.374043 0)
(9.95832 -0.388005 0)
(9.93442 -0.397651 0)
(9.91182 -0.404177 0)
(9.89039 -0.408343 0)
(9.86992 -0.410712 0)
(9.85031 -0.411699 0)
(9.8315 -0.411597 0)
(9.81348 -0.410633 0)
(9.79613 -0.408965 0)
(9.77982 -0.406841 0)
(9.76417 -0.404201 0)
(9.75779 -0.400585 0)
(9.86117 0.0769205 0)
(9.66242 0.274092 0)
(9.48806 0.393149 0)
(9.34013 0.447732 0)
(9.21725 0.47035 0)
(9.10926 0.479042 0)
(9.01019 0.481301 0)
(8.91857 0.480304 0)
(8.83388 0.477564 0)
(8.75545 0.4738 0)
(8.68264 0.469351 0)
(8.61501 0.464397 0)
(8.55216 0.459042 0)
(8.49369 0.453369 0)
(8.43918 0.447366 0)
(8.38805 0.441203 0)
(8.33995 0.433959 0)
(8.28888 0.426377 0)
(-0.0427849 -0.195656 -1.96684e-19)
(0.142639 -0.225893 1.20235e-19)
(0.228394 -0.228969 0)
(0.299371 -0.203266 0)
(0.359283 -0.182759 0)
(0.414407 -0.163042 -6.11758e-20)
(0.460021 -0.148411 0)
(0.4991 -0.135376 0)
(0.531631 -0.124921 0)
(0.55954 -0.115592 0)
(0.583468 -0.107508 4.8928e-20)
(0.604821 -0.0999911 0)
(0.624409 -0.0930673 0)
(0.643361 -0.0865171 0)
(0.66245 -0.0804672 0)
(0.682526 -0.0749398 4.43865e-20)
(0.704105 -0.0700786 0)
(0.72756 -0.0658336 0)
(0.752814 -0.0620433 0)
(0.779182 -0.0581765 0)
(0.805377 -0.0536714 0)
(0.828526 -0.0468924 0)
(0.844954 -0.0374371 0)
(0.850482 -0.0236511 4.21181e-20)
(0.835357 -0.00388963 -4.24905e-20)
(0.795963 0.0188985 4.34649e-20)
(0.729794 0.0410463 4.54233e-20)
(0.640916 0.057798 0)
(0.535724 0.0649998 0)
(0.423648 0.0598953 -6.14286e-20)
(0.321822 0.0432487 -7.11039e-20)
(0.241173 0.0215316 0)
(0.181601 0.00409007 0)
(0.12965 -0.00294061 -1.049e-19)
(0.0697092 0.00225199 0)
(-0.00631922 0.0167001 0)
(-0.08755 0.0259648 1.0471e-19)
(-0.17244 0.0280948 0)
(-0.259514 0.0272597 7.41145e-20)
(-0.346982 0.0237414 1.29862e-19)
(-0.433972 0.0183226 0)
(-0.518483 0.0124867 0)
(-0.599972 0.00716623 0)
(-0.679416 0.00216099 0)
(-0.756659 -0.00312589 0)
(-0.831097 -0.00895905 8.05738e-20)
(-0.902464 -0.0153507 7.66674e-20)
(-0.970509 -0.0222168 7.33283e-20)
(-1.03509 -0.0294172 0)
(-1.09617 -0.0367978 -6.79504e-20)
(-1.15384 -0.044219 0)
(-1.20822 -0.051558 6.3829e-20)
(-1.25953 -0.058722 6.21087e-20)
(-1.30799 -0.0656458 0)
(-1.35386 -0.0722909 0)
(-1.39739 -0.0786432 0)
(-1.43881 -0.0847054 5.67158e-20)
(-1.47836 -0.090497 0)
(-1.51625 -0.0960445 0)
(-1.55265 -0.101383 0)
(-1.58773 -0.106544 0)
(-1.62164 -0.111566 0)
(-1.6545 -0.11648 0)
(-1.68642 -0.121319 0)
(-1.71749 -0.126111 0)
(-1.74777 -0.130882 -4.87876e-20)
(-1.77733 -0.135655 0)
(-1.80621 -0.140449 0)
(-1.83445 -0.145277 4.66958e-20)
(-1.86205 -0.150149 4.60302e-20)
(-1.88903 -0.155069 0)
(-1.91539 -0.160039 -4.47372e-20)
(-1.94111 -0.165052 4.41071e-20)
(-1.96619 -0.170101 0)
(-1.9906 -0.175173 -4.28748e-20)
(-2.01433 -0.180258 0)
(-2.03734 -0.185342 0)
(-2.05961 -0.190418 4.1083e-20)
(-2.08111 -0.195478 0)
(-2.10182 -0.200521 -3.99173e-20)
(-2.1217 -0.205542 0)
(-2.14074 -0.210539 3.87675e-20)
(-2.1589 -0.215507 3.81965e-20)
(-2.17617 -0.220444 3.7627e-20)
(-2.19252 -0.225344 7.41163e-20)
(-2.20793 -0.230203 -7.29783e-20)
(-2.22237 -0.235013 0)
(-2.23582 -0.239767 0)
(-2.24827 -0.244454 0)
(-2.25969 -0.249063 -6.83874e-20)
(-2.27008 -0.253582 -6.72207e-20)
(-2.27942 -0.257994 6.60428e-20)
(-2.28771 -0.262291 0)
(-2.29493 -0.26649 -6.36457e-20)
(-2.30109 -0.270627 -6.24246e-20)
(-2.30613 -0.274663 -6.11893e-20)
(-2.30996 -0.278454 0)
(-2.31253 -0.281818 0)
(-2.31389 -0.284666 0)
(-2.31464 -0.287301 -5.60248e-20)
(-2.31467 -0.289803 0)
(-2.31407 -0.292168 0)
(-2.31279 -0.294404 5.18253e-20)
(-2.31083 -0.296504 0)
(-2.30812 -0.298462 0)
(-2.30464 -0.300279 4.72725e-20)
(-2.3003 -0.301965 0)
(-2.29504 -0.303558 0)
(-2.28883 -0.305113 -4.23003e-20)
(-2.28161 -0.306653 -4.05357e-20)
(-2.2733 -0.308185 0)
(-2.26383 -0.309714 3.68146e-20)
(-2.25312 -0.311257 0)
(-2.241 -0.312935 -3.28173e-20)
(-2.22732 -0.314749 0)
(-2.21193 -0.316576 -2.85027e-20)
(-2.19462 -0.31852 -2.61998e-20)
(-2.17543 -0.32069 0)
(-2.15412 -0.32295 0)
(-2.13038 -0.325363 0)
(-2.10416 -0.327927 0)
(-2.07517 -0.330656 0)
(-2.04326 -0.333553 0)
(-2.00824 -0.336628 0)
(-1.96995 -0.33989 -2.87644e-21)
(-1.92826 -0.343346 -8.87821e-22)
(-1.88305 -0.347001 0)
(-1.83423 -0.350858 0)
(-1.78174 -0.35492 0)
(-1.72556 -0.359189 0)
(-1.6657 -0.363668 -4.78667e-20)
(-1.60217 -0.368357 0)
(-1.53506 -0.373263 7.12372e-20)
(-1.46444 -0.378391 -8.42457e-20)
(-1.3904 -0.383756 0)
(-1.31306 -0.389371 0)
(-1.23254 -0.395263 0)
(-1.14899 -0.401459 1.47445e-19)
(-1.06259 -0.408001 1.66736e-19)
(-0.973485 -0.41493 0)
(-0.881808 -0.422312 2.10974e-19)
(-0.787662 -0.430226 2.36574e-19)
(-0.691123 -0.438779 -2.651e-19)
(-0.59222 -0.448093 0)
(-0.490888 -0.458324 0)
(-0.386933 -0.469639 -3.75942e-19)
(-0.280025 -0.482025 0)
(-0.170035 -0.49478 0)
(-0.0567278 -0.504079 0)
(0.0623736 -0.498587 0)
(0.190649 -0.483658 5.09266e-19)
(0.324467 -0.466735 4.73041e-19)
(0.463596 -0.450288 0)
(0.608037 -0.435395 4.11803e-19)
(0.758198 -0.421943 0)
(0.914362 -0.409432 0)
(1.0768 -0.397587 3.35863e-19)
(1.24539 -0.386274 0)
(1.41934 -0.375187 2.92027e-19)
(1.59771 -0.363856 0)
(1.77881 -0.351411 0)
(1.96166 -0.338495 2.34163e-19)
(2.15072 -0.327287 0)
(2.34349 -0.31992 1.99318e-19)
(2.51838 -0.306792 0)
(2.6228 -0.270949 0)
(2.59277 -0.210793 0)
(2.44638 -0.151499 -1.81157e-19)
(2.22109 -0.10379 0)
(1.9567 -0.0714817 2.05261e-19)
(1.69208 -0.0613461 0)
(1.4579 -0.0760681 0)
(1.26864 -0.111192 0)
(1.11601 -0.156988 0)
(0.994987 -0.209673 0)
(0.891682 -0.264588 0)
(0.814127 -0.320918 0)
(0.731302 -0.369425 -7.08586e-19)
(0.700901 -0.414328 0)
(0.590544 -0.451509 0)
(-0.185292 -0.278403 4.00259e-19)
(0.125555 -0.183197 -2.15286e-19)
(0.0426123 -0.173571 0)
(0.100392 -0.111937 6.44911e-20)
(0.0955132 -0.104386 0)
(0.127085 -0.0729205 2.32525e-20)
(0.137709 -0.0593079 -4.23273e-20)
(0.156989 -0.0371706 -3.9e-20)
(0.165849 -0.0250912 0)
(0.176544 -0.0125917 -3.42868e-20)
(0.183395 -0.00722077 -1.62231e-20)
(0.191708 -0.0038957 0)
(0.200118 -0.00571473 0)
(0.211456 -0.00991546 0)
(0.225415 -0.0175665 0)
(0.243442 -0.0267791 -1.41375e-20)
(0.265393 -0.0372533 0)
(0.291886 -0.0473023 2.8243e-20)
(0.322628 -0.0558349 0)
(0.357527 -0.0607328 0)
(0.395085 -0.0595332 -2.99961e-20)
(0.433717 -0.0490987 0)
(0.470679 -0.0264223 3.22197e-20)
(0.502356 0.0117534 -1.65538e-20)
(0.526891 0.0655674 1.68958e-20)
(0.535337 0.130341 -1.69031e-20)
(0.515581 0.197688 -1.68449e-20)
(0.457601 0.252769 0)
(0.363869 0.281308 0)
(0.249254 0.277198 1.73803e-20)
(0.132138 0.24577 -1.84316e-20)
(0.0242517 0.20377 0)
(-0.0753217 0.177757 0)
(-0.178197 0.183249 1.74461e-20)
(-0.286993 0.196744 0)
(-0.392915 0.206102 0)
(-0.491519 0.214841 -1.47885e-20)
(-0.587319 0.220881 0)
(-0.679389 0.222333 1.40495e-20)
(-0.766188 0.220819 -2.67913e-20)
(-0.846884 0.217401 0)
(-0.920909 0.212621 0)
(-0.987639 0.20711 -5.24518e-20)
(-1.04652 0.201156 -5.22232e-20)
(-1.09745 0.194825 -5.20212e-20)
(-1.14081 0.188279 2.61611e-20)
(-1.17723 0.18176 -2.55164e-20)
(-1.20754 0.17551 -7.66183e-20)
(-1.23256 0.169727 5.0913e-20)
(-1.25312 0.164554 2.50556e-20)
(-1.27 0.160073 0)
(-1.28389 0.156317 -2.4699e-20)
(-1.29538 0.153274 2.4926e-20)
(-1.30499 0.1509 0)
(-1.31314 0.149135 0)
(-1.32018 0.147906 0)
(-1.32639 0.147146 -2.37899e-20)
(-1.33199 0.14679 0)
(-1.33713 0.146784 4.72714e-20)
(-1.34194 0.147084 0)
(-1.34648 0.147653 4.66052e-20)
(-1.35079 0.14846 0)
(-1.3549 0.149479 -4.59628e-20)
(-1.3588 0.150686 0)
(-1.36251 0.152063 4.5337e-20)
(-1.366 0.153592 -2.27157e-20)
(-1.36926 0.15526 0)
(-1.37227 0.157047 -4.44135e-20)
(-1.37502 0.158941 -2.18445e-20)
(-1.3775 0.160921 -2.16877e-20)
(-1.37968 0.162974 0)
(-1.38156 0.165082 -2.18045e-20)
(-1.38313 0.167231 -2.12101e-20)
(-1.38441 0.169403 0)
(-1.38539 0.171582 2.08819e-20)
(-1.38611 0.173745 -4.18861e-20)
(-1.38661 0.175878 0)
(-1.38693 0.177962 -2.03666e-20)
(-1.38712 0.179993 0)
(-1.38722 0.181968 6.0495e-20)
(-1.38729 0.183889 0)
(-1.38736 0.185752 -5.93557e-20)
(-1.38746 0.187558 -1.94159e-20)
(-1.38766 0.189303 1.97278e-20)
(-1.38799 0.190989 3.90424e-20)
(-1.3885 0.192614 -3.86145e-20)
(-1.38923 0.19418 0)
(-1.39024 0.195682 0)
(-1.39157 0.197122 0)
(-1.39328 0.198493 1.07916e-19)
(-1.39542 0.199793 3.50556e-20)
(-1.39807 0.201026 -3.45016e-20)
(-1.4013 0.202192 0)
(-1.40515 0.203278 -3.45592e-20)
(-1.40972 0.20424 3.2724e-20)
(-1.41511 0.20503 3.20956e-20)
(-1.4214 0.205609 0)
(-1.42865 0.206005 0)
(-1.43689 0.206297 0)
(-1.44528 0.206627 2.94019e-20)
(-1.4539 0.206824 0)
(-1.46259 0.206866 -5.73157e-20)
(-1.47131 0.206722 -8.30048e-20)
(-1.48003 0.206371 5.42849e-20)
(-1.48872 0.205791 0)
(-1.49737 0.204955 2.63094e-20)
(-1.50596 0.20382 0)
(-1.51442 0.202406 4.7606e-20)
(-1.52249 0.200841 -2.37278e-20)
(-1.53007 0.199114 -2.28076e-20)
(-1.537 0.197204 0)
(-1.54313 0.195098 -5.9037e-20)
(-1.54831 0.192833 3.78751e-20)
(-1.55245 0.190444 1.69257e-20)
(-1.55547 0.187846 0)
(-1.55711 0.184976 1.46163e-20)
(-1.55712 0.181956 4.21939e-20)
(-1.55535 0.178803 0)
(-1.55151 0.175357 2.37247e-20)
(-1.54539 0.171686 2.10312e-20)
(-1.53677 0.167807 1.82099e-20)
(-1.52539 0.163724 0)
(-1.51102 0.159476 0)
(-1.49342 0.155088 0)
(-1.47236 0.150597 -3.98579e-21)
(-1.44766 0.146034 4.03535e-22)
(-1.41916 0.141442 0)
(-1.38672 0.136859 5.95914e-21)
(-1.35026 0.13233 1.01304e-20)
(-1.30972 0.127891 0)
(-1.26507 0.12358 2.20661e-20)
(-1.21634 0.119422 4.76544e-20)
(-1.16355 0.115435 -3.19508e-20)
(-1.10679 0.111626 -3.07242e-20)
(-1.04613 0.107994 0)
(-0.981669 0.104546 0)
(-0.9135 0.101279 0)
(-0.841749 0.0981893 -6.02099e-20)
(-0.766539 0.0952574 5.92552e-20)
(-0.68798 0.0924653 1.3861e-19)
(-0.606151 0.0897649 -7.97582e-20)
(-0.521093 0.0870831 7.90645e-20)
(-0.432804 0.0843284 9.4127e-20)
(-0.341221 0.0813498 0)
(-0.246119 0.0779586 0)
(-0.1471 0.0738144 -1.10052e-19)
(-0.0437014 0.0682859 0)
(0.0644596 0.0611359 0)
(0.178126 0.0536199 2.61883e-19)
(0.296125 0.0481891 0)
(0.417323 0.0442655 1.30355e-19)
(0.544202 0.0394238 -1.39247e-19)
(0.677934 0.0343685 0)
(0.81849 0.029238 1.31655e-19)
(0.965966 0.0238908 0)
(1.12039 0.0183743 0)
(1.28207 0.0127006 -1.33962e-19)
(1.45059 0.00728528 2.54828e-19)
(1.62465 0.0028732 -1.26748e-19)
(1.80334 -0.000881458 0)
(1.98616 -0.00525099 0)
(2.1719 -0.0111552 1.0574e-19)
(2.35605 -0.0158737 0)
(2.52375 -0.00774423 9.39145e-20)
(2.65639 0.0294396 0)
(2.74905 0.095281 0)
(2.78349 0.164319 0)
(2.73519 0.218638 7.97816e-20)
(2.622 0.247669 0)
(2.47538 0.251708 -7.82773e-20)
(2.31747 0.240243 0)
(2.15211 0.22628 0)
(1.97667 0.218528 1.6166e-19)
(1.78762 0.220208 -1.69604e-19)
(1.59209 0.228347 0)
(1.394 0.240917 0)
(1.21579 0.250365 0)
(1.05865 0.258786 6.64746e-19)
(0.955711 0.258898 0)
(0.878236 0.256861 -5.14969e-19)
(-0.295315 -0.324911 -5.49109e-22)
(0.111319 -0.206139 2.30803e-19)
(-0.0837853 -0.233664 0)
(0.022662 -0.200911 -9.28088e-20)
(-0.0434183 -0.208782 0)
(0.00886775 -0.185329 0)
(-0.0094522 -0.172532 -1.00599e-22)
(0.0207474 -0.144325 2.65152e-20)
(0.0169303 -0.12751 2.47251e-20)
(0.0316125 -0.110721 2.32298e-20)
(0.028289 -0.101945 0)
(0.0320316 -0.0961182 0)
(0.0272859 -0.0963249 -2.05828e-20)
(0.026462 -0.0995608 -3.99436e-20)
(0.0226392 -0.106439 3.8899e-20)
(0.0218134 -0.115319 0)
(0.0212058 -0.126057 3.73314e-20)
(0.0238279 -0.137471 -1.84139e-20)
(0.0286737 -0.14848 0)
(0.0366567 -0.155965 3.65224e-20)
(0.046729 -0.156256 1.84073e-20)
(0.0586047 -0.145936 -3.74493e-20)
(0.0706309 -0.121715 -1.91858e-20)
(0.0805268 -0.0790512 0)
(0.0847636 -0.0124372 4.1143e-20)
(0.0785247 0.0869496 4.20108e-20)
(0.057201 0.218191 0)
(0.0142713 0.35049 4.32983e-20)
(-0.0543338 0.43868 0)
(-0.14109 0.460052 4.24445e-20)
(-0.233009 0.424498 2.04633e-20)
(-0.322538 0.371294 0)
(-0.412818 0.346341 0)
(-0.505056 0.356447 0)
(-0.596478 0.368662 0)
(-0.684403 0.366576 0)
(-0.764698 0.358449 0)
(-0.836095 0.34826 3.30935e-20)
(-0.899847 0.333065 -4.81358e-20)
(-0.956651 0.312639 0)
(-1.00671 0.288761 0)
(-1.05053 0.262956 0)
(-1.08871 0.236287 -3.87854e-22)
(-1.12193 0.209599 2.97582e-20)
(-1.15096 0.183628 5.93983e-20)
(-1.1766 0.158964 -5.8943e-20)
(-1.19958 0.136007 -2.93706e-20)
(-1.22055 0.114974 2.88871e-20)
(-1.24002 0.0959426 2.12993e-22)
(-1.25838 0.0788908 2.86007e-20)
(-1.27592 0.0637249 0)
(-1.29284 0.0503101 2.8069e-20)
(-1.30927 0.0384896 1.63746e-22)
(-1.32529 0.0281 0)
(-1.34094 0.018977 0)
(-1.35625 0.0109557 -2.70545e-20)
(-1.37121 0.00387208 0)
(-1.38583 -0.00243648 0)
(-1.40014 -0.00812255 2.65239e-20)
(-1.41414 -0.0133254 5.2326e-20)
(-1.42787 -0.0181617 -2.58061e-20)
(-1.44136 -0.0227289 0)
(-1.45463 -0.027102 2.54077e-20)
(-1.46774 -0.0313429 0)
(-1.48069 -0.0354998 2.5345e-20)
(-1.49353 -0.0396151 2.48345e-20)
(-1.50627 -0.0437197 -4.96271e-20)
(-1.51896 -0.0478397 -2.47994e-20)
(-1.53163 -0.05199 0)
(-1.54428 -0.0561816 4.85269e-20)
(-1.55694 -0.0604158 0)
(-1.56963 -0.0646898 7.15036e-20)
(-1.58234 -0.0689896 4.74193e-20)
(-1.59509 -0.0732946 4.70454e-20)
(-1.60785 -0.0775709 -4.66681e-20)
(-1.62062 -0.0817799 6.92357e-20)
(-1.63337 -0.0858824 0)
(-1.64607 -0.0898552 0)
(-1.65867 -0.0936897 -4.51149e-20)
(-1.67117 -0.0973902 -6.6861e-20)
(-1.68351 -0.100959 0)
(-1.69569 -0.104397 2.17284e-20)
(-1.70767 -0.107699 0)
(-1.71941 -0.110865 -6.43121e-20)
(-1.7309 -0.113892 4.48757e-22)
(-1.7421 -0.116781 -4.5592e-22)
(-1.75299 -0.119528 4.16454e-20)
(-1.76355 -0.122128 0)
(-1.77376 -0.124573 -4.06632e-20)
(-1.7836 -0.126857 4.86656e-22)
(-1.79305 -0.12897 0)
(-1.8021 -0.130898 0)
(-1.81072 -0.13263 0)
(-1.81891 -0.134158 3.74399e-20)
(-1.82666 -0.135476 0)
(-1.83399 -0.136566 0)
(-1.84089 -0.137435 0)
(-1.84735 -0.138187 0)
(-1.85332 -0.138996 0)
(-1.85879 -0.139863 3.42219e-20)
(-1.8637 -0.140688 0)
(-1.86805 -0.14145 3.21725e-20)
(-1.87178 -0.142116 3.14069e-20)
(-1.87486 -0.142663 -3.06129e-20)
(-1.87722 -0.143066 0)
(-1.87878 -0.143307 -2.89336e-20)
(-1.87943 -0.143399 0)
(-1.87925 -0.143534 -2.71063e-20)
(-1.87828 -0.1438 2.61363e-20)
(-1.87643 -0.144181 7.68458e-20)
(-1.87364 -0.144701 0)
(-1.86979 -0.145395 7.04648e-20)
(-1.86475 -0.146287 2.33921e-20)
(-1.85841 -0.147351 0)
(-1.85061 -0.148578 4.04376e-20)
(-1.84125 -0.15007 3.788e-20)
(-1.83012 -0.151899 -5.19675e-20)
(-1.81702 -0.153989 0)
(-1.80173 -0.156371 -1.3861e-20)
(-1.78406 -0.159072 -1.23002e-20)
(-1.76381 -0.162098 -3.37774e-20)
(-1.74076 -0.165453 0)
(-1.71469 -0.169115 0)
(-1.68538 -0.173058 0)
(-1.65266 -0.177244 -5.11757e-21)
(-1.61633 -0.18163 0)
(-1.57627 -0.186164 0)
(-1.53235 -0.190794 -3.48539e-21)
(-1.48447 -0.195461 -5.9195e-21)
(-1.43258 -0.20011 0)
(-1.37666 -0.204683 0)
(-1.3167 -0.209129 -2.77245e-20)
(-1.25275 -0.213404 0)
(-1.18486 -0.217479 3.93359e-20)
(-1.11307 -0.221326 4.31637e-20)
(-1.03746 -0.22492 0)
(-0.958114 -0.22824 0)
(-0.875118 -0.231275 -6.2391e-20)
(-0.788578 -0.234023 -2.4031e-21)
(-0.698572 -0.236484 -2.44248e-21)
(-0.605161 -0.23868 0)
(-0.508378 -0.240649 -1.83222e-19)
(-0.408233 -0.242442 0)
(-0.304694 -0.244161 0)
(-0.197691 -0.245925 0)
(-0.0871994 -0.247886 1.24405e-19)
(0.026733 -0.250296 0)
(0.144049 -0.253371 -2.66993e-19)
(0.265134 -0.257582 -1.40872e-19)
(0.390378 -0.263393 0)
(0.519663 -0.26981 -1.48326e-19)
(0.653303 -0.275915 0)
(0.791835 -0.281951 0)
(0.935827 -0.288283 -4.61183e-19)
(1.08528 -0.294949 3.07717e-19)
(1.23989 -0.301713 0)
(1.39892 -0.308237 3.05473e-19)
(1.56045 -0.31375 -1.52591e-19)
(1.7223 -0.317621 0)
(1.88171 -0.319491 0)
(2.03421 -0.31925 0)
(2.17262 -0.316068 -3.9381e-19)
(2.28759 -0.306128 0)
(2.36904 -0.280009 -1.17384e-19)
(2.41228 -0.22269 0)
(2.42443 -0.123764 0)
(2.41387 -0.00287841 0)
(2.37635 0.0988616 0)
(2.30616 0.160982 0)
(2.20015 0.184648 0)
(2.05807 0.181446 -1.82815e-19)
(1.88252 0.165655 0)
(1.68222 0.145902 -9.86299e-20)
(1.46824 0.125966 3.06511e-19)
(1.25876 0.100886 0)
(1.06451 0.0723212 0)
(0.909215 0.032368 -2.39576e-19)
(0.787126 -0.0053766 -2.56552e-19)
(0.728206 -0.0512454 2.68602e-19)
(0.701879 -0.0827889 2.93923e-19)
(-0.330282 -0.267729 -6.70449e-19)
(0.0784868 -0.173654 -3.00515e-19)
(-0.105914 -0.172467 -1.07756e-19)
(-0.0411391 -0.145816 -3.82876e-20)
(-0.108726 -0.141757 0)
(-0.0968599 -0.132343 5.18131e-20)
(-0.126824 -0.117353 -2.31045e-20)
(-0.124515 -0.095621 0)
(-0.135966 -0.0701725 -1.97329e-20)
(-0.137662 -0.0459048 0)
(-0.147774 -0.0266897 3.59687e-20)
(-0.157455 -0.0153834 0)
(-0.17346 -0.0119276 1.67369e-20)
(-0.190918 -0.015732 3.25398e-20)
(-0.211332 -0.0251336 -3.17168e-20)
(-0.231672 -0.0394228 0)
(-0.251632 -0.0570818 -3.03836e-20)
(-0.269597 -0.07666 0)
(-0.285886 -0.095154 0)
(-0.300718 -0.109088 -2.92405e-20)
(-0.314667 -0.114693 0)
(-0.327938 -0.107464 4.13937e-23)
(-0.341295 -0.0813801 0)
(-0.355939 -0.0297557 0)
(-0.373763 0.0520882 -5.53794e-24)
(-0.396069 0.16353 -3.06757e-20)
(-0.420377 0.298996 -3.08884e-20)
(-0.444076 0.437586 -3.06815e-20)
(-0.471276 0.539569 0)
(-0.507522 0.573289 -6.10172e-20)
(-0.554947 0.545237 0)
(-0.613443 0.498963 -3.02232e-20)
(-0.678592 0.476801 0)
(-0.740324 0.480703 0)
(-0.79414 0.484279 2.79924e-20)
(-0.84299 0.473522 0)
(-0.887257 0.453481 -2.63855e-20)
(-0.925112 0.430452 4.36939e-22)
(-0.957006 0.405634 4.96247e-20)
(-0.984695 0.379173 -4.89066e-20)
(-1.00968 0.352048 0)
(-1.03306 0.325484 0)
(-1.05564 0.300358 -2.34482e-20)
(-1.07789 0.277153 0)
(-1.09999 0.256106 -2.21856e-20)
(-1.12188 0.237325 2.19133e-20)
(-1.14335 0.220822 2.16576e-20)
(-1.16417 0.20651 0)
(-1.18413 0.194234 -2.11847e-20)
(-1.20307 0.183804 -2.0965e-20)
(-1.22089 0.175011 4.18857e-20)
(-1.23755 0.167645 -2.05576e-20)
(-1.25309 0.161498 -2.03694e-20)
(-1.26757 0.156377 0)
(-1.2811 0.152106 0)
(-1.29381 0.148537 1.98618e-20)
(-1.30582 0.145552 0)
(-1.31725 0.143064 0)
(-1.32822 0.141015 -3.8846e-20)
(-1.3388 0.139365 -3.85757e-20)
(-1.34909 0.13808 0)
(-1.35916 0.137124 0)
(-1.36909 0.136461 0)
(-1.37898 0.136057 0)
(-1.3889 0.135887 -3.73196e-20)
(-1.39894 0.135932 3.73848e-20)
(-1.40913 0.136175 3.68372e-20)
(-1.41951 0.136597 7.35066e-20)
(-1.4301 0.137176 0)
(-1.44091 0.137885 3.22222e-22)
(-1.45191 0.138699 0)