/*--------------------------------*- C++ -*----------------------------------*\
| =========                 |                                                 |
| \\      /  F ield         | OpenFOAM: The Open Source CFD Toolbox           |
|  \\    /   O peration     | Version:  v1906                                 |
|   \\  /    A nd           | Web:      www.OpenFOAM.com                      |
|    \\/     M anipulation  |                                                 |
\*---------------------------------------------------------------------------*/
FoamFile
{
    version     2.0;
    format      ascii;
    class       volScalarField;
    location    "600";
    object      epsilon;
}
// * * * * * * * * * * * * * * * * * * * * * * * * * * * * * * * * * * * * * //

dimensions      [0 2 -3 0 0 0 0];


internalField   nonuniform List<scalar> 
12225
(
8534.02
8352.96
7991.42
7605.2
7244.5
6922.66
6639.48
6393.94
6175.65
5989.48
5816.57
5677.62
5566.47
5477.17
5395.87
5338.14
5268.99
5244.25
612.839
1496.61
1698.51
1689.04
1643.04
1564.94
1506.98
1460.93
1422.69
1390.11
1362.72
1338.53
1319.94
1303.59
1289.85
1278.77
1263.57
1255.07
136.092
458.852
618.692
686.91
717.294
720.652
717.55
710.199
700.245
689.675
679.66
669.642
660.575
652.034
644
637.299
629.015
624.91
58.494
196.181
292.428
349.165
383.804
402.629
412.966
418.158
419.596
419.049
417.51
414.751
411.565
408.137
404.516
401.25
396.892
395.092
35.983
104.797
162.954
203.261
231.266
250.087
262.822
271.454
277.076
280.612
282.785
283.863
284.065
283.84
283.229
282.397
280.86
280.767
26.8377
65.6337
102.216
130.424
151.686
167.443
179.138
187.867
194.347
199.131
202.674
205.252
207.05
208.289
209.09
209.569
209.676
210.214
22.3043
46.1292
70.0867
90.0241
105.967
118.522
128.392
136.18
142.33
147.189
151.043
154.099
156.504
158.394
159.871
161.021
161.847
162.887
19.7657
35.3025
51.5624
65.8846
77.8828
87.755
95.8408
102.471
107.917
112.399
116.099
119.162
121.696
123.796
125.536
126.98
128.162
129.412
18.2251
28.7917
40.1558
50.6107
59.7074
67.4548
74.0047
79.5361
84.2116
88.1704
91.5313
94.3921
96.8314
98.9151
100.699
102.229
103.55
104.845
17.2355
24.6379
32.7699
40.5144
47.4717
53.5697
58.8617
63.4394
67.3981
70.825
73.7971
76.3803
78.6302
80.5934
82.3106
83.817
85.152
86.4159
16.5719
21.8685
27.7961
33.6061
38.9719
43.7938
48.0736
51.8526
55.1838
58.1205
60.7121
63.0028
65.0309
66.8297
68.4287
69.8546
71.1384
72.3362
16.1501
20.1182
24.6285
29.1498
33.4187
37.3331
40.8714
44.0479
46.8913
49.4342
51.709
53.7458
55.5718
57.211
58.6855
60.0158
61.2254
62.3485
15.8383
18.8309
22.2849
25.8213
29.2312
32.419
35.3511
38.0252
40.4536
42.6544
44.6478
46.4535
48.0903
49.5755
50.9251
52.1547
53.2814
54.3271
15.58
17.7732
20.3483
23.0458
25.707
28.2478
30.6296
32.8391
34.8768
36.7498
38.4683
40.044
41.4884
42.813
44.0289
45.147
46.1791
47.1387
15.3747
16.9401
18.8143
20.8273
22.8637
24.8534
26.7578
28.5576
30.2451
31.8196
33.284
34.6433
35.9037
37.0718
38.1547
39.1594
40.0934
40.9651
15.2203
16.3203
17.6664
19.1525
20.6976
22.246
23.7618
25.2231
26.6176
27.9391
29.1853
30.3566
31.4551
32.4837
33.4462
34.3466
35.1894
35.9789
15.1155
15.9034
16.89
18.0103
19.2079
20.4388
21.671
22.8824
24.0581
25.1888
26.2691
27.2962
28.2693
29.189
30.0566
30.8743
31.6442
32.3684
15.0629
15.6955
16.5006
17.4332
18.4495
19.5125
20.5932
21.6697
22.7266
23.7532
24.7424
25.69
26.594
27.4533
28.2684
29.0402
29.7704
30.4611
15.079
15.7585
16.6173
17.6041
18.672
19.7825
20.9059
22.0208
23.1119
24.1691
25.1859
26.1585
27.0849
27.9645
28.7979
29.5857
30.3292
31.0292
15.1988
16.233
17.5008
18.9059
20.3739
21.8525
23.3073
24.7169
26.0686
27.3553
28.5742
29.7247
30.808
31.8263
32.7822
33.6781
34.5163
35.2979
15.4072
17.0667
19.0414
21.1513
23.2772
25.3488
27.328
29.1966
30.9481
32.5825
34.1035
35.5168
36.829
38.0469
39.177
40.2252
41.1957
42.0891
15.7671
18.5249
21.7122
24.9934
28.1791
31.1794
33.9599
36.5149
38.8523
40.9863
42.9333
44.7099
46.3322
47.8151
49.1723
50.4152
51.5525
52.5828
16.3868
21.066
26.3183
31.5136
36.362
40.7672
44.7216
48.2521
51.3983
54.2021
56.7032
58.9379
60.9384
62.7332
64.3478
65.8038
67.1186
68.2842
17.4988
25.6603
34.5308
42.8942
50.3477
56.8498
62.4808
67.3441
71.5457
75.1824
78.3375
81.082
83.4759
85.57
87.4093
89.0307
90.4721
91.7116
19.6475
34.5755
50.1052
63.8332
75.3839
84.9733
92.9195
99.4912
104.939
109.47
113.249
116.411
119.062
121.289
123.171
124.763
126.151
127.281
24.2998
53.9037
82.4119
105.381
123.267
137.151
147.964
156.312
162.794
167.847
171.779
174.835
177.198
179.004
180.403
181.443
182.302
182.845
36.4922
103.325
158.513
197.275
224.16
242.908
255.965
264.567
270.357
274.163
276.478
277.747
278.228
278.129
277.778
277.032
276.28
275.239
81.6126
262.529
372.086
433.127
466.551
484.636
492.871
493.509
492.281
489.356
485.139
480.489
475.735
470.841
466.25
461.489
457.528
453.171
390.158
975.282
1160.19
1205.54
1197.68
1174.11
1134.78
1094.98
1063.57
1037.69
1015.67
996.569
979.942
965.148
952.29
940.544
930.643
921.227
6457.22
6260.43
5992.29
5735.72
5500.28
5289.48
5101.24
4933.75
4784.88
4652.19
4533.48
4426.7
4330.5
4243.08
4164.08
4091.32
4025.75
3964.03
9.47194
15.1743
27.5851
36.1581
43.2586
49.0327
53.737
57.4276
60.4183
62.8126
64.7525
66.3081
67.5922
68.423
68.7898
68.7875
68.5454
67.9214
66.9359
65.5694
63.8772
61.7503
59.0962
55.8543
51.9114
47.2272
41.775
35.8461
29.5856
23.5673
19.8755
18.3259
18.7143
20.6982
24.0841
27.0411
28.3051
27.6507
25.427
22.9183
21.7544
22.7016
25.291
29.5106
35.8752
45.5147
56.8555
68.7572
81.2452
94.3025
107.969
122.045
136.509
151.398
166.762
182.642
199.077
216.09
233.7
251.9
270.668
289.974
309.769
330.004
350.609
371.52
392.654
413.935
435.276
456.609
477.863
499.011
520.092
541.034
561.839
582.793
603.995
625.377
646.785
667.937
688.428
707.746
725.212
740.327
749.638
754.325
755.416
749.808
737.343
715.623
681.402
646.868
612.011
578.078
545.656
515.496
488.068
463.67
442.4
424.279
409.231
397.072
387.558
380.369
375.157
371.595
369.64
369.235
369.899
370.612
371.102
371.434
371.645
371.749
371.737
371.595
371.311
370.877
370.295
369.568
368.707
367.725
366.641
365.472
364.235
362.946
361.619
360.269
358.908
357.546
356.193
354.856
353.541
352.254
350.998
349.776
348.591
347.443
346.336
345.268
344.241
343.254
342.309
341.405
340.543
339.723
338.946
338.211
337.518
336.868
336.259
335.688
335.154
334.656
334.195
333.772
333.388
333.044
332.744
332.486
332.274
332.108
331.989
331.917
331.893
331.918
331.996
332.128
332.295
332.491
332.719
332.938
333.222
333.383
333.636
333.489
333.292
331.828
327.036
298.283
29.2393
24.0859
24.5948
25.8423
27.3631
28.8516
30.1932
31.4123
32.4806
33.4165
34.199
34.8231
35.2806
35.5629
35.6653
35.6147
35.429
35.1214
34.7684
34.4137
34.1271
33.9814
33.9628
34.0892
34.7145
35.9071
37.3491
38.6954
39.8765
41.3439
43.2633
45.7915
49.0857
53.2393
58.1101
63.1797
67.6783
70.9621
72.9223
73.9874
74.7041
75.4412
76.4697
78.0456
80.3651
83.483
87.2499
91.5358
96.2734
101.401
106.873
112.152
117.495
122.915
128.384
133.877
139.377
144.885
150.348
155.721
160.988
166.137
171.161
176.059
180.837
185.508
190.101
194.662
199.273
204.061
209.24
215.153
221.891
229.095
237.047
245.812
254.524
262.986
271.015
278.428
285.036
290.617
295.057
297.716
298.635
298.113
295.655
291.222
284.362
274.754
263.215
251.453
239.481
227.756
216.595
206.261
196.919
188.651
181.486
175.393
170.307
166.136
162.765
160.094
158.045
156.563
155.596
154.963
154.344
153.656
153.03
152.477
151.959
151.444
150.909
150.343
149.739
149.094
148.408
147.683
146.921
146.126
145.304
144.46
143.598
142.723
141.84
140.953
140.067
139.183
138.306
137.437
136.579
135.734
134.902
134.086
133.285
132.501
131.734
130.985
130.254
129.541
128.846
128.169
127.51
126.87
126.248
125.644
125.058
124.491
123.941
123.41
122.897
122.402
121.923
121.46
121.014
120.584
120.17
119.772
119.391
119.025
118.677
118.344
118.028
117.727
117.43
117.17
116.892
116.69
116.434
116.262
116.008
115.834
115.57
115.364
115.078
115.212
116.09
116.764
70.2429
39.8855
35.1352
32.9422
32.7285
32.7129
33.0125
33.3766
33.8453
34.4057
34.9453
35.4289
35.8281
36.1372
36.3522
36.4901
36.6069
36.8164
37.2424
37.8691
38.7248
39.8711
41.3845
43.3456
45.8174
48.8267
52.3765
56.4794
61.0456
65.8313
70.8991
76.3488
82.1394
87.8595
92.6988
95.7904
96.8582
96.2906
94.7614
93.0151
91.6926
91.1209
91.3737
92.6201
94.7841
97.7296
101.283
105.263
109.491
113.797
118.025
122.277
126.382
130.248
133.829
137.105
140.081
142.706
145.086
147.277
149.307
151.213
153.04
154.83
156.628
158.478
160.424
162.511
164.785
167.291
170.06
173.096
176.372
179.828
183.382
186.924
190.321
193.5
196.339
198.791
200.776
202.05
202.552
202.399
201.382
199.525
196.697
192.661
187.206
180.43
172.78
164.725
156.501
148.481
140.961
134.161
128.21
123.155
118.999
115.66
113.019
110.956
109.301
107.968
106.903
106.058
105.382
104.814
104.299
103.815
103.366
102.951
102.559
102.164
101.756
101.331
100.887
100.424
99.9411
99.441
98.925
98.3955
97.8549
97.3055
96.7498
96.1901
95.6285
95.0668
94.5068
93.95
93.3977
92.851
92.3109
91.7782
91.2535
90.7374
90.2302
89.7324
89.2442
88.7657
88.2972
87.8385
87.39
86.9514
86.5229
86.1045
85.696
85.2975
84.9091
84.5311
84.1641
83.8082
83.4629
83.1279
82.8023
82.4859
82.1782
81.879
81.5881
81.3055
81.031
80.7647
80.5066
80.2566
80.0148
79.7806
79.5535
79.3365
79.1282
78.9327
78.7438
78.5666
78.3952
78.2367
78.0913
77.9648
77.9445
78.0562
78.4555
79.5482
96.3406
53.8604
45.0032
41.5298
40.1159
39.6576
39.6196
40.0119
40.4851
41.0559
41.6019
42.1308
42.6204
43.0931
43.5626
44.0676
44.6641
45.4356
46.4849
47.9358
49.8208
52.0502
54.527
57.1976
60.0751
63.2185
66.693
70.5402
74.7654
79.3209
84.0637
88.6801
92.6827
95.552
97.012
97.2768
96.7173
95.7976
95.048
94.7814
95.2677
96.6779
98.9638
102.017
105.674
109.744
114.025
118.325
122.481
126.364
129.886
132.999
135.675
137.922
139.767
141.257
142.446
143.428
144.203
144.842
145.417
145.983
146.582
147.248
148.011
148.889
149.895
151.036
152.316
153.741
155.313
157.048
158.982
161.028
162.927
164.6
165.98
167.002
167.556
167.735
167.507
166.815
165.668
164.083
162.068
159.726
157.171
153.866
149.666
144.59
138.798
132.513
125.996
119.575
113.544
108.118
103.421
99.5076
96.3964
94.0121
92.1396
90.6517
89.4525
88.4789
87.6812
87.0177
86.4515
85.9533
85.5036
85.0902
84.7036
84.3339
83.9717
83.6095
83.2433
82.8707
82.4903
82.1015
81.7043
81.2991
80.8868
80.4683
80.0448
79.6175
79.1875
78.756
78.3241
77.8929
77.4633
77.0361
76.612
76.1917
75.7756
75.3644
74.9584
74.5579
74.1633
73.7746
73.3922
73.0161
72.6465
72.2834
71.9269
71.577
71.2337
70.897
70.567
70.2437
69.9275
69.6197
69.3209
69.0311
68.7493
68.4749
68.2072
67.9455
67.6897
67.4393
67.1942
66.9542
66.7194
66.4896
66.2648
66.0452
65.8305
65.6209
65.4166
65.2184
65.0267
64.842
64.6637
64.4931
64.3296
64.1777
64.0374
63.9296
63.8939
63.945
64.1683
64.9284
137.908
69.4409
56.1841
50.9032
48.5499
47.4965
47.1327
47.3133
47.6864
48.2627
48.8582
49.5004
50.146
50.8345
51.5871
52.4566
53.4753
54.6763
56.0874
57.7613
59.7826
62.1039
64.6002
67.1937
69.8676
72.6512
75.5827
78.6679
81.8508
84.9992
87.9184
90.4029
92.3064
93.6173
94.4448
95.0142
95.588
96.4362
97.7714
99.798
102.533
105.866
109.675
113.806
118.081
122.325
126.379
130.117
133.449
136.324
138.729
140.676
142.2
143.354
144.196
144.792
145.204
145.491
145.734
145.978
146.244
146.555
146.928
147.376
147.9
148.502
149.172
149.894
150.648
151.41
152.154
152.861
153.486
153.969
154.237
154.323
154.176
153.739
153.016
152.045
150.834
149.396
147.733
145.856
143.805
141.607
139.235
136.4
132.94
128.764
123.876
118.397
112.565
106.71
101.161
96.1618
91.849
88.2651
85.3705
83.0633
81.2263
79.7648
78.5986
77.6625
76.9031
76.2768
75.7491
75.2934
74.8902
74.5238
74.1814
73.8524
73.5293
73.2066
72.8806
72.5492
72.2111
71.8658
71.5135
71.1546
70.79
70.4207
70.0478
69.6724
69.2956
68.9185
68.542
68.1669
67.794
67.424
67.0575
66.6948
66.3365
65.9829
65.6341
65.2905
64.9522
64.6193
64.2919
63.9701
63.6538
63.343
63.0378
62.7381
62.4439
62.1551
61.8717
61.5941
61.3229
61.0609
60.8083
60.5637
60.3259
60.0937
59.8665
59.6437
59.4249
59.2099
58.9984
58.7903
58.5856
58.3841
58.186
57.9912
57.7998
57.612
57.4281
57.2487
57.0743
56.9054
56.7428
56.5876
56.4421
56.3094
56.1974
56.1252
56.1247
56.1858
56.4116
57.0238
175.298
86.5709
67.8963
60.4927
57.0705
55.3905
54.6975
54.6191
54.8618
55.3824
56.0177
56.7518
57.5248
58.3519
59.2431
60.2316
61.3443
62.6054
64.0272
65.6225
67.4107
69.3569
71.4041
73.515
75.6723
77.8687
80.0932
82.3198
84.5075
86.612
88.5969
90.416
92.0828
93.6976
95.3614
97.2409
99.4662
102.118
105.199
108.681
112.515
116.578
120.733
124.843
128.778
132.429
135.717
138.588
141.022
143.022
144.612
145.832
146.732
147.365
147.79
148.06
148.227
148.34
148.44
148.557
148.726
148.962
149.274
149.662
150.118
150.618
151.134
151.632
152.075
152.419
152.605
152.646
152.491
152.135
151.607
150.986
150.143
148.994
147.541
145.804
143.822
141.658
139.301
136.756
134.106
131.456
129.067
126.535
123.608
120.061
115.729
110.624
104.982
99.1826
93.6136
88.578
84.2425
80.6485
77.7473
75.4437
73.632
72.2134
71.1014
70.2241
69.524
68.9559
68.4847
68.0841
67.7335
67.4172
67.123
66.8413
66.5654
66.2902
66.0125
65.7304
65.4426
65.1487
64.8489
64.5436
64.2336
63.9197
63.6029
63.2842
62.9644
62.6443
62.3249
62.0067
61.6904
61.3765
61.0654
60.7575
60.453
60.1523
59.8555
59.5627
59.2741
58.9897
58.7095
58.4336
58.1619
57.8944
57.6311
57.372
57.1169
56.8659
56.6191
56.377
56.1413
55.9178
55.7037
55.4959
55.2927
55.0933
54.897
54.7034
54.5121
54.323
54.1359
53.9507
53.7673
53.5857
53.4061
53.2283
53.0528
52.8795
52.709
52.5418
52.3783
52.2194
52.066
51.9198
51.7829
51.6602
51.5583
51.4961
51.4903
51.545
51.7287
52.2082
218.81
104.414
79.5834
69.6538
65.2304
62.8642
61.9574
61.6573
61.8397
62.2611
62.869
63.5719
64.3595
65.22
66.1724
67.2224
68.3744
69.6336
70.9948
72.4511
73.9902
75.5936
77.2429
78.9251
80.6341
82.3708
84.1414
85.9577
87.8383
89.8078
91.9089
94.1312
96.4752
98.9607
101.632
104.52
107.645
111.019
114.708
118.605
122.59
126.547
130.374
133.983
137.306
140.293
142.915
145.164
147.047
148.583
149.805
150.749
151.46
151.98
152.357
152.635
152.857
153.064
153.294
153.577
153.937
154.394
154.952
155.601
156.316
157.059
157.784
158.437
158.963
159.279
159.389
159.257
158.805
158.011
156.864
155.337
153.406
151.096
148.478
145.638
142.696
139.817
136.902
133.891
130.894
127.914
125.1
122.401
119.627
116.37
112.237
107.081
101.125
94.8953
88.8733
83.4399
78.8071
75.0193
72.0137
69.6763
67.8808
66.5088
65.4588
64.6494
64.0173
63.5145
63.1052
62.7625
62.4663
62.2017
61.9572
61.7244
61.4972
61.2713
61.0437
60.8125
60.5768
60.3362
60.0908
59.841
59.5874
59.3307
59.0716
58.8109
58.5493
58.2874
58.0259
57.7652
57.5057
57.2479
56.992
56.7383
56.487
56.2382
55.9922
55.7488
55.5083
55.2706
55.0356
54.8035
54.5742
54.3476
54.1237
53.9024
53.6838
53.4678
53.2547
53.0449
52.8397
52.6407
52.447
52.2573
52.0706
51.8864
51.7042
51.5237
51.3446
51.1668
50.9901
50.8145
50.6399
50.4664
50.2941
50.123
49.9535
49.7859
49.6205
49.4581
49.2994
49.1455
48.9979
48.8586
48.7314
48.6206
48.5369
48.4942
48.5066
48.5722
48.7611
49.1452
251.6
119.644
89.5693
77.5984
72.3555
69.5149
68.3703
67.9446
68.0683
68.49
69.1434
69.9204
70.7956
71.7366
72.7387
73.7966
74.9145
76.092
77.3306
78.6282
79.9807
81.3861
82.8452
84.3635
85.953
87.6338
89.4345
91.3923
93.5542
95.895
98.384
101.001
103.743
106.621
109.664
112.904
116.382
120.068
123.86
127.663
131.393
134.977
138.357
141.488
144.337
146.887
149.13
151.072
152.724
154.108
155.251
156.182
156.939
157.56
158.087
158.565
159.04
159.556
160.157
160.878
161.742
162.76
163.921
165.197
166.538
167.879
169.146
170.258
171.132
171.662
171.852
171.638
170.929
169.716
167.993
165.772
163.081
159.964
156.479
152.699
148.704
144.573
140.384
136.315
132.635
129.011
125.401
121.978
119.016
115.795
111.659
106.211
99.6034
92.4646
85.6063
79.4898
74.3681
70.2737
67.107
64.7121
62.9254
61.6004
60.6166
59.8807
59.3227
58.891
58.5485
58.2681
58.03
57.82
57.6275
57.445
57.2671
57.09
56.9112
56.7293
56.5436
56.3538
56.16
55.9627
55.7623
55.5595
55.3548
55.1489
54.9422
54.7352
54.5283
54.322
54.1164
53.9118
53.7084
53.5063
53.3057
53.1066
52.909
52.713
52.5186
52.3256
52.1342
51.9442
51.7556
51.5683
51.3822
51.1974
51.0138
50.8315
50.6505
50.4714
50.2946
50.1208
49.9495
49.7801
49.6122
49.4453
49.2792
49.1136
48.9484
48.7834
48.6186
48.4538
48.2893
48.1249
47.9608
47.7972
47.6345
47.4729
47.3131
47.1558
47.0019
46.8527
46.7102
46.5767
46.4564
46.3542
46.2809
46.2474
46.2636
46.3302
46.5041
46.7997
282.261
132.123
97.2479
83.6008
77.6804
74.4588
73.1002
72.5714
72.6579
73.1006
73.8218
74.7062
75.7155
76.8019
77.9492
79.1414
80.3718
81.6363
82.9376
84.2779
85.6632
87.1034
88.6104
90.1995
91.8897
93.703
95.6637
97.7943
100.112
102.626
105.329
108.186
111.189
114.35
117.693
121.192
124.797
128.445
132.074
135.628
139.056
142.318
145.381
148.221
150.824
153.181
155.293
157.165
158.807
160.238
161.48
162.559
163.512
164.379
165.206
166.044
166.949
167.972
169.159
170.543
172.137
173.931
175.888
177.946
180.018
182.002
183.794
185.285
186.383
186.977
187.11
186.681
185.661
184.071
181.93
179.274
176.146
172.594
168.67
164.413
159.846
155.001
149.935
144.759
139.549
134.42
129.671
125.546
121.885
118.324
113.94
107.893
100.203
91.7578
83.6405
76.5707
70.7919
66.3003
62.9298
60.4597
58.6757
57.396
56.4779
55.8148
55.3293
54.9667
54.6881
54.4663
54.282
54.1217
53.9758
53.8375
53.7023
53.567
53.4297
53.2894
53.1456
52.9983
52.8479
52.6947
52.5392
52.3821
52.2237
52.0645
51.905
51.7454
51.586
51.4271
51.2688
51.1112
50.9544
50.7984
50.6432
50.4888
50.3351
50.1822
50.0299
49.8781
49.7268
49.5758
49.4251
49.2746
49.1242
48.9738
48.8234
48.673
48.5227
48.3727
48.2233
48.0747
47.9267
47.7789
47.6311
47.483
47.3345
47.1854
47.0355
46.8848
46.7333
46.5808
46.4276
46.2736
46.119
45.9641
45.8091
45.6547
45.5013
45.3498
45.2014
45.0575
44.9202
44.7923
44.6781
44.5826
44.5157
44.4858
44.5013
44.5625
44.7119
44.9429
297.842
139.466
101.973
87.3659
80.8501
77.301
75.7868
75.1988
75.3026
75.8163
76.6554
77.6934
78.8855
80.1751
81.5376
82.948
84.3976
85.881
87.3986
88.9548
90.5623
92.2344
93.9837
95.8252
97.7762
99.8551
102.078
104.46
107.007
109.723
112.604
115.641
118.825
122.139
125.557
129.043
132.554
136.047
139.483
142.825
146.041
149.106
152
154.709
157.222
159.535
161.646
163.56
165.286
166.838
168.238
169.514
170.705
171.856
173.02
174.254
175.614
177.15
178.894
180.859
183.026
185.347
187.74
190.099
192.303
194.223
195.746
196.762
197.219
197.122
196.424
195.154
193.364
191.118
188.492
185.561
182.397
179.059
175.577
171.979
168.276
164.403
160.229
155.564
150.34
144.618
138.71
133.074
128.088
123.704
118.849
111.987
102.827
92.5865
82.7891
74.4803
67.8871
62.9245
59.3206
56.7654
54.9812
53.7455
52.8913
52.2983
51.882
51.5842
51.3647
51.1963
51.0599
50.9428
50.8363
50.7344
50.6334
50.5309
50.4254
50.3164
50.2038
50.0881
49.9696
49.849
49.7268
49.6036
49.4797
49.3557
49.2317
49.1082
48.9851
48.8627
48.741
48.62
48.4998
48.3801
48.261
48.1424
48.0241
47.906
47.788
47.6699
47.5516
47.433
47.3138
47.1941
47.0737
46.9524
46.8302
46.7071
46.5831
46.4583
46.3328
46.2066
46.0795
45.9515
45.8223
45.6917
45.5597
45.426
45.2907
45.1536
45.0147
44.874
44.7317
44.5878
44.4425
44.2961
44.149
44.0017
43.8548
43.7093
43.5664
43.4277
43.2954
43.1723
43.0628
42.9716
42.9072
42.8759
42.8859
42.9359
43.0576
43.2329
312.344
143.043
104.232
89.0834
82.1218
78.3535
76.7557
76.1602
76.3269
76.9527
77.9501
79.1839
80.6062
82.1537
83.7985
85.5103
87.2759
89.0853
90.9398
92.8432
94.802
96.8252
98.9238
101.112
103.404
105.809
108.338
110.997
113.791
116.717
119.769
122.937
126.205
129.55
132.945
136.361
139.767
143.133
146.431
149.638
152.73
155.691
158.505
161.159
163.646
165.959
168.096
170.058
171.851
173.489
174.993
176.392
177.728
179.046
180.4
181.839
183.409
185.136
187.027
189.057
191.17
193.278
195.273
197.03
198.426
199.341
199.72
199.544
198.798
197.516
195.759
193.588
191.075
188.322
185.426
182.472
179.538
176.694
173.998
171.502
169.225
167.13
165.098
162.886
160.069
156.121
150.79
144.379
137.811
132.106
126.543
118.672
107.583
94.958
83.0238
73.1813
65.6295
60.143
56.2938
53.656
51.8764
50.6877
49.8979
49.3732
49.0227
48.7851
48.6195
48.4982
48.4029
48.3216
48.2465
48.1726
48.0969
48.0176
47.9338
47.8457
47.7535
47.658
47.56
47.4601
47.3592
47.2578
47.1563
47.0552
46.9547
46.855
46.7563
46.6585
46.5617
46.4658
46.3708
46.2765
46.1827
46.0894
45.9963
45.9033
45.8102
45.7167
45.6228
45.5282
45.4327
45.3362
45.2385
45.1396
45.0392
44.9373
44.834
44.729
44.6226
44.5145
44.4047
44.2931
44.1794
44.0637
43.9457
43.8254
43.7026
43.5774
43.4498
43.3197
43.1873
43.0526
42.916
42.7776
42.638
42.4976
42.3572
42.2176
42.0802
41.9466
41.819
41.7001
41.5941
41.5054
41.4411
41.4055
41.4073
41.4428
41.5349
41.6666
314.597
142.966
104.233
89.1591
81.9995
78.1857
76.5843
76.0378
76.318
77.0971
78.2904
79.7537
81.4404
83.2824
85.2511
87.3128
89.4533
91.6589
93.926
96.2507
98.6336
101.075
103.582
106.165
108.832
111.589
114.44
117.384
120.421
123.547
126.756
130.034
133.365
136.731
140.109
143.477
146.813
150.095
153.303
156.419
159.425
162.307
165.049
167.641
170.071
172.331
174.415
176.322
178.056
179.63
181.064
182.388
183.641
184.867
186.111
187.413
188.799
190.279
191.836
193.426
194.98
196.41
197.616
198.497
198.965
198.986
198.526
197.585
196.197
194.429
192.35
190.052
187.623
185.127
182.617
180.143
177.745
175.47
173.367
171.462
169.786
168.385
167.296
166.524
165.931
164.865
162.466
157.7
150.679
143.596
137.056
127.942
114.396
98.7172
84.1693
72.4928
63.8818
57.8544
53.7726
51.0697
49.3085
48.1754
47.4539
46.9986
46.7128
46.5332
46.418
46.3397
46.2804
46.2292
46.1795
46.127
46.0696
46.0058
45.9356
45.8595
45.7785
45.6937
45.6061
45.5168
45.4265
45.336
45.2458
45.1562
45.0676
44.9801
44.8939
44.809
44.7252
44.6427
44.5611
44.4805
44.4007
44.3213
44.2424
44.1635
44.0847
44.0055
43.9258
43.8454
43.7641
43.6817
43.5981
43.513
43.4263
43.3379
43.2477
43.1557
43.0617
42.9656
42.8674
42.7669
42.6639
42.5584
42.4502
42.3393
42.2256
42.109
41.9896
41.8673
41.7423
41.6148
41.4848
41.3528
41.2191
41.0843
40.9491
40.8143
40.6813
40.5517
40.4275
40.3114
40.2072
40.1186
40.0515
40.0094
39.9993
40.0183
40.0817
40.1756
313.076
140.954
102.931
88.208
81.0562
77.3617
75.7761
75.3158
75.755
76.7348
78.1736
79.9182
81.9243
84.118
86.4712
88.9457
91.5247
94.1884
96.9261
99.7254
102.579
105.485
108.445
111.459
114.526
117.651
120.832
124.064
127.349
130.683
134.057
137.459
140.873
144.282
147.67
151.019
154.311
157.531
160.661
163.686
166.589
169.355
171.968
174.416
176.685
178.764
180.647
182.33
183.821
185.131
186.284
187.312
188.258
189.164
190.075
191.028
192.046
193.135
194.277
195.431
196.538
197.528
198.319
198.834
199.021
198.856
198.342
197.503
196.384
195.056
193.588
192.043
190.472
188.909
187.381
185.904
184.49
183.149
181.882
180.694
179.578
178.524
177.522
176.627
176.037
175.019
174.11
171.865
166.254
158.57
150.677
139.75
123.021
103.534
85.8644
72.195
62.5083
55.9786
51.7113
48.9812
47.2644
46.2027
45.5587
45.1773
44.958
44.8363
44.7702
44.7322
44.7051
44.6799
44.6511
44.6155
44.5712
44.5176
44.4549
44.3846
44.3081
44.227
44.1428
44.0565
43.9692
43.8817
43.7945
43.7081
43.6227
43.5386
43.4558
43.3744
43.2944
43.2156
43.138
43.0615
42.9858
42.9108
42.8363
42.7621
42.6879
42.6136
42.5389
42.4637
42.3876
42.3106
42.2324
42.1528
42.0717
41.989
41.9044
41.8179
41.7294
41.6387
41.5457
41.4503
41.3523
41.2516
41.1481
41.0417
40.9324
40.8201
40.7048
40.5865
40.4654
40.3415
40.2151
40.0865
39.956
39.8242
39.6918
39.5595
39.4287
39.3008
39.1778
39.0621
38.9569
38.8656
38.7931
38.7421
38.7173
38.719
38.7537
38.8161
306.743
137.056
100.367
86.3498
79.4429
76.0285
74.5678
74.2894
74.9597
76.2099
77.9664
80.0642
82.461
85.0803
87.8938
90.8576
93.9511
97.1472
100.429
103.777
107.178
110.623
114.103
117.612
121.148
124.7
128.26
131.829
135.415
139.01
142.601
146.173
149.712
153.202
156.631
159.984
163.246
166.401
169.435
172.329
175.068
177.636
180.015
182.191
184.152
185.889
187.397
188.679
189.747
190.622
191.337
191.937
192.473
193
193.569
194.223
194.991
195.878
196.868
197.913
198.951
199.907
200.713
201.319
201.691
201.811
201.688
201.344
200.825
200.189
199.481
198.734
197.977
197.235
196.528
195.89
195.369
195.006
194.833
194.889
195.186
195.658
196.118
196.263
195.777
194.46
193.072
190.666
185.886
178.446
167.974
153.776
132.773
108.721
87.6116
71.9749
61.3179
54.397
50.032
47.3346
45.6995
44.7317
44.1782
43.8781
43.7292
43.6669
43.65
43.6503
43.6521
43.6491
43.638
43.616
43.5809
43.5325
43.4722
43.4023
43.3251
43.2427
43.1566
43.0682
42.9786
42.8886
42.7989
42.7098
42.6217
42.5348
42.4491
42.3647
42.2816
42.1997
42.119
42.0392
41.9602
41.8819
41.8041
41.7267
41.6493
41.5718
41.494
41.4158
41.3369
41.2571
41.1763
41.0944
41.011
40.9261
40.8396
40.7513
40.661
40.5686
40.474
40.3771
40.2776
40.1756
40.0708
39.9633
39.8528
39.7395
39.6232
39.504
39.3821
39.2574
39.1303
39.0009
38.8697
38.737
38.6036
38.4703
38.3382
38.2085
38.0832
37.9642
37.8545
37.7569
37.6754
37.6122
37.5715
37.5524
37.5603
37.5908
295.648
131.399
96.8434
83.8362
77.4192
74.4408
73.2694
73.3291
74.2972
75.9003
78.0637
80.6101
83.506
86.6658
90.0591
93.6343
97.3664
101.22
105.173
109.198
113.278
117.393
121.529
125.67
129.801
133.91
137.99
142.04
146.055
150.021
153.924
157.754
161.491
165.123
168.639
172.025
175.266
178.344
181.242
183.943
186.429
188.683
190.693
192.447
193.938
195.165
196.134
196.861
197.371
197.707
197.921
198.079
198.249
198.495
198.873
199.428
200.177
201.114
202.207
203.408
204.657
205.883
207.021
208.015
208.823
209.427
209.828
210.049
210.123
210.1
210.015
209.887
209.746
209.614
209.515
209.51
209.666
210.056
210.727
211.744
213.168
215.041
217.377
220.073
222.569
223.585
222.787
220.091
214.053
206.416
189.799
169.217
142.386
113.213
88.8164
71.5035
60.1276
53.018
48.6917
46.1111
44.608
43.7658
43.3234
43.1174
43.0461
43.0484
43.0838
43.1238
43.153
43.1652
43.1627
43.1493
43.1186
43.0695
43.0054
42.9295
42.8456
42.756
42.6625
42.5667
42.4698
42.3726
42.2756
42.1794
42.0841
41.9899
41.8969
41.8051
41.7144
41.6248
41.5361
41.4483
41.3611
41.2745
41.1882
41.1021
41.016
40.9298
40.8432
40.7562
40.6684
40.5799
40.4904
40.3998
40.3079
40.2147
40.12
40.0238
39.9258
39.8258
39.7237
39.6194
39.5127
39.4036
39.292
39.1777
39.0606
38.9409
38.8184
38.6931
38.5652
38.4348
38.302
38.167
38.0303
37.8922
37.7533
37.6144
37.4765
37.3406
37.2086
37.082
36.9636
36.8555
36.7611
36.6823
36.6226
36.5815
36.5615
36.5609
280.124
124.64
92.6501
80.8941
75.1619
72.79
72.0639
72.6336
74.0601
76.1791
78.9206
82.1091
85.709
89.6235
93.8222
98.2411
102.853
107.612
112.492
117.457
122.484
127.544
132.614
137.668
142.687
147.65
152.548
157.366
162.076
166.649
171.079
175.345
179.43
183.329
187.03
190.512
193.755
196.74
199.448
201.863
203.969
205.756
207.22
208.359
209.183
209.708
209.959
209.975
209.813
209.541
209.237
208.981
208.846
208.9
209.2
209.784
210.659
211.805
213.18
214.722
216.356
218.002
219.586
221.047
222.346
223.467
224.416
225.221
225.915
226.534
227.11
227.67
228.242
228.863
229.58
230.461
231.575
232.983
234.732
236.866
239.425
242.425
245.868
249.797
254.136
258.281
261.356
260.537
252.575
241.212
214.318
183.922
149.652
115.798
88.8687
70.3285
58.7019
51.7253
47.6338
45.2875
43.9872
43.3101
42.9993
42.8989
42.9149
42.9872
43.0713
43.1442
43.1943
43.2163
43.217
43.2041
43.1696
43.1113
43.0353
42.9458
42.8481
42.7446
42.6375
42.5285
42.4187
42.309
42.1999
42.0919
41.9851
41.8797
41.7755
41.6725
41.5707
41.47
41.3701
41.2709
41.1724
41.0742
40.9763
40.8784
40.7804
40.6821
40.5834
40.4841
40.384
40.283
40.1811
40.0779
39.9735
39.8677
39.7603
39.6515
39.5409
39.4285
39.3142
39.1977
39.0789
38.9579
38.8344
38.7085
38.5799
38.4489
38.3152
38.179
38.0403
37.8992
37.7558
37.6105
37.4634
37.3151
37.1661
37.017
36.8688
36.7225
36.5793
36.4409
36.3094
36.1867
36.0756
35.9777
35.8959
35.83
35.7824
35.7503
264.667
117.327
88.2381
77.8803
73.0653
71.4848
71.4467
72.7394
74.8778
77.7926
81.4082
85.5503
90.1908
95.2088
100.579
106.222
112.112
118.19
124.431
130.787
137.229
143.718
150.224
156.711
163.148
169.505
175.753
181.849
187.749
193.418
198.815
203.893
208.644
213.078
217.174
220.893
224.203
227.091
229.543
231.55
233.107
234.219
234.901
235.176
235.077
234.652
233.949
233.045
232.028
230.996
230.046
229.267
228.742
228.542
228.715
229.3
230.288
231.633
233.278
235.146
237.151
239.205
241.23
243.167
244.976
246.642
248.171
249.586
250.919
252.202
253.472
254.764
256.119
257.58
259.197
261.03
263.146
265.62
268.535
271.978
276.019
280.672
285.833
291.249
296.203
300.295
304.893
305.221
294.334
274.892
233.267
192.625
152.399
114.96
86.4049
67.9172
56.876
50.5044
46.9039
44.9252
43.8952
43.4217
43.2682
43.2942
43.4109
43.5534
43.6845
43.7862
43.85
43.8744
43.8719
43.8506
43.8
43.7216
43.6231
43.5106
43.3892
43.262
43.1319
43.0004
42.869
42.7384
42.6091
42.4815
42.3557
42.2318
42.1096
41.989
41.87
41.7522
41.6356
41.52
41.4051
41.2907
41.1766
41.0627
40.9487
40.8345
40.7199
40.6047
40.4888
40.372
40.2542
40.1354
40.0153
39.8938
39.7709
39.6467
39.5209
39.3933
39.2638
39.1323
38.9986
38.8627
38.7245
38.5839
38.4408
38.2952
38.1472
37.9967
37.8438
37.6887
37.5314
37.3721
37.2111
37.0489
36.8858
36.7224
36.5597
36.3986
36.2401
36.0856
35.9369
35.7956
35.6641
35.5436
35.4368
35.3434
35.2655
35.1994
246.597
110.229
84.1921
75.3551
71.6118
71.0095
71.8757
74.1333
77.314
81.3784
86.2393
91.7219
97.8137
104.364
111.368
118.718
126.404
134.347
142.527
150.881
159.383
167.975
176.623
185.275
193.887
202.405
210.776
218.926
226.782
234.263
241.301
247.835
253.832
259.272
264.098
268.271
271.778
274.608
276.756
278.224
279.035
279.223
278.84
277.93
276.555
274.802
272.768
270.571
268.335
266.186
264.242
262.613
261.391
260.65
260.434
260.742
261.602
262.925
264.646
266.672
268.907
271.257
273.639
275.99
278.268
280.451
282.539
284.551
286.516
288.472
290.455
292.508
294.669
296.985
299.506
302.305
305.465
309.065
313.179
317.858
323.112
328.89
335.142
341.727
347.248
350.327
353.178
350.924
332.949
298.406
242.124
195.523
150.171