/*--------------------------------*- C++ -*----------------------------------*\
| =========                 |                                                 |
| \\      /  F ield         | OpenFOAM: The Open Source CFD Toolbox           |
|  \\    /   O peration     | Version:  v1906                                 |
|   \\  /    A nd           | Web:      www.OpenFOAM.com                      |
|    \\/     M anipulation  |                                                 |
\*---------------------------------------------------------------------------*/
FoamFile
{
    version     2.0;
    format      ascii;
    class       volScalarField;
    location    "600";
    object      k;
}
// * * * * * * * * * * * * * * * * * * * * * * * * * * * * * * * * * * * * * //

dimensions      [0 2 -2 0 0 0 0];


internalField   nonuniform List<scalar> 
12225
(
2.25874
2.22668
2.16195
2.09172
2.02505
1.96462
1.91067
1.86327
1.82062
1.78385
1.74935
1.72138
1.69884
1.68062
1.66395
1.65206
1.63776
1.63263
2.25029
2.13779
1.98565
1.87243
1.78123
1.71368
1.66067
1.61696
1.58114
1.55029
1.52537
1.50223
1.48552
1.46759
1.45719
1.44234
1.43602
1.4218
2.25785
2.21888
2.14361
2.07156
2.00395
1.94415
1.89183
1.84559
1.80508
1.76894
1.73737
1.70854
1.68383
1.66051
1.6413
1.62194
1.60747
1.59155
2.25839
2.23538
2.18791
2.13577
2.08419
2.03588
1.99183
1.95174
1.91552
1.88262
1.85297
1.82581
1.80146
1.77891
1.75884
1.73987
1.72361
1.70664
2.25891
2.24457
2.21501
2.18006
2.14383
2.10824
2.07435
2.04244
2.01265
1.9849
1.95923
1.93533
1.91329
1.89275
1.87386
1.85617
1.84029
1.82453
2.25905
2.24839
2.22761
2.20199
2.17442
2.14647
2.11911
2.09277
2.0677
2.04398
2.02166
2.00067
1.98099
1.96253
1.94527
1.92908
1.91404
1.89933
2.25918
2.25077
2.23561
2.21657
2.19561
2.1739
2.1522
2.13093
2.11034
2.09056
2.07168
2.05371
2.03665
2.02049
2.00523
1.9908
1.97728
1.96419
2.25922
2.25211
2.24034
2.22548
2.20884
2.19132
2.17353
2.15583
2.13848
2.12161
2.10534
2.0897
2.07473
2.06044
2.04682
2.03387
2.02155
2.00968
2.25927
2.2531
2.24365
2.23179
2.2184
2.20417
2.18954
2.17484
2.16027
2.14598
2.13206
2.11858
2.10557
2.09306
2.08107
2.0696
2.05865
2.04809
2.25929
2.25377
2.24586
2.23608
2.225
2.21313
2.20082
2.18834
2.17586
2.16352
2.15142
2.13961
2.12815
2.11706
2.10637
2.09608
2.08619
2.07665
2.25932
2.2543
2.24753
2.23929
2.22998
2.21997
2.20952
2.19886
2.18813
2.17746
2.16692
2.15659
2.1465
2.13669
2.12719
2.11801
2.10916
2.10061
2.25934
2.25466
2.24864
2.24144
2.23333
2.22459
2.21545
2.20607
2.19659
2.1871
2.1777
2.16843
2.15935
2.15048
2.14186
2.1335
2.12541
2.11758
2.25937
2.25498
2.24954
2.24316
2.23602
2.22833
2.22026
2.21195
2.20352
2.19505
2.18662
2.17828
2.17008
2.16205
2.15422
2.1466
2.13921
2.13205
2.25939
2.25526
2.25032
2.24465
2.23835
2.23157
2.22445
2.2171
2.20961
2.20207
2.19452
2.18703
2.17964
2.17238
2.16527
2.15833
2.15159
2.14506
2.25943
2.25552
2.25102
2.24595
2.24037
2.23439
2.22811
2.22161
2.21497
2.20825
2.20151
2.1948
2.18816
2.18161
2.17518
2.1689
2.16278
2.15683
2.25946
2.25574
2.25158
2.24697
2.24197
2.23663
2.23101
2.2252
2.21925
2.21322
2.20715
2.20109
2.19506
2.18912
2.18327
2.17754
2.17195
2.16651
2.25949
2.25592
2.25201
2.24775
2.24316
2.23828
2.23316
2.22786
2.22242
2.2169
2.21133
2.20575
2.2002
2.19471
2.1893
2.18399
2.1788
2.17376
2.25951
2.25603
2.25226
2.24818
2.24382
2.23921
2.23437
2.22936
2.22422
2.21899
2.21371
2.20843
2.20316
2.19794
2.19279
2.18773
2.18278
2.17795
2.2595
2.25599
2.25218
2.24806
2.24364
2.23896
2.23405
2.22896
2.22373
2.21842
2.21306
2.20768
2.20232
2.19701
2.19178
2.18664
2.18162
2.17675
2.25949
2.25585
2.2518
2.24733
2.24249
2.23733
2.23191
2.2263
2.22055
2.21472
2.20885
2.20298
2.19714
2.19137
2.18568
2.18009
2.17463
2.16928
2.25943
2.25553
2.25102
2.24592
2.24032
2.2343
2.22798
2.22143
2.21473
2.20796
2.20116
2.19438
2.18766
2.18103
2.17451
2.16814
2.16193
2.15593
2.25941
2.25519
2.25002
2.24399
2.23727
2.23004
2.22245
2.21462
2.20666
2.19866
2.19067
2.18275
2.17494
2.16727
2.15978
2.15247
2.14536
2.13841
2.25935
2.25457
2.24826
2.24067
2.23209
2.22285
2.21318
2.20326
2.19324
2.18323
2.1733
2.16353
2.15395
2.1446
2.13549
2.12665
2.11808
2.10989
2.25935
2.25385
2.24585
2.23594
2.22476
2.21279
2.2004
2.18784
2.17528
2.16287
2.15068
2.13878
2.12722
2.11603
2.10523
2.09484
2.0849
2.07529
2.25927
2.25242
2.24124
2.22717
2.21139
2.1947
2.17766
2.16063
2.14385
2.12749
2.11164
2.09637
2.0817
2.06764
2.05418
2.04131
2.02894
2.01725
2.25924
2.25041
2.23397
2.21363
2.19147
2.16867
2.14592
2.12362
2.10206
2.08136
2.06161
2.04282
2.02499
2.00809
1.99211
1.97702
1.96291
1.94971
2.25889
2.24472
2.21618
2.18219
2.14678
2.11176
2.07806
2.04624
2.01649
1.98878
1.96302
1.93911
1.9169
1.89628
1.87706
1.85921
1.84222
1.82646
2.25872
2.23436
2.18569
2.13367
2.08299
2.03496
1.99028
1.9496
1.91262
1.879
1.8484
1.82054
1.79504
1.77176
1.75032
1.73073
1.71261
1.69711
2.25333
2.17275
2.05404
1.95318
1.87047
1.80143
1.74471
1.69878
1.66016
1.6271
1.59838
1.57343
1.5513
1.532
1.51454
1.49939
1.48528
1.47207
2.25474
2.20869
2.14516
2.08349
2.02607
1.97397
1.92685
1.88444
1.84634
1.81205
1.78109
1.75301
1.72752
1.70419
1.68297
1.66331
1.64549
1.62863
0.0338764
0.0769859
0.114574
0.137139
0.154478
0.167859
0.178352
0.186349
0.192692
0.197681
0.20167
0.204811
0.207396
0.209112
0.209896
0.209867
0.209368
0.208115
0.206114
0.203335
0.199827
0.195426
0.189883
0.183008
0.174478
0.164046
0.151458
0.137015
0.120958
0.103722
0.0921963
0.0866435
0.0874232
0.092925
0.102805
0.111508
0.115574
0.114216
0.108438
0.101028
0.0969216
0.0989067
0.105704
0.116605
0.132212
0.154108
0.179214
0.20374
0.227979
0.251999
0.275945
0.299635
0.323002
0.34618
0.369284
0.392404
0.415612
0.438951
0.462453
0.486113
0.509907
0.5338
0.55774
0.581674
0.605534
0.629259
0.652772
0.676009
0.698895
0.721379
0.743408
0.764975
0.786122
0.806829
0.827104
0.847178
0.867226
0.887201
0.906974
0.92631
0.944871
0.962238
0.977873
0.9914
0.999893
1.00409
1.00518
1.00038
0.989698
0.970807
0.940752
0.907987
0.87476
0.841631
0.809278
0.7785
0.749883
0.723878
0.700738
0.680626
0.663594
0.649568
0.638384
0.62975
0.623321
0.618739
0.615899
0.614795
0.615044
0.615554
0.615744
0.615727
0.615557
0.615252
0.614811
0.61422
0.613468
0.612546
0.611455
0.610198
0.608788
0.607238
0.60557
0.603801
0.601952
0.600039
0.59808
0.596089
0.594081
0.592068
0.59006
0.588065
0.586091
0.584143
0.582227
0.580344
0.578499
0.576692
0.574926
0.573201
0.571517
0.569875
0.568275
0.566718
0.565203
0.563732
0.562304
0.560919
0.559579
0.558281
0.557025
0.555807
0.554626
0.55348
0.552372
0.551301
0.550269
0.549278
0.548329
0.547424
0.546564
0.54575
0.544983
0.544263
0.543591
0.542964
0.542396
0.541867
0.541396
0.54092
0.540508
0.54004
0.539676
0.539132
0.53872
0.537839
0.536928
0.534639
0.528768
0.496627
0.0716731
0.159624
0.230558
0.270807
0.301836
0.325114
0.343801
0.35838
0.370051
0.379275
0.386715
0.392798
0.397924
0.402342
0.406249
0.40969
0.412653
0.414995
0.416539
0.417317
0.417543
0.41789
0.419472
0.423638
0.431428
0.443225
0.458941
0.477697
0.498004
0.518451
0.538427
0.558823
0.580688
0.604971
0.631583
0.658568
0.682521
0.700236
0.710651
0.715316
0.716869
0.717356
0.718383
0.721385
0.727315
0.736235
0.74816
0.763431
0.781758
0.802495
0.824916
0.848351
0.872246
0.896248
0.92015
0.943846
0.967303
0.990525
1.01353
1.03635
1.059
1.08148
1.10377
1.12587
1.14773
1.16934
1.19063
1.2116
1.23222
1.25251
1.27252
1.29238
1.31229
1.33242
1.35271
1.37334
1.39475
1.41722
1.44081
1.46534
1.49045
1.51564
1.54011
1.56292
1.58305
1.59948
1.60882
1.61192
1.60895
1.59836
1.58034
1.5565
1.52775
1.49571
1.46215
1.42874
1.39685
1.36747
1.34117
1.31826
1.29879
1.28262
1.26949
1.25897
1.25059
1.24389
1.23852
1.23456
1.23233
1.23116
1.22999
1.22853
1.22674
1.22463
1.22221
1.21947
1.2164
1.21303
1.20937
1.20546
1.20133
1.19701
1.19253
1.18794
1.18327
1.17854
1.17377
1.169
1.16423
1.15949
1.15478
1.15011
1.1455
1.14095
1.13646
1.13204
1.12768
1.12339
1.11917
1.11501
1.11092
1.10689
1.10292
1.09902
1.09517
1.09138
1.08764
1.08396
1.08033
1.07674
1.0732
1.06969
1.06621
1.06277
1.05935
1.05596
1.05261
1.04928
1.04599
1.04273
1.0395
1.03631
1.03315
1.03002
1.02692
1.02386
1.02084
1.01785
1.0149
1.01196
1.00907
1.00619
1.0034
1.00058
0.997933
0.995086
0.992433
0.987885
0.979245
0.955678
0.128605
0.234254
0.321397
0.369805
0.409253
0.438048
0.461852
0.480811
0.496854
0.510415
0.522416
0.533272
0.543488
0.553406
0.563392
0.573705
0.584484
0.595693
0.60724
0.619196
0.631969
0.646306
0.662995
0.682534
0.704971
0.729941
0.756876
0.785226
0.814642
0.84508
0.876885
0.910606
0.946162
0.981723
1.01354
1.03765
1.05197
1.05745
1.05732
1.05493
1.05354
1.05531
1.06183
1.07382
1.09131
1.11376
1.14026
1.16966
1.20074
1.2323
1.26333
1.29304
1.32096
1.34682
1.37058
1.39229
1.41215
1.43038
1.44723
1.46296
1.47783
1.49207
1.50591
1.51953
1.53313
1.54685
1.56081
1.57514
1.58994
1.6053
1.62131
1.63807
1.65568
1.67432
1.69424
1.71558
1.73838
1.7626
1.78804
1.81442
1.84138
1.86846
1.89503
1.92021
1.94293
1.96206
1.97567
1.98189
1.98177
1.97355
1.95723
1.93349
1.90341
1.86886
1.83195
1.7947
1.75878
1.72538
1.69521
1.66865
1.64583
1.62662
1.61074
1.59781
1.58738
1.57903
1.57234
1.56691
1.56242
1.55851
1.55485
1.55122
1.5475
1.54359
1.53945
1.53504
1.53035
1.5254
1.52019
1.51475
1.50911
1.50331
1.49738
1.49135
1.48526
1.47913
1.47299
1.46686
1.46075
1.45469
1.44867
1.44272
1.43684
1.43103
1.4253
1.41965
1.41408
1.4086
1.40319
1.39786
1.39261
1.38743
1.38233
1.37729
1.37233
1.36742
1.36258
1.3578
1.35307
1.3484
1.34376
1.33917
1.33461
1.33008
1.32558
1.32112
1.31669
1.3123
1.30793
1.3036
1.2993
1.29503
1.29079
1.28658
1.2824
1.27826
1.27415
1.27008
1.26605
1.26205
1.25811
1.2542
1.25038
1.2466
1.24297
1.23929
1.23574
1.2312
1.22436
1.20964
0.158667
0.295042
0.397623
0.453146
0.499837
0.534986
0.565501
0.590423
0.612529
0.631936
0.649927
0.66681
0.683228
0.699498
0.716048
0.733164
0.751111
0.770055
0.790112
0.811341
0.833678
0.856806
0.880294
0.903937
0.92794
0.952804
0.979113
1.00736
1.03789
1.07077
1.10546
1.14047
1.17327
1.20108
1.22215
1.23657
1.2461
1.25343
1.26128
1.2719
1.28678
1.30666
1.33163
1.3612
1.39445
1.43013
1.46688
1.50336
1.5384
1.57107
1.60076
1.62716
1.65021
1.67005
1.68698
1.70139
1.71372
1.72443
1.73397
1.74275
1.75117
1.75956
1.76817
1.77721
1.78685
1.79716
1.80819
1.81997
1.83247
1.84568
1.85959
1.87418
1.88945
1.90544
1.92221
1.93982
1.95837
1.97796
1.99858
2.02017
2.04261
2.06569
2.08905
2.11207
2.13385
2.15321
2.16886
2.17845
2.18167
2.17731
2.1643
2.14271
2.11358
2.07892
2.04112
2.00252
1.96507
1.93015
1.89859
1.87078
1.84681
1.82652
1.80963
1.79572
1.78436
1.77509
1.76747
1.76109
1.75558
1.7506
1.74594
1.74138
1.7368
1.73209
1.72717
1.72202
1.71661
1.71096
1.70507
1.69897
1.69269
1.68627
1.67972
1.67309
1.66641
1.65969
1.65297
1.64626
1.63957
1.63293
1.62634
1.61981
1.61335
1.60696
1.60065
1.59442
1.58827
1.58219
1.57619
1.57026
1.56441
1.55863
1.55292
1.54727
1.54168
1.53616
1.5307
1.52529
1.51993
1.51461
1.50933
1.50409
1.49888
1.4937
1.48856
1.48344
1.47836
1.4733
1.46827
1.46327
1.4583
1.45336
1.44844
1.44356
1.4387
1.43388
1.42909
1.42434
1.41963
1.41497
1.41038
1.40585
1.40142
1.39708
1.3929
1.38876
1.38474
1.38008
1.37404
1.36359
0.201581
0.368967
0.482913
0.545478
0.598642
0.640103
0.677294
0.709237
0.738444
0.764595
0.789057
0.811989
0.834193
0.855858
0.877316
0.898673
0.920225
0.942296
0.96524
0.989163
1.01388
1.03895
1.06393
1.08859
1.11312
1.13801
1.16381
1.19089
1.21919
1.24817
1.27683
1.304
1.32879
1.35101
1.37123
1.39062
1.41061
1.43252
1.45739
1.48581
1.51792
1.55338
1.59144
1.63109
1.67113
1.71034
1.74763
1.78214
1.81326
1.84067
1.86432
1.88436
1.9011
1.91496
1.92641
1.93597
1.94413
1.95137
1.95812
1.96476
1.9716
1.9789
1.98683
1.99549
2.00493
2.01512
2.02599
2.03744
2.04935
2.06158
2.07403
2.08659
2.0992
2.11184
2.12452
2.13729
2.15029
2.1637
2.17772
2.19257
2.20838
2.22526
2.24321
2.26192
2.28085
2.29908
2.31529
2.32773
2.33419
2.33372
2.32421
2.305
2.27687
2.24196
2.20308
2.16303
2.12407
2.08781
2.05516
2.02651
2.00187
1.98103
1.96362
1.9492
1.93731
1.92748
1.91927
1.91227
1.90614
1.90058
1.89536
1.89028
1.8852
1.88001
1.87466
1.8691
1.86331
1.85731
1.8511
1.8447
1.83813
1.83144
1.82463
1.81775
1.81082
1.80385
1.79688
1.78991
1.78297
1.77605
1.76919
1.76237
1.75562
1.74892
1.74229
1.73573
1.72923
1.7228
1.71644
1.71014
1.7039
1.69772
1.69159
1.68553
1.67951
1.67355
1.66764
1.66177
1.65594
1.65015
1.6444
1.63867
1.63297
1.6273
1.62165
1.61603
1.61044
1.60487
1.59932
1.59379
1.58829
1.58281
1.57736
1.57193
1.56652
1.56115
1.55582
1.55052
1.54528
1.54009
1.53499
1.52997
1.52507
1.52029
1.51571
1.51121
1.50684
1.50199
1.49626
1.48752
0.236503
0.434482
0.564527
0.636103
0.696361
0.744345
0.787651
0.82574
0.860933
0.89308
0.923071
0.951025
0.977614
1.00313
1.02796
1.05225
1.07616
1.09985
1.1235
1.14727
1.17117
1.19514
1.21906
1.24295
1.26691
1.29113
1.31578
1.34087
1.36633
1.39198
1.41773
1.44364
1.46997
1.49721
1.52589
1.55652
1.58946
1.62486
1.66264
1.70244
1.7437
1.78563
1.82735
1.86792
1.90649
1.94232
1.9749
2.0039
2.02923
2.05097
2.06934
2.08469
2.09742
2.10798
2.11683
2.12442
2.13118
2.13751
2.14376
2.15024
2.15717
2.16475
2.17308
2.1822
2.19208
2.20262
2.21366
2.225
2.23641
2.24767
2.25856
2.26889
2.27852
2.28738
2.29549
2.30289
2.30982
2.31659
2.32341
2.33063
2.33863
2.34788
2.35876
2.37148
2.38597
2.40177
2.41782
2.43247
2.44304
2.44721
2.44232
2.42637
2.39962
2.36438
2.32409
2.28218
2.24143
2.20369
2.16995
2.14058
2.11551
2.09444
2.07692
2.06245
2.05051
2.04062
2.03232
2.02522
2.01896
2.01326
2.00789
2.00267
1.99744
1.99212
1.98665
1.98098
1.97511
1.96904
1.96278
1.95635
1.94976
1.94305
1.93624
1.92936
1.92243
1.91546
1.90849
1.90151
1.89454
1.8876
1.8807
1.87383
1.86701
1.86023
1.8535
1.84683
1.8402
1.83363
1.8271
1.82063
1.81419
1.80781
1.80146
1.79516
1.7889
1.78267
1.77648
1.77032
1.76419
1.75809
1.75202
1.74596
1.73993
1.73391
1.72792
1.72194
1.71597
1.71002
1.70408
1.69816
1.69225
1.68636
1.68048
1.67462
1.66879
1.66299
1.65722
1.65149
1.64582
1.64022
1.63471
1.62931
1.62405
1.61895
1.61405
1.60928
1.60466
1.59966
1.594
1.58587
0.274206
0.497292
0.643304
0.723057
0.78967
0.843314
0.891782
0.934869
0.974787
1.01146
1.0457
1.0776
1.10759
1.13593
1.16303
1.18915
1.21458
1.23948
1.264
1.28825
1.3123
1.3362
1.36
1.38377
1.40763
1.43174
1.45628
1.48148
1.50756
1.53481
1.56353
1.59405
1.62664
1.66145
1.6985
1.73762
1.77851
1.82072
1.86369
1.90679
1.94935
1.99069
2.03016
2.06721
2.10141
2.13247
2.16023
2.1847
2.20598
2.22429
2.23992
2.25318
2.26446
2.27413
2.28258
2.29019
2.29735
2.3044
2.31169
2.31948
2.32803
2.3375
2.34796
2.35939
2.37168
2.38459
2.39784
2.41108
2.42392
2.436
2.44694
2.45645
2.46429
2.47031
2.47458
2.47697
2.47775
2.47714
2.47545
2.47323
2.4712
2.47014
2.47067
2.47373
2.47999
2.48968
2.50247
2.5169
2.53046
2.53904
2.53901
2.52638
2.50048
2.46389
2.42096
2.37611
2.33279
2.29314
2.25819
2.22821
2.20296
2.182
2.16474
2.15059
2.13898
2.12938
2.12133
2.11442
2.10831
2.10272
2.09742
2.09225
2.08708
2.08181
2.0764
2.07081
2.06504
2.05909
2.05296
2.04667
2.04026
2.03373
2.02711
2.02043
2.0137
2.00694
2.00016
1.99337
1.98659
1.97983
1.97308
1.96637
1.95968
1.95302
1.94639
1.9398
1.93324
1.92671
1.92022
1.91375
1.90731
1.90089
1.8945
1.88813
1.88178
1.87545
1.86914
1.86285
1.85657
1.8503
1.84405
1.83781
1.83157
1.82534
1.81912
1.81289
1.80667
1.80045
1.79423
1.78802
1.7818
1.7756
1.7694
1.76321
1.75703
1.75089
1.74477
1.7387
1.73268
1.72674
1.72091
1.71519
1.70964
1.70427
1.69913
1.69413
1.68928
1.68408
1.67835
1.67053
0.300989
0.545915
0.707934
0.795642
0.868233
0.926922
0.979918
1.02722
1.07111
1.11161
1.14955
1.18499
1.21836
1.24983
1.27972
1.30824
1.33569
1.36229
1.38829
1.41385
1.43913
1.46426
1.48941
1.51474
1.54044
1.56676
1.59397
1.62236
1.65225
1.68392
1.71761
1.75341
1.79129
1.83107
1.87242
1.91489
1.95797
2.00114
2.04382
2.08548
2.1256
2.16373
2.19951
2.23267
2.26302
2.29049
2.3151
2.33692
2.35613
2.37292
2.38755
2.4003
2.41149
2.42146
2.43056
2.43917
2.44769
2.45648
2.46591
2.4763
2.48787
2.50076
2.51497
2.53034
2.54658
2.5633
2.57997
2.59607
2.61104
2.62436
2.63559
2.64435
2.65038
2.65343
2.65388
2.65151
2.64645
2.63896
2.62948
2.61848
2.60662
2.59469
2.58363
2.57469
2.56965
2.56918
2.5746
2.58535
2.5994
2.61208
2.61726
2.60839
2.58296
2.54386
2.49686
2.4478
2.40099
2.35891
2.32256
2.29198
2.26672
2.2461
2.22937
2.21583
2.20483
2.1958
2.18825
2.18177
2.17602
2.17072
2.16567
2.1607
2.15571
2.15062
2.14538
2.13997
2.13438
2.12863
2.12273
2.11669
2.11053
2.10428
2.09795
2.09156
2.08514
2.07868
2.07221
2.06573
2.05926
2.05279
2.04633
2.03989
2.03346
2.02705
2.02066
2.01428
2.00792
2.00157
1.99524
1.98891
1.98259
1.97628
1.96997
1.96367
1.95736
1.95106
1.94475
1.93845
1.93214
1.92582
1.9195
1.91318
1.90684
1.90049
1.89413
1.88776
1.88138
1.87498
1.86857
1.86214
1.85571
1.84927
1.84282
1.83638
1.82994
1.82352
1.81713
1.81078
1.80449
1.79827
1.79217
1.7862
1.78041
1.7748
1.76944
1.76423
1.75916
1.75376
1.74788
1.74008
0.325048
0.584297
0.758496
0.852282
0.929445
0.992061
1.04862
1.09929
1.14644
1.19018
1.23137
1.27015
1.30691
1.34181
1.37512
1.40703
1.43777
1.4675
1.49647
1.52489
1.55299
1.58099
1.60912
1.63761
1.66671
1.69667
1.72777
1.76023
1.79425
1.82995
1.86735
1.90635
1.94675
1.98822
2.03038
2.07279
2.11501
2.15658
2.19706
2.23608
2.27328
2.3084
2.34124
2.37166
2.39961
2.42506
2.44807
2.46874
2.4872
2.50363
2.51826
2.53133
2.54314
2.55405
2.56442
2.57469
2.5853
2.59666
2.60916
2.62311
2.63867
2.65584
2.67444
2.69407
2.71421
2.73419
2.7533
2.77086
2.78622
2.79885
2.80841
2.81456
2.81727
2.81682
2.81305
2.80615
2.79642
2.78418
2.76984
2.75375
2.73626
2.71771
2.6987
2.68006
2.66328
2.65071
2.64508
2.64749
2.65822
2.67367
2.68453
2.68037
2.6553
2.61248
2.55981
2.50516
2.45397
2.40901
2.37111
2.33999
2.31485
2.29475
2.27873
2.26597
2.25573
2.24739
2.24044
2.23447
2.22913
2.22417
2.21938
2.21463
2.20982
2.20489
2.1998
2.19455
2.18913
2.18357
2.17787
2.17205
2.16614
2.16015
2.1541
2.14801
2.14189
2.13576
2.12961
2.12346
2.11732
2.11118
2.10504
2.09892
2.09281
2.0867
2.08061
2.07451
2.06842
2.06233
2.05623
2.05013
2.04402
2.0379
2.03176
2.02561
2.01944
2.01326
2.00705
2.00083
1.99458
1.98831
1.98202
1.9757
1.96936
1.96298
1.95658
1.95015
1.94369
1.9372
1.93068
1.92413
1.91756
1.91097
1.90436
1.89773
1.89111
1.88449
1.8779
1.87133
1.86483
1.8584
1.85209
1.84591
1.83992
1.83414
1.82859
1.82319
1.81791
1.81233
1.80627
1.79859
0.336964
0.608857
0.791533
0.889847
0.970785
1.03652
1.09605
1.14958
1.19962
1.24633
1.29063
1.33267
1.37286
1.41133
1.44832
1.48398
1.51851
1.55211
1.58496
1.61727
1.64928
1.68126
1.71343
1.74599
1.77918
1.8132
1.84821
1.88434
1.92167
1.96016
1.99975
2.04025
2.08142
2.12296
2.16456
2.20584
2.24647
2.2861
2.32442
2.36118
2.39614
2.42914
2.46004
2.48878
2.51533
2.53967
2.56186
2.58198
2.60013
2.61648
2.63123
2.64463
2.657
2.66872
2.68022
2.69194
2.70435
2.71785
2.73276
2.74923
2.7672
2.78643
2.80642
2.8265
2.84588
2.86374
2.87929
2.89192
2.90117
2.90665
2.90852
2.90691
2.90207
2.8944
2.88435
2.87246
2.85927
2.84528
2.83086
2.81634
2.8019
2.78745
2.77271
2.75747
2.74154
2.72532
2.7112
2.70387
2.7078
2.72394
2.7417
2.74457
2.72081
2.67346
2.6136
2.55203
2.49562
2.44739
2.40786
2.37625
2.35133
2.33185
2.31665
2.30475
2.29534
2.28775
2.28145
2.276
2.27108
2.26643
2.26187
2.25729
2.25259
2.24774
2.24272
2.23753
2.23218
2.2267
2.22109
2.21539
2.20961
2.20378
2.19791
2.19202
2.18611
2.1802
2.17429
2.16839
2.16249
2.15661
2.15074
2.14488
2.13903
2.13318
2.12734
2.12149
2.11564
2.10978
2.10391
2.09802
2.09211
2.08618
2.08022
2.07423
2.06822
2.06217
2.05609
2.04997
2.04381
2.03762
2.03139
2.02512
2.0188
2.01244
2.00604
1.99959
1.9931
1.98656
1.97998
1.97336
1.9667
1.96
1.95328
1.94653
1.93977
1.93301
1.92625
1.91953
1.91286
1.90627
1.89978
1.89344
1.88728
1.88132
1.87559
1.87
1.8645
1.85872
1.85253
1.84496
0.347964
0.628422
0.812645
0.912749
0.995854
1.06363
1.12534
1.18116
1.23369
1.28308
1.3303
1.37548
1.41905
1.4611
1.50187
1.54148
1.58009
1.61786
1.65499
1.69165
1.72804
1.76432
1.8007
1.83737
1.87449
1.91217
1.9505
1.98953
2.02924
2.06957
2.11039
2.15155
2.19283
2.23398
2.27474
2.31485
2.35405
2.39208
2.42873
2.46382
2.49718
2.52869
2.55825
2.5858
2.61131
2.63477
2.6562
2.67564
2.6932
2.70901
2.72328
2.73627
2.7483
2.75978
2.77112
2.78275
2.79504
2.80828
2.82258
2.83784
2.85377
2.86982
2.8853
2.89943
2.91139
2.92048
2.9261
2.92806
2.92631
2.92095
2.91239
2.90113
2.88765
2.8725
2.8563
2.83969
2.82334
2.80788
2.79397
2.78226
2.77337
2.76772
2.76524
2.76491
2.76459
2.76153
2.75469
2.74777
2.7472
2.76272
2.78938
2.8033
2.78329
2.7312
2.66272
2.59299
2.53072
2.47907
2.43798
2.40604
2.38151
2.3628
2.34851
2.33755
2.32901
2.32219
2.31652
2.31157
2.30702
2.30263
2.29822
2.29371
2.28902
2.28414
2.27906
2.2738
2.26838
2.26284
2.25718
2.25145
2.24566
2.23984
2.23399
2.22814
2.2223
2.21647
2.21065
2.20486
2.19909
2.19333
2.1876
2.18188
2.17617
2.17048
2.16478
2.15909
2.15339
2.14768
2.14195
2.13621
2.13044
2.12464
2.11881
2.11294
2.10704
2.10109
2.09511
2.08908
2.083
2.07687
2.0707
2.06447
2.05819
2.05185
2.04546
2.03901
2.0325
2.02594
2.01933
2.01266
2.00594
1.99918
1.99237
1.98554
1.97868
1.97181
1.96494
1.9581
1.95131
1.94458
1.93796
1.93148
1.92517
1.91905
1.91314
1.90736
1.90164
1.89568
1.88934
1.88194
0.349738
0.635894
0.820545
0.922023
1.00695
1.0765
1.14021
1.19812
1.253
1.3049
1.35488
1.40302
1.44979
1.49524
1.53962
1.58301
1.62558
1.66744
1.70876
1.74965
1.79024
1.83062
1.87093
1.9113
1.95183
1.9926
2.03363
2.0749
2.11638
2.15798
2.1996
2.24111
2.28231
2.32302
2.36305
2.40218
2.44022
2.47699
2.51232
2.54608
2.57811
2.60833
2.63663
2.66294
2.68721
2.70939
2.72948
2.74752
2.76357
2.77777
2.79031
2.80147
2.81157
2.82099
2.83011
2.83927
2.84876
2.85869
2.86902
2.87952
2.88975
2.89913
2.90705
2.91287
2.91603
2.91624
2.91316
2.90667
2.89701
2.88457
2.86981
2.85321
2.83534
2.81672
2.79779
2.77898
2.7607
2.74342
2.72774
2.71429
2.70385
2.69748
2.69638
2.70173
2.71413
2.73174
2.74952
2.76043
2.76592
2.78448
2.82433
2.85573
2.84358
2.78736
2.70905
2.6301
2.56156
2.50652
2.46411
2.43209
2.40818
2.39039
2.37714
2.3672
2.35959
2.35357
2.34855
2.3441
2.33989
2.3357
2.33138
2.32685
2.32207
2.31705
2.3118
2.30634
2.30072
2.29497
2.28912
2.28321
2.27725
2.27127
2.26529
2.25932
2.25337
2.24745
2.24156
2.2357
2.22987
2.22408
2.21831
2.21257
2.20685
2.20114
2.19544
2.18975
2.18406
2.17836
2.17265
2.16692
2.16117
2.15539
2.14958
2.14373
2.13785
2.13192
2.12595
2.11993
2.11386
2.10774
2.10156
2.09533
2.08904
2.08269
2.07627
2.06979
2.06325
2.05665
2.04999
2.04326
2.03649
2.02965
2.02278
2.01586
2.00892
2.00196
1.99499
1.98805
1.98114
1.9743
1.96756
1.96094
1.95448
1.94819
1.94209
1.93609
1.93015
1.92398
1.91751
1.91018
0.348667
0.636022
0.819461
0.921571
1.00784
1.07889
1.14441
1.20424
1.26129
1.31555
1.36815
1.41913
1.46895
1.51765
1.56547
1.61247
1.65877
1.70446
1.74963
1.79434
1.83864
1.88262
1.92636
1.9699
2.01326
2.05651
2.09962
2.14256
2.18532
2.22782
2.26998
2.31168
2.35276
2.39307
2.43245
2.47074
2.50779
2.54345
2.57758
2.61005
2.64073
2.6695
2.69625
2.72088
2.74331
2.76348
2.78137
2.79699
2.81042
2.82179
2.83132
2.83928
2.84603
2.85195
2.8574
2.86269
2.86804
2.87354
2.87914
2.88458
2.88954
2.89352
2.8959
2.89615
2.89393
2.88899
2.88139
2.87137
2.8592
2.84521
2.82979
2.81328
2.79602
2.77824
2.76016
2.74198
2.72392
2.70629
2.68946
2.67385
2.65999
2.64865
2.64096
2.63876
2.64476
2.66212
2.69203
2.72746
2.75563
2.7869
2.84486
2.90128
2.90195
2.84288
2.75372
2.66482
2.59001
2.532
2.48875
2.45709
2.43411
2.41748
2.40545
2.39665
2.39007
2.38491
2.38057
2.37662
2.37273
2.3687
2.36441
2.35979
2.35485
2.3496
2.34408
2.33834
2.33241
2.32635
2.3202
2.31399
2.30774
2.30149
2.29524
2.28902
2.28283
2.27667
2.27056
2.26449
2.25846
2.25247
2.24651
2.24059
2.2347
2.22883
2.22298
2.21714
2.21131
2.20547
2.19963
2.19378
2.18791
2.18202
2.17611
2.17016
2.16417
2.15815
2.15209
2.14598
2.13982
2.13362
2.12735
2.12103
2.11466
2.10822
2.10172
2.09515
2.08852
2.08183
2.07507
2.06826
2.06138
2.05446
2.04748
2.04046
2.03341
2.02634
2.01927
2.0122
2.00517
1.9982
1.99131
1.98454
1.9779
1.97142
1.96509
1.95886
1.95266
1.94627
1.93962
1.9323
0.344061
0.630421
0.811551
0.913819
1.00102
1.07323
1.14029
1.20182
1.26089
1.3174
1.37252
1.42619
1.47891
1.53068
1.58173
1.63206
1.68179
1.73095
1.77957
1.82767
1.87527
1.92239
1.96905
2.01526
2.06104
2.10636
2.15114
2.19539
2.23917
2.28241
2.32502
2.36686
2.4078
2.44773
2.4865
2.524
2.56008
2.59462
2.62748
2.65852
2.68759
2.71455
2.73927
2.76164
2.78156
2.79896
2.81382
2.82617
2.83612
2.84384
2.8496
2.85375
2.8567
2.85889
2.86075
2.86262
2.86474
2.86705
2.86941
2.87154
2.87306
2.87352
2.8726
2.86993
2.86521
2.85832
2.84927
2.83822
2.82537
2.81099
2.79533
2.77865
2.76112
2.74294
2.72426
2.70532
2.68643
2.66797
2.6504
2.63429
2.62026
2.60892
2.60076
2.59615
2.59612
2.60367
2.62634
2.66703
2.7135
2.76698
2.85226
2.9409
2.95844
2.89713
2.79624
2.69724
2.61676
2.55659
2.51322
2.48246
2.4608
2.44563
2.43501
2.42752
2.42207
2.41785
2.41423
2.41077
2.40718
2.40327
2.39895
2.39419
2.389
2.38345
2.37758
2.37146
2.36516
2.35871
2.35218
2.34559
2.33897
2.33236
2.32576
2.31919
2.31266
2.30618
2.29974
2.29335
2.287
2.2807
2.27444
2.26822
2.26203
2.25586
2.24972
2.2436
2.23749
2.23138
2.22528
2.21917
2.21304
2.2069
2.20075
2.19456
2.18835
2.18211
2.17583
2.16951
2.16314
2.15674
2.15028
2.14377
2.1372
2.13058
2.1239
2.11716
2.11036
2.1035
2.09658
2.0896
2.08256
2.07547
2.06834
2.06116
2.05395
2.04672
2.03948
2.03225
2.02505
2.0179
2.01082
2.00384
1.99698
1.99025
1.98365
1.97712
1.97061
1.96395
1.95707
1.94966
0.335791
0.619677
0.797797
0.899915
0.987795
1.06107
1.1296
1.19282
1.25386
1.31248
1.36995
1.42617
1.48166
1.53635
1.59043
1.64389
1.6968
1.74913
1.8009
1.85208
1.90265
1.95259
2.00189
2.05051
2.0984
2.14552
2.19186
2.23743
2.28223
2.32617
2.36918
2.41116
2.45197
2.49151
2.5297
2.56639
2.60148
2.63481
2.66624
2.69559
2.72272
2.74747
2.76969
2.78927
2.80612
2.8202
2.83153
2.8402
2.84638
2.85034
2.85248
2.85329
2.85327
2.85278
2.85219
2.85177
2.85167
2.85193
2.85243
2.85286
2.85281
2.85187
2.84962
2.8457
2.83987
2.83202
2.82215
2.81039
2.79691
2.78193
2.76561
2.74812
2.72956
2.71002
2.68965
2.66863
2.64728
2.62602
2.6054
2.58608
2.56884
2.55477
2.54534
2.54229
2.54613
2.55572
2.57499
2.61194
2.66144
2.73406
2.85527
2.98077
3.01458
2.94893
2.83541
2.7271
2.64242
2.58149
2.53905
2.5099
2.49005
2.47666
2.46772
2.46172
2.45754
2.45433
2.45145
2.44848
2.44513
2.44125
2.4368
2.43177
2.42623
2.42025
2.41393
2.40735
2.40057
2.39366
2.38666
2.37963
2.37258
2.36555
2.35854
2.35157
2.34465
2.33778
2.33096
2.32419
2.31747
2.31079
2.30416
2.29757
2.29101
2.28448
2.27797
2.27149
2.26501
2.25855
2.25208
2.24562
2.23914
2.23266
2.22616
2.21964
2.2131
2.20653
2.19993
2.19329
2.18662
2.17991
2.17315
2.16635
2.1595
2.1526
2.14564
2.13863
2.13157
2.12445
2.11727
2.11004
2.10276
2.09543
2.08806
2.08064
2.0732
2.06573
2.05826
2.05079
2.04335
2.03594
2.0286
2.02134
2.01419
2.00713
2.00019
1.99329
1.98641
1.97941
1.9722
1.9646
0.323988
0.603608
0.778632
0.880362
0.968695
1.04286
1.11278
1.17764
1.24068
1.30154
1.36149
1.42036
1.47866
1.53627
1.59343
1.65001
1.70609
1.76158
1.8165
1.87074
1.9243
1.97709
2.02908
2.08017
2.13033
2.1795
2.22768
2.27487
2.32094
2.36579
2.40938
2.45162
2.49238
2.53162
2.56926
2.60515
2.63916
2.67112
2.70086
2.72822
2.75303
2.77512
2.79437
2.8107
2.82408
2.83454
2.84217
2.84717
2.84982
2.85051
2.84973
2.84795
2.84564
2.8433
2.84126
2.83977
2.83889
2.83857
2.83853
2.83843
2.83787
2.83639
2.83358
2.82914
2.82285
2.81464
2.80454
2.79268
2.77921
2.76427
2.74797
2.73041
2.71164
2.69177
2.67095
2.64941
2.62744
2.60533
2.58336
2.56192
2.54156
2.52305
2.50759
2.49737
2.49575
2.50468
2.52976
2.57337
2.62438
2.71116
2.87063
3.03107
3.07238
2.9966
2.86962
2.75412
2.66786
2.60819
2.56804
2.5414
2.52398
2.51285
2.50594
2.50169
2.49894
2.49682
2.4947
2.49215
2.48893
2.48494
2.48016
2.47468
2.46858
2.462
2.45504
2.44781
2.44039
2.43286
2.42527
2.41766
2.41006
2.4025
2.39498
2.38752
2.38012
2.37278
2.3655
2.35828
2.35111
2.344
2.33693
2.32991
2.32292
2.31596
2.30903
2.30212
2.29522
2.28833
2.28145
2.27456
2.26768
2.26078
2.25386
2.24694
2.23999
2.23302
2.22602
2.21899
2.21192
2.20483
2.19769
2.19051
2.18328
2.17601
2.1687
2.16133
2.15391
2.14644
2.13892
2.13135
2.12373
2.11607
2.10837
2.10063
2.09286
2.08507
2.07728
2.06948
2.06171
2.05396
2.04627
2.03865
2.0311
2.02364
2.01626
2.00892
2.00159
1.99414
1.98653
1.97859
0.312022
0.585835
0.75618
0.857043
0.945471
1.02043
1.09165
1.1582
1.22328
1.28643
1.34895
1.41055
1.47182
1.53251
1.59286
1.65267
1.71206
1.77086
1.82911
1.88667
1.94352
1.99952
2.05464
2.10876
2.16181
2.21372
2.26446
2.31389
2.36189
2.40837
2.45319
2.49617
2.53726
2.57653
2.61391
2.64917
2.68212
2.71262
2.7405
2.76561
2.78778
2.80689
2.8229
2.83579
2.84562
2.85252
2.85668
2.85836
2.85798
2.85605
2.85313
2.84968
2.84615
2.84296
2.84043
2.83873
2.83783
2.83755
2.83757
2.83753
2.83704
2.83567
2.83303
2.82884
2.82293
2.81522
2.80575
2.79463
2.78196
2.76788
2.75246
2.73579
2.71798
2.6991
2.6793
2.65871
2.63748
2.61584
2.59408
2.57253
2.5516
2.53168
2.51321
2.49734
2.4865
2.48705
2.50896
2.5589
2.61468
2.72017
2.92015
3.09821
3.1268
3.03175
2.89307
2.77574
2.69233
2.63674
2.60058
2.57751
2.56325
2.55491
2.55041
2.54819
2.54705
2.54608
2.54468
2.54247
2.53923
2.53492
2.52963
2.52346
2.5166
2.50919
2.50139
2.49332
2.48509
2.47676
2.46841
2.46007
2.45177
2.44353
2.43537
2.42728
2.41928
2.41136
2.40351
2.39575
2.38805
2.38041
2.37283
2.3653
2.35782
2.35038
2.34296
2.33558
2.32821
2.32086
2.31351
2.30617
2.29883
2.29148
2.28413
2.27676
2.26937
2.26197
2.25454
2.24709
2.2396
2.23209
2.22453
2.21694
2.20931
2.20164
2.19392
2.18615
2.17834
2.17048
2.16258
2.15462
2.14662
2.13858
2.1305
2.12239
2.11425
2.10609
2.09791
2.08974
2.08158
2.07344
2.06534
2.0573
2.04931
2.04139
2.03353
2.02569
2.01784
2.00989
2.00181
1.99342
0.297713
0.565247
0.731557
0.831821
0.920444
0.996338
1.06899
1.13738
1.20466
1.27024
1.33551
1.39997
1.46436
1.52823
1.59196
1.65517
1.71809
1.78051
1.84249
1.90384
1.96456
2.02448
2.08355
2.14161
2.19858
2.25433
2.30875
2.36164
2.4128
2.46201
2.50908
2.55384
2.59626
2.63637
2.67401
2.70897
2.74111
2.7703