/*--------------------------------*- C++ -*----------------------------------*\
| =========                 |                                                 |
| \\      /  F ield         | OpenFOAM: The Open Source CFD Toolbox           |
|  \\    /   O peration     | Version:  v1906                                 |
|   \\  /    A nd           | Web:      www.OpenFOAM.com                      |
|    \\/     M anipulation  |                                                 |
\*---------------------------------------------------------------------------*/
FoamFile
{
    version     2.0;
    format      ascii;
    class       volScalarField;
    location    "600";
    object      nut;
}
// * * * * * * * * * * * * * * * * * * * * * * * * * * * * * * * * * * * * * //

dimensions      [0 2 -1 0 0 0 0];


internalField   nonuniform List<scalar> 
12225
(
5.38048e-05
5.34216e-05
5.26395e-05
5.17774e-05
5.09456e-05
5.01797e-05
4.94859e-05
4.88683e-05
4.83057e-05
4.78154e-05
4.73508e-05
4.69707e-05
4.66622e-05
4.64114e-05
4.61806e-05
4.60154e-05
4.58158e-05
4.5744e-05
0.00074366
0.00027483
0.000208919
0.000186817
0.000173795
0.000168891
0.000164704
0.000161069
0.000158152
0.000155602
0.00015367
0.000151735
0.000150469
0.0001487
0.000148161
0.000146415
0.000146881
0.000144961
0.00337131
0.000965694
0.000668433
0.000562258
0.000503871
0.000472036
0.000448907
0.000431652
0.000418777
0.000408344
0.000399702
0.000392329
0.000386294
0.000380589
0.000376471
0.000371509
0.000369714
0.000364807
0.00784749
0.00229239
0.00147327
0.00117577
0.00101861
0.000926496
0.000864635
0.000819871
0.000787019
0.000761207
0.000740138
0.000723381
0.000709661
0.000697823
0.000688274
0.00067899
0.000673672
0.00066348
0.0127627
0.00432673
0.00270976
0.00210439
0.00178859
0.00159952
0.00147349
0.00138307
0.00131576
0.00126361
0.00122168
0.00118753
0.00115981
0.00113594
0.00111579
0.00109804
0.00108524
0.00106708
0.0171139
0.00693199
0.00436918
0.00334593
0.00280532
0.00247642
0.00225611
0.00209814
0.00197989
0.00188824
0.00181494
0.00175511
0.00170582
0.0016642
0.00162881
0.00159815
0.00157253
0.00154448
0.0205947
0.00988394
0.00641799
0.00491189
0.0040943
0.00358856
0.0032469
0.00300102
0.00281612
0.00267235
0.00255733
0.00246331
0.00238534
0.00231963
0.0022636
0.00221521
0.00217406
0.00213168
0.0232407
0.0129305
0.00876065
0.00676558
0.00563805
0.00492474
0.00443632
0.00408198
0.00381382
0.00360422
0.00343602
0.00329818
0.00318339
0.00308642
0.00300354
0.00293192
0.00286981
0.00280879
0.0252063
0.0158686
0.0112824
0.00885739
0.00741815
0.00648214
0.00583028
0.00535219
0.00498753
0.00470077
0.00446962
0.00427952
0.00412065
0.00398607
0.00387072
0.00377085
0.00368345
0.00360075
0.0266541
0.0185548
0.0138527
0.0111072
0.00938572
0.00822879
0.00740592
0.00679377
0.00632203
0.00594811
0.00564486
0.00539426
0.00518392
0.00500508
0.00485128
0.00471767
0.00459996
0.00449135
0.0277221
0.0209145
0.0163558
0.0134291
0.011484
0.010128
0.00913971
0.00839202
0.00780868
0.00734197
0.00696071
0.0066438
0.00637653
0.00614834
0.00595139
0.00577971
0.00562807
0.00549007
0.0284467
0.0227415
0.0184775
0.0155117
0.0134326
0.0119303
0.0108081
0.00994389
0.00926078
0.00870871
0.00825415
0.0078739
0.00755152
0.00727504
0.00703549
0.00682594
0.0066404
0.00647286
0.0290074
0.0243028
0.0204371
0.0175382
0.0153939
0.0137848
0.0125501
0.0115803
0.0108024
0.0101664
0.00963807
0.00919291
0.00881328
0.00848609
0.00820143
0.00795153
0.00772989
0.00753042
0.0294888
0.0257554
0.0223977
0.0196764
0.0175406
0.0158664
0.0145394
0.0134717
0.0125991
0.0118754
0.0112673
0.0107502
0.0103059
0.00992056
0.00958357
0.00928647
0.00902229
0.00878501
0.0298837
0.0270284
0.024239
0.0217976
0.0197577
0.0180791
0.016698
0.0155545
0.0145989
0.0137925
0.0131054
0.0125145
0.0120022
0.0115545
0.0111605
0.0108115
0.0105001
0.0102202
0.0301876
0.0280603
0.0258267
0.0237254
0.0218565
0.0202385
0.0188525
0.0176678
0.0166528
0.015779
0.0150225
0.0143636
0.0137863
0.0132774
0.0128265
0.0124248
0.0120651
0.0117413
0.0303978
0.0288004
0.0270242
0.0252474
0.0235767
0.0220605
0.0207112
0.0195217
0.0184772
0.0175601
0.0167535
0.0160419
0.0154118
0.0148518
0.014352
0.0139042
0.0135015
0.0131384
0.0305044
0.0291848
0.027668
0.0260933
0.0245604
0.0231269
0.0218187
0.0206418
0.0195912
0.0186566
0.0178256
0.0170861
0.0164267
0.0158372
0.0153085
0.014833
0.0144038
0.014015
0.0304715
0.0290671
0.027472
0.0258372
0.0242638
0.0228063
0.0214861
0.0203055
0.0192563
0.0183261
0.0175013
0.0167688
0.0161168
0.0155346
0.0150133
0.0145451
0.0141235
0.0137432
0.0302311
0.028214
0.0260762
0.0240424
0.0222141
0.0206158
0.0192355
0.0180473
0.0170234
0.0161375
0.0153674
0.0146942
0.0141024
0.0135796
0.0131153
0.0127012
0.0123307
0.0119984
0.0298207
0.0268281
0.0239499
0.0214633
0.0194058
0.0177243
0.0163477
0.0152115
0.0142643
0.013466
0.0127863
0.012202
0.0116953
0.0112524
0.0108626
0.0105176
0.0102111
0.00993896
0.0291396
0.0247089
0.0209851
0.0181326
0.0159865
0.0143549
0.01309
0.0120884
0.0112797
0.010615
0.0100601
0.00959062
0.0091887
0.00884108
0.0085377
0.00827095
0.00803516
0.00782677
0.028036
0.0217164
0.0172854
0.0143383
0.0123316
0.0109082
0.00985729
0.00905436
0.00842298
0.00791452
0.00749679
0.00714781
0.00685208
0.00659836
0.00637828
0.00618562
0.00601569
0.00586735
0.0262543
0.0178168
0.0131461
0.0104897
0.00884765
0.00775163
0.00697427
0.00639696
0.00595238
0.00559998
0.00531403
0.00507752
0.00487873
0.00470939
0.00456336
0.00443615
0.00432412
0.00422643
0.0233814
0.013206
0.00902268
0.00699366
0.00583841
0.00510166
0.00459322
0.00422298
0.00394181
0.00372119
0.00354361
0.00339769
0.00327569
0.00317228
0.00308328
0.0030059
0.0029369
0.00287741
0.0189046
0.00845562
0.00545014
0.00418495
0.00350644
0.00308624
0.00280099
0.0025966
0.00244283
0.00232287
0.00222682
0.0021482
0.0020827
0.00202743
0.00197982
0.00193877
0.00190218
0.00187111
0.0125844
0.00438895
0.00278861
0.00217248
0.00185038
0.0016523
0.00151838
0.00142437
0.00135362
0.00129839
0.00125439
0.00121843
0.00118861
0.0011636
0.00114156
0.00112298
0.00110554
0.00109082
0.00562612
0.00171148
0.00115552
0.000945978
0.000836983
0.000769018
0.000723334
0.000693169
0.000668787
0.000649341
0.000633823
0.000620809
0.000609569
0.000600034
0.000591372
0.000584169
0.000576957
0.000572007
0.00117126
0.000435642
0.000327289
0.000284804
0.000262909
0.000248753
0.000241423
0.0002372
0.000233226
0.000229617
0.000226386
0.000223577
0.000221021
0.000218859
0.000216788
0.000215125
0.000213342
0.000211706
7.08579e-05
7.01306e-05
6.91147e-05
6.81139e-05
6.71688e-05
6.62995e-05
6.55035e-05
6.47786e-05
6.41204e-05
6.35221e-05
6.29771e-05
6.24786e-05
6.20226e-05
6.16024e-05
6.12176e-05
6.08589e-05
6.05319e-05
6.02209e-05
1.09043e-05
3.51525e-05
4.28289e-05
4.68121e-05
4.96481e-05
5.17183e-05
5.32752e-05
5.4422e-05
5.53099e-05
5.59922e-05
5.65286e-05
5.69354e-05
5.72728e-05
5.75173e-05
5.76404e-05
5.76265e-05
5.75551e-05
5.7391e-05
5.7121e-05
5.67501e-05
5.62607e-05
5.56634e-05
5.49104e-05
5.3967e-05
5.27788e-05
5.12842e-05
4.94206e-05
4.71343e-05
4.45073e-05
4.10845e-05
3.84903e-05
3.6868e-05
3.67555e-05
3.7547e-05
3.94947e-05
4.1384e-05
4.24714e-05
4.24613e-05
4.16207e-05
4.00814e-05
3.8863e-05
3.87826e-05
3.97608e-05
4.14663e-05
4.38517e-05
4.69612e-05
5.08412e-05
5.43346e-05
5.75749e-05
6.06061e-05
6.34729e-05
6.62076e-05
6.87844e-05
7.12402e-05
7.35982e-05
7.58767e-05
7.80903e-05
8.02491e-05
8.23606e-05
8.44286e-05
8.64545e-05
8.84384e-05
9.0379e-05
9.22748e-05
9.41232e-05
9.59222e-05
9.76688e-05
9.93609e-05
0.000100995
0.000102571
0.000104086
0.000105543
0.00010694
0.000108288
0.000109585
0.000110835
0.000112066
0.000113278
0.000114465
0.000115617
0.000116715
0.000117742
0.00011867
0.000119486
0.000120032
0.000120289
0.000120378
0.000120123
0.000119558
0.000118529
0.000116893
0.000114706
0.000112528
0.000110281
0.000108024
0.000105812
0.000103693
0.00010171
9.9894e-05
9.82669e-05
9.68456e-05
9.56365e-05
9.46388e-05
9.38369e-05
9.32081e-05
9.27228e-05
9.23595e-05
9.21298e-05
9.20389e-05
9.20142e-05
9.19498e-05
9.18624e-05
9.17593e-05
9.16428e-05
9.15144e-05
9.13736e-05
9.12197e-05
9.10521e-05
9.08706e-05
9.06755e-05
9.04676e-05
9.0248e-05
9.00181e-05
8.97793e-05
8.95332e-05
8.92811e-05
8.90244e-05
8.87641e-05
8.85015e-05
8.82374e-05
8.79728e-05
8.77083e-05
8.74444e-05
8.71817e-05
8.69205e-05
8.6661e-05
8.64036e-05
8.61483e-05
8.58952e-05
8.56445e-05
8.53962e-05
8.51502e-05
8.49066e-05
8.46654e-05
8.44266e-05
8.41903e-05
8.39565e-05
8.37252e-05
8.34963e-05
8.32699e-05
8.30457e-05
8.28236e-05
8.26034e-05
8.2385e-05
8.21685e-05
8.1954e-05
8.17416e-05
8.15313e-05
8.13234e-05
8.11179e-05
8.09149e-05
8.07144e-05
8.05166e-05
8.03213e-05
8.01288e-05
7.99383e-05
7.97521e-05
7.95652e-05
7.93869e-05
7.92008e-05
7.9026e-05
7.88372e-05
7.86639e-05
7.84673e-05
7.82883e-05
7.80666e-05
7.78486e-05
7.75267e-05
7.69447e-05
7.44174e-05
1.5812e-05
9.52091e-05
0.000194518
0.000255407
0.000299655
0.000329718
0.000352328
0.000367985
0.000379439
0.000387428
0.00039356
0.000398763
0.00040393
0.000409672
0.000416467
0.000424154
0.000432566
0.000441323
0.000449128
0.000455452
0.000459775
0.000462515
0.000466277
0.000473823
0.000482557
0.000492392
0.000507548
0.000530748
0.000559746
0.000585123
0.000603081
0.000613771
0.000618263
0.000618699
0.000617806
0.000617827
0.000619477
0.000621879
0.000623298
0.000622416
0.000619125
0.000613909
0.000607387
0.000600107
0.000592407
0.000584356
0.000577387
0.000573049
0.000571322
0.000571589
0.00057305
0.000577548
0.000582776
0.000588158
0.000593538
0.00059888
0.000604194
0.000609468
0.000614926
0.000620744
0.000626964
0.000633596
0.000640616
0.000647978
0.000655599
0.000663373
0.000671142
0.000678704
0.000685757
0.000691899
0.00069651
0.000698677
0.000698495
0.00069744
0.000694735
0.000690548
0.000687868
0.000687358
0.000689388
0.000694077
0.000701421
0.0007114
0.000723502
0.000738435
0.00075525
0.000772358
0.000787901
0.000802977
0.000819322
0.000836851
0.000853952
0.000867126
0.000877147
0.000884032
0.000888337
0.000890697
0.000891774
0.000892112
0.000892013
0.000891722
0.00089143
0.000891198
0.000891123
0.000891039
0.000890621
0.000889446
0.000887254
0.000885193
0.000885544
0.000887812
0.000889753
0.000890854
0.000891287
0.000891257
0.00089088
0.00089022
0.000889323
0.000888227
0.000886965
0.000885568
0.000884065
0.000882485
0.000880856
0.000879198
0.000877529
0.000875861
0.000874202
0.000872558
0.000870935
0.000869334
0.000867756
0.000866201
0.000864667
0.000863151
0.000861651
0.000860161
0.00085868
0.000857201
0.000855721
0.000854236
0.00085274
0.000851228
0.000849697
0.000848144
0.000846565
0.000844958
0.000843319
0.000841643
0.000839929
0.000838167
0.00083635
0.000834465
0.000832508
0.000830484
0.000828394
0.00082624
0.000824024
0.000821748
0.000819412
0.000817017
0.000814562
0.000812047
0.000809472
0.000806838
0.000804142
0.000801398
0.00079869
0.00079578
0.000793049
0.000789833
0.000787054
0.000783729
0.0007811
0.000777872
0.000775532
0.000772488
0.000770286
0.000762357
0.000743416
0.000703977
2.11913e-05
0.000123823
0.000264596
0.000373624
0.000460575
0.000527919
0.000581526
0.000623374
0.000656451
0.00068149
0.000702889
0.00072241
0.00074199
0.000762739
0.000785836
0.000811794
0.000839896
0.000867452
0.000891098
0.000911199
0.000928207
0.000942889
0.000955929
0.000967268
0.000976237
0.000982112
0.000984363
0.000982521
0.000978412
0.000976349
0.000976084
0.000977464
0.000980894
0.000987262
0.00099735
0.00101163
0.00102828
0.00104515
0.00106176
0.0010768
0.00108946
0.00109998
0.00111053
0.00112047
0.00113085
0.00114236
0.00115534
0.00116973
0.00118511
0.001201
0.00121703
0.00123062
0.00124261
0.00125341
0.00126328
0.00127247
0.00128122
0.00129033
0.00129925
0.0013079
0.00131648
0.00132505
0.00133362
0.00134217
0.00135062
0.00135885
0.00136671
0.00137404
0.00138066
0.00138639
0.00139115
0.00139515
0.00139882
0.00140301
0.00140875
0.00141709
0.00142904
0.00144501
0.00146552
0.00149046
0.0015199
0.00155507
0.00159565
0.00163958
0.00168709
0.00173648
0.00178596
0.00183488
0.00188812
0.00194282
0.00199542
0.00204252
0.00208347
0.00211702
0.00214276
0.00216073
0.00217143
0.00217549
0.00217345
0.00216666
0.00215705
0.00214616
0.00213633
0.00212811
0.00212137
0.00211583
0.00211139
0.00210819
0.00210648
0.00210573
0.00210494
0.00210359
0.00210149
0.00209898
0.0020961
0.00209285
0.00208925
0.00208532
0.0020811
0.00207662
0.00207195
0.00206711
0.00206217
0.00205715
0.0020521
0.00204705
0.00204201
0.002037
0.00203204
0.00202714
0.0020223
0.00201753
0.00201282
0.00200817
0.00200357
0.00199903
0.00199453
0.00199006
0.00198562
0.00198119
0.00197677
0.00197234
0.0019679
0.00196345
0.00195896
0.00195444
0.00194988
0.00194526
0.00194058
0.0019358
0.0019309
0.00192586
0.00192068
0.00191536
0.00190992
0.00190436
0.00189869
0.00189293
0.00188706
0.00188109
0.00187503
0.00186886
0.0018626
0.00185624
0.00184979
0.00184325
0.00183665
0.00182992
0.0018231
0.0018161
0.00180909
0.00180194
0.00179489
0.00178767
0.00178059
0.00177293
0.00176324
0.00174781
0.00171964
0.00165548
2.35182e-05
0.000145459
0.000316186
0.000444999
0.000560509
0.000649531
0.00072644
0.000784116
0.000834067
0.000875412
0.000913814
0.000949834
0.000985727
0.0010219
0.00105928
0.00109781
0.00113682
0.0011746
0.00120867
0.00123591
0.00125553
0.00126936
0.00127905
0.00128571
0.00128999
0.00129243
0.00129368
0.00129472
0.00129672
0.0013009
0.00130834
0.00132003
0.00133671
0.00135878
0.0013857
0.00141471
0.00144492
0.001476
0.00150634
0.00153612
0.00156426
0.00158944
0.00161263
0.00163462
0.00165607
0.00167731
0.00169838
0.00171907
0.00173904
0.00175796
0.00177555
0.00179166
0.00180642
0.00181999
0.00183256
0.00184434
0.00185555
0.00186594
0.0018765
0.00188721
0.00189795
0.00190874
0.00191959
0.00193051
0.00194144
0.00195232
0.00196311
0.00197374
0.00198413
0.0019942
0.00200387
0.00201295
0.00202099
0.00202922
0.00204103
0.00205747
0.00207959
0.00210841
0.00214549
0.00218976
0.00224171
0.00230218
0.00237084
0.00244679
0.00252854
0.0026124
0.00269359
0.00277583
0.00286218
0.00295083
0.00303736
0.00311825
0.00319099
0.00325294
0.00330229
0.00333812
0.0033604
0.00336951
0.00336545
0.00335046
0.00333149
0.00331221
0.0032948
0.00328005
0.00326814
0.00325893
0.00325219
0.00324747
0.00324412
0.00324145
0.0032389
0.00323615
0.00323303
0.00322944
0.00322526
0.00322046
0.00321503
0.00320901
0.00320245
0.00319543
0.00318803
0.00318032
0.00317238
0.00316428
0.00315609
0.00314785
0.00313961
0.0031314
0.00312325
0.00311518
0.00310719
0.0030993
0.00309151
0.00308382
0.00307621
0.0030687
0.00306126
0.00305388
0.00304655
0.00303926
0.003032
0.00302475
0.0030175
0.00301023
0.00300295
0.00299563
0.00298826
0.00298084
0.00297331
0.0029656
0.00295766
0.00294949
0.00294109
0.00293251
0.00292377
0.00291489
0.00290588
0.00289675
0.00288751
0.00287816
0.0028687
0.00285913
0.00284946
0.00283968
0.0028298
0.00281984
0.00280978
0.00279961
0.00278934
0.00277896
0.00276856
0.00275808
0.0027477
0.00273716
0.00272678
0.00271514
0.00270097
0.00268068
0.00264803
0.00257736
2.65186e-05
0.000176442
0.000373566
0.000526079
0.000664336
0.000776392
0.000875942
0.000956847
0.00102916
0.00109017
0.00114689
0.00119876
0.00124894
0.00129684
0.00134281
0.00138562
0.0014252
0.00146156
0.00149502
0.00152455
0.00154754
0.00156429
0.00157701
0.00158725
0.00159607
0.00160432
0.00161282
0.0016225
0.00163442
0.00164959
0.00166888
0.00169283
0.00172157
0.00175471
0.00179179
0.00183178
0.00187349
0.00191516
0.00195516
0.0019909
0.00202244
0.00205135
0.00207834
0.00210396
0.00212855
0.00215225
0.00217504
0.00219681
0.00221742
0.00223677
0.00225485
0.00227171
0.00228746
0.00230225
0.00231626
0.00232968
0.0023427
0.00235552
0.0023679
0.00237999
0.00239223
0.00240487
0.00241801
0.00243173
0.00244609
0.00246101
0.00247645
0.00249246
0.00250905
0.00252633
0.00254442
0.00256343
0.00258394
0.00260695
0.00263377
0.00266403
0.00269909
0.00274065
0.0027894
0.00284561
0.00290997
0.00298309
0.00306552
0.003157
0.00325583
0.00335942
0.00346501
0.00357513
0.0036886
0.00380669
0.00392468
0.00403871
0.00414492
0.00423929
0.00431807
0.00437889
0.00442086
0.00444462
0.00445271
0.00444968
0.00444035
0.00442805
0.00441512
0.00440297
0.00439236
0.00438359
0.00437659
0.00437102
0.00436642
0.00436235
0.00435843
0.0043544
0.00435006
0.00434523
0.00433984
0.00433384
0.00432724
0.00432005
0.00431234
0.00430417
0.00429561
0.00428673
0.00427759
0.00426826
0.00425878
0.00424921
0.00423958
0.00422991
0.00422024
0.00421057
0.00420091
0.00419128
0.00418168
0.00417209
0.00416252
0.00415296
0.00414339
0.00413382
0.00412422
0.0041146
0.00410492
0.00409519
0.00408539
0.00407552
0.00406556
0.0040555
0.00404533
0.00403502
0.0040245
0.00401355
0.00400215
0.00399036
0.00397827
0.00396595
0.00395343
0.00394075
0.00392792
0.00391496
0.00390187
0.00388867
0.00387537
0.00386195
0.00384843
0.00383482
0.00382112
0.00380733
0.00379345
0.00377949
0.00376544
0.00375131
0.00373715
0.00372292
0.00370868
0.00369418
0.00367925
0.00366213
0.00364104
0.00361368
0.00357179
0.0034923
2.87171e-05
0.000196252
0.000422441
0.000601996
0.000764717
0.000900236
0.0010208
0.00112353
0.00121594
0.00129614
0.00136895
0.00143432
0.00149528
0.00155205
0.0016053
0.00165444
0.0016991
0.00173898
0.0017743
0.00180518
0.00183129
0.00185348
0.00187314
0.00189135
0.00190896
0.00192674
0.00194541
0.00196568
0.00198818
0.00201341
0.0020418
0.0020745
0.00211195
0.00215318
0.00219745
0.00224236
0.00228595
0.00232688
0.00236495
0.00240011
0.00243205
0.00246155
0.00248918
0.00251533
0.0025402
0.00256389
0.00258642
0.00260778
0.00262797
0.00264704
0.00266504
0.00268208
0.00269828
0.0027138
0.00272878
0.00274338
0.00275776
0.00277205
0.00278641
0.00280105
0.00281595
0.00283128
0.00284715
0.00286366
0.00288088
0.00289898
0.00291811
0.00293839
0.00295998
0.0029831
0.0030084
0.00303517
0.0030641
0.00309521
0.00312804
0.00316121
0.00319811
0.0032417
0.00329294
0.00335288
0.00342249
0.00350228
0.00359466
0.00370114
0.00382052
0.00394932
0.00407637
0.00420852
0.00434566
0.00448933
0.00463883
0.0047897
0.00493642
0.00507275
0.00519288
0.00529197
0.00536739
0.00541936
0.00545077
0.00546617
0.00547026
0.00546715
0.00546014
0.00545157
0.00544292
0.00543495
0.00542792
0.00542176
0.0054162
0.00541095
0.00540571
0.00540025
0.00539438
0.00538796
0.00538093
0.00537326
0.00536496
0.00535608
0.00534667
0.00533679
0.00532651
0.0053159
0.00530501
0.0052939
0.00528261
0.00527119
0.00525967
0.00524807
0.00523641
0.00522471
0.00521297
0.00520119
0.00518939
0.00517754
0.00516566
0.00515372
0.00514173
0.00512967
0.00511753
0.0051053
0.00509298
0.00508055
0.005068
0.00505534
0.00504253
0.00502959
0.00501648
0.00500316
0.00498945
0.00497481
0.00495947
0.0049437
0.00492763
0.00491133
0.00489485
0.00487823
0.00486148
0.00484463
0.00482767
0.00481063
0.00479351
0.0047763
0.00475903
0.0047417
0.00472431
0.00470687
0.00468939
0.00467187
0.00465433
0.00463678
0.00461925
0.00460168
0.00458412
0.00456616
0.00454757
0.00452618
0.00450073
0.00446796
0.00442068
0.00433548
3.09264e-05
0.00021316
0.000468007
0.000675527
0.000860368
0.00101816
0.00115523
0.00127573
0.00138291
0.00147886
0.00156538
0.00164395
0.00171549
0.00178059
0.00183969
0.00189323
0.00194178
0.00198566
0.00202541
0.00206157
0.00209477
0.0021257
0.00215507
0.0021835
0.00221156
0.00223972
0.00226842
0.002298
0.00232868
0.00236068
0.00239386
0.00242948
0.00246836
0.00251047
0.00255471
0.0025999
0.00264463
0.00268739
0.00272518
0.00275895
0.00278978
0.00281838
0.00284521
0.00287054
0.00289452
0.00291723
0.00293875
0.00295914
0.00297846
0.0029968
0.00301426
0.00303096
0.00304701
0.00306256
0.00307773
0.00309267
0.00310751
0.00312239
0.00313744
0.00315282
0.00316868
0.00318504
0.00320203
0.0032198
0.00323854
0.00325842
0.0032796
0.00330224
0.00332648
0.00335302
0.0033809
0.00341004
0.0034416
0.00347581
0.00351336
0.00355474
0.00360176
0.00365503
0.00371439
0.00378005
0.00385165
0.00392756
0.00401295
0.00411335
0.00422884
0.00436128
0.0045053
0.00465789
0.00481741
0.00498586
0.00516938
0.00536447
0.00556455
0.00575758
0.00593534
0.0060898
0.00621484
0.00630857
0.00637309
0.00641311
0.00643443
0.00644278
0.00644297
0.00643864
0.0064322
0.00642506
0.00641792
0.00641099
0.0064042
0.00639738
0.00639032
0.00638282
0.00637475
0.00636602
0.00635659
0.00634647
0.00633569
0.00632431
0.0063124
0.00630001
0.00628721
0.00627408
0.00626066
0.00624702
0.00623318
0.0062192
0.00620509
0.00619089
0.0061766
0.00616223
0.0061478
0.00613331
0.00611875
0.00610413
0.00608943
0.00607465
0.00605978
0.00604481
0.00602974
0.00601455
0.00599924
0.00598379
0.00596821
0.00595248
0.00593659
0.00592054
0.0059043
0.00588779
0.00587088
0.00585337
0.00583535
0.00581696
0.00579827
0.00577933
0.0057602
0.0057409
0.00572145
0.00570187
0.00568217
0.00566237
0.00564247
0.00562248
0.00560241
0.00558228
0.00556208
0.00554182
0.0055215
0.00550114
0.00548074
0.00546028
0.00543976
0.00541909
0.00539813
0.00537647
0.00535329
0.00532653
0.00529475
0.00525512
0.00519915
0.00511057
3.24065e-05
0.000224182
0.000503581
0.000734217
0.000937656
0.00111237
0.00126402
0.00139771
0.00151693
0.00162377
0.00172007
0.00180747
0.00188706
0.00195978
0.00202631
0.00208728
0.00214331
0.00219504
0.0022431
0.00228808
0.00233053
0.00237099
0.00240993
0.00244772
0.00248469
0.00252102
0.0025568
0.00259196
0.00262622
0.00266129
0.00269877
0.00273957
0.00278367
0.00283014
0.00287728
0.00292294
0.00296462
0.00300172
0.00303527
0.00306612
0.00309481
0.00312169
0.00314698
0.00317082
0.00319331
0.00321453
0.00323456
0.00325349
0.0032714
0.00328838
0.00330456
0.00332002
0.00333489
0.00334926
0.00336324
0.00337692
0.00339038
0.00340373
0.00341705
0.00343046
0.0034441
0.00345812
0.00347273
0.00348817
0.00350466
0.00352243
0.00354169
0.00356261
0.0035854
0.00361091
0.00363784
0.00366663
0.00369864
0.00373366
0.00377323
0.00381697
0.00386515
0.00391818
0.00397673
0.00404116
0.00411219
0.00419108
0.00427942
0.00437672
0.00448056
0.00460476
0.00475731
0.00493173
0.00510956
0.00530306
0.00552128
0.00576525
0.00602842
0.00629872
0.00655428
0.00678395
0.00697651
0.00712646
0.0072345
0.007306
0.00734874
0.00737084
0.00737932
0.00737955
0.0073752
0.00736853
0.00736075
0.00735242
0.00734369
0.00733453
0.00732481
0.00731443
0.00730329
0.00729136
0.00727866
0.00726522
0.0072511
0.00723638
0.00722112
0.00720539
0.00718928
0.00717283
0.00715612
0.00713918
0.00712206
0.0071048
0.00708742
0.00706993
0.00705236
0.00703472
0.007017
0.00699921
0.00698135
0.00696342
0.00694541
0.0069273
0.00690911
0.00689081
0.0068724
0.00685387
0.00683522
0.00681644
0.00679752
0.00677845
0.00675924
0.00673986
0.00672029
0.00670047
0.00668031
0.00665974
0.0066388
0.00661755
0.00659604
0.00657432
0.00655241
0.00653033
0.00650812
0.00648579
0.00646334
0.0064408
0.00641817
0.00639547
0.0063727
0.00634987
0.00632698
0.00630405
0.00628108
0.00625806
0.00623498
0.00621183
0.00618855
0.006165
0.00614093
0.00611581
0.00608855
0.00605714
0.00602026
0.00597476
0.00591258
0.00582289
3.3689e-05
0.000232558
0.000532438
0.000781985
0.00100087
0.00118961
0.00135381
0.00149866
0.00162802
0.00174399
0.00184856
0.00194354
0.00203024
0.00210985
0.00218329
0.00225138
0.00231481
0.00237419
0.00243012
0.00248318
0.00253388
0.00258264
0.00262986
0.00267582
0.00272078
0.00276494
0.00280844
0.00285145
0.00289416
0.00293671
0.00297952
0.00302329
0.0030676
0.00311126
0.00315244
0.00319066
0.003226
0.00325879
0.00328934
0.00331792
0.00334471
0.00336981
0.00339335
0.00341538
0.003436
0.00345526
0.00347327
0.0034901
0.00350585
0.00352061
0.00353448
0.00354754
0.00355986
0.00357153
0.00358259
0.0035931
0.00360312
0.00361272
0.00362201
0.00363114
0.00364032
0.00364981
0.0036599
0.0036709
0.00368311
0.00369677
0.0037121
0.00372933
0.00374859
0.00377063
0.00379372
0.00381911
0.00384751
0.00387948
0.00391463
0.00395318
0.00399553
0.00404216
0.00409366
0.00415102
0.00421555
0.0042886
0.00437168
0.00446564
0.00457456
0.00470439
0.004856
0.00502469
0.00521762
0.00543731
0.00569249
0.00599291
0.00633268
0.00669429
0.00705086
0.00737652
0.00765592
0.00787777
0.00804061
0.00815087
0.00821923
0.00825715
0.00827466
0.00827944
0.00827676
0.00826989
0.00826072
0.00825019
0.00823869
0.00822634
0.00821312
0.008199
0.00818397
0.00816805
0.0081513
0.00813378
0.00811559
0.00809681
0.00807751
0.00805777
0.00803768
0.00801728
0.00799664
0.0079758
0.0079548
0.00793367
0.00791244
0.00789113
0.00786975
0.0078483
0.00782679
0.00780523
0.00778361
0.00776192
0.00774017
0.00771835
0.00769644
0.00767445
0.00765236
0.00763018
0.00760789
0.00758549
0.00756298
0.00754034
0.00751759
0.00749469
0.00747164
0.00744838
0.00742487
0.00740108
0.00737703
0.00735275
0.00732827
0.00730362
0.00727882
0.00725389
0.00722886
0.00720374
0.00717854
0.00715327
0.00712794
0.00710257
0.00707716
0.00705172
0.00702626
0.00700079
0.00697529
0.00694976
0.00692418
0.0068985
0.00687264
0.0068464
0.00681943
0.0067911
0.00676022
0.0067249
0.0066837
0.00663354
0.00656729
0.00647811
3.43103e-05
0.000239224
0.00055296
0.000815701
0.00104908
0.00125088
0.00142662
0.00158165
0.00171997
0.00184394
0.00195572
0.00205734
0.0021503
0.00223595
0.00231534
0.00238941
0.00245894
0.00252457
0.00258687
0.00264628
0.00270324
0.00275816
0.00281138
0.00286318
0.00291374
0.00296322
0.0030117
0.00305925
0.00310588
0.00315157
0.00319623
0.00323963
0.00328136
0.00332104
0.00335845
0.00339357
0.0034265
0.00345733
0.00348619
0.00351315
0.00353828
0.00356164
0.0035833
0.00360331
0.00362174
0.00363867
0.00365418
0.00366835
0.00368127
0.00369303
0.0037037
0.00371335
0.00372203
0.00372979
0.00373668
0.00374275
0.00374807
0.00375279
0.00375707
0.00376117
0.00376541
0.00377011
0.00377564
0.00378232
0.00379043
0.00380022
0.00381172
0.00382536
0.00384096
0.00385737
0.00387606
0.00389698
0.00391997
0.00394509
0.00397234
0.00400187
0.00403398
0.00406909
0.00410783
0.00415086
0.00419879
0.0042535
0.00431826
0.00439901
0.00449943
0.00462228
0.00476932
0.00494449
0.0051519
0.00539826
0.00569231
0.00605374
0.00647937
0.00694773
0.00742588
0.00786994
0.00825678
0.00856704
0.00879628
0.00895245
0.00905018
0.00910548
0.0091323
0.00914121
0.00913945
0.00913153
0.00912006
0.00910643
0.00909129
0.00907493
0.00905743
0.00903884
0.00901922
0.00899865
0.00897725
0.00895511
0.00893233
0.00890901
0.00888523
0.00886107
0.00883659
0.00881185
0.00878691
0.00876181
0.00873658
0.00871126
0.00868587
0.00866041
0.00863491
0.00860938
0.00858381
0.0085582
0.00853257
0.00850689
0.00848118
0.00845542
0.0084296
0.00840373
0.0083778
0.00835181
0.00832574
0.0082996
0.00827338
0.00824708
0.0082207
0.00819422
0.00816764
0.00814091
0.00811402
0.00808696
0.00805973
0.00803235
0.00800484
0.00797723
0.00794952
0.00792174
0.0078939
0.00786601
0.00783809
0.00781015
0.00778221
0.00775426
0.00772631
0.00769838
0.00767047
0.00764258
0.00761469
0.0075868
0.00755887
0.00753083
0.00750254
0.00747378
0.00744413
0.00741288
0.00737882
0.00734027
0.00729548
0.00724187
0.00717335
0.00708602
3.48882e-05
0.000248472
0.000570223
0.000841683
0.00108686
0.00129948
0.00148492
0.00164866
0.00179465
0.00192543
0.00204328
0.00215039
0.00224837
0.00233871
0.00242255
0.00250091
0.00257461
0.00264435
0.00271068
0.00277406
0.00283485
0.0028934
0.00295002
0.00300492
0.00305824
0.00311009
0.00316049
0.00320944
0.00325688
0.0033027
0.00334676
0.00338893
0.00342907
0.00346709
0.00350296
0.00353671
0.00356836
0.00359794
0.0036255
0.00365106
0.00367465
0.00369631
0.00371609
0.00373403
0.0037502
0.00376467
0.00377751
0.0037888
0.00379864
0.00380709
0.00381423
0.00382014
0.00382486
0.00382847
0.00383104
0.00383268
0.00383354
0.00383382
0.0038338
0.00383377
0.00383407
0.00383502
0.00383692
0.00384003
0.00384454
0.00385084
0.00385833
0.00386691
0.00387677
0.00388766
0.00389958
0.0039129
0.00392762
0.00394332
0.00395986
0.00397731
0.00399587
0.00401586
0.00403775
0.00406226
0.00409066
0.00412509
0.00416837
0.00422398
0.00429732
0.00439624
0.00452911
0.00470651
0.00492876
0.00519989
0.00553375
0.00595983
0.00648065
0.00706996
0.00768586
0.00826885
0.00878279
0.00919678
0.00950257
0.00971021
0.00983964
0.00991271
0.00994824
0.0099603
0.00995837
0.00994831
0.00993355
0.00991591
0.00989635
0.00987527
0.00985285
0.00982921
0.00980449
0.00977884
0.00975242
0.00972535
0.00969775
0.00966969
0.00964126
0.00961252
0.00958354
0.00955436
0.00952502
0.00949558
0.00946606
0.00943647
0.00940686
0.00937721
0.00934756
0.0093179
0.00928824
0.00925857
0.0092289
0.00919923
0.00916955
0.00913985
0.00911014
0.00908041
0.00905065
0.00902087
0.00899106
0.00896122
0.00893134
0.00890143
0.00887149
0.0088415
0.00881146
0.00878135
0.00875117
0.00872089
0.00869053
0.00866011
0.00862963
0.0085991
0.00856855
0.00853799
0.00850742
0.00847687
0.00844634
0.00841584
0.00838538
0.00835498
0.00832463
0.00829434
0.00826412
0.00823395
0.00820383
0.00817372
0.00814358
0.00811332
0.00808277
0.00805167
0.00801954
0.00798566
0.00794887
0.00790767
0.00786002
0.00780407
0.00773478
0.00765009
3.49924e-05
0.000254554
0.000581353
0.000858144
0.00111287
0.00133396
0.00152782
0.00169909
0.00185147
0.00198773
0.00211025
0.00222138
0.0023228
0.00241609
0.00250247
0.00258304
0.00265865
0.00273004
0.00279781
0.00286246
0.00292441
0.00298399
0.00304141
0.00309684
0.00315045
0.00320231
0.00325245
0.00330088
0.00334754
0.00339237
0.0034353
0.00347625
0.00351519
0.00355209
0.00358692
0.00361968
0.00365036
0.00367895
0.00370546
0.00372989
0.00375223
0.00377252
0.00379077
0.00380702
0.00382132
0.00383373
0.00384432
0.00385317
0.00386035
0.00386595
0.00387005
0.00387273
0.00387409
0.00387422
0.00387324
0.00387131
0.00386859
0.00386531
0.00386171
0.00385804
0.00385455
0.00385137
0.00384881
0.00384708
0.00384635
0.00384651
0.00384727
0.0038484
0.0038499
0.00385161
0.00385351
0.00385513
0.00385627
0.00385709
0.00385771
0.0038583
0.00385906
0.00386032
0.00386262
0.00386711
0.00387531
0.00388916
0.00391128
0.00394504
0.00399554
0.00407372
0.00418789
0.00434873
0.0045695
0.00485947
0.00523809
0.00573672
0.00636155
0.0070833
0.00784737
0.00858799
0.00924429
0.00977349
0.0101625
0.0104241
0.0105852
0.0106747
0.0107172
0.0107307
0.0107271
0.0107136
0.0106944
0.0106719
0.0106472
0.0106208
0.010593
0.0105639
0.0105337
0.0105027
0.0104711
0.010439
0.0104066
0.0103739
0.0103409
0.0103077
0.0102743
0.0102409