/*--------------------------------*- C++ -*----------------------------------*\
| =========                 |                                                 |
| \\      /  F ield         | OpenFOAM: The Open Source CFD Toolbox           |
|  \\    /   O peration     | Version:  v1906                                 |
|   \\  /    A nd           | Web:      www.OpenFOAM.com                      |
|    \\/     M anipulation  |                                                 |
\*---------------------------------------------------------------------------*/
FoamFile
{
    version     2.0;
    format      ascii;
    class       volScalarField;
    location    "600";
    object      p;
}
// * * * * * * * * * * * * * * * * * * * * * * * * * * * * * * * * * * * * * //

dimensions      [0 2 -2 0 0 0 0];


internalField   nonuniform List<scalar> 
12225
(
1.72398
0.521425
0.470934
0.465316
0.329088
0.190402
0.0837561
-0.0111532
-0.10275
-0.18942
-0.270183
-0.349387
-0.430767
-0.516095
-0.605636
-0.705325
-0.824817
-0.980426
-0.0365162
-0.551537
-0.709614
-0.695862
-0.751792
-0.817283
-0.866314
-0.91599
-0.971249
-1.02831
-1.08541
-1.14423
-1.20813
-1.2767
-1.3515
-1.43492
-1.52763
-1.66172
0.54852
-0.232085
-0.371877
-0.340682
-0.374167
-0.424123
-0.465955
-0.509691
-0.558281
-0.608499
-0.659253
-0.711498
-0.767918
-0.827787
-0.893274
-0.962115
-1.03644
-1.09277
-0.106627
-0.573356
-0.791429
-0.865995
-0.95906
-1.04342
-1.10584
-1.16091
-1.21549
-1.26919
-1.32234
-1.37654
-1.43379
-1.49439
-1.5587
-1.62642
-1.69544
-1.77276
0.0843299
-0.374434
-0.589994
-0.651112
-0.713943
-0.76954
-0.811807
-0.851897
-0.893765
-0.936458
-0.979691
-1.0243
-1.07119
-1.12084
-1.17159
-1.22453
-1.26739
-1.30042
-0.292972
-0.595016
-0.801475
-0.904743
-1.00889
-1.10181
-1.17777
-1.24553
-1.30949
-1.37042
-1.42922
-1.48736
-1.54591
-1.60551
-1.66507
-1.72519
-1.7816
-1.84285
-0.227468
-0.475117
-0.675413
-0.774199
-0.861494
-0.933074
-0.989501
-1.03943
-1.0868
-1.13247
-1.17704
-1.22138
-1.26585
-1.31068
-1.35402
-1.39587
-1.42656
-1.4446
-0.468192
-0.651949
-0.82711
-0.935134
-1.03987
-1.13269
-1.21296
-1.28604
-1.35454
-1.41943
-1.48153
-1.54183
-1.60086
-1.65893
-1.71519
-1.76966
-1.8216
-1.87485
-0.45533
-0.582178
-0.74319
-0.845468
-0.939566
-1.01871
-1.08503
-1.14379
-1.19775
-1.24822
-1.29609
-1.34208
-1.38636
-1.42895
-1.4684
-1.50424
-1.53013
-1.54522
-0.616667
-0.7264
-0.866131
-0.966287
-1.06556
-1.15484
-1.23515
-1.3094
-1.37906
-1.44498
-1.50779
-1.56806
-1.62605
-1.68181
-1.73509
-1.78564
-1.83494
-1.88303
-0.626378
-0.691171
-0.811629
-0.903079
-0.993031
-1.07239
-1.14262
-1.20615
-1.26446
-1.31857
-1.36918
-1.41678
-1.46147
-1.50318
-1.54097
-1.57442
-1.59993
-1.61783
-0.728911
-0.795513
-0.903709
-0.991152
-1.08097
-1.16388
-1.24071
-1.3126
-1.38022
-1.44415
-1.50477
-1.56241
-1.61718
-1.66905
-1.71809
-1.76388
-1.80836
-1.84953
-0.745804
-0.783016
-0.873139
-0.951682
-1.03327
-1.10895
-1.17879
-1.24346
-1.30345
-1.35931
-1.41144
-1.46009
-1.50532
-1.54706
-1.58487
-1.61843
-1.64646
-1.66922
-0.830134
-0.87392
-0.956064
-1.03089
-1.11007
-1.1864
-1.25923
-1.32855
-1.39434
-1.45671
-1.51581
-1.57172
-1.62452
-1.67418
-1.7209
-1.76432
-1.8056
-1.84257
-0.852189
-0.874502
-0.937559
-1.00192
-1.0718
-1.14089
-1.20736
-1.27067
-1.33046
-1.3867
-1.43943
-1.48869
-1.53452
-1.57686
-1.61575
-1.65102
-1.68328
-1.71193
-0.918934
-0.946227
-1.00398
-1.06427
-1.12957
-1.19559
-1.26022
-1.32265
-1.38226
-1.43874
-1.4919
-1.54169
-1.58802
-1.63091
-1.67021
-1.706
-1.73753
-1.76567
-0.943566
-0.962979
-1.01036
-1.06524
-1.12659
-1.19093
-1.25561
-1.31939
-1.38142
-1.4412
-1.49846
-1.55304
-1.60496
-1.65405
-1.7008
-1.7445
-1.78739
-1.82559
-0.953149
-0.967513
-1.00575
-1.05112
-1.1009
-1.15244
-1.20312
-1.25159
-1.29699
-1.33879
-1.37666
-1.41054
-1.44028
-1.46624
-1.48791
-1.50681
-1.52039
-1.53478
-0.992526
-1.0206
-1.07499
-1.13738
-1.20655
-1.28048
-1.35652
-1.43342
-1.51031
-1.58656
-1.66177
-1.73556
-1.80779
-1.87791
-1.94609
-2.01071
-2.07349
-2.12872
-0.856649
-0.863668
-0.898426
-0.939652
-0.98272
-1.02496
-1.06367
-1.09782
-1.12697
-1.15097
-1.1698
-1.18367
-1.19267
-1.19742
-1.19773
-1.19577
-1.18955
-1.18728
-0.884384
-0.93002
-1.00542
-1.08125
-1.16075
-1.24209
-1.32269
-1.40189
-1.47944
-1.55515
-1.6291
-1.70148
-1.77278
-1.84321
-1.91388
-1.98389
-2.05641
-2.12394
-0.699144
-0.718136
-0.782729
-0.841961
-0.896371
-0.94462
-0.984742
-1.01749
-1.04391
-1.0647
-1.08031
-1.09109
-1.09692
-1.09783
-1.09253
-1.08166
-1.06033
-1.03655
-0.726707
-0.808473
-0.923208
-1.0204
-1.11565
-1.20867
-1.29615
-1.37843
-1.45636
-1.53031
-1.60073
-1.66827
-1.73391
-1.79866
-1.8649
-1.93397
-2.01344
-2.09957
-0.463372
-0.537896
-0.66096
-0.740738
-0.802194
-0.851383
-0.887694
-0.915008
-0.936808
-0.954515
-0.968723
-0.979828
-0.987779
-0.99227
-0.991405
-0.983629
-0.959159
-0.917593
-0.527252
-0.685976
-0.856431
-0.973254
-1.08101
-1.18296
-1.27189
-1.35012
-1.42117
-1.4863
-1.54628
-1.60213
-1.65492
-1.70562
-1.75636
-1.80958
-1.87688
-1.96613
-0.113431
-0.355716
-0.542844
-0.61231
-0.655718
-0.691594
-0.715471
-0.733251
-0.750265
-0.766849
-0.78232
-0.796607
-0.809661
-0.821308
-0.830488
-0.835874
-0.826746
-0.790538
-0.305189
-0.606328
-0.836804
-0.951821
-1.05611
-1.1516
-1.22335
-1.28008
-1.33043
-1.37633
-1.41827
-1.45721
-1.49401
-1.52906
-1.56314
-1.59717
-1.64053
-1.70994
0.431244
-0.173653
-0.337935
-0.317596
-0.323001
-0.351808
-0.375237
-0.396948
-0.422443
-0.449405
-0.475604
-0.500757
-0.524872
-0.547826
-0.569336
-0.589612
-0.602559
-0.592948
-0.193642
-0.580089
-0.803681
-0.815939
-0.855736
-0.90392
-0.936324
-0.9651
-0.997575
-1.03185
-1.06563
-1.09863
-1.1309
-1.16226
-1.19244
-1.22154
-1.25418
-1.305
1.6771
0.556451
0.486224
0.506613
0.407778
0.289656
0.198436
0.121561
0.0487469
-0.019267
-0.0812005
-0.137816
-0.190072
-0.238308
-0.282604
-0.322675
-0.357004
-0.384022
-1.85458
-1.88288
-1.90863
-1.9436
-1.98975
-2.04186
-2.09584
-2.1514
-2.2079
-2.26481
-2.32151
-2.37734
-2.43139
-2.4831
-2.53189
-2.57622
-2.61523
-2.64903
-2.67635
-2.69634
-2.7071
-2.70865
-2.70211
-2.688
-2.66565
-2.63546
-2.59902
-2.55863
-2.51746
-2.48006
-2.45259
-2.43822
-2.43641
-2.44477
-2.45819
-2.46901
-2.47158
-2.4645
-2.44968
-2.43186
-2.41897
-2.41483
-2.42105
-2.43909
-2.47206
-2.51841
-2.5744
-2.63721
-2.70658
-2.78136
-2.86108
-2.9446
-3.03174
-3.12195
-3.21523
-3.31124
-3.40984
-3.51064
-3.6131
-3.71666
-3.82027
-3.92311
-4.02356
-4.12058
-4.21206
-4.29686
-4.37248
-4.43746
-4.48845
-4.52343
-4.53941
-4.53606
-4.51115
-4.46092
-4.37443
-4.24418
-4.0661
-3.84118
-3.56695
-3.2428
-2.86592
-2.43698
-1.95681
-1.43003
-0.86298
-0.265651
0.346671
0.959152
1.56026
2.13947
2.68687
3.19267
3.65203
4.0654
4.43594
4.7687
5.06935
5.34336
5.59564
5.8304
6.05127
6.26133
6.46323
6.65919
6.85095
7.03963
7.22596
7.41094
7.59619
7.78184
7.9667
8.15004
8.33125
8.50978
8.68519
8.85709
9.02517
9.1892
9.34902
9.50455
9.65576
9.80266
9.94532
10.0838
10.2183
10.349
10.476
10.5994
10.7195
10.8365
10.9504
11.0614
11.1698
11.2757
11.3791
11.4803
11.5794
11.6765
11.7717
11.8651
11.9569
12.0471
12.1358
12.2231
12.3091
12.3938
12.4774
12.5598
12.6411
12.7215
12.8009
12.8793
12.9568
13.0334
13.1092
13.1841
13.2582
13.3314
13.4037
13.4752
13.5458
13.6156
13.6844
13.7524
13.8194
13.8855
13.9506
14.0148
14.0782
14.1407
14.2026
14.264
14.3256
14.3877
14.4525
14.5203
14.6016
14.6979
14.8539
15.0332
-1.94917
-2.03708
-2.09405
-2.16344
-2.22533
-2.28823
-2.34665
-2.40598
-2.4627
-2.51834
-2.57176
-2.62294
-2.67116
-2.71618
-2.75741
-2.79445
-2.82654
-2.85376
-2.87601
-2.89316
-2.90652
-2.91487
-2.91357
-2.89942
-2.87007
-2.82617
-2.77155
-2.71129
-2.65029
-2.59327
-2.54624
-2.51412
-2.49846
-2.49728
-2.50546
-2.51666
-2.52615
-2.53006
-2.52485
-2.51335
-2.50623
-2.51051
-2.52883
-2.56229
-2.61165
-2.6748
-2.74882
-2.83114
-2.9201
-3.01412
-3.11237
-3.21423
-3.31969
-3.42881
-3.54188
-3.65904
-3.78034
-3.9056
-4.03436
-4.166
-4.29946
-4.43367
-4.56706
-4.69817
-4.82497
-4.94569
-5.05789
-5.15944
-5.24733
-5.31891
-5.37047
-5.39825
-5.39673
-5.36258
-5.29704
-5.20323
-5.0787
-4.91838
-4.71438
-4.46167
-4.15554
-3.79367
-3.37482
-2.90067
-2.3744
-1.80246
-1.19694
-0.571089
0.0632716
0.692776
1.29962
1.87054
2.40036
2.88611
3.3282
3.72906
4.09265
4.42348
4.72621
5.00515
5.26431
5.50725
5.73718
5.95694
6.16895
6.37503
6.57673
6.77488
6.96745
7.15506
7.34058
7.52417
7.70573
7.88497
8.06158
8.23523
8.40565
8.57258
8.73586
8.89536
9.051
9.20275
9.35062
9.49465
9.63493
9.77155
9.90463
10.0343
10.1607
10.2839
10.4041
10.5215
10.6361
10.7481
10.8576
10.9648
11.0698
11.1727
11.2735
11.3725
11.4697
11.5652
11.659
11.7513
11.8422
11.9317
12.0199
12.1068
12.1925
12.2771
12.3606
12.443
12.5244
12.6047
12.6841
12.7626
12.84
12.9165
12.992
13.0666
13.1402
13.2128
13.2844
13.355
13.4246
13.4931
13.5607
13.6272
13.6927
13.7574
13.8214
13.8848
13.9485
14.0125
14.0794
14.1486
14.229
14.3141
14.4469
14.591
-1.99643
-2.12749
-2.15417
-2.23051
-2.26776
-2.3296
-2.37254
-2.42332
-2.4688
-2.51833
-2.56533
-2.61201
-2.65554
-2.69664
-2.73438
-2.76795
-2.79529
-2.81532
-2.82813
-2.83593
-2.84093
-2.84504
-2.84738
-2.845
-2.83419
-2.81304
-2.7821
-2.74387
-2.70206
-2.66008
-2.62103
-2.58706
-2.56005
-2.54257
-2.53636
-2.53945
-2.54813
-2.55932
-2.57098
-2.58249
-2.59583
-2.61395
-2.6399
-2.67488
-2.71929
-2.77212
-2.832
-2.89742
-2.96741
-3.0412
-3.11862
-3.1996
-3.28444
-3.37333
-3.46655
-3.56419
-3.6662
-3.77233
-3.88214
-3.995
-4.11001
-4.22619
-4.34222
-4.45682
-4.5683
-4.67511
-4.77527
-4.86689
-4.94769
-5.01585
-5.06942
-5.10607
-5.12166
-5.11203
-5.07454
-5.00632
-4.90105
-4.75178
-4.55549
-4.30931
-4.0098
-3.65417
-3.24121
-2.77274
-2.25289
-1.68641
-1.08074
-0.451943
0.1846
0.814401
1.42119
1.99235
2.52035
3.00218
3.43846
3.83232
4.18835
4.51163
4.80717
5.07953
5.33281
5.57055
5.79582
6.01126
6.21908
6.42088
6.61799
6.81194
7.0035
7.19265
7.37963
7.56467
7.74778
7.92863
8.10691
8.28228
8.45445
8.62317
8.78824
8.94951
9.1069
9.26034
9.40984
9.55544
9.69722
9.83527
9.9697
10.1006
10.2282
10.3526
10.4739
10.5922
10.7077
10.8206
10.931
11.039
11.1447
11.2482
11.3497
11.4493
11.547
11.643
11.7373
11.8301
11.9214
12.0113
12.0998
12.1871
12.2732
12.3581
12.4418
12.5245
12.6061
12.6867
12.7663
12.845
12.9226
12.9992
13.0749
13.1496
13.2233
13.296
13.3677
13.4384
13.5081
13.5767
13.6442
13.7108
13.7763
13.841
13.905
13.9683
14.0319
14.0954
14.1619
14.2293
14.3082
14.387
14.5033
14.5987
-2.03649
-2.20455
-2.22923
-2.33167
-2.35786
-2.43526
-2.4756
-2.54239
-2.59062
-2.64802
-2.69756
-2.74862
-2.7935
-2.83662
-2.87564
-2.9113
-2.94132
-2.96519
-2.98278
-2.99538
-3.00528
-3.01421
-3.01996
-3.01816
-3.0045
-2.9778
-2.93994
-2.89434
-2.84446
-2.79356
-2.74529
-2.70394
-2.67346
-2.65523
-2.64841
-2.65068
-2.65938
-2.67223
-2.68836
-2.7081
-2.73261
-2.76272
-2.79921
-2.8423
-2.89213
-2.94837
-3.01077
-3.07905
-3.1532
-3.23322
-3.31929
-3.41157
-3.51027
-3.61557
-3.72755
-3.8462
-3.9713
-4.10247
-4.23908
-4.38029
-4.52493
-4.67172
-4.81901
-4.96512
-5.10802
-5.2457
-5.37585
-5.49613
-5.60384
-5.69636
-5.77095
-5.82491
-5.85513
-5.85871
-5.83315
-5.775
-5.67951
-5.5436
-5.36222
-5.13028
-4.84302
-4.49603
-4.08645
-3.61425
-3.08267
-2.49778
-1.86581
-1.19923
-0.518396
0.157489
0.809625
1.42244
1.98588
2.49576
2.95277
3.3609
3.72605
4.05473
4.35342
4.62795
4.88336
5.1238
5.3527
5.57279
5.78628
5.99478
6.19946
6.40088
6.59923
6.79487
6.98807
7.17873
7.36674
7.55201
7.7343
7.91336
8.08892
8.26078
8.42878
8.59282
8.75283
8.9088
9.06075
9.20874
9.35287
9.49322
9.62993
9.76313
9.89294
10.0195
10.143
10.2635
10.3812
10.4963
10.6087
10.7188
10.8265
10.9321
11.0356
11.1371
11.2367
11.3346
11.4308
11.5254
11.6184
11.71
11.8003
11.8892
11.9769
12.0634
12.1487
12.233
12.3161
12.3982
12.4792
12.5593
12.6383
12.7163
12.7933
12.8693
12.9443
13.0183
13.0912
13.1631
13.2339
13.3036
13.3723
13.4399
13.5065
13.5721
13.637
13.7011
13.7655
13.8292
13.896
13.962
14.039
14.111
14.2199
14.2978
-2.0051
-2.20789
-2.23379
-2.34907
-2.36805
-2.44846
-2.48022
-2.54483
-2.58739
-2.64771
-2.69406
-2.74472
-2.7868
-2.82895
-2.86557
-2.89983
-2.92757
-2.94892
-2.96322
-2.97335
-2.98121
-2.98844
-2.9944
-2.99696
-2.9931
-2.98082
-2.95969
-2.93089
-2.89683
-2.86068
-2.82595
-2.7956
-2.77203
-2.75683
-2.75065
-2.75274
-2.76164
-2.77558
-2.79329
-2.81414
-2.83823
-2.86587
-2.89765
-2.93395
-2.97528
-3.02184
-3.07391
-3.13159
-3.19513
-3.26468
-3.34049
-3.42278
-3.51177
-3.60759
-3.71029
-3.8197
-3.93554
-4.05727
-4.18414
-4.31521
-4.4493
-4.58512
-4.72114
-4.85581
-4.98739
-5.11418
-5.23431
-5.34598
-5.44716
-5.53585
-5.60975
-5.66644
-5.70297
-5.71644
-5.7041
-5.66276
-5.58758
-5.47289
-5.31301
-5.10238
-4.83555
-4.50641
-4.11081
-3.64694
-3.1157
-2.522
-1.87368
-1.18177
-0.466523
0.24757
0.937669
1.58314
2.17107
2.69626
3.16026
3.56867
3.92913
4.24982
4.53848
4.80206
5.04642
5.27632
5.49555
5.70702
5.91297
6.11499
6.31432
6.51172
6.70739
6.9012
7.09319
7.28327
7.47122
7.65669
7.83929
8.0187
8.19463
8.36686
8.5352
8.69956
8.85985
9.01608
9.16825
9.31644
9.46074
9.60124
9.73807
9.87138
10.0013
10.1279
10.2515
10.372
10.4898
10.6048
10.7173
10.8273
10.9351
11.0406
11.1441
11.2455
11.3451
11.443
11.5391
11.6336
11.7266
11.8181
11.9083
11.9972
12.0847
12.1711
12.2563
12.3404
12.4234
12.5053
12.5862
12.6661
12.7449
12.8227
12.8995
12.9754
13.0501
13.1239
13.1966
13.2682
13.3388
13.4083
13.4767
13.544
13.6104
13.6756
13.7402
13.8037
13.8676
13.9304
13.9962
14.0599
14.1341
14.1988
14.2926
14.3342
-1.93722
-2.1883
-2.23027
-2.36589
-2.39068
-2.47933
-2.51651
-2.58602
-2.63301
-2.69488
-2.74781
-2.80577
-2.85556
-2.90309
-2.94534
-2.98446
-3.01843
-3.04768
-3.07062
-3.08776
-3.09945
-3.10615
-3.10735
-3.10242
-3.09059
-3.07193
-3.04719
-3.0179
-2.98603
-2.95378
-2.92357
-2.89766
-2.878
-2.8656
-2.8607
-2.86266
-2.87061
-2.88354
-2.90081
-2.922
-2.94719
-2.97648
-3.01034
-3.04908
-3.09322
-3.14311
-3.19926
-3.26203
-3.3319
-3.40927
-3.49455
-3.58804
-3.69
-3.80052
-3.91954
-4.0468
-4.18182
-4.32385
-4.47193
-4.62484
-4.78115
-4.93932
-5.0976
-5.25422
-5.40727
-5.55491
-5.69514
-5.82603
-5.94557
-6.05175
-6.14244
-6.2155
-6.26834
-6.29777
-6.30036
-6.27206
-6.20732
-6.10155
-5.95061
-5.74884
-5.48977
-5.1661
-4.77163
-4.30268
-3.75732
-3.13769
-2.45107
-1.70988
-0.934842
-0.1547
0.59744
1.29442
1.91887
2.46557
2.93822
3.34561
3.69867
4.00839
4.28488
4.53675
4.77102
4.99314
5.20717
5.41601
5.62165
5.8253
6.02761
6.22879
6.42881
6.62744
6.82429
7.01894
7.21104
7.40024
7.58617
7.7685
7.94699
8.12143
8.29168
8.45768
8.61939
8.77686
8.93012
9.07929
9.22446
9.36578
9.50338
9.6374
9.76801
9.89534
10.0195
10.1408
10.2592
10.3749
10.488
10.5987
10.7071
10.8133
10.9173
11.0195
11.1197
11.2181
11.3149
11.41
11.5036
11.5958
11.6865
11.776
11.8642
11.9512
12.037
12.1218
12.2054
12.288
12.3695
12.45
12.5295
12.608
12.6855
12.762
12.8374
12.9118
12.9852
13.0576
13.1288
13.199
13.2681
13.336
13.403
13.4688
13.5339
13.5977
13.6618
13.7241
13.7893
13.8505
13.9217
13.9792
14.0647
14.1013
-1.83829
-2.13679
-2.19098
-2.34379
-2.36993
-2.4635
-2.50045
-2.56962
-2.61463
-2.67456
-2.7239
-2.77824
-2.82699
-2.87551
-2.91729
-2.95463
-2.98634
-3.01345
-3.03587
-3.05409
-3.0681
-3.07813
-3.08382
-3.08479
-3.0805
-3.07091
-3.05647
-3.03826
-3.01787
-2.99713
-2.97798
-2.96203
-2.95052
-2.94402
-2.94271
-2.94627
-2.95432
-2.96636
-2.98219
-3.00158
-3.02471
-3.05166
-3.08288
-3.11872
-3.15977
-3.20652
-3.25962
-3.31959
-3.38706
-3.46251
-3.54642
-3.63911
-3.7408
-3.8515
-3.97103
-4.09894
-4.23457
-4.37698
-4.52501
-4.67729
-4.83227
-4.98832
-5.1437
-5.29672
-5.44565
-5.58889
-5.72478
-5.85185
-5.96855
-6.07345
-6.16481
-6.24104
-6.30016
-6.34005
-6.3583
-6.35158
-6.31558
-6.2444
-6.13083
-5.96781
-5.74619
-5.45599
-5.08812
-4.63573
-4.09346
-3.45897
-2.73663
-1.94039
-1.09153
-0.224968
0.61247
1.37939
2.05278
2.62813
3.11322
3.52154
3.86809
4.16698
4.43062
4.66915
4.89059
5.10098
5.30473
5.50494
5.70367
5.90211
6.10073
6.29953
6.49819
6.69624
6.89316
7.08834
7.28125
7.47135
7.65819
7.8414
8.02069
8.19584
8.36674
8.53331
8.69554
8.85346
9.00715
9.15671
9.30226
9.44393
9.58188
9.71624
9.84719
9.97485
10.0994
10.221
10.3397
10.4557
10.5692
10.6802
10.7889
10.8953
10.9997
11.1021
11.2026
11.3013
11.3983
11.4937
11.5875
11.6799
11.7709
11.8606
11.9489
12.0361
12.122
12.2069
12.2906
12.3732
12.4548
12.5353
12.6148
12.6933
12.7708
12.8472
12.9227
12.997
13.0703
13.1426
13.2137
13.2838
13.3527
13.4205
13.4872
13.5527
13.6175
13.6808
13.7444
13.8059
13.8702
13.9293
13.9983
14.0498
14.1284
14.1402
-1.75089
-2.08349
-2.1534
-2.32421
-2.35467
-2.45659
-2.49654
-2.56965
-2.61611
-2.6769
-2.72656
-2.78158
-2.83067
-2.87974
-2.92467
-2.96724
-3.00395
-3.03506
-3.06033
-3.08017
-3.09438
-3.1034
-3.10738
-3.10669
-3.10174
-3.09319
-3.08187
-3.06886
-3.05533
-3.04245
-3.03132
-3.02277
-3.01744
-3.01561
-3.0175
-3.02301
-3.03217
-3.04483
-3.06106
-3.08084
-3.10448
-3.1322
-3.16456
-3.20199
-3.2452
-3.29479
-3.35153
-3.4161
-3.48922
-3.57152
-3.66357
-3.76578
-3.8784
-4.00146
-4.13471
-4.27764
-4.42943
-4.58893
-4.75473
-4.92516
-5.09839
-5.27246
-5.44541
-5.61531
-5.78034
-5.93885
-6.08929
-6.23031
-6.36062
-6.47899
-6.584
-6.67475
-6.7498
-6.80684
-6.8433
-6.85599
-6.84114
-6.79356
-6.70705
-6.57395
-6.38469
-6.12716
-5.78906
-5.35752
-4.821
-4.17059
-3.40411
-2.53451
-1.58533
-0.59628
0.361046
1.2211
1.95255
2.55447
3.04327
3.44095
3.76906
4.04639
4.28844
4.50733
4.71221
4.90966
5.10419
5.2986
5.49444
5.69234
5.89227
6.0937
6.29587
6.4979
6.69889
6.89802
7.09458
7.28794
7.47762
7.66322
7.84449
8.02125
8.1934
8.36093
8.52387
8.6823
8.83634
8.98612
9.1318
9.27353
9.41148
9.54583
9.67672
9.80433
9.92881
10.0503
10.169
10.285
10.3984
10.5094
10.618
10.7245
10.8289
10.9313
11.0318
11.1306
11.2276
11.323
11.417
11.5094
11.6005
11.6903
11.7788
11.8661
11.9523
12.0373
12.1213
12.2042
12.286
12.3669
12.4467
12.5255
12.6034
12.6802
12.756
12.8308
12.9046
12.9772
13.0489
13.1193
13.1887
13.2569
13.324
13.3898
13.4549
13.5182
13.5816
13.6422
13.7053
13.7615
13.827
13.8714
13.9435
13.9474
-1.67676
-2.02769
-2.10947
-2.29224
-2.32432
-2.43108
-2.4709
-2.54515
-2.58985
-2.64908
-2.69519
-2.74654
-2.79131
-2.8367
-2.87723
-2.91542
-2.94976
-2.98139
-3.00803
-3.03046
-3.04896
-3.06335
-3.07386
-3.0808
-3.08446
-3.08532
-3.08397
-3.08111
-3.07747
-3.07381
-3.07082
-3.06908
-3.0691
-3.07118
-3.07562
-3.08254
-3.09216
-3.10454
-3.11998
-3.13865
-3.16103
-3.18749
-3.2187
-3.25524
-3.29794
-3.34752
-3.4049
-3.47085
-3.54626
-3.63181
-3.72817
-3.83577
-3.95486
-4.0854
-4.227
-4.37893
-4.54005
-4.70885
-4.88347
-5.0618
-5.24158
-5.42058
-5.59659
-5.7677
-5.93216
-6.08864
-6.23599
-6.37328
-6.49984
-6.61532
-6.71932
-6.81148
-6.89095
-6.95642
-7.00678
-7.04055
-7.05528
-7.04747
-7.00918
-6.93201
-6.80629
-6.61866
-6.3531
-5.98964
-5.50764
-4.88352
-4.09856
-3.15699
-2.0804
-0.913046
0.233005
1.23949
2.06074
2.70605
3.20772
3.60035
3.91397
4.17287
4.39577
4.59666
4.78567
4.96985
5.15385
5.34042
5.53089
5.72553
5.92389
6.12506
6.32793
6.53128
6.73398
6.93497
7.13337
7.32847
7.5197
7.70666
7.88908
8.06681
8.23977
8.40799
8.57151
8.73045
8.88494
9.03514
9.18122
9.32334
9.46169
9.59643
9.72772
9.85575
9.98065
10.1026
10.2217
10.3381
10.452
10.5634
10.6725
10.7795
10.8843
10.9871
11.0881
11.1873
11.2847
11.3805
11.4748
11.5677
11.6591
11.7492
11.8381
11.9257
12.0121
12.0974
12.1816
12.2647
12.3468
12.4278
12.5078
12.5868
12.6647
12.7417
12.8176
12.8924
12.9662
13.0389
13.1105
13.181
13.2503
13.3184
13.3854
13.451
13.5157
13.5786
13.6416
13.7013
13.7635
13.8181
13.8818
13.9221
13.99
13.9826
-1.62873
-1.99608
-2.07956
-2.27342
-2.30453
-2.41831
-2.4577
-2.53626
-2.5808
-2.64228
-2.68814
-2.74051
-2.78504
-2.83099
-2.87185
-2.9113
-2.94611
-2.97778
-3.00566
-3.03064
-3.05094
-3.06724
-3.08026
-3.09011
-3.09736
-3.10246
-3.10588
-3.10809
-3.10956
-3.11078
-3.11218
-3.11419
-3.11717
-3.12141
-3.12726
-3.13493
-3.14478
-3.15702
-3.17212
-3.19041
-3.21251
-3.23893
-3.27049
-3.30789
-3.35213
-3.40405
-3.46475
-3.53515
-3.6163
-3.70907
-3.81428
-3.93247
-4.06394
-4.20855
-4.36572
-4.53436
-4.71284
-4.89905
-5.09039
-5.28405
-5.47713
-5.66688
-5.8508
-6.02689
-6.19362
-6.34999
-6.49547
-6.62983
-6.75308
-6.86548
-6.9671
-7.05788
-7.13764
-7.20575
-7.26118
-7.30268
-7.32687
-7.32987
-7.30955
-7.26279
-7.18289
-7.06094
-6.88254
-6.62451
-6.25813
-5.74325
-5.02717
-4.0832
-2.90806
-1.52499
-0.113653
1.10154
2.04491
2.74129
3.24855
3.6223
3.90607
4.1321
4.32373
4.49737
4.66427
4.83174
5.00411
5.18353
5.37058
5.56472
5.76473
5.96899
6.1758
6.38345
6.59042
6.79542
6.99741
7.19557
7.38932
7.57827
7.7622
7.94099
8.11465
8.28324
8.4469
8.60577
8.76005
8.90993
9.0556
9.19727
9.33513
9.46937
9.60016
9.72769
9.8521
9.97357
10.0922
10.2082
10.3217
10.4327
10.5415
10.6481
10.7526
10.8551
10.9558
11.0547
11.1519
11.2475
11.3416
11.4343
11.5256
11.6156
11.7044
11.792
11.8784
11.9637
12.048
12.1312
12.2134
12.2945
12.3747
12.4539
12.5321
12.6093
12.6855
12.7606
12.8348
12.9078
12.9798
13.0506
13.1203
13.1887
13.2559
13.3217
13.3865
13.4491
13.5116
13.5703
13.6309
13.6825
13.7426
13.7768
13.8399
13.8242
-1.59231
-1.97484
-2.04888
-2.24868
-2.27601
-2.39443
-2.4315
-2.51274
-2.55537
-2.61786
-2.66178
-2.7139
-2.7565
-2.80171
-2.84123
-2.88059
-2.91574
-2.94935
-2.97903
-3.00699
-3.03191
-3.05328
-3.07108
-3.08658
-3.09964
-3.11051
-3.11942
-3.12685
-3.13297
-3.13826
-3.143
-3.14762
-3.15245
-3.15783
-3.16414
-3.17169
-3.18093
-3.19221
-3.20611
-3.22311
-3.24398
-3.26937
-3.30027
-3.33753
-3.38233
-3.4357
-3.49892
-3.57313
-3.65958
-3.75927
-3.87311
-4.00163
-4.14497
-4.30265
-4.47355
-4.65586
-4.84702
-5.04389
-5.24292
-5.44049
-5.63322
-5.81829
-5.99354
-6.15772
-6.31023
-6.45108
-6.58066
-6.69964
-6.80855
-6.90785
-6.99796
-7.07914
-7.15105
-7.21309
-7.26436
-7.30333
-7.32631
-7.3309
-7.31797
-7.28527
-7.22661
-7.1359
-7.00666
-6.82914
-6.59417
-6.26962
-5.76596
-4.99342
-3.86483
-2.29823
-0.532602
1.00303
2.14119
2.9182
3.43985
3.79648
4.05082
4.24477
4.40637
4.55418
4.70023
4.85191
5.01321
5.18571
5.36926
5.56258
5.76373
5.97045
6.18047
6.39165
6.60218
6.81051
7.01547
7.21619
7.41208
7.60275
7.78804
7.96789
8.14237
8.31158
8.47572
8.63498
8.78958
8.93973
9.08568
9.22761
9.36574
9.50027
9.63138
9.75923
9.884
10.0058
10.1249
10.2413
10.3551
10.4666
10.5758
10.6828
10.7877
10.8907
10.9917
11.0911
11.1887
11.2847
11.3792
11.4722
11.5639
11.6542
11.7433
11.8312
11.918
12.0036
12.0881
12.1715
12.2539
12.3353
12.4157
12.4951
12.5735
12.6508
12.7272
12.8024
12.8767
12.9498
13.0218
13.0927
13.1623
13.2307
13.2978
13.3634
13.4279
13.4902
13.5521
13.61
13.6697
13.7198
13.7781
13.8099
13.8691
13.849
-1.58263
-1.96787
-2.03323
-2.23704
-2.26
-2.38345
-2.41754
-2.50271
-2.54372
-2.60913
-2.65247
-2.70684
-2.74964
-2.79674
-2.83697
-2.87804
-2.91425
-2.94948
-2.98071
-3.0102
-3.03582
-3.05971
-3.08109
-3.09939
-3.11464
-3.12816
-3.13979
-3.14975
-3.15808
-3.16526
-3.17142
-3.17701
-3.18232
-3.1877
-3.19357
-3.20027
-3.20834
-3.21821
-3.23059
-3.24605
-3.26551
-3.28978
-3.32
-3.35722
-3.40282
-3.45806
-3.52446
-3.60336
-3.69622
-3.80416
-3.92818
-4.06869
-4.22544
-4.39731
-4.58224
-4.77728
-4.9788
-5.18271
-5.38482
-5.58134
-5.76912
-5.94596
-6.11065
-6.26301
-6.40359
-6.5333
-6.65295
-6.76343
-6.8655
-6.95965
-7.046
-7.1245
-7.19461
-7.25544
-7.3056
-7.34373
-7.36866
-7.37673
-7.36244
-7.32214
-7.25268
-7.15241
-7.02087
-6.84932
-6.63586
-6.38275
-6.04627
-5.57001
-4.77223
-3.25734
-1.16207
0.785421
2.17757
3.04776
3.57471
3.89892
4.10788
4.25527
4.37471
4.48736
4.60611
4.73819
4.88687
5.05265
5.23417
5.42892
5.63382
5.84568
6.06144
6.27841
6.49435
6.70748
6.91649
7.12048
7.31887
7.51137
7.69787
7.87842
8.05317
8.22233
8.38616
8.54492
8.69889
8.84832
8.99348
9.1346
9.27191
9.40562
9.53592
9.66299
9.78701
9.90812
10.0265
10.1422
10.2554
10.3663
10.4749
10.5814
10.6858
10.7883
10.8889
10.9878
11.0851
11.1807
11.2749
11.3677
11.4591
11.5493
11.6382
11.726
11.8126
11.8982
11.9827
12.0661
12.1486
12.2301
12.3106
12.3901
12.4687
12.5463
12.6229
12.6984
12.773
12.8464
12.9187
12.9899
13.0598
13.1284
13.1958
13.2614
13.3258
13.3877
13.449
13.5057
13.5636
13.611
13.6659
13.6927
13.7476
13.7229
-1.58174
-1.95922
-2.01348
-2.21663
-2.2336
-2.35966
-2.38951
-2.47752
-2.51574
-2.58343
-2.62514
-2.68125
-2.72341
-2.77222
-2.81288
-2.85601
-2.89372
-2.93157
-2.96522
-2.99772
-3.02663
-3.05355
-3.07707
-3.09903
-3.11894
-3.13595
-3.15013
-3.16277
-3.17297
-3.18159
-3.18863
-3.19462
-3.19976
-3.20447
-3.20914
-3.21419
-3.22022
-3.22775
-3.2376
-3.25049
-3.26749
-3.28959
-3.31815
-3.35444
-3.40011
-3.45666
-3.52589
-3.60933
-3.70863
-3.82496
-3.95897
-4.11046
-4.27839
-4.46071
-4.65445
-4.85585
-5.06041
-5.26357
-5.4613
-5.65043
-5.82879
-5.99524
-6.14949
-6.29207
-6.42416
-6.54719
-6.66232
-6.77033
-6.87171
-6.9667
-7.05521
-7.13698
-7.21148
-7.27801
-7.33542
-7.38231
-7.41686
-7.43504
-7.4315
-7.40148
-7.33816
-7.23245
-7.077
-6.86624
-6.61021
-6.32454
-5.98876
-5.63561
-5.19903
-4.03951
-1.80584
0.583375
2.28221
3.26487
3.79839
4.08764
4.24946
4.35006
4.42833
4.50754
4.60112
4.71592
4.85435
5.01567
5.19725
5.39525
5.60545
5.82366
6.04608
6.26949
6.49128
6.7095
6.92276
7.13018
7.33125
7.52577
7.71375
7.89535
8.07081
8.24044
8.40455
8.56349
8.71756
8.86706
9.01227
9.15346
9.29086
9.42469
9.55513
9.68238
9.8066
9.92794
10.0466
10.1626
10.2761
10.3873
10.4962
10.603
10.7077
10.8105
10.9115
11.0107
11.1083
11.2043
11.2988
11.3918
11.4835
11.574
11.6632
11.7512
11.8381
11.9239
12.0086
12.0924
12.1751
12.2568
12.3375
12.4172
12.496
12.5737
12.6505
12.7262
12.8008
12.8744
12.9468
13.018
13.088
13.1565
13.2238
13.2892
13.3535
13.415
13.4757
13.5316
13.5885
13.6346
13.6877
13.7132
13.7639
13.7389
-1.59001
-1.95416
-1.99885
-2.20056
-2.21289
-2.3419
-2.36812
-2.4596
-2.49545
-2.5663
-2.60699
-2.66601
-2.70817
-2.75945
-2.80078
-2.84616
-2.88507
-2.92509
-2.96036
-2.99505
-3.02586
-3.05512
-3.08102
-3.10478
-3.12533
-3.14425
-3.16129
-3.17541
-3.18638
-3.19564
-3.20257
-3.20802
-3.21209
-3.21517
-3.2177
-3.22015
-3.22317
-3.22739
-3.23374
-3.24309
-3.25672
-3.27579
-3.30194
-3.33668
-3.38195
-3.4395
-3.51136
-3.59919
-3.7045
-3.82806
-3.97029
-4.13054
-4.30699
-4.49681
-4.69649
-4.90172
-5.10768
-5.30996
-5.505
-5.69026
-5.86428
-6.02681
-6.1782
-6.31923
-6.45089
-6.5743
-6.69037
-6.79985
-6.903
-6.9998
-7.08983
-7.17255
-7.24715
-7.31279
-7.36819
-7.41109
-7.43889
-7.45008
-7.44238
-7.41138
-7.35102
-7.25318
-7.11232
-6.91396
-6.64143
-6.29996
-5.869
-5.45066
-5.20923
-4.46908
-2.31847
0.406926
2.3878
3.45926
3.979
4.21848
4.32199
4.36649
4.39592
4.4359
4.50061
4.59653
4.72489
4.88336
5.06746
5.27162
5.49007
5.71737
5.94881
6.18055
6.40962
6.63391
6.85201
7.06309
7.26679
7.46305
7.65204
7.83407
8.0095
8.17877
8.34227
8.50041
8.65358
8.80211
8.94632
9.08649
9.22287
9.35571
9.48519
9.61151
9.73483
9.85532
9.97312
10.0883
10.2011
10.3116
10.4199
10.526
10.6302
10.7324
10.8328
10.9316
11.0287
11.1242
11.2183
11.3111
11.4025
11.4927
11.5817
11.6695
11.7563
11.842
11.9267
12.0104
12.0931
12.1749
12.2557
12.3356
12.4145
12.4925
12.5694
12.6454
12.7203
12.7942
12.8669
12.9384
13.0087
13.0774
13.1448
13.2103
13.2743
13.3354
13.3954
13.4501
13.5053
13.549
13.5988
13.6208
13.6672
13.6415
-1.59897
-1.94324
-1.97847
-2.17505
-2.18238
-2.31201
-2.33413
-2.42801
-2.46098
-2.53455
-2.57355
-2.63509
-2.67682
-2.7307
-2.77277
-2.82078
-2.86127
-2.90405
-2.94152
-2.97908
-3.01244
-3.04452
-3.07296
-3.09931
-3.12256
-3.1431
-3.16134
-3.17746
-3.18962
-3.19863
-3.20535
-3.21002
-3.21258
-3.21341
-3.21312
-3.21211
-3.21124
-3.21119
-3.21308
-3.21795
-3.22727
-3.2425
-3.26557
-3.29828
-3.34278
-3.40102
-3.47506
-3.56649
-3.67675
-3.80662
-3.95602
-4.12337
-4.30611
-4.50101
-4.70401
-4.91076
-5.11688
-5.31844
-5.51215
-5.69576
-5.86804
-6.02877
-6.17842
-6.31792
-6.44843
-6.57099
-6.68646
-6.79527
-6.89753
-6.99297
-7.0812
-7.16162
-7.23364
-7.29634
-7.3487
-7.3892
-7.41514
-7.42303
-7.40875
-7.36933
-7.30038
-7.19601
-7.04947
-6.84685
-6.57838
-6.23653
-5.73759
-5.18633
-4.95982
-4.47481
-2.50844
0.38814
2.57627
3.70103
4.1901
4.37334
4.41696
4.40631
4.38935
4.39369
4.43396
4.51612
4.63986
4.80093
4.99269
5.20757
5.43808
5.6775
5.92025
6.16195
6.39945
6.63053
6.85393
7.06899
7.27557
7.47381
7.6641
7.8469
8.02275
8.19215
8.35564
8.51367
8.66667
8.81503
8.95908
9.09912
9.23542
9.3682
9.49767
9.62403
9.74743
9.86802
9.98595
10.1013
10.2143
10.325
10.4334
10.5398
10.6442
10.7466
10.8473
10.9463
11.0436
11.1394
11.2337
11.3266
11.4183
11.5087
11.5979
11.6859
11.7729
11.8588
11.9437
12.0276
12.1105
12.1925
12.2735
12.3536
12.4327
12.5108
12.588
12.6641
12.7392
12.8132
12.8861
12.9576
13.028
13.0967
13.1641
13.2294
13.2933
13.354
13.4135
13.4676
13.5217
13.5645
13.6125
13.6338
13.6762
13.6527
-1.60761
-1.92797
-1.95703
-2.14755
-2.15207
-2.28233
-2.30172
-2.39837
-2.42937
-2.50619
-2.54438
-2.60917
-2.65105
-2.70779
-2.75077
-2.80153
-2.84359
-2.88901
-2.92848
-2.96862
-3.0042
-3.03878
-3.06945
-3.09808
-3.12313
-3.14547
-3.16461
-3.18026
-3.19307
-3.20346
-3.20968
-3.21244
-3.21305
-3.21084
-3.20697
-3.20195
-3.1966
-3.19176
-3.18868
-3.18864
-3.1934
-3.20462
-3.22446
-3.25482
-3.29812
-3.35631
-3.43165
-3.52575
-3.63996
-3.77438
-3.92824
-4.0998
-4.28657
-4.48507
-4.69102
-4.89992
-5.10742
-5.30988
-5.50431
-5.68886
-5.86257
-6.0253
-6.17743
-6.31981
-6.45331
-6.57894
-6.69724
-6.80869
-6.91316
-7.0105
-7.10001
-7.18113
-7.25279
-7.31413
-7.36361
-7.3994
-7.41869
-7.41746
-7.39162
-7.33466
-7.2414
-7.10503
-6.92393
-6.69263
-6.41985
-6.09013
-5.56347
-4.90483
-4.5785
-4.12658
-2.30981
0.553873
2.76141
3.85241
4.29229
4.42635
4.41983
4.36026
4.29992
4.27025
4.28798
4.35911
4.4819
4.64979
4.85354
5.08315
5.32912
5.58333
5.83929
6.0922
6.33874
6.57681
6.80534
7.02397
7.23283
7.43235
7.62315
7.8059
7.98129
8.14996
8.31254
8.46955
8.62149
8.76876
8.91174
9.05073
9.18601
9.31782
9.44636
9.57183
9.69438
9.81417
9.93134
10.046
10.1583
10.2683
10.3761
10.4819
10.5857
10.6876
10.7877
10.8862
10.9831
11.0785
11.1724
11.265
11.3564
11.4465
11.5355
11.6234
11.7102
11.7961
11.8809
11.9648
12.0478
12.1298
12.2109
12.2911
12.3704
12.4487
12.5261
12.6025
12.6779
12.7522
12.8253
12.8972
12.9678
13.0368
13.1043
13.1697
13.2334
13.2938
13.3526
13.4057
13.4583