/*--------------------------------*- C++ -*----------------------------------*\
| =========                 |                                                 |
| \\      /  F ield         | OpenFOAM: The Open Source CFD Toolbox           |
|  \\    /   O peration     | Version:  v1906                                 |
|   \\  /    A nd           | Web:      www.OpenFOAM.com                      |
|    \\/     M anipulation  |                                                 |
\*---------------------------------------------------------------------------*/
FoamFile
{
    version     2.0;
    format      ascii;
    class       surfaceScalarField;
    location    "600";
    object      phi;
}
// * * * * * * * * * * * * * * * * * * * * * * * * * * * * * * * * * * * * * //

dimensions      [0 3 -1 0 0 0 0];
oriented        oriented;


internalField   nonuniform List<scalar> 
24170
(
3.08283e-06
1.05577e-07
2.98703e-06
9.58043e-08
2.92074e-06
6.62839e-08
2.86476e-06
5.59808e-08
2.81597e-06
4.87945e-08
2.77316e-06
4.28049e-08
2.73513e-06
3.8033e-08
2.70099e-06
3.41455e-08
2.67023e-06
3.07557e-08
2.64251e-06
2.77234e-08
2.61738e-06
2.51318e-08
2.59444e-06
2.29378e-08
2.57361e-06
2.08383e-08
2.55491e-06
1.87032e-08
2.53868e-06
1.6229e-08
2.52536e-06
1.33228e-08
2.5159e-06
9.46131e-09
-2.41319e-09
2.51831e-06
3.44276e-06
8.00683e-08
3.44405e-06
9.45164e-08
3.43234e-06
7.79918e-08
3.41875e-06
6.95734e-08
3.40403e-06
6.35104e-08
3.38925e-06
5.75821e-08
3.37491e-06
5.23765e-08
3.36111e-06
4.79466e-08
3.34788e-06
4.39879e-08
3.33525e-06
4.03518e-08
3.32329e-06
3.70962e-08
3.31204e-06
3.41912e-08
3.30142e-06
3.14591e-08
3.29144e-06
2.86791e-08
3.28197e-06
2.56956e-08
3.27311e-06
2.21934e-08
3.26551e-06
1.70622e-08
6.73096e-09
3.25636e-06
3.67627e-06
6.63106e-08
3.67858e-06
9.22136e-08
3.67281e-06
8.37552e-08
3.66532e-06
7.70725e-08
3.65776e-06
7.10703e-08
3.65062e-06
6.47161e-08
3.64397e-06
5.90292e-08
3.63773e-06
5.41849e-08
3.63185e-06
4.98746e-08
3.62627e-06
4.59295e-08
3.62102e-06
4.23501e-08
3.61612e-06
3.90864e-08
3.6116e-06
3.59854e-08
3.60746e-06
3.28206e-08
3.60368e-06
2.94747e-08
3.60043e-06
2.54394e-08
3.5965e-06
2.09934e-08
1.41124e-08
3.58912e-06
3.93547e-06
5.62306e-08
3.94303e-06
8.46478e-08
3.94514e-06
8.16511e-08
3.94518e-06
7.7034e-08
3.94403e-06
7.22223e-08
3.94205e-06
6.66953e-08
3.9396e-06
6.14757e-08
3.93693e-06
5.68513e-08
3.93419e-06
5.26243e-08
3.93143e-06
4.8681e-08
3.92876e-06
4.5021e-08
3.92625e-06
4.1601e-08
3.92394e-06
3.82918e-08
3.92187e-06
3.4893e-08
3.92005e-06
3.12949e-08
3.91842e-06
2.70743e-08
3.91723e-06
2.2182e-08
1.44773e-08
3.91687e-06
4.21811e-06
4.52519e-08
4.2276e-06
7.51561e-08
4.23155e-06
7.76993e-08
4.23293e-06
7.56508e-08
4.23314e-06
7.20118e-08
4.2327e-06
6.71399e-08
4.23194e-06
6.2231e-08
4.23107e-06
5.77214e-08
4.23017e-06
5.35316e-08
4.22926e-06
4.9593e-08
4.22838e-06
4.5899e-08
4.22758e-06
4.23987e-08
4.22689e-06
3.89841e-08
4.22631e-06
3.54752e-08
4.22578e-06
3.18218e-08
4.22523e-06
2.763e-08
4.22389e-06
2.35169e-08
1.85309e-08
4.21984e-06
4.5171e-06
3.72403e-08
4.52584e-06
6.64195e-08
4.53158e-06
7.19541e-08
4.53565e-06
7.15834e-08
4.53871e-06
6.89453e-08
4.54097e-06
6.48878e-08
4.54263e-06
6.05684e-08
4.54391e-06
5.6444e-08
4.54493e-06
5.25142e-08
4.54577e-06
4.87531e-08
4.5465e-06
4.51608e-08
4.54721e-06
4.16965e-08
4.54792e-06
3.82758e-08
4.54863e-06
3.47612e-08
4.54936e-06
3.109e-08
4.54996e-06
2.70278e-08
4.55088e-06
2.26052e-08
1.72645e-08
4.55214e-06
4.83986e-06
3.00966e-08
4.84841e-06
5.7878e-08
4.85443e-06
6.59252e-08
4.85862e-06
6.74021e-08
4.86166e-06
6.59049e-08
4.86389e-06
6.26554e-08
4.86561e-06
5.88468e-08
4.86705e-06
5.50095e-08
4.86831e-06
5.12492e-08
4.86947e-06
4.75958e-08
4.87056e-06
4.40665e-08
4.87163e-06
4.06314e-08
4.87267e-06
3.72316e-08
4.87368e-06
3.37594e-08
4.87456e-06
3.02092e-08
4.87516e-06
2.64214e-08
4.87493e-06
2.28375e-08
1.9102e-08
4.87309e-06
5.18534e-06
2.43393e-08
5.19299e-06
5.0228e-08
5.19938e-06
5.95381e-08
5.20466e-06
6.2116e-08
5.20917e-06
6.13999e-08
5.213e-06
5.88217e-08
5.21632e-06
5.55312e-08
5.21926e-06
5.20624e-08
5.22194e-06
4.85746e-08
5.22441e-06
4.51288e-08
5.22672e-06
4.17524e-08
5.22892e-06
3.84286e-08
5.23104e-06
3.51165e-08
5.23305e-06
3.17452e-08
5.23497e-06
2.82898e-08
5.23672e-06
2.4671e-08
5.23868e-06
2.0883e-08
1.69595e-08
5.24082e-06
5.55573e-06
1.99455e-08
5.56257e-06
4.33924e-08
5.56883e-06
5.32765e-08
5.57408e-06
5.68599e-08
5.57848e-06
5.70079e-08
5.58214e-06
5.5159e-08
5.58526e-06
5.2408e-08
5.58802e-06
4.93059e-08
5.59052e-06
4.60741e-08
5.59283e-06
4.28162e-08
5.595e-06
3.95828e-08
5.59706e-06
3.63762e-08
5.59899e-06
3.31828e-08
5.60078e-06
2.99588e-08
5.60233e-06
2.67336e-08
5.60354e-06
2.34673e-08
5.60397e-06
2.04462e-08
1.74561e-08
5.60348e-06
5.95382e-06
1.58999e-08
5.96022e-06
3.69978e-08
5.96648e-06
4.70101e-08
5.97222e-06
5.11241e-08
5.97743e-06
5.18014e-08
5.98211e-06
5.04718e-08
5.98636e-06
4.81575e-08
5.99027e-06
4.53967e-08
5.99391e-06
4.24379e-08
5.99732e-06
3.9405e-08
6.00054e-06
3.63592e-08
6.0036e-06
3.33168e-08
6.00651e-06
3.02748e-08
6.00926e-06
2.72134e-08
6.01186e-06
2.41344e-08
6.0143e-06
2.10295e-08
6.01684e-06
1.78971e-08
1.49368e-08
6.01936e-06
6.37949e-06
1.32257e-08
6.38481e-06
3.16694e-08
6.39067e-06
4.11569e-08
6.39624e-06
4.55505e-08
6.40132e-06
4.672e-08
6.40587e-06
4.59296e-08
6.40994e-06
4.40867e-08
6.41363e-06
4.17028e-08
6.41702e-06
3.90463e-08
6.42016e-06
3.62626e-08
6.42309e-06
3.34309e-08
6.42582e-06
3.05849e-08
6.42836e-06
2.77443e-08
6.43066e-06
2.49082e-08
6.43268e-06
2.21192e-08
6.43433e-06
1.9379e-08
6.43537e-06
1.68546e-08
1.44509e-08
6.43586e-06
5.74324e-06
1.08167e-08
5.74771e-06
2.72057e-08
5.75266e-06
3.62034e-08
5.75755e-06
4.0659e-08
5.76222e-06
4.20532e-08
5.76658e-06
4.15701e-08
5.77064e-06
4.00266e-08
5.77443e-06
3.79073e-08
5.778e-06
3.54832e-08
5.78135e-06
3.29065e-08
5.78452e-06
3.02627e-08
5.78751e-06
2.7594e-08
5.79033e-06
2.49247e-08
5.79298e-06
2.22664e-08
5.79546e-06
1.96373e-08
5.79778e-06
1.70616e-08
5.80009e-06
1.4541e-08
1.22731e-08
5.80227e-06
6.99986e-06
9.10785e-09
7.00402e-06
2.30506e-08
7.00918e-06
3.10384e-08
7.01456e-06
3.52833e-08
7.01978e-06
3.68312e-08
7.02469e-06
3.66654e-08
7.02924e-06
3.54705e-08
7.03347e-06
3.36795e-08
7.0374e-06
3.15534e-08
7.04106e-06
2.92474e-08
7.04447e-06
2.68543e-08
7.04764e-06
2.44275e-08
7.05056e-06
2.20036e-08
7.05322e-06
1.96058e-08
7.05559e-06
1.72701e-08
7.05763e-06
1.50185e-08
7.05926e-06
1.29105e-08
1.08453e-08
7.06069e-06
8.53319e-06
6.76182e-09
8.5381e-06
1.81441e-08
8.54404e-06
2.50952e-08
8.55034e-06
2.89834e-08
8.55664e-06
3.05353e-08
8.56275e-06
3.05586e-08
8.56859e-06
2.96278e-08
8.57415e-06
2.81218e-08
8.57942e-06
2.62819e-08
8.58441e-06
2.42566e-08
8.58913e-06
2.21374e-08
8.59357e-06
1.99801e-08
8.59776e-06
1.78212e-08
8.60167e-06
1.56877e-08
8.60534e-06
1.36035e-08
8.60876e-06
1.16e-08
8.61197e-06
9.69678e-09
8.05091e-09
8.61477e-06
1.04007e-05
5.3002e-09
1.04049e-05
1.38829e-08
1.04108e-05
1.92312e-08
1.04175e-05
2.2327e-08
1.04243e-05
2.36506e-08
1.04311e-05
2.37594e-08
1.04377e-05
2.30737e-08
1.04439e-05
2.18842e-08
1.04498e-05
2.03881e-08
1.04554e-05
1.87142e-08
1.04606e-05
1.69465e-08
1.04654e-05
1.51408e-08
1.04699e-05
1.33346e-08
1.0474e-05
1.15573e-08
1.04778e-05
9.82593e-09
1.04812e-05
8.16287e-09
1.04844e-05
6.56251e-09
5.00191e-09
1.04874e-05
1.26789e-05
3.1876e-09
1.2684e-05
8.83006e-09
1.26907e-05
1.25343e-08
1.26982e-05
1.47418e-08
1.27062e-05
1.57099e-08
1.27141e-05
1.57918e-08
1.27219e-05
1.52769e-08
1.27295e-05
1.43734e-08
1.27366e-05
1.32289e-08
1.27434e-05
1.19436e-08
1.27497e-05
1.05854e-08
1.27557e-05
9.2003e-09
1.27612e-05
7.8228e-09
1.27663e-05
6.47904e-09
1.27709e-05
5.19689e-09
1.27751e-05
3.99509e-09
1.27787e-05
2.90214e-09
1.94567e-09
1.27818e-05
1.5455e-05
1.40375e-09
1.54599e-05
3.8657e-09
1.54671e-05
5.39118e-09
1.54756e-05
6.19986e-09
1.54849e-05
6.40598e-09
1.54945e-05
6.17039e-09
1.55042e-05
5.63114e-09
1.55137e-05
4.88875e-09
1.55229e-05
4.01812e-09
1.55318e-05
3.07374e-09
1.55402e-05
2.09316e-09
1.55483e-05
1.106e-09
1.5556e-05
1.29113e-10
1.55633e-05
-8.15519e-10
1.55703e-05
-1.72953e-09
1.55768e-05
-2.58339e-09
1.55831e-05
-3.40563e-09
-4.08838e-09
1.55892e-05
1.88392e-05
-1.23489e-10
1.88439e-05
-9.12182e-10
1.8851e-05
-1.64396e-09
1.88594e-05
-2.21105e-09
1.88685e-05
-2.66372e-09
1.88777e-05
-3.04055e-09
1.88867e-05
-3.37057e-09
1.88952e-05
-3.67429e-09
1.89032e-05
-3.96224e-09
1.89105e-05
-4.23944e-09
1.89171e-05
-4.50697e-09
1.8923e-05
-4.76523e-09
1.89281e-05
-5.01236e-09
1.89326e-05
-5.25108e-09
1.89363e-05
-5.48049e-09
1.89394e-05
-5.70411e-09
1.8942e-05
-5.93812e-09
-6.25871e-09
1.89442e-05
2.29673e-05
-4.05328e-09
2.29763e-05
-9.91017e-09
2.29885e-05
-1.39225e-08
2.3003e-05
-1.66711e-08
2.30189e-05
-1.85187e-08
2.30355e-05
-1.97165e-08
2.30526e-05
-2.04661e-08
2.30699e-05
-2.09151e-08
2.30871e-05
-2.1162e-08
2.31041e-05
-2.12693e-08
2.31209e-05
-2.12751e-08
2.31373e-05
-2.11967e-08
2.31533e-05
-2.10386e-08
2.31689e-05
-2.07899e-08
2.31838e-05
-2.04358e-08
2.31981e-05
-1.99412e-08
2.32114e-05
-1.9298e-08
-1.81584e-08
2.32233e-05
1.68112e-05
-4.58524e-09
1.68147e-05
-1.34032e-08
1.68202e-05
-1.94413e-08
1.68268e-05
-2.31931e-08
1.68335e-05
-2.52666e-08
1.684e-05
-2.61845e-08
1.68459e-05
-2.63642e-08
1.68511e-05
-2.60932e-08
1.68555e-05
-2.55525e-08
1.6859e-05
-2.48525e-08
1.68618e-05
-2.40575e-08
1.68638e-05
-2.3206e-08
1.68651e-05
-2.23163e-08
1.68657e-05
-2.14092e-08
1.68658e-05
-2.04902e-08
1.68654e-05
-1.96076e-08
1.68649e-05
-1.87576e-08
-1.84176e-08
1.68652e-05
1.46387e-05
-8.68623e-09
1.46468e-05
-2.15145e-08
1.46567e-05
-2.93993e-08
1.46676e-05
-3.40431e-08
1.46788e-05
-3.65257e-08
1.46902e-05
-3.75347e-08
1.47014e-05
-3.76144e-08
1.47125e-05
-3.71443e-08
1.47233e-05
-3.63594e-08
1.47339e-05
-3.54048e-08
1.47442e-05
-3.43748e-08
1.47543e-05
-3.33279e-08
1.47643e-05
-3.23054e-08
1.47742e-05
-3.13252e-08
1.47841e-05
-3.04121e-08
1.47941e-05
-2.95329e-08
1.4804e-05
-2.87198e-08
-2.73392e-08
1.48129e-05
1.27416e-05
-1.01553e-08
1.27467e-05
-2.66469e-08
1.27533e-05
-3.59916e-08
1.276e-05
-4.07319e-08
1.27661e-05
-4.26549e-08
1.27714e-05
-4.28361e-08
1.27759e-05
-4.20482e-08
1.27795e-05
-4.07765e-08
1.27824e-05
-3.9274e-08
1.27847e-05
-3.76704e-08
1.27864e-05
-3.60336e-08
1.27874e-05
-3.43958e-08
1.27879e-05
-3.27572e-08
1.27877e-05
-3.11109e-08
1.27867e-05
-2.94098e-08
1.27848e-05
-2.76578e-08
1.27818e-05
-2.57395e-08
-2.4384e-08
1.27788e-05
1.10965e-05
-1.57704e-08
1.11062e-05
-3.62888e-08
1.11165e-05
-4.63122e-08
1.11267e-05
-5.08915e-08
1.11365e-05
-5.24682e-08
1.11458e-05
-5.21529e-08
1.11546e-05
-5.08128e-08
1.11628e-05
-4.9014e-08
1.11706e-05
-4.70299e-08
1.11779e-05
-4.49969e-08
1.11848e-05
-4.29992e-08
1.11915e-05
-4.10876e-08
1.11981e-05
-3.93017e-08
1.12046e-05
-3.76711e-08
1.12115e-05
-3.6271e-08
1.1219e-05
-3.51398e-08
1.12278e-05
-3.45159e-08
-3.36375e-08
1.1237e-05
9.65973e-06
-2.02879e-08
9.66815e-06
-4.47018e-08
9.67603e-06
-5.41977e-08
9.68234e-06
-5.72055e-08
9.68718e-06
-5.72983e-08
9.69075e-06
-5.57242e-08
9.69336e-06
-5.34264e-08
9.69531e-06
-5.09604e-08
9.69678e-06
-4.85029e-08
9.69789e-06
-4.61043e-08
9.69868e-06
-4.37951e-08
9.69919e-06
-4.159e-08
9.69936e-06
-3.94769e-08
9.69913e-06
-3.74341e-08
9.69822e-06
-3.53632e-08
9.69625e-06
-3.31745e-08
9.69214e-06
-3.04046e-08
-2.75526e-08
9.68606e-06
8.41351e-06
-2.84489e-08
8.42507e-06
-5.62595e-08
8.43523e-06
-6.43526e-08
8.44397e-06
-6.5947e-08
8.45165e-06
-6.49819e-08
8.45828e-06
-6.23499e-08
8.46395e-06
-5.90974e-08
8.46885e-06
-5.58594e-08
8.47312e-06
-5.2779e-08
8.47689e-06
-4.98704e-08
8.48025e-06
-4.71501e-08
8.48328e-06
-4.46241e-08
8.48609e-06
-4.22915e-08
8.48881e-06
-4.01493e-08
8.49171e-06
-3.82636e-08
8.49525e-06
-3.67112e-08
8.50092e-06
-3.60788e-08
-3.61189e-08
8.50949e-06
7.32785e-06
-3.90134e-08
7.33966e-06
-6.80666e-08
7.34635e-06
-7.10471e-08
7.3496e-06
-6.91955e-08
7.351e-06
-6.6385e-08
7.3513e-06
-6.26462e-08
7.35101e-06
-5.88046e-08
7.35046e-06
-5.53112e-08
7.34979e-06
-5.21108e-08
7.34904e-06
-4.91183e-08
7.34821e-06
-4.63211e-08
7.3473e-06
-4.37186e-08
7.34631e-06
-4.12946e-08
7.3452e-06
-3.90421e-08
7.34382e-06
-3.68849e-08
7.34188e-06
-3.4766e-08
7.33771e-06
-3.19137e-08
-2.78143e-08
7.32941e-06
6.38126e-06
-5.02113e-08
6.3931e-06
-7.99036e-08
6.39985e-06
-7.77986e-08
6.40402e-06
-7.33657e-08
6.40643e-06
-6.87948e-08
6.40734e-06
-6.35549e-08
6.40721e-06
-5.86761e-08
6.40642e-06
-5.45193e-08
6.40521e-06
-5.08955e-08
6.40372e-06
-4.76284e-08
6.40205e-06
-4.4655e-08
6.40028e-06
-4.1944e-08
6.39845e-06
-3.94652e-08
6.39659e-06
-3.71873e-08
6.39484e-06
-3.51335e-08
6.39336e-06
-3.32873e-08
6.39385e-06
-3.23956e-08
-3.3043e-08
6.39907e-06
5.563e-06
-6.77422e-08
5.56908e-06
-8.59852e-08
5.56466e-06
-7.33775e-08
5.5572e-06
-6.59129e-08
5.5494e-06
-6.09902e-08
5.54195e-06
-5.61069e-08
5.53507e-06
-5.17902e-08
5.52869e-06
-4.8145e-08
5.5227e-06
-4.4906e-08
5.51702e-06
-4.1941e-08
5.51158e-06
-3.92144e-08
5.50634e-06
-3.67129e-08
5.50129e-06
-3.44142e-08
5.49642e-06
-3.23163e-08
5.49168e-06
-3.03867e-08
5.48708e-06
-2.86876e-08
5.48117e-06
-2.64855e-08
-2.23177e-08
5.47044e-06
4.85296e-06
-9.30993e-08
4.85866e-06
-9.16823e-08
4.84879e-06
-6.35005e-08
4.83768e-06
-5.4808e-08
4.82546e-06
-4.87707e-08
4.81325e-06
-4.38893e-08
4.80151e-06
-4.00566e-08
4.79033e-06
-3.69674e-08
4.7797e-06
-3.42732e-08
4.76956e-06
-3.18017e-08
4.75987e-06
-2.95203e-08
4.75058e-06
-2.74225e-08
4.74167e-06
-2.55027e-08
4.7331e-06
-2.37529e-08
4.72493e-06
-2.22075e-08
4.71711e-06
-2.0869e-08
4.71122e-06
-2.05973e-08
-2.17924e-08
4.71069e-06
4.10958e-06
4.01789e-06
3.95439e-06
3.89959e-06
3.85082e-06
3.80693e-06
3.76687e-06
3.7299e-06
3.69563e-06
3.66383e-06
3.63431e-06
3.60688e-06
3.58138e-06
3.55763e-06
3.53542e-06
3.51455e-06
3.49396e-06
3.47216e-06
4.69238e-08
-4.69513e-08
1.38071e-07
-9.10526e-08
2.5298e-07
-1.15e-07
3.58969e-07
-1.05944e-07
4.55525e-07
-9.66476e-08
5.41303e-07
-8.57618e-08
6.19572e-07
-7.83663e-08
6.91628e-07
-7.20642e-08
7.58873e-07
-6.73305e-08
8.2188e-07
-6.30342e-08
8.80798e-07
-5.89848e-08
9.35596e-07
-5.48383e-08
9.8614e-07
-5.05846e-08
1.03229e-06
-4.62061e-08
1.07402e-06
-4.17342e-08
1.11074e-06
-3.6808e-08
1.14208e-06
-3.13083e-08
1.16742e-06
-2.54621e-08
1.18675e-06
-1.92736e-08
1.19918e-06
-1.25692e-08
1.20358e-06
-4.33874e-09
1.19726e-06
6.20386e-09
1.17858e-06
1.87318e-08
1.14573e-06
3.2804e-08
1.09807e-06
4.76996e-08
1.03574e-06
6.24031e-08
9.59785e-07
7.59609e-08
8.72332e-07
8.76334e-08
7.75401e-07
9.69466e-08
6.72123e-07
1.03451e-07
5.66741e-07
1.0541e-07
4.66117e-07
1.00636e-07
3.78848e-07
8.72779e-08
3.12741e-07
6.59947e-08
2.69762e-07
4.29395e-08
2.428e-07
2.69805e-08
2.18876e-07
2.38294e-08
1.8535e-07
3.38408e-08
1.32053e-07
5.30891e-08
5.81545e-08
7.44474e-08
-3.37075e-08
9.1556e-08
-1.38252e-07
1.05006e-07
-2.54474e-07
1.15876e-07
-3.78492e-07
1.24252e-07
-5.08364e-07
1.29552e-07
-6.40776e-07
1.32512e-07
-7.74975e-07
1.33932e-07
-9.0905e-07
1.34124e-07
-1.04237e-06
1.33108e-07
-1.17358e-06
1.31237e-07
-1.30255e-06
1.28816e-07
-1.42874e-06
1.26194e-07
-1.55239e-06
1.23536e-07
-1.67341e-06
1.20994e-07
-1.7921e-06
1.18579e-07
-1.90846e-06
1.16297e-07
-2.02264e-06
1.14071e-07
-2.13458e-06
1.11833e-07
-2.24415e-06
1.09487e-07
-2.35124e-06
1.06941e-07
-2.45544e-06
1.04122e-07
-2.55654e-06
1.00943e-07
-2.65394e-06
9.73566e-08
-2.74738e-06
9.3278e-08
-2.83607e-06
8.86814e-08
-2.91971e-06
8.34658e-08
-2.99732e-06
7.76181e-08
-3.06849e-06
7.10226e-08
-3.13211e-06
6.3672e-08
-3.18765e-06
5.54303e-08
-3.2338e-06
4.62513e-08
-3.26983e-06
3.59296e-08
-3.2941e-06
2.43901e-08
-3.30597e-06
1.17324e-08
-3.30463e-06
-1.24791e-09
-3.291e-06
-1.38437e-08
-3.26463e-06
-2.63337e-08
-3.22532e-06
-3.95196e-08
-3.1718e-06
-5.33824e-08
-3.10351e-06
-6.83953e-08
-3.01882e-06
-8.44833e-08
-2.91716e-06
-1.016e-07
-2.79756e-06
-1.19298e-07
-2.66005e-06
-1.37226e-07
-2.50496e-06
-1.54726e-07
-2.33378e-06
-1.70713e-07
-2.14932e-06
-1.84145e-07
-1.95476e-06
-1.94281e-07
-1.75443e-06
-2.00237e-07
-1.55364e-06
-2.01062e-07
-1.35717e-06
-1.96703e-07
-1.16996e-06
-1.87508e-07
-9.96615e-07
-1.73579e-07
-8.40813e-07
-1.56046e-07
-7.04532e-07
-1.36423e-07
-5.88474e-07
-1.16132e-07
-4.91933e-07
-9.64933e-08
-4.13195e-07
-7.86132e-08
-3.49689e-07
-6.32998e-08
-2.98398e-07
-5.10528e-08
-2.56075e-07
-4.20541e-08
-2.19633e-07
-3.61819e-08
-1.86275e-07
-3.30913e-08
-1.53737e-07
-3.22955e-08
-1.2025e-07
-3.32546e-08
-8.47161e-08
-3.53308e-08
-4.66101e-08
-3.79091e-08
-6.66275e-09
-3.97776e-08
3.68337e-08
-4.33413e-08
8.5337e-08
-4.83815e-08
1.37159e-07
-5.17167e-08
1.91294e-07
-5.40538e-08
2.47146e-07
-5.57837e-08
3.04244e-07
-5.70471e-08
3.62196e-07
-5.79104e-08
4.20632e-07
-5.84045e-08
4.79223e-07
-5.85692e-08
5.37665e-07
-5.84306e-08
5.95691e-07
-5.80297e-08
6.53078e-07
-5.73914e-08
7.09635e-07
-5.65575e-08
7.65209e-07
-5.55583e-08
8.19662e-07
-5.44363e-08
8.72893e-07
-5.32154e-08
9.24822e-07
-5.19288e-08
9.75406e-07
-5.05904e-08
1.02461e-06
-4.9227e-08
1.07244e-06
-4.7848e-08
1.11888e-06
-4.64748e-08
1.16396e-06
-4.51115e-08
1.20769e-06
-4.37736e-08
1.25011e-06
-4.24613e-08
1.29126e-06
-4.11855e-08
1.33116e-06
-3.99434e-08
1.36986e-06
-3.87426e-08
1.40739e-06
-3.75789e-08
1.4438e-06
-3.64573e-08
1.47913e-06
-3.53732e-08
1.51341e-06
-3.43297e-08
1.54669e-06
-3.33218e-08
1.57899e-06
-3.2351e-08
1.61037e-06
-3.14142e-08
1.64085e-06
-3.05138e-08
1.67048e-06
-2.96481e-08
1.69928e-06
-2.88192e-08
1.72729e-06
-2.80246e-08
1.75454e-06
-2.72661e-08
1.78108e-06
-2.65417e-08
1.80693e-06
-2.58531e-08
1.83212e-06
-2.51989e-08
1.8567e-06
-2.45806e-08
1.8807e-06
-2.39959e-08
1.90415e-06
-2.34458e-08
1.92708e-06
-2.29282e-08
1.94953e-06
-2.24441e-08
1.97153e-06
-2.19917e-08
1.99311e-06
-2.15723e-08
2.0143e-06
-2.11841e-08
2.03513e-06
-2.08283e-08
2.05565e-06
-2.05028e-08
2.07587e-06
-2.02087e-08
2.09582e-06
-1.99431e-08
2.11554e-06
-1.9707e-08
2.13505e-06
-1.94958e-08
2.15437e-06
-1.93101e-08
2.17353e-06
-1.91413e-08
2.19254e-06
-1.89911e-08
2.2114e-06
-1.88429e-08
2.23011e-06
-1.86972e-08
2.24864e-06
-1.85087e-08
2.26696e-06
-1.82967e-08
2.2849e-06
-1.79208e-08
2.3024e-06
-1.74802e-08
2.31894e-06
-1.6523e-08
2.33427e-06
-1.53076e-08
2.3466e-06
-1.23007e-08
2.35251e-06
-5.88588e-09
2.34036e-06
1.21763e-08
2.28431e-06
5.60606e-08
1.07152e-07
2.17718e-06
1.36283e-07
-1.83235e-07
2.18726e-07
-1.73477e-07
2.80038e-07
-1.76335e-07
3.22965e-07
-1.48867e-07
3.69468e-07
-1.43178e-07
4.15039e-07
-1.31337e-07
4.64116e-07
-1.27474e-07
5.13268e-07
-1.21228e-07
5.62775e-07
-1.16868e-07
6.10592e-07
-1.1087e-07
6.55848e-07
-1.04267e-07
6.9733e-07
-9.63444e-08
7.34636e-07
-8.79101e-08
7.67354e-07
-7.89513e-08
7.95289e-07
-6.96801e-08
8.18119e-07
-5.96659e-08
8.3607e-07
-4.92611e-08
8.49579e-07
-3.90016e-08
8.59403e-07
-2.90928e-08
8.66778e-07
-1.99798e-08
8.73803e-07
-1.13583e-08
8.80529e-07
-5.54335e-10
8.82797e-07
1.64702e-08
8.74575e-07
4.10196e-08
8.51458e-07
7.08285e-08
8.11878e-07
1.02008e-07
7.56666e-07
1.31194e-07
6.88017e-07
1.56327e-07
6.08985e-07
1.76006e-07
5.2394e-07
1.88528e-07
4.38069e-07
1.91301e-07
3.56697e-07
1.82007e-07
2.82493e-07
1.61479e-07
2.1161e-07
1.36857e-07
1.34911e-07
1.19629e-07
4.38228e-08
1.18067e-07
-6.49243e-08
1.32579e-07
-1.8882e-07
1.57768e-07
-3.22752e-07
1.87035e-07
-4.62995e-07
2.14734e-07
-6.08301e-07
2.36871e-07
-7.55419e-07
2.52156e-07
-8.99934e-07
2.60382e-07
-1.03775e-06
2.62083e-07
-1.16657e-06
2.58336e-07
-1.2848e-06
2.50742e-07
-1.39167e-06
2.40764e-07
-1.48712e-06
2.29558e-07
-1.57209e-06
2.18038e-07
-1.64783e-06
2.06965e-07
-1.71588e-06
1.96824e-07
-1.77759e-06
1.87889e-07
-1.83429e-06
1.80202e-07
-1.88702e-06
1.73688e-07
-1.93665e-06
1.68168e-07
-1.98384e-06
1.63439e-07
-2.0291e-06
1.5928e-07
-2.07283e-06
1.55494e-07
-2.1153e-06
1.51903e-07
-2.15681e-06
1.48363e-07
-2.19751e-06
1.44764e-07
-2.23767e-06
1.41013e-07
-2.27741e-06
1.37045e-07
-2.31701e-06
1.32789e-07
-2.35658e-06
1.28199e-07
-2.39639e-06
1.23201e-07
-2.43655e-06
1.17735e-07
-2.47728e-06
1.11689e-07
-2.51856e-06
1.04946e-07
-2.56048e-06
9.73035e-08
-2.60278e-06
8.85793e-08
-2.64542e-06
7.85363e-08
-2.68802e-06
6.70226e-08
-2.73003e-06
5.37053e-08
-2.76932e-06
3.80469e-08
-2.80285e-06
1.9601e-08
-2.8275e-06
-1.69033e-09
-2.84103e-06
-2.60587e-08
-2.84063e-06
-5.3748e-08
-2.82466e-06
-8.43583e-08
-2.7916e-06
-1.17453e-07
-2.74046e-06
-1.52655e-07
-2.67035e-06
-1.89256e-07
-2.58099e-06
-2.26411e-07
-2.47259e-06
-2.62918e-07
-2.34622e-06
-2.96862e-07
-2.20405e-06
-3.26125e-07
-2.04898e-06
-3.49199e-07
-1.88474e-06
-3.64509e-07
-1.71503e-06
-3.70823e-07
-1.5441e-06
-3.67729e-07
-1.37634e-06
-3.55361e-07
-1.21538e-06
-3.346e-07
-1.06413e-06
-3.07342e-07
-9.24671e-07
-2.7588e-07
-7.982e-07
-2.42579e-07
-6.85062e-07
-2.09565e-07
-5.8496e-07
-1.78631e-07
-4.97043e-07
-1.51113e-07
-4.20104e-07
-1.27889e-07
-3.52661e-07
-1.09393e-07
-2.93098e-07
-9.56521e-08
-2.3975e-07
-8.6347e-08
-1.91018e-07
-8.09511e-08
-1.45403e-07
-7.87959e-08
-1.01488e-07
-7.91861e-08
-5.79616e-08
-8.13801e-08
-1.30836e-08
-8.46121e-08
3.21622e-08
-8.85467e-08
7.6712e-08
-9.29015e-08
1.22121e-07
-9.70979e-08
1.68969e-07
-1.00882e-07
2.17337e-07
-1.04132e-07
2.67098e-07
-1.06796e-07
3.1802e-07
-1.0882e-07
3.69825e-07
-1.10203e-07
4.22235e-07
-1.10972e-07
4.74979e-07
-1.11175e-07
5.27815e-07
-1.10869e-07
5.80528e-07
-1.1011e-07
6.32934e-07
-1.08962e-07
6.84868e-07
-1.07488e-07
7.36193e-07
-1.05752e-07
7.86791e-07
-1.03808e-07
8.36571e-07
-1.01706e-07
8.85464e-07
-9.94873e-08
9.3342e-07
-9.71901e-08
9.80405e-07
-9.48435e-08
1.02639e-06
-9.24772e-08
1.07138e-06
-9.01103e-08
1.11535e-06
-8.77633e-08
1.15832e-06
-8.54471e-08
1.20029e-06
-8.31748e-08
1.24128e-06
-8.09515e-08
1.2813e-06
-7.87849e-08
1.32038e-06
-7.66764e-08
1.35853e-06
-7.46301e-08
1.39579e-06
-7.26452e-08
1.43216e-06
-7.07237e-08
1.46768e-06
-6.88632e-08
1.50237e-06
-6.70645e-08
1.53626e-06
-6.53257e-08
1.56938e-06
-6.3649e-08
1.60176e-06
-6.20339e-08
1.63341e-06
-6.04825e-08
1.66438e-06
-5.89937e-08
1.69467e-06
-5.75693e-08
1.72434e-06
-5.62081e-08
1.7534e-06
-5.4912e-08
1.78188e-06
-5.36802e-08
1.80981e-06
-5.25143e-08
1.83723e-06
-5.14123e-08
1.86416e-06
-5.0375e-08
1.89063e-06
-4.94e-08
1.91668e-06
-4.8488e-08
1.94233e-06
-4.76373e-08
1.96761e-06
-4.68487e-08
1.99255e-06
-4.61201e-08
2.01718e-06
-4.54525e-08
2.04153e-06
-4.48432e-08
2.06562e-06
-4.42927e-08
2.08948e-06
-4.37971e-08
2.11314e-06
-4.33564e-08
2.13661e-06
-4.29637e-08
2.15993e-06
-4.26178e-08
2.1831e-06
-4.23037e-08
2.20614e-06
-4.20215e-08
2.22905e-06
-4.17381e-08
2.25182e-06
-4.14586e-08
2.27442e-06
-4.10914e-08
2.2968e-06
-4.06657e-08
2.31883e-06
-3.99308e-08
2.34037e-06
-3.90145e-08
2.36104e-06
-3.71682e-08
2.3805e-06
-3.47543e-08
2.39768e-06
-2.94693e-08
2.41301e-06
-2.11937e-08
2.43019e-06
-4.99144e-09
2.45522e-06
3.1054e-08
9.30038e-08
2.46938e-06
7.47124e-08
-2.57955e-07
1.03042e-07
-2.01792e-07
1.32554e-07
-2.05869e-07
1.58145e-07
-1.74457e-07
1.92581e-07
-1.77635e-07
2.31789e-07
-1.70548e-07
2.78655e-07
-1.74361e-07
3.28514e-07
-1.71093e-07
3.81228e-07
-1.69601e-07
4.32155e-07
-1.61806e-07
4.79811e-07
-1.51938e-07
5.22007e-07
-1.38553e-07
5.58924e-07
-1.24839e-07
5.90447e-07
-1.10492e-07
6.15843e-07
-9.50834e-08
6.33039e-07
-7.688e-08
6.40046e-07
-5.62671e-08
6.3646e-07
-3.54343e-08
6.24723e-07
-1.73482e-08
6.08453e-07
-3.72995e-09
5.90651e-07
6.45027e-09
5.71664e-07
1.84155e-08
5.49319e-07
3.88193e-08
5.20412e-07
6.99233e-08
4.82617e-07
1.08628e-07
4.35461e-07
1.49178e-07
3.80258e-07
1.86404e-07
3.19532e-07
2.17078e-07
2.56434e-07
2.39114e-07
1.9414e-07
2.5084e-07
1.33647e-07
2.51799e-07
7.09627e-08
2.44691e-07
-3.51468e-09
2.35953e-07
-9.98219e-08
2.33156e-07
-2.20713e-07
2.40513e-07
-3.5993e-07
2.57288e-07
-5.07077e-07
2.79728e-07
-6.52598e-07
3.03308e-07
-7.89591e-07
3.24034e-07
-9.13731e-07
3.38901e-07
-1.02316e-06
3.46305e-07
-1.11715e-06
3.46168e-07
-1.19614e-06
3.39375e-07
-1.26147e-06
3.27428e-07
-1.31529e-06
3.12142e-07
-1.35995e-06
2.95403e-07
-1.39801e-06
2.78814e-07
-1.43204e-06
2.63578e-07
-1.4645e-06
2.50475e-07
-1.49747e-06
2.39924e-07
-1.53266e-06
2.31997e-07
-1.57132e-06
2.26536e-07
-1.61434e-06
2.23201e-07
-1.66226e-06
2.21583e-07
-1.71535e-06
2.2123e-07
-1.77366e-06
2.21717e-07
-1.83705e-06
2.22642e-07
-1.90525e-06
2.23653e-07
-1.97784e-06
2.24448e-07
-2.0543e-06
2.24772e-07
-2.134e-06
2.24419e-07
-2.21626e-06
2.23216e-07
-2.30029e-06
2.21033e-07
-2.38531e-06
2.17757e-07
-2.47046e-06
2.13301e-07
-2.55488e-06
2.07573e-07
-2.63767e-06
2.0049e-07
-2.71795e-06
1.91935e-07
-2.79481e-06
1.81781e-07
-2.86734e-06
1.69824e-07
-2.9346e-06
1.55832e-07
-2.99556e-06
1.39491e-07
-3.049e-06
1.20467e-07
-3.09359e-06
9.82883e-08
-3.12803e-06
7.24752e-08
-3.15123e-06
4.27842e-08
-3.1622e-06
9.25942e-09
-3.15999e-06
-2.827e-08
-3.14408e-06
-6.96525e-08
-3.11352e-06
-1.14903e-07
-3.06711e-06
-1.63822e-07
-3.00373e-06
-2.15971e-07
-2.92249e-06
-2.70411e-07
-2.82301e-06
-3.25795e-07
-2.70553e-06
-3.80282e-07
-2.57086e-06
-4.31413e-07
-2.42058e-06
-4.76293e-07
-2.25792e-06
-5.11797e-07
-2.0866e-06
-5.35817e-07
-1.91097e-06
-5.46497e-07
-1.73593e-06
-5.42823e-07
-1.56607e-06
-5.25224e-07
-1.40505e-06
-4.95628e-07
-1.25528e-06
-4.57095e-07
-1.11805e-06
-4.13075e-07
-9.93698e-07
-3.66874e-07
-8.81865e-07
-3.21321e-07
-7.81749e-07
-2.78666e-07
-6.92269e-07
-2.40508e-07
-6.122e-07
-2.07882e-07
-5.4023e-07
-1.81293e-07
-4.75019e-07
-1.60802e-07
-4.15236e-07
-1.46076e-07
-3.59613e-07
-1.36528e-07
-3.06988e-07
-1.3138e-07
-2.5634e-07
-1.29802e-07
-2.0675e-07
-1.30941e-07
-1.57286e-07
-1.34054e-07
-1.07283e-07
-1.38529e-07
-5.64675e-08
-1.43702e-07
-4.62913e-09
-1.48922e-07
4.83542e-08
-1.53856e-07
1.02477e-07
-1.58246e-07
1.5759e-07
-1.61904e-07
2.13507e-07
-1.64732e-07
2.7002e-07
-1.66714e-07
3.26913e-07
-1.67864e-07
3.8397e-07
-1.68235e-07
4.40987e-07
-1.6789e-07
4.9778e-07
-1.66908e-07
5.54187e-07
-1.6537e-07
6.10063e-07
-1.63363e-07
6.65284e-07
-1.60969e-07
7.19743e-07
-1.58266e-07
7.73357e-07
-1.5532e-07
8.26061e-07
-1.52194e-07
8.77805e-07
-1.48939e-07
9.28553e-07
-1.456e-07
9.78282e-07
-1.42215e-07
1.02698e-06
-1.38816e-07
1.07463e-06
-1.35428e-07
1.12124e-06
-1.32072e-07
1.16682e-06
-1.28763e-07
1.21137e-06
-1.25514e-07
1.25491e-06
-1.22334e-07
1.29744e-06
-1.19227e-07
1.339e-06
-1.16199e-07
1.37959e-06
-1.13253e-07
1.41924e-06
-1.10389e-07
1.45797e-06
-1.0761e-07
1.49581e-06
-1.04914e-07
1.53277e-06
-1.02302e-07
1.56889e-06
-9.97769e-08
1.60419e-06
-9.7339e-08
1.63869e-06
-9.49901e-08
1.67242e-06
-9.27312e-08
1.70541e-06
-9.05634e-08
1.73768e-06
-8.84876e-08
1.76927e-06
-8.65053e-08
1.8002e-06
-8.46172e-08
1.83051e-06
-8.28239e-08
1.86022e-06
-8.11249e-08
1.88936e-06
-7.95199e-08
1.91797e-06
-7.80081e-08
1.94607e-06
-7.65893e-08
1.97369e-06
-7.52626e-08
2.00087e-06
-7.40276e-08
2.02763e-06
-7.2883e-08
2.054e-06
-7.18284e-08
2.08002e-06
-7.08615e-08
2.10571e-06
-6.99816e-08
2.13109e-06
-6.91846e-08
2.1562e-06
-6.84686e-08
2.18107e-06
-6.78256e-08
2.2057e-06
-6.72517e-08
2.23012e-06
-6.67291e-08
2.25436e-06
-6.62542e-08
2.2784e-06
-6.57834e-08
2.30226e-06
-6.5314e-08
2.32589e-06
-6.47296e-08
2.34928e-06
-6.40495e-08
2.37231e-06
-6.2959e-08
2.39487e-06
-6.15725e-08
2.41668e-06
-5.89828e-08
2.43746e-06
-5.55309e-08
2.45655e-06
-4.85618e-08
2.47362e-06
-3.8264e-08
2.48735e-06
-1.87193e-08
2.49945e-06
1.89534e-08
8.63639e-08
2.50608e-06
3.50506e-08
-2.93011e-07
3.63066e-08
-2.03035e-07
5.10643e-08
-2.20647e-07
6.99571e-08
-1.93352e-07
8.7806e-08
-1.95502e-07
1.07534e-07
-1.9028e-07
1.28537e-07
-1.9538e-07
1.54226e-07
-1.96786e-07
1.82464e-07
-1.97852e-07
2.11624e-07
-1.90973e-07
2.39017e-07
-1.79342e-07
2.6239e-07
-1.61936e-07
2.81537e-07
-1.43995e-07
2.96472e-07
-1.25439e-07
3.07344e-07
-1.05963e-07
3.13531e-07
-8.30773e-08
3.13723e-07
-5.64614e-08
3.06307e-07
-2.80269e-08
2.90441e-07
-1.48041e-09
2.65692e-07
2.10075e-08
2.31498e-07
4.06481e-08
1.88639e-07
6.12604e-08
1.40953e-07
8.6509e-08
9.29925e-08
1.17874e-07
4.78148e-08
1.5381e-07
6.20088e-09
1.90794e-07
-3.2503e-08
2.25114e-07
-6.95454e-08
2.54132e-07
-1.07116e-07
2.7669e-07
-1.49513e-07
2.93248e-07
-2.03546e-07
3.05833e-07
-2.76173e-07
3.17321e-07
-3.7019e-07
3.29966e-07
-4.81307e-07
3.44269e-07
-5.99984e-07
3.59186e-07
-7.15705e-07
3.73011e-07
-8.20039e-07
3.84062e-07
-9.07689e-07
3.90969e-07
-9.76481e-07
3.92831e-07
-1.02686e-06
3.89293e-07
-1.06126e-06
3.80713e-07
-1.08316e-06
3.68078e-07
-1.09659e-06
3.52807e-07
-1.10566e-06
3.36507e-07
-1.11423e-06
3.2071e-07
-1.12553e-06
3.06697e-07
-1.14208e-06
2.95359e-07
-1.16569e-06
2.87176e-07
-1.19747e-06
2.82246e-07
-1.23794e-06
2.80385e-07
-1.28716e-06
2.81196e-07
-1.3448e-06
2.84165e-07
-1.41033e-06
2.88712e-07
-1.48302e-06
2.94253e-07
-1.56203e-06
3.00225e-07
-1.64645e-06
3.0611e-07
-1.73529e-06
3.11452e-07
-1.82752e-06
3.1586e-07
-1.92212e-06
3.19014e-07
-2.01805e-06
3.20664e-07
-2.1143e-06
3.20632e-07
-2.20992e-06
3.18796e-07
-2.30402e-06
3.1509e-07
-2.39578e-06
3.09478e-07
-2.48447e-06
3.01953e-07
-2.56945e-06
2.92508e-07
-2.65012e-06
2.81127e-07
-2.72597e-06
2.67759e-07
-2.79651e-06
2.52305e-07
-2.86131e-06
2.34605e-07
-2.91992e-06
2.14436e-07
-2.97193e-06
1.91505e-07
-3.0169e-06
1.65431e-07
-3.05433e-06
1.3572e-07
-3.08369e-06
1.01827e-07
-3.10421e-06
6.32951e-08
-3.11468e-06
1.97264e-08
-3.11382e-06
-2.9134e-08
-3.10014e-06
-8.33204e-08
-3.07206e-06
-1.42967e-07
-3.02805e-06
-2.07808e-07
-2.96671e-06
-2.77278e-07
-2.88694e-06
-3.50122e-07
-2.78824e-06
-4.24439e-07
-2.67072e-06
-4.97728e-07
-2.53531e-06
-5.66755e-07
-2.38392e-06
-6.27615e-07
-2.21962e-06
-6.76047e-07
-2.047e-06
-7.08455e-07
-1.87146e-06
-7.2204e-07
-1.69879e-06
-7.15518e-07
-1.53407e-06
-6.89953e-07
-1.3809e-06
-6.48796e-07
-1.24121e-06
-5.96748e-07
-1.11552e-06
-5.38723e-07
-1.00325e-06
-4.79071e-07
-9.03221e-07
-4.21271e-07
-8.13912e-07
-3.67893e-07
-7.33706e-07
-3.20634e-07
-6.61031e-07
-2.80487e-07
-5.94432e-07
-2.47833e-07
-5.32591e-07
-2.22593e-07
-4.74331e-07
-2.04295e-07
-4.18619e-07
-1.92204e-07
-3.64564e-07
-1.85404e-07
-3.1143e-07
-1.8291e-07
-2.58635e-07
-1.83716e-07
-2.05763e-07
-1.86909e-07
-1.52574e-07
-1.91704e-07
-9.88846e-08
-1.97381e-07
-4.45324e-08
-2.03266e-07
1.04815e-08
-2.08864e-07
6.60487e-08
-2.13809e-07