/*--------------------------------*- C++ -*----------------------------------*\
| =========                 |                                                 |
| \\      /  F ield         | OpenFOAM: The Open Source CFD Toolbox           |
|  \\    /   O peration     | Version:  v1906                                 |
|   \\  /    A nd           | Web:      www.OpenFOAM.com                      |
|    \\/     M anipulation  |                                                 |
\*---------------------------------------------------------------------------*/
FoamFile
{
    version     2.0;
    format      ascii;
    class       volSymmTensorField;
    location    "600";
    object      R;
}
// * * * * * * * * * * * * * * * * * * * * * * * * * * * * * * * * * * * * * //

dimensions      [0 2 -2 0 0 0 0];


internalField   nonuniform List<symmTensor> 
12225
(
(1.62918 -0.333428 0 1.36079 0 1.52752)
(1.99604 -0.597712 0 0.915075 0 1.54225)
(2.14976 -0.586217 0 0.685674 0 1.48847)
(2.16282 -0.548295 0 0.594801 0 1.42583)
(2.13004 -0.521072 0 0.549811 0 1.37025)
(2.08416 -0.501343 0 0.521827 0 1.32326)
(2.03694 -0.485887 0 0.501274 0 1.28314)
(1.99286 -0.473159 0 0.48495 0 1.24874)
(1.95172 -0.462122 0 0.471162 0 1.21836)
(1.9158 -0.452734 0 0.459644 0 1.19225)
(1.8812 -0.444024 0 0.449266 0 1.16823)
(1.85384 -0.437418 0 0.440674 0 1.14824)
(1.83188 -0.432244 0 0.433716 0 1.13208)
(1.81455 -0.427984 0 0.428005 0 1.11868)
(1.7983 -0.424065 0 0.422874 0 1.10672)
(1.78694 -0.421621 0 0.419387 0 1.09778)
(1.77335 -0.417633 0 0.414505 0 1.08766)
(1.76805 -0.418441 0 0.413958 0 1.08325)
(1.52372 -0.0379486 0 1.4601 0 1.51677)
(1.5765 -0.14043 0 1.18694 0 1.51213)
(1.58669 -0.190032 0 0.927639 0 1.45696)
(1.57201 -0.209339 0 0.773792 0 1.39906)
(1.54342 -0.21815 0 0.676217 0 1.34284)
(1.51871 -0.225222 0 0.611085 0 1.29757)
(1.49702 -0.231413 0 0.5644 0 1.25993)
(1.47753 -0.236826 0 0.529031 0 1.22737)
(1.46098 -0.241807 0 0.501432 0 1.19987)
(1.44624 -0.246057 0 0.479054 0 1.17528)
(1.43462 -0.250315 0 0.460987 0 1.15515)
(1.42353 -0.25355 0 0.445294 0 1.13562)
(1.41639 -0.257719 0 0.433217 0 1.12144)
(1.4087 -0.259943 0 0.421208 0 1.10526)
(1.40448 -0.26423 0 0.413828 0 1.09607)
(1.39965 -0.265149 0 0.403182 0 1.08185)
(1.39605 -0.269178 0 0.399696 0 1.07629)
(1.39166 -0.268621 0 0.389602 0 1.06233)
(1.51161 -0.00809855 0 1.49388 0 1.51021)
(1.5345 -0.0358596 0 1.38469 0 1.51858)
(1.54641 -0.0615123 0 1.2352 0 1.5056)
(1.54332 -0.0798452 0 1.11804 0 1.48175)
(1.52916 -0.0934501 0 1.02646 0 1.45228)
(1.51227 -0.105333 0 0.95303 0 1.42299)
(1.49497 -0.116 0 0.893215 0 1.39548)
(1.47791 -0.12562 0 0.843535 0 1.36974)
(1.46201 -0.134448 0 0.801761 0 1.34638)
(1.44714 -0.142393 0 0.766035 0 1.32471)
(1.43386 -0.149879 0 0.735391 0 1.30549)
(1.42151 -0.156446 0 0.70835 0 1.28722)
(1.41065 -0.162937 0 0.685305 0 1.27171)
(1.40118 -0.168274 0 0.663744 0 1.25609)
(1.39143 -0.173941 0 0.647035 0 1.24413)
(1.38676 -0.178101 0 0.627218 0 1.2299)
(1.37224 -0.182741 0 0.620098 0 1.22259)
(1.38687 -0.18518 0 0.589414 0 1.20681)
(1.51151 -0.00606501 0 1.49419 0 1.51108)
(1.52717 -0.016275 0 1.42188 0 1.52171)
(1.53966 -0.0294756 0 1.31303 0 1.52312)
(1.5428 -0.0419137 0 1.21367 0 1.51508)
(1.53767 -0.0522098 0 1.12991 0 1.5008)
(1.5286 -0.0612888 0 1.05931 0 1.48386)
(1.51769 -0.069542 0 0.999768 0 1.4662)
(1.50587 -0.0771119 0 0.949122 0 1.44849)
(1.49396 -0.0841547 0 0.905669 0 1.43142)
(1.48224 -0.0906389 0 0.867995 0 1.41501)
(1.47108 -0.0967501 0 0.835172 0 1.39969)
(1.46044 -0.102324 0 0.806156 0 1.38503)
(1.45044 -0.107667 0 0.780767 0 1.3717)
(1.44135 -0.11237 0 0.757701 0 1.35877)
(1.43224 -0.116966 0 0.738006 0 1.34744)
(1.42541 -0.120741 0 0.718454 0 1.33589)
(1.41587 -0.124357 0 0.70451 0 1.32685)
(1.41279 -0.127208 0 0.684392 0 1.3161)
(1.50986 -0.0045362 0 1.49823 0 1.50974)
(1.52087 -0.00882024 0 1.44955 0 1.51873)
(1.53212 -0.0149121 0 1.37344 0 1.52447)
(1.53779 -0.0219732 0 1.29856 0 1.52378)
(1.53766 -0.0286061 0 1.23201 0 1.51798)
(1.53395 -0.0349112 0 1.17333 0 1.50918)
(1.52811 -0.0410153 0 1.12178 0 1.49881)
(1.52092 -0.046887 0 1.07638 0 1.48757)
(1.51301 -0.0525207 0 1.03623 0 1.47606)
(1.50477 -0.0578615 0 1.00052 0 1.46452)
(1.49649 -0.0629563 0 0.968672 0 1.45329)
(1.48831 -0.0677289 0 0.940052 0 1.4423)
(1.48033 -0.0722661 0 0.914372 0 1.43187)
(1.47274 -0.0764002 0 0.89101 0 1.42175)
(1.46528 -0.0802712 0 0.87009 0 1.41235)
(1.45871 -0.0836601 0 0.850462 0 1.40317)
(1.45191 -0.0866484 0 0.83355 0 1.39512)
(1.44703 -0.0894049 0 0.815142 0 1.38688)
(1.50977 -0.00410992 0 1.49855 0 1.50978)
(1.51843 -0.00584487 0 1.46077 0 1.51758)
(1.52821 -0.00838802 0 1.40251 0 1.5245)
(1.53468 -0.012201 0 1.34204 0 1.52726)
(1.53713 -0.0162686 0 1.28559 0 1.52612)
(1.53662 -0.0203927 0 1.23406 0 1.52226)
(1.53407 -0.0245706 0 1.18754 0 1.51661)
(1.53006 -0.0287259 0 1.1457 0 1.50978)
(1.52509 -0.0328052 0 1.10806 0 1.50226)
(1.51952 -0.0367576 0 1.07411 0 1.49433)
(1.51361 -0.0405771 0 1.04344 0 1.48628)
(1.50752 -0.044215 0 1.01562 0 1.47819)
(1.50138 -0.0476763 0 0.990352 0 1.47025)
(1.49534 -0.0508826 0 0.967261 0 1.46245)
(1.48938 -0.0538444 0 0.946203 0 1.45497)
(1.48379 -0.0565005 0 0.926659 0 1.44771)
(1.47826 -0.0588376 0 0.908886 0 1.44094)
(1.4734 -0.0611175 0 0.891045 0 1.43421)
(1.50946 -0.00338484 0 1.49937 0 1.50953)
(1.51631 -0.00433477 0 1.46917 0 1.51607)
(1.52446 -0.0051018 0 1.42405 0 1.52271)
(1.53071 -0.00679473 0 1.37567 0 1.52676)
(1.53419 -0.00893328 0 1.32907 0 1.52796)
(1.53537 -0.0113398 0 1.28552 0 1.52691)
(1.53479 -0.0139782 0 1.2454 0 1.52422)
(1.53287 -0.0167575 0 1.20866 0 1.52033)
(1.52998 -0.0195964 0 1.17508 0 1.51562)
(1.52639 -0.0224326 0 1.14436 0 1.51036)
(1.52235 -0.0252293 0 1.11624 0 1.50477)
(1.518 -0.0279384 0 1.09044 0 1.49898)
(1.51346 -0.030531 0 1.06673 0 1.49312)
(1.50887 -0.0329586 0 1.04486 0 1.48726)
(1.50428 -0.0351974 0 1.02466 0 1.48151)
(1.49985 -0.0372353 0 1.00586 0 1.4759)
(1.49561 -0.0390539 0 0.988376 0 1.47057)
(1.49154 -0.0408868 0 0.971498 0 1.46534)
(1.50951 -0.0029879 0 1.49932 0 1.50962)
(1.51529 -0.00360669 0 1.47357 0 1.51536)
(1.5221 -0.00351014 0 1.43715 0 1.52142)
(1.52785 -0.00400855 0 1.39719 0 1.52591)
(1.53172 -0.00496597 0 1.3576 0 1.52835)
(1.53385 -0.00626361 0 1.31977 0 1.52902)
(1.53453 -0.00785079 0 1.28426 0 1.52827)
(1.53402 -0.00963738 0 1.25123 0 1.52641)
(1.53261 -0.0115403 0 1.22062 0 1.52372)
(1.5305 -0.0134977 0 1.1923 0 1.52042)
(1.52788 -0.0154648 0 1.1661 0 1.51669)
(1.52489 -0.0173971 0 1.14185 0 1.51266)
(1.52165 -0.0192585 0 1.11936 0 1.50845)
(1.51826 -0.021014 0 1.09847 0 1.50415)
(1.51481 -0.0226396 0 1.07901 0 1.49983)
(1.51137 -0.0241368 0 1.06082 0 1.49555)
(1.50794 -0.0255286 0 1.04379 0 1.49138)
(1.5044 -0.0269513 0 1.02769 0 1.48726)
(1.50947 -0.00244732 0 1.49948 0 1.5096)
(1.51437 -0.00305255 0 1.47722 0 1.51462)
(1.52004 -0.00261317 0 1.44728 0 1.51998)
(1.52513 -0.00240671 0 1.41406 0 1.52439)
(1.52894 -0.00254695 0 1.38052 0 1.52735)
(1.53146 -0.00301385 0 1.34794 0 1.52894)
(1.53281 -0.00378051 0 1.31693 0 1.52935)
(1.53316 -0.00477617 0 1.28772 0 1.52879)
(1.53271 -0.00592747 0 1.26037 0 1.52746)
(1.53162 -0.00717543 0 1.2348 0 1.52553)
(1.53003 -0.00847246 0 1.21092 0 1.52316)
(1.52807 -0.00977531 0 1.18863 0 1.52045)
(1.52582 -0.0110471 0 1.1678 0 1.51751)
(1.5234 -0.0122596 0 1.1483 0 1.51442)
(1.52086 -0.0133944 0 1.13002 0 1.51126)
(1.51828 -0.0144599 0 1.11284 0 1.50808)
(1.51566 -0.0154734 0 1.0967 0 1.50494)
(1.51273 -0.0165548 0 1.08163 0 1.50181)
(1.5095 -0.00209252 0 1.49944 0 1.50964)
(1.51384 -0.00271887 0 1.47948 0 1.51421)
(1.51864 -0.00216503 0 1.45411 0 1.51896)
(1.52311 -0.00159765 0 1.42592 0 1.52313)
(1.52671 -0.00126525 0 1.39702 0 1.52627)
(1.52935 -0.00121888 0 1.36853 0 1.52837)
(1.53108 -0.00145261 0 1.34104 0 1.52952)
(1.53199 -0.00191311 0 1.31484 0 1.52984)
(1.5322 -0.00253874 0 1.29004 0 1.52948)
(1.53185 -0.00327644 0 1.26663 0 1.52857)
(1.53103 -0.00408144 0 1.24459 0 1.52722)
(1.52985 -0.0049148 0 1.22385 0 1.52553)
(1.52839 -0.00574408 0 1.20433 0 1.52358)
(1.52673 -0.00654725 0 1.18595 0 1.52145)
(1.52492 -0.00731296 0 1.16862 0 1.5192)
(1.523 -0.00805266 0 1.15228 0 1.51689)
(1.5209 -0.00880074 0 1.13693 0 1.51454)
(1.51844 -0.00961596 0 1.12268 0 1.51218)
(1.50947 -0.00168144 0 1.49956 0 1.50962)
(1.51334 -0.00233356 0 1.48148 0 1.51378)
(1.51743 -0.00180799 0 1.45964 0 1.51799)
(1.52131 -0.00108083 0 1.43547 0 1.52181)
(1.52459 -0.000461792 0 1.41046 0 1.52492)
(1.52717 -5.84774e-05 0 1.38553 0 1.52723)
(1.52904 0.000106788 0 1.36123 0 1.52878)
(1.53024 6.39731e-05 0 1.33783 0 1.52964)
(1.53087 -0.000141544 0 1.31547 0 1.52992)
(1.531 -0.000465896 0 1.29421 0 1.5297)
(1.53072 -0.000869827 0 1.27405 0 1.52908)
(1.53011 -0.00131938 0 1.25494 0 1.52813)
(1.52923 -0.00178702 0 1.23684 0 1.52692)
(1.52815 -0.0022552 0 1.21971 0 1.52553)
(1.52691 -0.0027164 0 1.20348 0 1.524)
(1.52551 -0.00318113 0 1.18813 0 1.52238)
(1.52392 -0.00366887 0 1.1737 0 1.52071)
(1.52191 -0.00424959 0 1.16033 0 1.51898)
(1.50943 -0.00141746 0 1.49966 0 1.50959)
(1.51302 -0.0020727 0 1.48281 0 1.5135)
(1.51661 -0.0016129 0 1.46334 0 1.51732)
(1.52004 -0.000853347 0 1.44199 0 1.52084)
(1.52302 -0.00011551 0 1.41981 0 1.52383)
(1.52548 0.000464545 0 1.39751 0 1.5262)
(1.52737 0.000846619 0 1.37558 0 1.52795)
(1.52872 0.00104391 0 1.35428 0 1.52914)
(1.52959 0.00108915 0 1.33378 0 1.52981)
(1.53003 0.001018 0 1.31413 0 1.53005)
(1.5301 0.000863819 0 1.29537 0 1.52992)
(1.52988 0.000655341 0 1.2775 0 1.52949)
(1.52941 0.000415184 0 1.26048 0 1.52882)
(1.52873 0.000156835 0 1.24429 0 1.52795)
(1.52788 -0.000115601 0 1.22891 0 1.52693)
(1.52685 -0.00041211 0 1.21434 0 1.52581)
(1.52558 -0.000756451 0 1.20063 0 1.5246)
(1.52391 -0.00117472 0 1.18793 0 1.52333)
(1.50937 -0.00114463 0 1.49984 0 1.50953)
(1.51269 -0.00176333 0 1.48406 0 1.5132)
(1.51588 -0.00138178 0 1.46651 0 1.51669)
(1.5189 -0.000645598 0 1.4475 0 1.51992)
(1.52159 0.000141529 0 1.42771 0 1.52274)
(1.52388 0.000829804 0 1.40769 0 1.52508)
(1.52572 0.00136462 0 1.38786 0 1.52693)
(1.52713 0.00174355 0 1.36846 0 1.52831)
(1.52814 0.00198663 0 1.34965 0 1.52925)
(1.52878 0.00212058 0 1.33151 0 1.52981)
(1.52911 0.00217214 0 1.3141 0 1.53004)
(1.52916 0.00216472 0 1.29741 0 1.52999)
(1.52899 0.00211642 0 1.28146 0 1.52972)
(1.52863 0.0020381 0 1.26622 0 1.52925)
(1.52808 0.00193263 0 1.25171 0 1.52864)
(1.52735 0.00179453 0 1.23793 0 1.52792)
(1.52637 0.00161171 0 1.22495 0 1.5271)
(1.525 0.00134785 0 1.2129 0 1.52619)
(1.50928 -0.000916651 0 1.50006 0 1.50945)
(1.51238 -0.00148166 0 1.48521 0 1.51292)
(1.51522 -0.00118558 0 1.46932 0 1.51611)
(1.51787 -0.000517847 0 1.45236 0 1.51906)
(1.52026 0.00025221 0 1.43474 0 1.52169)
(1.52235 0.000975192 0 1.41684 0 1.52395)
(1.52411 0.00158794 0 1.39897 0 1.52583)
(1.52552 0.00207585 0 1.38136 0 1.52733)
(1.5266 0.0024478 0 1.36416 0 1.52846)
(1.52739 0.00272176 0 1.34746 0 1.52928)
(1.52791 0.00291752 0 1.33132 0 1.52981)
(1.5282 0.00305281 0 1.31578 0 1.53009)
(1.52828 0.00314118 0 1.30084 0 1.53015)
(1.52818 0.00319009 0 1.28653 0 1.53005)
(1.52789 0.00320066 0 1.27285 0 1.52979)
(1.52742 0.00316697 0 1.25984 0 1.52941)
(1.52669 0.00307576 0 1.24756 0 1.52893)
(1.52563 0.00293208 0 1.23611 0 1.52837)
(1.50917 -0.000643858 0 1.50035 0 1.50933)
(1.51203 -0.00107546 0 1.48643 0 1.51259)
(1.51455 -0.000838474 0 1.472 0 1.5155)
(1.51686 -0.000259488 0 1.45686 0 1.51818)
(1.51897 0.000451374 0 1.44118 0 1.5206)
(1.52084 0.00116301 0 1.42521 0 1.52274)
(1.52246 0.00181147 0 1.40918 0 1.52458)
(1.52382 0.0023736 0 1.39327 0 1.52612)
(1.52494 0.00284811 0 1.37761 0 1.52738)
(1.52581 0.00324392 0 1.36232 0 1.52837)
(1.52646 0.00357328 0 1.34745 0 1.52911)
(1.52692 0.00384811 0 1.33305 0 1.52964)
(1.52719 0.00407772 0 1.31914 0 1.52998)
(1.52729 0.00426815 0 1.30577 0 1.53015)
(1.52722 0.00442105 0 1.29295 0 1.53019)
(1.52697 0.00453416 0 1.28073 0 1.5301)
(1.52648 0.00460046 0 1.26916 0 1.52991)
(1.52569 0.0045859 0 1.25834 0 1.52962)
(1.50903 -0.000440363 0 1.50069 0 1.5092)
(1.51167 -0.000745022 0 1.48756 0 1.51225)
(1.51395 -0.000566268 0 1.47427 0 1.51494)
(1.51599 -0.000106178 0 1.46057 0 1.51739)
(1.51785 0.000484593 0 1.44647 0 1.51962)
(1.51952 0.00110261 0 1.4321 0 1.52163)
(1.521 0.0016911 0 1.41762 0 1.52341)
(1.52229 0.00222441 0 1.40317 0 1.52495)
(1.52338 0.00269503 0 1.38886 0 1.52626)
(1.52429 0.00310491 0 1.3748 0 1.52735)
(1.52501 0.00345991 0 1.36105 0 1.52824)
(1.52557 0.00376642 0 1.34766 0 1.52894)
(1.52597 0.00402969 0 1.33468 0 1.52947)
(1.52622 0.00425279 0 1.32215 0 1.52985)
(1.52632 0.00443674 0 1.31011 0 1.53011)
(1.52625 0.00458167 0 1.29858 0 1.53024)
(1.52598 0.00468662 0 1.28763 0 1.53028)
(1.52547 0.00477478 0 1.27733 0 1.53022)
(1.50889 -0.000172083 0 1.50104 0 1.50905)
(1.51133 -0.000239126 0 1.48859 0 1.51191)
(1.51341 -2.98523e-05 0 1.47619 0 1.51442)
(1.51525 0.000361245 0 1.46355 0 1.51669)
(1.51691 0.000852631 0 1.45064 0 1.51877)
(1.51842 0.00138227 0 1.43749 0 1.52065)
(1.51977 0.00191228 0 1.4242 0 1.52235)
(1.52098 0.0024227 0 1.41089 0 1.52386)
(1.52203 0.00290476 0 1.39764 0 1.52518)
(1.52293 0.00335616 0 1.38455 0 1.52632)
(1.52368 0.00377762 0 1.37169 0 1.52728)
(1.5243 0.00417091 0 1.35913 0 1.52808)
(1.52477 0.00453741 0 1.34691 0 1.52873)
(1.52511 0.00487766 0 1.33507 0 1.52924)
(1.52531 0.00519041 0 1.32366 0 1.52963)
(1.52535 0.0054717 0 1.31271 0 1.5299)
(1.52524 0.00571457 0 1.30229 0 1.53007)
(1.52494 0.00588973 0 1.29242 0 1.53016)
(1.50877 -9.4781e-06 0 1.50131 0 1.50894)
(1.51109 9.95575e-05 0 1.4893 0 1.51166)
(1.51307 0.000302086 0 1.47737 0 1.51407)
(1.51481 0.00057063 0 1.46531 0 1.51625)
(1.51638 0.000881541 0 1.45303 0 1.51824)
(1.5178 0.00121444 0 1.44056 0 1.52006)
(1.51909 0.00155501 0 1.42794 0 1.5217)
(1.52025 0.00189392 0 1.41528 0 1.52318)
(1.52128 0.00222527 0 1.40266 0 1.5245)
(1.52218 0.00254551 0 1.39015 0 1.52565)
(1.52295 0.00285253 0 1.37784 0 1.52664)
(1.52359 0.00314514 0 1.36578 0 1.52748)
(1.52411 0.00342282 0 1.35402 0 1.52818)
(1.52451 0.00368598 0 1.3426 0 1.52875)
(1.5248 0.00393584 0 1.33157 0 1.52921)
(1.52495 0.00417673 0 1.32096 0 1.52955)
(1.52497 0.00441342 0 1.3108 0 1.52979)
(1.52482 0.00467091 0 1.30114 0 1.52994)
(1.50879 0.000338814 0 1.50125 0 1.50896)
(1.51114 0.000835614 0 1.48913 0 1.51171)
(1.51314 0.00119519 0 1.47708 0 1.51414)
(1.51491 0.00148077 0 1.46487 0 1.51634)
(1.5165 0.00174297 0 1.45244 0 1.51834)
(1.51794 0.0020145 0 1.43981 0 1.52016)
(1.51923 0.00231333 0 1.42706 0 1.5218)
(1.52038 0.00264656 0 1.41426 0 1.52327)
(1.52139 0.00301429 0 1.40152 0 1.52456)
(1.52225 0.00341269 0 1.38891 0 1.52568)
(1.52298 0.00383598 0 1.37651 0 1.52663)
(1.52358 0.00427755 0 1.36436 0 1.52742)
(1.52405 0.00473049 0 1.35253 0 1.52807)
(1.5244 0.00518768 0 1.34104 0 1.52859)
(1.52465 0.0056415 0 1.32992 0 1.52899)
(1.52479 0.00608265 0 1.3192 0 1.52929)
(1.52485 0.00649977 0 1.3089 0 1.52949)
(1.52484 0.00686857 0 1.29903 0 1.52963)
(1.50904 0.000521971 0 1.50077 0 1.50918)
(1.51172 0.00116849 0 1.48778 0 1.51221)
(1.51402 0.00146143 0 1.47469 0 1.51488)
(1.51609 0.00155891 0 1.46126 0 1.51731)
(1.51797 0.00157822 0 1.44749 0 1.51952)
(1.51967 0.001594 0 1.43347 0 1.5215)
(1.5212 0.00164714 0 1.41935 0 1.52327)
(1.52253 0.00175415 0 1.40525 0 1.52481)
(1.52368 0.00191675 0 1.3913 0 1.52612)
(1.52464 0.0021287 0 1.37756 0 1.52723)
(1.52544 0.00237995 0 1.36413 0 1.52813)
(1.52606 0.00265897 0 1.35105 0 1.52884)
(1.52654 0.00295438 0 1.33837 0 1.52938)
(1.52686 0.00325576 0 1.32611 0 1.52976)
(1.52705 0.00355568 0 1.31431 0 1.52999)
(1.5271 0.00385081 0 1.30299 0 1.53009)
(1.52701 0.00414686 0 1.29218 0 1.53006)
(1.52676 0.0044714 0 1.28189 0 1.5299)
(1.50921 0.00088906 0 1.5003 0 1.50935)
(1.51222 0.00182447 0 1.48616 0 1.51268)
(1.51491 0.00214538 0 1.47145 0 1.51569)
(1.51738 0.00218162 0 1.45603 0 1.51843)
(1.51963 0.00213637 0 1.4401 0 1.5209)
(1.52163 0.00212055 0 1.42391 0 1.52307)
(1.52336 0.002187 0 1.40766 0 1.52493)
(1.52481 0.00235105 0 1.39156 0 1.52648)
(1.526 0.00260791 0 1.37574 0 1.52772)
(1.52693 0.00294444 0 1.36029 0 1.52869)
(1.52763 0.00334541 0 1.34529 0 1.5294)
(1.52811 0.00379666 0 1.33078 0 1.52987)
(1.52839 0.00428669 0 1.31679 0 1.53013)
(1.52849 0.00480787 0 1.30335 0 1.53021)
(1.52843 0.00535597 0 1.29047 0 1.53013)
(1.52823 0.00593003 0 1.27813 0 1.5299)
(1.52794 0.00652627 0 1.26635 0 1.52957)
(1.52761 0.00712025 0 1.25508 0 1.52917)
(1.50941 0.00115637 0 1.49989 0 1.50953)
(1.51281 0.00220482 0 1.48439 0 1.51318)
(1.51601 0.00243935 0 1.46744 0 1.51659)
(1.51904 0.00237491 0 1.44922 0 1.51973)
(1.52177 0.00226411 0 1.43029 0 1.52249)
(1.52412 0.00222456 0 1.41116 0 1.5248)
(1.52607 0.0023079 0 1.39217 0 1.52666)
(1.52761 0.00252349 0 1.37356 0 1.52807)
(1.52877 0.0028588 0 1.35548 0 1.52908)
(1.52959 0.00329397 0 1.33801 0 1.52972)
(1.5301 0.00380801 0 1.32119 0 1.53005)
(1.53034 0.00438067 0 1.30506 0 1.5301)
(1.53036 0.00499305 0 1.28961 0 1.52992)
(1.53018 0.00562673 0 1.27483 0 1.52953)
(1.52984 0.00626357 0 1.26073 0 1.52899)
(1.52936 0.00688373 0 1.24729 0 1.52829)
(1.52874 0.00747221 0 1.23451 0 1.52748)
(1.52791 0.00804211 0 1.22242 0 1.5265)
(1.50955 0.00172529 0 1.49949 0 1.50966)
(1.51349 0.00298591 0 1.48185 0 1.51379)
(1.51752 0.00323004 0 1.46117 0 1.51784)
(1.52134 0.00327858 0 1.43848 0 1.52151)
(1.52466 0.00340855 0 1.41497 0 1.52457)
(1.52735 0.00369898 0 1.39142 0 1.52692)
(1.52942 0.00416963 0 1.36833 0 1.5286)
(1.53089 0.00480239 0 1.34596 0 1.52967)
(1.53183 0.00556239 0 1.32447 0 1.53018)
(1.5323 0.00641584 0 1.30392 0 1.53023)
(1.53237 0.00733472 0 1.28435 0 1.52989)
(1.5321 0.00829625 0 1.26575 0 1.52922)
(1.53154 0.00928272 0 1.24809 0 1.52827)
(1.53073 0.0102823 0 1.23136 0 1.5271)
(1.52971 0.0112899 0 1.21553 0 1.52573)
(1.52852 0.0123123 0 1.20057 0 1.52422)
(1.52716 0.0133655 0 1.18643 0 1.52257)
(1.52583 0.0144554 0 1.17305 0 1.5209)
(1.50958 0.00209585 0 1.49945 0 1.50966)
(1.51415 0.00346322 0 1.47928 0 1.51426)
(1.51923 0.00386402 0 1.45344 0 1.51902)
(1.52398 0.00426841 0 1.42478 0 1.52313)
(1.5278 0.00485626 0 1.39556 0 1.52616)
(1.5306 0.00563511 0 1.3669 0 1.52809)
(1.53243 0.00661023 0 1.33934 0 1.52903)
(1.53341 0.00775832 0 1.31313 0 1.52913)
(1.53367 0.00903579 0 1.28834 0 1.52855)
(1.53335 0.0104034 0 1.26496 0 1.52742)
(1.53256 0.0118309 0 1.24294 0 1.52585)
(1.5314 0.0132944 0 1.22221 0 1.52395)
(1.52995 0.0147754 0 1.2027 0 1.52179)
(1.52829 0.0162585 0 1.18433 0 1.51944)
(1.52648 0.0177289 0 1.16702 0 1.51697)
(1.52458 0.0191611 0 1.1507 0 1.51441)
(1.52267 0.0205123 0 1.13529 0 1.51184)
(1.52059 0.0217305 0 1.1208 0 1.50918)
(1.50975 0.00299756 0 1.49898 0 1.5098)
(1.51562 0.00467842 0 1.47377 0 1.51543)
(1.52244 0.00579366 0 1.4388 0 1.52124)
(1.52834 0.0073689 0 1.40037 0 1.52563)
(1.53255 0.00927403 0 1.36207 0 1.52817)
(1.5351 0.0113346 0 1.32527 0 1.52904)
(1.53623 0.0135077 0 1.29055 0 1.52855)
(1.5362 0.0157596 0 1.25808 0 1.52697)
(1.53526 0.0180382 0 1.22787 0 1.52457)
(1.5336 0.0203078 0 1.19981 0 1.52156)
(1.53142 0.0225486 0 1.17376 0 1.5181)
(1.52884 0.0247466 0 1.14957 0 1.51433)
(1.52597 0.0268903 0 1.12708 0 1.51034)
(1.5229 0.02897 0 1.10616 0 1.50622)
(1.51967 0.0309755 0 1.08668 0 1.50202)
(1.51631 0.0329058 0 1.06855 0 1.49777)
(1.51275 0.0347761 0 1.05169 0 1.49344)
(1.50926 0.036674 0 1.03603 0 1.48922)
(1.50956 0.0033484 0 1.4994 0 1.50954)
(1.51697 0.00626115 0 1.46776 0 1.51608)
(1.52589 0.0094278 0 1.41959 0 1.52246)
(1.53254 0.0131443 0 1.36893 0 1.52579)
(1.53612 0.0169555 0 1.32076 0 1.52606)
(1.53712 0.0206704 0 1.27624 0 1.52397)
(1.53619 0.0243402 0 1.23545 0 1.5202)
(1.53384 0.0279983 0 1.19816 0 1.51525)
(1.5305 0.0315955 0 1.16409 0 1.50953)
(1.52647 0.0350969 0 1.13293 0 1.50332)
(1.522 0.038489 0 1.10437 0 1.49685)
(1.51726 0.0417641 0 1.07813 0 1.49025)
(1.51237 0.0449185 0 1.05397 0 1.48363)
(1.50744 0.0479546 0 1.03168 0 1.47707)
(1.50253 0.0508777 0 1.01106 0 1.47063)
(1.49773 0.0536972 0 0.991964 0 1.46435)
(1.49327 0.0564044 0 0.974182 0 1.45837)
(1.48904 0.0588338 0 0.957705 0 1.45267)
(1.51072 0.00497857 0 1.49653 0 1.51053)
(1.52208 0.0113506 0 1.44805 0 1.51932)
(1.53421 0.0199362 0 1.37293 0 1.52522)
(1.54099 0.0285758 0 1.2983 0 1.52509)
(1.54246 0.0362519 0 1.23084 0 1.52027)
(1.54004 0.042866 0 1.17111 0 1.51236)
(1.53508 0.0487558 0 1.11847 0 1.50258)
(1.52863 0.0542046 0 1.07204 0 1.49182)
(1.52129 0.0592518 0 1.03103 0 1.48066)
(1.51349 0.0639451 0 0.994635 0 1.46943)
(1.50553 0.0683352 0 0.962162 0 1.45836)
(1.4976 0.0724553 0 0.933048 0 1.44758)
(1.48981 0.0763263 0 0.906821 0 1.43717)
(1.48227 0.0799716 0 0.883098 0 1.4272)
(1.47495 0.0833957 0 0.861539 0 1.41763)
(1.46798 0.0866119 0 0.841904 0 1.40854)
(1.4609 0.0895684 0 0.823891 0 1.39965)
(1.45398 0.0923482 0 0.807692 0 1.39125)
(1.50986 0.00579375 0 1.49843 0 1.50915)
(1.52695 0.0254822 0 1.42427 0 1.51751)
(1.54206 0.0456277 0 1.31346 0 1.51586)
(1.54569 0.0605918 0 1.21734 0 1.5043)
(1.54106 0.0721983 0 1.13751 0 1.48741)
(1.53136 0.0816057 0 1.07058 0 1.46797)
(1.51924 0.0898265 0 1.01355 0 1.44778)
(1.50656 0.0974014 0 0.964531 0 1.42812)
(1.49381 0.104313 0 0.922101 0 1.40933)
(1.48138 0.110628 0 0.885041 0 1.39158)
(1.46947 0.116425 0 0.852417 0 1.37491)
(1.45823 0.121773 0 0.823495 0 1.35935)
(1.44762 0.126708 0 0.797672 0 1.34478)
(1.43775 0.131286 0 0.774515 0 1.33125)
(1.42852 0.135551 0 0.753566 0 1.31856)
(1.41994 0.139509 0 0.734691 0 1.30682)
(1.41218 0.143361 0 0.717282 0 1.29577)
(1.40584 0.146671 0 0.702131 0 1.28625)
(1.5189 0.0284587 0 1.47294 0 1.51483)
(1.5634 0.112016 0 1.26338 0 1.51871)
(1.58322 0.161043 0 1.03771 0 1.48715)
(1.57568 0.18198 0 0.887047 0 1.44363)
(1.55684 0.19259 0 0.784377 0 1.39973)
(1.53315 0.198882 0 0.711463 0 1.35826)
(1.51044 0.204115 0 0.657298 0 1.32169)
(1.49093 0.209196 0 0.615914 0 1.29072)
(1.47357 0.213991 0 0.58302 0 1.26373)
(1.45812 0.218451 0 0.556159 0 1.23993)
(1.44426 0.22255 0 0.5338 0 1.2187)
(1.43209 0.226349 0 0.514907 0 1.19985)
(1.42113 0.22984 0 0.498681 0 1.18279)
(1.4117 0.233075 0 0.484664 0 1.16764)
(1.40303 0.236074 0 0.47237 0 1.15368)
(1.39582 0.238837 0 0.461587 0 1.14137)
(1.3888 0.241467 0 0.452013 0 1.12974)
(1.38194 0.243676 0 0.443267 0 1.11894)
(1.59274 0.291964 0 1.39581 0 1.52093)
(1.91623 0.578694 0 0.96806 0 1.53309)
(2.06903 0.585624 0 0.732301 0 1.48899)
(2.10353 0.552948 0 0.628159 0 1.43529)
(2.09254 0.52558 0 0.573898 0 1.38571)
(2.06466 0.505437 0 0.540725 0 1.34255)
(2.0308 0.489939 0 0.517661 0 1.30525)
(1.99589 0.477399 0 0.500077 0 1.27292)
(1.96228 0.466876 0 0.485789 0 1.24461)
(1.93079 0.457779 0 0.473732 0 1.21958)
(1.90162 0.44976 0 0.463319 0 1.19724)
(1.87468 0.442595 0 0.454179 0 1.17716)
(1.84993 0.436147 0 0.446072 0 1.15903)
(1.82703 0.430297 0 0.438809 0 1.14254)
(1.80611 0.424959 0 0.432263 0 1.12757)
(1.78651 0.420099 0 0.426344 0 1.11376)
(1.76881 0.415543 0 0.4209 0 1.10126)
(1.75174 0.411322 0 0.416037 0 1.08947)
(0.00985582 0.00253599 0 0.0305926 0 0.0273044)
(0.0290646 9.53246e-05 0 0.0565332 0 0.0683739)
(0.0507747 -0.00114725 0 0.0768541 0 0.101518)
(0.0673975 -0.00562287 0 0.0868434 0 0.120037)
(0.0815233 -0.0106966 0 0.0941783 0 0.133254)
(0.0946354 -0.0157288 0 0.0981263 0 0.142956)
(0.106883 -0.0190897 0 0.0993312 0 0.150489)
(0.11764 -0.0218605 0 0.0990577 0 0.156)
(0.127213 -0.0243912 0 0.0980872 0 0.160084)
(0.135822 -0.026837 0 0.0965166 0 0.163024)
(0.14376 -0.0291994 0 0.0944685 0 0.165112)
(0.151128 -0.0314044 0 0.0919866 0 0.166508)
(0.158247 -0.033438 0 0.0891529 0 0.167393)
(0.164234 -0.0347791 0 0.0861611 0 0.167829)
(0.171346 -0.0356409 0 0.0813912 0 0.167055)
(0.174858 -0.0359465 0 0.078535 0 0.166341)
(0.1781 -0.035996 0 0.0753706 0 0.165265)
(0.181303 -0.0357393 0 0.0715019 0 0.163426)
(0.183639 -0.0351856 0 0.0676195 0 0.160968)
(0.184892 -0.0344169 0 0.0638647 0 0.157914)
(0.185085 -0.0334553 0 0.060247 0 0.154323)
(0.184027 -0.0322122 0 0.0567183 0 0.150107)
(0.181516 -0.0306933 0 0.0531585 0 0.145091)
(0.17744 -0.0288592 0 0.0494428 0 0.139134)
(0.171432 -0.0266403 0 0.0455223 0 0.132)
(0.163117 -0.0240454 0 0.0414404 0 0.123535)
(0.152076 -0.0211289 0 0.037239 0 0.1136)
(0.138617 -0.0181506 0 0.0329984 0 0.102414)
(0.123044 -0.015295 0 0.0287247 0 0.0901471)
(0.105911 -0.0124678 0 0.0244042 0 0.0771292)
(0.0952891 -0.00928473 0 0.0207751 0 0.0683284)
(0.0912557 -0.00520498 0 0.018149 0 0.0638824)
(0.0929415 -0.00289138 0 0.0175735 0 0.0643313)
(0.0993356 -0.000924983 0 0.0181474 0 0.0683671)
(0.109986 0.000470098 0 0.0198493 0 0.075774)
(0.119098 0.00084079 0 0.0215366 0 0.0823825)
(0.123053 -6.93459e-05 0 0.0224674 0 0.0856277)
(0.121143 -0.000911506 0 0.0223929 0 0.0848969)
(0.114239 -0.00104274 0 0.0215638 0 0.0810733)
(0.105253 -0.000542654 0 0.0205671 0 0.0762356)
(0.0995582 0.000122057 0 0.0203747 0 0.0739104)
(0.100727 0.00143353 0 0.0212868 0 0.0758)
(0.107004 0.0034159 0 0.0233344 0 0.0810685)
(0.117429 0.0058545 0 0.0265168 0 0.0892632)
(0.132772 0.00864474 0 0.0308077 0 0.100843)
(0.15503 0.0117601 0 0.0361647 0 0.11702)
(0.180972 0.0151554 0 0.041921 0 0.135536)
(0.206249 0.0187618 0 0.047674 0 0.153557)
(0.231175 0.0225398 0 0.0534629 0 0.171319)
(0.255812 0.0264468 0 0.0593011 0 0.188885)
(0.280302 0.0304733 0 0.065216 0 0.206373)
(0.30446 0.0345657 0 0.0711484 0 0.223662)
(0.328193 0.0387181 0 0.0770966 0 0.240715)
(0.35162 0.0429377 0 0.0830973 0 0.257642)
(0.37484 0.0472305 0 0.0891878 0 0.27454)
(0.397921 0.0516019 0 0.0954023 0 0.291485)
(0.42091 0.0560538 0 0.101775 0 0.308539)
(0.443824 0.0605852 0 0.108336 0 0.325742)
(0.466664 0.0651902 0 0.115119 0 0.343123)
(0.48939 0.0698617 0 0.122152 0 0.360684)
(0.511939 0.0745915 0 0.129466 0 0.37841)
(0.53423 0.0793698 0 0.137096 0 0.396274)
(0.556164 0.0841861 0 0.145078 0 0.414238)
(0.577634 0.0890291 0 0.153457 0 0.432257)
(0.598514 0.0938878 0 0.162282 0 0.450274)
(0.618678 0.0987503 0 0.17161 0 0.468231)
(0.637981 0.103606 0 0.181507 0 0.486056)
(0.656284 0.108442 0 0.19205 0 0.503683)
(0.673438 0.113241 0 0.203322 0 0.52103)
(0.689307 0.117979 0 0.21542 0 0.53803)
(0.703764 0.122632 0 0.228443 0 0.55461)
(0.716717 0.127176 0 0.242506 0 0.570728)
(0.728119 0.131584 0 0.257747 0 0.586377)
(0.737859 0.135793 0 0.274306 0 0.601495)
(0.74586 0.139734 0 0.29232 0 0.616027)
(0.752273 0.143298 0 0.311997 0 0.630086)
(0.757181 0.146397 0 0.333537 0 0.643734)
(0.76053 0.148899 0 0.356994 0 0.656878)
(0.762226 0.150607 0 0.382341 0 0.66938)
(0.762108 0.151317 0 0.409479 0 0.681034)
(0.759987 0.150788 0 0.43817 0 0.691584)
(0.755665 0.148726 0 0.468064 0 0.700747)
(0.748899 0.144807 0 0.498664 0 0.708182)
(0.739416 0.138399 0 0.529753 0 0.71363)
(0.728761 0.129309 0 0.555236 0 0.715789)
(0.718517 0.119798 0 0.573671 0 0.715986)
(0.703587 0.10938 0 0.592357 0 0.71442)
(0.685167 0.0939407 0 0.606611 0 0.708989)
(0.666265 0.07796 0 0.612346 0 0.700786)
(0.644272 0.0599934 0 0.608844 0 0.688497)
(0.61748 0.0349056 0 0.59266 0 0.671364)
(0.596068 0.00682097 0 0.565366 0 0.654541)
(0.578936 -0.0158565 0 0.532799 0 0.637785)
(0.565257 -0.0333117 0 0.496827 0 0.621179)
(0.5539 -0.0457602 0 0.459905 0 0.60475)
(0.544176 -0.0538501 0 0.424105 0 0.588719)
(0.535502 -0.0584838 0 0.39095 0 0.573314)
(0.527556 -0.0606061 0 0.361394 0 0.558806)
(0.520163 -0.0610717 0 0.335876 0 0.545437)
(0.513316 -0.0606048 0 0.314485 0 0.53345)
(0.507102 -0.0597713 0 0.297056 0 0.52303)
(0.501624 -0.0589746 0 0.28325 0 0.514262)
(0.496977 -0.0584862 0 0.272646 0 0.507144)
(0.493185 -0.0584584 0 0.264764 0 0.50155)
(0.490234 -0.0589734 0 0.259129 0 0.497279)
(0.488078 -0.0600955 0 0.255309 0 0.49409)
(0.486818 -0.0621319 0 0.253065 0 0.491914)
(0.486653 -0.0654997 0 0.252078 0 0.490859)
(0.487697 -0.0697965 0 0.251449 0 0.490942)
(0.489408 -0.0736362 0 0.250216 0 0.491484)
(0.491302 -0.0767753 0 0.248307 0 0.49188)
(0.493299 -0.079589 0 0.246066 0 0.49209)
(0.495245 -0.0820753 0 0.24375 0 0.492118)
(0.497101 -0.084296 0 0.241431 0 0.491972)
(0.498844 -0.0862905 0 0.239128 0 0.49165)
(0.500462 -0.0880884 0 0.23683 0 0.491148)
(0.501952 -0.0897114 0 0.234516 0 0.490468)
(0.503314 -0.0911748 0 0.232166 0 0.489611)
(0.504551 -0.0924898 0 0.229769 0 0.488589)
(0.505664 -0.0936657 0 0.227322 0 0.48741)
(0.506659 -0.0947113 0 0.224826 0 0.486089)
(0.507542 -0.0956347 0 0.222291 0 0.484643)
(0.508322 -0.0964443 0 0.219728 0 0.48309)
(0.509005 -0.0971496 0 0.217152 0 0.481446)
(0.5096 -0.0977608 0 0.214575 0 0.479728)
(0.510114 -0.0982886 0 0.212012 0 0.477951)
(0.510555 -0.0987432 0 0.209475 0 0.47613)
(0.510929 -0.099134 0 0.206974 0 0.474276)
(0.511244 -0.0994697 0 0.204517 0 0.472401)
(0.511508 -0.099758 0 0.202112 0 0.470515)
(0.511727 -0.100006 0 0.199765 0 0.468628)
(0.511905 -0.10022 0 0.19748 0 0.466745)
(0.512049 -0.100405 0 0.195259 0 0.464873)
(0.512164 -0.100566 0 0.193105 0 0.463018)
(0.512252 -0.100707 0 0.191018 0 0.461183)
(0.512317 -0.100831 0 0.189 0 0.459371)
(0.512363 -0.100942 0 0.187049 0 0.457586)
(0.512392 -0.101042 0 0.185164 0 0.455828)
(0.512406 -0.101132 0 0.183346 0 0.4541)
(0.512406 -0.101216 0 0.181593 0 0.452403)
(0.512395 -0.101294 0 0.179902 0 0.450737)
(0.512373 -0.101368 0 0.178274 0 0.449103)
(0.512343 -0.10144 0 0.176706 0 0.447501)
(0.512306 -0.10151 0 0.175196 0 0.445933)
(0.512263 -0.10158 0 0.173745 0 0.444398)
(0.512217 -0.10165 0 0.172349 0 0.442898)
(0.512168 -0.101722 0 0.171008 0 0.441432)
(0.512117 -0.101797 0 0.169721 0 0.440001)
(0.512067 -0.101875 0 0.168485 0 0.438605)
(0.512018 -0.101958 0 0.1673 0 0.437244)
(0.51197 -0.102045 0 0.166163 0 0.435917)
(0.511921 -0.102136 0 0.165072 0 0.434621)
(0.511871 -0.102232 0 0.164025 0 0.433355)
(0.511822 -0.102334 0 0.163021 0 0.432118)
(0.511774 -0.102442 0 0.162058 0 0.430911)
(0.511731 -0.102556 0 0.161136 0 0.429734)
(0.511694 -0.102678 0 0.160254 0 0.42859)
(0.511667 -0.102808 0 0.159411 0 0.427478)
(0.511651 -0.102946 0 0.158608 0 0.4264)
(0.51165 -0.103094 0 0.157842 0 0.425357)
(0.511665 -0.103252 0 0.157113 0 0.42435)
(0.5117 -0.103421 0 0.156421 0 0.423379)
(0.511756 -0.1036 0 0.155765 0 0.422446)
(0.511834 -0.10379 0 0.155143 0 0.421549)