/*--------------------------------*- C++ -*----------------------------------*\
| =========                 |                                                 |
| \\      /  F ield         | OpenFOAM: The Open Source CFD Toolbox           |
|  \\    /   O peration     | Version:  v1906                                 |
|   \\  /    A nd           | Web:      www.OpenFOAM.com                      |
|    \\/     M anipulation  |                                                 |
\*---------------------------------------------------------------------------*/
FoamFile
{
    version     2.0;
    format      ascii;
    class       volVectorField;
    location    "600";
    object      U;
}
// * * * * * * * * * * * * * * * * * * * * * * * * * * * * * * * * * * * * * //

dimensions      [0 1 -1 0 0 0 0];


internalField   nonuniform List<vector> 
12225
(
(9.79727 -0.108752 0)
(9.50673 -0.356761 0)
(9.26447 -0.488279 0)
(9.06612 -0.540832 0)
(8.90326 -0.559468 0)
(8.76226 -0.565149 0)
(8.63623 -0.565593 0)
(8.52309 -0.563578 0)
(8.42148 -0.560186 0)
(8.32998 -0.55599 0)
(8.2476 -0.551092 0)
(8.1722 -0.545498 0)
(8.10353 -0.539694 0)
(8.04131 -0.533938 0)
(7.98629 -0.528452 0)
(7.93952 -0.524614 0)
(7.90283 -0.517312 0)
(7.88203 -0.537723 0)
(10.0492 0.150439 0)
(10.0911 0.259739 0)
(10.0684 0.319235 0)
(10.0256 0.363309 0)
(9.98283 0.392918 0)
(9.94009 0.411558 0)
(9.89732 0.423502 0)
(9.85586 0.431299 0)
(9.81631 0.43614 0)
(9.77843 0.438885 0)
(9.74245 0.44013 0)
(9.70842 0.440319 0)
(9.67646 0.439509 0)
(9.64628 0.437959 0)
(9.61807 0.43517 0)
(9.59082 0.432356 0)
(9.567 0.424583 0)
(9.54219 0.420021 0)
(10.0166 0.0077544 0)
(10.0499 -0.0105934 0)
(10.0415 -0.0528905 0)
(10.0183 -0.0930812 0)
(9.99682 -0.127502 0)
(9.9772 -0.155887 0)
(9.95841 -0.178219 0)
(9.94074 -0.195619 0)
(9.92421 -0.209425 0)
(9.90861 -0.220643 0)
(9.89378 -0.229787 0)
(9.87995 -0.237332 0)
(9.86697 -0.243669 0)
(9.85527 -0.249461 0)
(9.84425 -0.254831 0)
(9.8347 -0.261198 0)
(9.82592 -0.267775 0)
(9.81021 -0.283786 0)
(10.0096 0.058287 0)
(10.039 0.0976178 0)
(10.0507 0.114992 0)
(10.0512 0.134052 0)
(10.0494 0.152918 0)
(10.0455 0.169336 0)
(10.0397 0.183313 0)
(10.033 0.195083 0)
(10.026 0.204828 0)
(10.019 0.212848 0)
(10.012 0.219498 0)
(10.0054 0.225022 0)
(9.99916 0.229502 0)
(9.99361 0.232928 0)
(9.98858 0.235313 0)
(9.98429 0.23628 0)
(9.98042 0.235815 0)
(9.9782 0.232469 0)
(10.0094 0.0199183 0)
(10.0407 0.0291003 0)
(10.0563 0.0219526 0)
(10.0606 0.0108894 0)
(10.062 -0.00232464 0)
(10.0616 -0.0167615 0)
(10.0601 -0.0307559 0)
(10.058 -0.0435453 0)
(10.0559 -0.055109 0)
(10.0537 -0.0655631 0)
(10.0516 -0.0750142 0)
(10.0495 -0.0836237 0)
(10.0478 -0.0916272 0)
(10.0462 -0.0993464 0)
(10.045 -0.107026 0)
(10.0435 -0.115334 0)
(10.0425 -0.123944 0)
(10.0355 -0.135609 0)
(10.0058 0.0332758 0)
(10.0287 0.0619754 0)
(10.0451 0.0730556 0)
(10.0549 0.0811104 0)
(10.0627 0.0886367 0)
(10.0686 0.0956577 0)
(10.0728 0.102501 0)
(10.076 0.109116 0)
(10.0784 0.11527 0)
(10.0805 0.120853 0)
(10.0822 0.125864 0)
(10.0838 0.130298 0)
(10.0853 0.134112 0)
(10.0869 0.137191 0)
(10.0885 0.139495 0)
(10.0901 0.140753 0)
(10.0913 0.141087 0)
(10.0942 0.140558 0)
(10.0046 0.0159879 0)
(10.0242 0.0297208 0)
(10.0401 0.0319777 0)
(10.0499 0.0301182 0)
(10.0571 0.0257947 0)
(10.0625 0.0196065 0)
(10.0665 0.01257 0)
(10.0696 0.00530617 0)
(10.0724 -0.00194669 0)
(10.0749 -0.00906808 0)
(10.0772 -0.0159906 0)
(10.0794 -0.022729 0)
(10.0816 -0.0293654 0)
(10.0837 -0.0360624 0)
(10.0858 -0.0429025 0)
(10.0872 -0.0502178 0)
(10.0884 -0.057606 0)
(10.0858 -0.0665193 0)
(10.0032 0.020312 0)
(10.0185 0.0433075 0)
(10.0328 0.0542172 0)
(10.0436 0.0606619 0)
(10.053 0.0651943 0)
(10.0611 0.0687195 0)
(10.0679 0.0719536 0)
(10.0739 0.0751404 0)
(10.0793 0.0782465 0)
(10.0842 0.081208 0)
(10.0888 0.0839765 0)
(10.0931 0.0864905 0)
(10.0973 0.0886783 0)
(10.1013 0.0904361 0)
(10.1051 0.091719 0)
(10.1087 0.0924204 0)
(10.1119 0.0925811 0)
(10.1164 0.0928547 0)
(10.0019 0.0115181 0)
(10.0136 0.0247267 0)
(10.0264 0.0300036 0)
(10.0365 0.0314836 0)
(10.0452 0.0305884 0)
(10.0524 0.0279938 0)
(10.0584 0.0244068 0)
(10.0637 0.0202519 0)
(10.0684 0.0157378 0)
(10.0727 0.010992 0)
(10.0767 0.00609435 0)
(10.0805 0.00106716 0)
(10.0841 -0.00410306 0)
(10.0875 -0.00948005 0)
(10.0906 -0.0150671 0)
(10.093 -0.0209842 0)
(10.095 -0.026946 0)
(10.0944 -0.0338437 0)
(10.0017 0.0127083 0)
(10.0117 0.0306531 0)
(10.0231 0.0408931 0)
(10.033 0.0471002 0)
(10.0422 0.0510089 0)
(10.0505 0.0535864 0)
(10.058 0.0555505 0)
(10.0648 0.0572524 0)
(10.0712 0.058815 0)
(10.0771 0.0602736 0)
(10.0826 0.0616259 0)
(10.0879 0.0628398 0)
(10.0929 0.0638747 0)
(10.0977 0.0646735 0)
(10.1022 0.0652226 0)
(10.1064 0.0655109 0)
(10.1104 0.0655684 0)
(10.1151 0.0661156 0)
(10.0007 0.00800714 0)
(10.0076 0.0191049 0)
(10.0172 0.0248795 0)
(10.0262 0.0275516 0)
(10.0346 0.0280858 0)
(10.0421 0.0271159 0)
(10.0489 0.0251785 0)
(10.0549 0.022598 0)
(10.0605 0.0195572 0)
(10.0656 0.0161692 0)
(10.0703 0.0125045 0)
(10.0747 0.00859537 0)
(10.0789 0.00445586 0)
(10.0827 7.52197e-05 0)
(10.0861 -0.00452386 0)
(10.089 -0.00938212 0)
(10.0913 -0.0143151 0)
(10.0922 -0.0199476 0)
(10.0008 0.00815631 0)
(10.0074 0.0214183 0)
(10.0163 0.0299495 0)
(10.0248 0.0354678 0)
(10.0332 0.0389074 0)
(10.0411 0.0410208 0)
(10.0484 0.0423704 0)
(10.0553 0.0432878 0)
(10.0617 0.0439491 0)
(10.0677 0.0444443 0)
(10.0734 0.0448156 0)
(10.0787 0.0450722 0)
(10.0838 0.0452141 0)
(10.0886 0.0452286 0)
(10.093 0.0451365 0)
(10.0972 0.0449661 0)
(10.1011 0.0447588 0)
(10.1054 0.0451511 0)
(10.0002 0.00570421 0)
(10.0046 0.0145299 0)
(10.0119 0.0197227 0)
(10.0195 0.0225831 0)
(10.0272 0.0236314 0)
(10.0345 0.0234 0)
(10.0412 0.0222836 0)
(10.0475 0.0205398 0)
(10.0533 0.0183291 0)
(10.0587 0.0157518 0)
(10.0638 0.0128714 0)
(10.0685 0.00972468 0)
(10.0728 0.00633529 0)
(10.0768 0.00271885 0)
(10.0805 -0.00110678 0)
(10.0836 -0.00513827 0)
(10.0863 -0.00930605 0)
(10.0883 -0.0141179 0)
(10.0005 0.00535386 0)
(10.005 0.0150755 0)
(10.0118 0.0220654 0)
(10.019 0.0270698 0)
(10.0265 0.030468 0)
(10.0338 0.032773 0)
(10.0408 0.0343765 0)
(10.0475 0.0355463 0)
(10.0539 0.0364534 0)
(10.0599 0.0372015 0)
(10.0656 0.0378526 0)
(10.0709 0.0384398 0)
(10.076 0.0389875 0)
(10.0808 0.0395103 0)
(10.0852 0.0400437 0)
(10.0894 0.0406389 0)
(10.0932 0.0413004 0)
(10.0969 0.0426316 0)
(10.0001 0.0033722 0)
(10.0028 0.00888906 0)
(10.008 0.0122425 0)
(10.0142 0.0140481 0)
(10.0208 0.0145304 0)
(10.0274 0.0140125 0)
(10.0339 0.0127391 0)
(10.04 0.0108817 0)
(10.0459 0.00855827 0)
(10.0514 0.00584759 0)
(10.0565 0.00280191 0)
(10.0614 -0.000541893 0)
(10.0658 -0.00416069 0)
(10.07 -0.00803026 0)
(10.0738 -0.0121431 0)
(10.0773 -0.0164912 0)
(10.0804 -0.0210052 0)
(10.0833 -0.0261394 0)
(10.0002 0.00299351 0)
(10.0031 0.00883892 0)
(10.008 0.013589 0)
(10.0137 0.0174192 0)
(10.0199 0.0204154 0)
(10.0263 0.0227968 0)
(10.0325 0.0247654 0)
(10.0386 0.0264785 0)
(10.0444 0.0280544 0)
(10.0499 0.029576 0)
(10.0551 0.0311009 0)
(10.0599 0.0326679 0)
(10.0645 0.034308 0)
(10.0686 0.0360423 0)
(10.0725 0.0378962 0)
(10.0759 0.0399068 0)
(10.0791 0.041999 0)
(10.0817 0.044692 0)
(10.0001 0.000972716 0)
(10.0022 0.00238804 0)
(10.0063 0.00281301 0)
(10.0115 0.00243949 0)
(10.0174 0.00133459 0)
(10.0236 -0.000391845 0)
(10.0298 -0.00264428 0)
(10.036 -0.00535421 0)
(10.0421 -0.00847059 0)
(10.048 -0.0119551 0)
(10.0536 -0.0157798 0)
(10.059 -0.0199184 0)
(10.0641 -0.0243512 0)
(10.0689 -0.0290475 0)
(10.0735 -0.0339832 0)
(10.0779 -0.0391322 0)
(10.082 -0.0443652 0)
(10.0862 -0.0500711 0)
(10 0.000933228 0)
(10.0016 0.00297038 0)
(10.0049 0.0050869 0)
(10.0091 0.00727834 0)
(10.0138 0.00952315 0)
(10.0188 0.0118454 0)
(10.0236 0.0142781 0)
(10.0283 0.0168518 0)
(10.0327 0.0195935 0)
(10.0368 0.022524 0)
(10.0405 0.0256573 0)
(10.0438 0.0290012 0)
(10.0468 0.0325562 0)
(10.0493 0.036318 0)
(10.0515 0.0402618 0)
(10.0532 0.0443969 0)
(10.0549 0.0485571 0)
(10.0558 0.0531761 0)
(10.0003 -0.00194744 0)
(10.0031 -0.0059835 0)
(10.008 -0.00998234 0)
(10.0139 -0.0139234 0)
(10.0205 -0.0178679 0)
(10.0277 -0.021891 0)
(10.0351 -0.0260674 0)
(10.0426 -0.0304588 0)
(10.0501 -0.0351078 0)
(10.0575 -0.0400395 0)
(10.0649 -0.0452652 0)
(10.0721 -0.0507849 0)
(10.0792 -0.0565904 0)
(10.0861 -0.0626658 0)
(10.0927 -0.0689868 0)
(10.0992 -0.0755305 0)
(10.1051 -0.0821977 0)
(10.1109 -0.0891695 0)
(9.99985 -0.00213753 0)
(10.0009 -0.00545937 0)
(10.0038 -0.00739047 0)
(10.0075 -0.0082201 0)
(10.0115 -0.00814579 0)
(10.0155 -0.00732165 0)
(10.0192 -0.00588698 0)
(10.0225 -0.00395165 0)
(10.0254 -0.00159756 0)
(10.0278 0.00111497 0)
(10.0297 0.00414457 0)
(10.0311 0.00746649 0)
(10.0321 0.0110763 0)
(10.0326 0.0149815 0)
(10.0328 0.0192177 0)
(10.0327 0.0238201 0)
(10.0325 0.0288187 0)
(10.0319 0.0344661 0)
(10.0006 -0.00473226 0)
(10.005 -0.0137484 0)
(10.0115 -0.021043 0)
(10.0187 -0.0269293 0)
(10.0263 -0.0318184 0)
(10.0341 -0.0360667 0)
(10.0418 -0.0399777 0)
(10.0494 -0.0437603 0)
(10.0569 -0.0475346 0)
(10.0642 -0.0513625 0)
(10.0713 -0.0552717 0)
(10.0783 -0.0592738 0)
(10.0852 -0.0633795 0)
(10.092 -0.0676074 0)
(10.0987 -0.072007 0)
(10.1056 -0.0766529 0)
(10.1122 -0.0816513 0)
(10.1193 -0.0873662 0)
(9.99993 -0.00476919 0)
(10.0025 -0.0120247 0)
(10.0076 -0.0161248 0)
(10.013 -0.0179876 0)
(10.0181 -0.0181577 0)
(10.0226 -0.016988 0)
(10.0265 -0.0148202 0)
(10.0296 -0.0119386 0)
(10.0322 -0.00855314 0)
(10.0342 -0.00482307 0)
(10.0357 -0.000871614 0)
(10.0368 0.00321096 0)
(10.0374 0.00736821 0)
(10.0375 0.0115767 0)
(10.0371 0.015868 0)
(10.0359 0.0203308 0)
(10.0343 0.0251478 0)
(10.0311 0.030866 0)
(10.0012 -0.00959362 0)
(10.0087 -0.0254972 0)
(10.0184 -0.0362989 0)
(10.0276 -0.0440832 0)
(10.0366 -0.0502572 0)
(10.0453 -0.0555745 0)
(10.0535 -0.0605446 0)
(10.0611 -0.0654373 0)
(10.0683 -0.0703275 0)
(10.0751 -0.0752032 0)
(10.0816 -0.0800265 0)
(10.0877 -0.0847538 0)
(10.0936 -0.089343 0)
(10.0995 -0.0937662 0)
(10.1054 -0.0980284 0)
(10.1119 -0.102198 0)
(10.1188 -0.106472 0)
(10.1279 -0.111528 0)
(10.0009 -0.00811702 0)
(10.0083 -0.0182934 0)
(10.0178 -0.0220891 0)
(10.0252 -0.0221649 0)
(10.0309 -0.019718 0)
(10.0352 -0.0153189 0)
(10.0383 -0.00965619 0)
(10.0406 -0.00331597 0)
(10.0424 0.00332942 0)
(10.0437 0.0100327 0)
(10.0447 0.0166147 0)
(10.0453 0.0229513 0)
(10.0457 0.0289578 0)
(10.0457 0.034574 0)
(10.0452 0.0397652 0)
(10.0437 0.0445454 0)
(10.0413 0.0490742 0)
(10.0349 0.0541494 0)
(10.0027 -0.0199781 0)
(10.0162 -0.0449321 0)
(10.0301 -0.0585297 0)
(10.041 -0.0684142 0)
(10.0507 -0.0774027 0)
(10.0592 -0.0860287 0)
(10.0665 -0.0945535 0)
(10.0728 -0.103008 0)
(10.0782 -0.111215 0)
(10.083 -0.119011 0)
(10.0872 -0.126309 0)
(10.091 -0.133071 0)
(10.0944 -0.139271 0)
(10.0977 -0.144887 0)
(10.1009 -0.149878 0)
(10.1047 -0.154206 0)
(10.1092 -0.157866 0)
(10.1186 -0.161421 0)
(10.0045 -0.0117484 0)
(10.0233 -0.0210333 0)
(10.037 -0.0181758 0)
(10.0429 -0.00995533 0)
(10.0455 0.00137494 0)
(10.0466 0.0146726 0)
(10.0465 0.0284135 0)
(10.0458 0.0415978 0)
(10.0449 0.0538462 0)
(10.0439 0.0650499 0)
(10.0429 0.0751878 0)
(10.0417 0.0842872 0)
(10.0404 0.0923999 0)
(10.0389 0.0995744 0)
(10.0374 0.105823 0)
(10.035 0.111107 0)
(10.032 0.115356 0)
(10.0228 0.119049 0)
(10.0057 -0.0439101 0)
(10.0279 -0.0818371 0)
(10.0434 -0.101318 0)
(10.0509 -0.120713 0)
(10.0556 -0.140591 0)
(10.0583 -0.158948 0)
(10.0588 -0.175357 0)
(10.0579 -0.189835 0)
(10.0563 -0.202354 0)
(10.0541 -0.213033 0)
(10.0516 -0.222102 0)
(10.0489 -0.229788 0)
(10.046 -0.236272 0)
(10.0432 -0.241712 0)
(10.0402 -0.246195 0)
(10.0378 -0.24975 0)
(10.0357 -0.252196 0)
(10.0406 -0.253274 0)
(10.0127 -0.0041051 0)
(10.0433 0.00725703 0)
(10.0436 0.0412865 0)
(10.0289 0.0774266 0)
(10.0137 0.110639 0)
(10.0002 0.139405 0)
(9.98744 0.163038 0)
(9.97542 0.181976 0)
(9.96428 0.197165 0)
(9.9538 0.209437 0)
(9.9438 0.219378 0)
(9.93418 0.227415 0)
(9.92492 0.233878 0)
(9.91595 0.239022 0)
(9.90736 0.243007 0)
(9.89868 0.245936 0)
(9.89051 0.247693 0)
(9.87537 0.248505 0)
(10.0321 -0.126628 0)
(10.0676 -0.225606 0)
(10.0594 -0.280277 0)
(10.0339 -0.322921 0)
(10.008 -0.353534 0)
(9.98304 -0.374058 0)
(9.95825 -0.388021 0)
(9.93432 -0.397667 0)
(9.91169 -0.404193 0)
(9.89023 -0.40836 0)
(9.86972 -0.41073 0)
(9.85006 -0.411718 0)
(9.8312 -0.411617 0)
(9.81312 -0.410654 0)
(9.79572 -0.408986 0)
(9.77935 -0.406863 0)
(9.76363 -0.404223 0)
(9.75719 -0.400607 0)
(9.86116 0.0769188 0)
(9.6624 0.274088 0)
(9.48802 0.393142 0)
(9.34005 0.447722 0)
(9.21713 0.470337 0)
(9.10909 0.479026 0)
(9.00996 0.481282 0)
(8.91828 0.480282 0)
(8.83354 0.477538 0)
(8.75503 0.473771 0)
(8.68215 0.46932 0)
(8.61445 0.464363 0)
(8.55154 0.459005 0)
(8.49299 0.45333 0)
(8.4384 0.447326 0)
(8.38719 0.441161 0)
(8.33902 0.433918 0)
(8.28787 0.426336 0)
(-0.0584445 -0.0787806 -9.50735e-20)
(0.0773262 -0.180646 4.9449e-20)
(0.177511 -0.246069 0)
(0.271382 -0.253893 0)
(0.362597 -0.245514 0)
(0.444453 -0.233815 -2.15534e-20)
(0.517214 -0.224254 0)
(0.583856 -0.215698 0)
(0.645874 -0.208075 0)
(0.704009 -0.200928 0)
(0.758628 -0.194132 1.72253e-20)
(0.809505 -0.187496 0)
(0.857057 -0.181203 0)
(0.900371 -0.175378 0)
(0.939896 -0.169359 0)
(0.975842 -0.163321 1.59287e-20)
(1.00665 -0.156987 0)
(1.03237 -0.150267 0)
(1.053 -0.142831 0)
(1.06769 -0.134237 0)
(1.07661 -0.124291 0)
(1.07687 -0.111007 0)
(1.06634 -0.0930496 0)
(1.04408 -0.0710862 1.60462e-20)
(1.00873 -0.0466824 -1.63032e-20)
(0.959919 -0.0219462 1.66776e-20)
(0.898167 0.00126864 1.71935e-20)
(0.824793 0.0217365 0)
(0.742467 0.038601 0)
(0.652491 0.0505982 -2.00995e-20)
(0.557147 0.0545524 -2.18366e-20)
(0.462307 0.049792 0)
(0.375779 0.0382281 0)
(0.304319 0.0202979 -2.97704e-20)
(0.254914 -0.00344682 0)
(0.227309 -0.0287359 0)
(0.209047 -0.0475873 3.55616e-20)
(0.18652 -0.0525121 0)
(0.150277 -0.042235 3.92731e-20)
(0.0939311 -0.0280172 8.73039e-20)
(0.0149961 -0.020673 0)
(-0.0759467 -0.012029 0)
(-0.175443 -0.00234088 0)
(-0.285137 0.00483784 0)
(-0.402396 0.0088296 0)
(-0.521903 0.0107385 4.3652e-20)
(-0.642715 0.0112589 3.93121e-20)
(-0.765066 0.0100541 3.60138e-20)
(-0.887238 0.00683841 0)
(-1.00821 0.00184665 -3.14678e-20)
(-1.12725 -0.00463813 0)
(-1.24408 -0.0123057 2.86005e-20)
(-1.35866 -0.0210432 2.7561e-20)
(-1.47102 -0.0307431 0)
(-1.58129 -0.0414243 0)
(-1.6896 -0.0531283 0)
(-1.79603 -0.0659627 2.49964e-20)
(-1.90061 -0.0800266 0)
(-2.00326 -0.0954286 0)
(-2.10387 -0.112251 0)
(-2.20217 -0.130545 0)
(-2.29791 -0.150337 0)
(-2.39068 -0.171601 0)
(-2.4801 -0.194296 0)
(-2.56566 -0.21831 0)
(-2.64688 -0.243523 -2.33646e-20)
(-2.72316 -0.269718 0)
(-2.79386 -0.296681 0)
(-2.85822 -0.324083 2.31527e-20)
(-2.91547 -0.351581 2.30602e-20)
(-2.96475 -0.37863 0)
(-3.00524 -0.404507 -2.28077e-20)
(-3.03593 -0.428139 2.26364e-20)
(-3.05549 -0.448449 0)
(-3.06265 -0.464906 -2.21116e-20)
(-3.05745 -0.478345 0)
(-3.04155 -0.491126 0)
(-3.01373 -0.504449 2.0421e-20)
(-2.97332 -0.518992 0)
(-2.91941 -0.534991 -1.8558e-20)
(-2.85086 -0.552306 0)
(-2.76658 -0.570716 1.58516e-20)
(-2.66579 -0.589756 1.41052e-20)
(-2.54806 -0.608866 1.20511e-20)
(-2.4133 -0.627172 1.93036e-20)
(-2.26188 -0.644386 -1.37256e-20)
(-2.09702 -0.660551 0)
(-1.92112 -0.672856 0)
(-1.73628 -0.680647 0)
(-1.54862 -0.682997 1.78565e-20)
(-1.36237 -0.681999 2.85929e-20)
(-1.18295 -0.679679 -4.06297e-20)
(-1.01371 -0.674729 0)
(-0.859618 -0.66776 6.87775e-20)
(-0.722783 -0.659618 8.47984e-20)
(-0.604751 -0.651045 1.01865e-19)
(-0.505434 -0.642593 0)
(-0.423716 -0.634618 0)
(-0.357589 -0.627346 0)
(-0.304387 -0.620959 1.72632e-19)
(-0.261106 -0.615676 0)
(-0.224708 -0.611752 0)
(-0.192378 -0.609479 -2.20016e-19)
(-0.161679 -0.609123 0)
(-0.130653 -0.610922 0)
(-0.098016 -0.61491 -2.67978e-19)
(-0.063135 -0.620749 0)
(-0.0262035 -0.625058 0)
(0.0135661 -0.618699 3.11193e-19)
(0.0578209 -0.603989 2.9994e-19)
(0.106134 -0.588958 0)
(0.15714 -0.574443 -2.78902e-19)
(0.210155 -0.560748 0)
(0.264693 -0.547924 2.60717e-19)
(0.320357 -0.535949 0)
(0.376787 -0.524756 2.45232e-19)
(0.433651 -0.514274 2.38412e-19)
(0.490646 -0.504431 0)
(0.547498 -0.495166 0)
(0.603968 -0.486425 0)
(0.659859 -0.478167 0)
(0.715005 -0.470354 0)
(0.769262 -0.462958 0)
(0.822515 -0.455951 0)
(0.874671 -0.449313 2.00609e-19)
(0.925669 -0.443022 -1.97427e-19)
(0.975471 -0.437064 0)
(1.02406 -0.43142 0)
(1.07142 -0.426078 0)
(1.11757 -0.421022 0)
(1.16252 -0.416239 -3.69521e-19)
(1.20629 -0.411716 0)
(1.24892 -0.407441 3.61736e-19)
(1.29043 -0.403401 -3.58232e-19)
(1.33086 -0.399585 0)
(1.37025 -0.395981 0)
(1.40863 -0.39258 0)
(1.44603 -0.389371 3.46334e-19)
(1.48251 -0.386344 3.43807e-19)
(1.51808 -0.383489 0)
(1.55278 -0.380799 3.39202e-19)
(1.58666 -0.378264 3.37102e-19)
(1.61974 -0.375877 -3.35123e-19)
(1.65206 -0.373632 0)
(1.68366 -0.37152 0)
(1.71456 -0.369535 -3.29835e-19)
(1.7448 -0.36767 0)
(1.77441 -0.36592 0)
(1.80343 -0.364278 0)
(1.83188 -0.362738 0)
(1.8598 -0.361297 3.22766e-19)
(1.88722 -0.359947 3.21562e-19)
(1.91419 -0.358685 0)
(1.94072 -0.357504 3.19325e-19)
(1.96685 -0.3564 0)
(1.99262 -0.355369 0)
(2.01805 -0.354406 3.16316e-19)
(2.04318 -0.353508 0)
(2.06805 -0.352672 3.14485e-19)
(2.09267 -0.351895 0)
(2.1171 -0.351173 0)
(2.14134 -0.350505 3.11917e-19)
(2.16545 -0.349887 0)
(2.18943 -0.349318 3.10278e-19)
(2.21333 -0.348796 0)
(2.23716 -0.348318 0)
(2.26095 -0.347884 0)
(2.2847 -0.347492 -3.07054e-19)
(2.30843 -0.347148 0)
(2.3321 -0.346842 3.05479e-19)
(2.3557 -0.346591 0)
(2.3791 -0.346375 0)
(2.40228 -0.346236 0)
(2.42475 -0.346134 0)
(2.44658 -0.34616 0)
(2.46558 -0.346221 0)
(2.4831 -0.34627 0)
(2.48379 -0.344396 -6.09428e-19)
(2.47508 -0.330428 0)
(2.35026 -0.313568 0)
(-0.0423621 -0.217903 1.35294e-19)
(0.182164 -0.255115 -6.36454e-20)
(0.223334 -0.263456 0)
(0.268436 -0.215363 2.26108e-20)
(0.306808 -0.183613 0)
(0.348325 -0.149087 8.86829e-21)
(0.390014 -0.126785 -1.80856e-20)
(0.434357 -0.108303 -1.76181e-20)
(0.478601 -0.0949502 0)
(0.522405 -0.0828455 -1.71583e-20)
(0.564321 -0.0715561 -8.13234e-21)
(0.603372 -0.0599399 0)
(0.638817 -0.0479102 0)
(0.670367 -0.0352586 0)
(0.697788 -0.0227225 0)
(0.720791 -0.00915334 -8.15416e-21)
(0.739285 0.00542648 0)
(0.753571 0.0201406 1.67362e-20)
(0.764072 0.0343122 0)
(0.772039 0.0481009 0)
(0.777861 0.0640377 -1.66265e-20)
(0.784906 0.0828127 0)
(0.790765 0.103207 1.64486e-20)
(0.789868 0.125185 -7.89406e-21)
(0.777134 0.1482 7.74688e-21)
(0.749583 0.171105 -7.58917e-21)
(0.707078 0.192363 -7.40392e-21)
(0.651211 0.21037 0)
(0.584428 0.22414 0)
(0.510025 0.233577 6.82546e-21)
(0.432098 0.237007 -7.23927e-21)
(0.355786 0.228554 0)
(0.285697 0.200559 0)
(0.222145 0.15499 7.21889e-21)
(0.158027 0.110173 0)
(0.0841792 0.0871556 0)
(-0.00599491 0.0928778 -7.85737e-21)
(-0.112111 0.120152 0)
(-0.229157 0.15764 7.50169e-21)
(-0.353162 0.196215 -1.36085e-20)
(-0.483366 0.230404 0)
(-0.617161 0.258782 0)
(-0.750551 0.280167 -2.5174e-20)
(-0.879644 0.294334 -2.47008e-20)
(-1.00155 0.301943 -2.44539e-20)
(-1.11444 0.304605 1.27621e-20)
(-1.21733 0.303818 -1.16719e-20)
(-1.30978 0.300737 -3.63726e-20)
(-1.39226 0.296249 2.48308e-20)
(-1.46584 0.291301 1.20028e-20)
(-1.53182 0.2866 0)
(-1.59155 0.282702 -1.23322e-20)
(-1.64624 0.279897 1.35218e-20)
(-1.69698 0.278354 0)
(-1.74462 0.278083 0)
(-1.78985 0.27905 0)
(-1.83319 0.281151 -1.34197e-20)
(-1.87505 0.284283 0)
(-1.91571 0.288329 2.88586e-20)
(-1.95543 0.293177 0)
(-1.99441 0.298725 2.99638e-20)
(-2.03283 0.304855 0)
(-2.07089 0.311457 -3.10455e-20)
(-2.10875 0.318369 0)
(-2.1466 0.325444 3.20307e-20)
(-2.18461 0.332437 -1.68596e-20)
(-2.22297 0.339123 0)
(-2.26184 0.345145 -3.31681e-20)
(-2.30132 0.350143 -1.5976e-20)
(-2.34144 0.353564 -1.60245e-20)
(-2.38215 0.354837 0)
(-2.42329 0.35324 -1.7778e-20)
(-2.46456 0.348207 -1.59038e-20)
(-2.50562 0.33929 0)
(-2.54587 0.326432 1.54866e-20)
(-2.58267 0.309869 -3.25554e-20)
(-2.61233 0.29001 0)
(-2.63282 0.26697 -1.39571e-20)
(-2.64146 0.242325 0)
(-2.63633 0.216134 3.99365e-20)
(-2.61594 0.18866 0)
(-2.57908 0.160067 -3.35579e-20)
(-2.52481 0.130871 -8.6219e-21)
(-2.45257 0.101472 1.11505e-20)
(-2.36214 0.0725031 1.93779e-20)
(-2.25389 0.0459524 -1.61639e-20)
(-2.12975 0.0239682 0)
(-1.99186 0.00582185 0)
(-1.84305 -0.00707047 0)
(-1.68704 -0.0137267 -1.5003e-20)
(-1.52811 -0.0134389 -1.18573e-20)
(-1.36962 -0.00575546 1.58075e-20)
(-1.21576 0.00836973 0)
(-1.06953 0.0275547 1.58997e-20)
(-0.933371 0.0500157 -2.71916e-20)
(-0.808822 0.0739439 -3.07909e-20)
(-0.69661 0.0976446 0)
(-0.596757 0.119631 0)
(-0.508732 0.138761 0)
(-0.431566 0.154263 -4.39337e-20)
(-0.363991 0.165766 0)
(-0.304538 0.1733 9.33703e-20)
(-0.251656 0.17722 1.51051e-19)
(-0.203786 0.178072 -1.0391e-19)
(-0.159433 0.176512 0)
(-0.117325 0.1732 -5.41166e-20)
(-0.0761345 0.168739 0)
(-0.0340078 0.163687 -1.23517e-19)
(0.00918247 0.159052 6.07216e-20)
(0.0519626 0.155133 6.15864e-20)
(0.0948555 0.151676 0)
(0.139116 0.148692 1.99458e-19)
(0.184952 0.146214 -1.32627e-19)
(0.232319 0.144318 -6.94261e-20)
(0.281034 0.143013 0)
(0.330849 0.142267 -7.05244e-20)
(0.381492 0.142021 -2.08392e-19)
(0.432704 0.142213 0)
(0.484235 0.142774 -1.39334e-19)
(0.53587 0.143647 -1.40218e-19)
(0.587415 0.144772 -1.41041e-19)
(0.638705 0.146098 0)
(0.689594 0.147569 0)
(0.739958 0.149147 0)
(0.789693 0.150793 6.99374e-20)
(0.838723 0.152482 7.4054e-20)
(0.88699 0.154189 0)
(0.934452 0.155899 1.45283e-19)
(0.981079 0.157593 1.45706e-19)
(1.02685 0.159264 0)
(1.07176 0.1609 1.49795e-19)
(1.11581 0.162499 2.93529e-19)
(1.159 0.164055 -1.50247e-19)
(1.20134 0.165568 -1.44207e-19)
(1.24285 0.167037 0)
(1.28354 0.168463 0)
(1.32342 0.169846 0)
(1.36253 0.171189 -1.51e-19)
(1.40088 0.172491 1.45561e-19)
(1.43849 0.173757 2.96968e-19)
(1.47538 0.174987 -1.51273e-19)
(1.51159 0.176184 1.46159e-19)
(1.54714 0.177347 1.51407e-19)
(1.58205 0.178476 0)
(1.61634 0.17957 0)
(1.65005 0.180631 -1.4679e-19)
(1.6832 0.181658 0)
(1.71582 0.182651 0)
(1.74793 0.183609 2.98838e-19)
(1.77957 0.184533 0)
(1.81075 0.185422 1.47396e-19)
(1.84152 0.186278 -1.51753e-19)
(1.8719 0.187099 0)
(1.90193 0.187886 1.47705e-19)
(1.93162 0.188639 0)
(1.96102 0.189358 0)
(1.99014 0.190042 -1.51878e-19)
(2.01903 0.190693 2.99948e-19)
(2.04771 0.19131 -1.51906e-19)
(2.0762 0.191894 0)
(2.10455 0.192446 0)
(2.13276 0.192968 1.48295e-19)
(2.16089 0.193459 0)
(2.18894 0.193925 1.48365e-19)
(2.21695 0.194366 0)
(2.24493 0.194792 0)
(2.2729 0.195204 0)
(2.30086 0.19562 1.51707e-19)
(2.32883 0.196041 0)
(2.35677 0.196517 -1.51591e-19)
(2.38468 0.197038 0)
(2.41239 0.197739 0)
(2.43991 0.198566 2.99715e-19)
(2.46674 0.199913 -2.99666e-19)
(2.49298 0.201636 0)
(2.51693 0.20494 0)
(2.53984 0.210551 0)
(2.55701 0.222182 9.11387e-19)
(2.59036 0.242635 0)
(2.6144 0.263353 -6.22083e-19)
(-0.172656 -0.45512 1.54601e-21)
(0.164184 -0.385526 7.60524e-20)
(0.0703897 -0.375532 0)
(0.146676 -0.316471 -3.60661e-20)
(0.14443 -0.320925 0)
(0.191679 -0.308197 0)
(0.223546 -0.311958 -3.4528e-22)
(0.270323 -0.303387 1.20824e-20)
(0.314937 -0.297252 1.1997e-20)
(0.362672 -0.284695 1.14658e-20)
(0.406767 -0.269801 0)
(0.447367 -0.251179 0)
(0.482647 -0.231797 -1.13735e-20)
(0.513435 -0.21178 -2.25335e-20)
(0.539325 -0.191205 2.22873e-20)
(0.559107 -0.169595 0)
(0.570579 -0.148001 2.17413e-20)
(0.572215 -0.127189 -1.05391e-20)
(0.564879 -0.106977 0)
(0.55179 -0.0892036 2.11812e-20)
(0.536318 -0.0753265 1.03582e-20)
(0.520312 -0.0576852 -2.1001e-20)
(0.502681 -0.0233263 -1.02587e-20)
(0.480708 0.0310825 0)
(0.451478 0.0984598 2.06104e-20)
(0.413582 0.167727 2.04696e-20)
(0.367476 0.230421 0)
(0.315014 0.282501 2.02675e-20)
(0.258789 0.321303 0)
(0.201945 0.342303 2.01482e-20)
(0.147009 0.340147 9.68329e-21)
(0.093302 0.315023 0)
(0.0343705 0.278338 0)
(-0.0408027 0.249501 0)
(-0.139515 0.242872 0)
(-0.2591 0.260178 0)
(-0.390818 0.294513 0)
(-0.524926 0.33645 1.71435e-20)
(-0.653992 0.377444 -2.46049e-20)
(-0.772896 0.410712 0)
(-0.879132 0.431978 0)
(-0.971736 0.440271 0)
(-1.05041 0.436578 -7.49788e-22)
(-1.11601 0.422852 1.46234e-20)
(-1.17017 0.401611 3.01463e-20)
(-1.21499 0.375696 -3.04146e-20)
(-1.25268 0.347644 -1.57492e-20)
(-1.28559 0.319457 1.5268e-20)
(-1.31606 0.292578 6.28786e-22)
(-1.34621 0.267967 1.63825e-20)
(-1.37774 0.246058 0)
(-1.41201 0.226908 1.68938e-20)
(-1.44999 0.210251 4.88982e-22)
(-1.49231 0.195672 0)
(-1.53935 0.182663 0)
(-1.59125 0.170723 -1.81414e-20)
(-1.64797 0.159381 0)
(-1.70933 0.148233 0)
(-1.77501 0.136945 1.96591e-20)
(-1.8446 0.125255 3.90629e-20)
(-1.91757 0.112974 -1.93685e-20)
(-1.99332 0.0999682 0)
(-2.07119 0.0861688 2.00032e-20)
(-2.15046 0.0715362 0)
(-2.23036 0.056091 2.17949e-20)
(-2.31013 0.0398587 2.08264e-20)
(-2.38895 0.0229193 -4.34425e-20)
(-2.46599 0.00533584 -2.26493e-20)
(-2.54042 -0.0127887 0)
(-2.6114 -0.0314009 4.45983e-20)
(-2.67812 -0.0504325 0)
(-2.73967 -0.0699251 6.66007e-20)
(-2.79495 -0.089971 4.49907e-20)
(-2.8427 -0.110901 4.48502e-20)
(-2.88178 -0.133005 -4.4516e-20)
(-2.91112 -0.156129 6.48036e-20)
(-2.9295 -0.179881 0)
(-2.93591 -0.20482 0)
(-2.93008 -0.233335 -3.98283e-20)
(-2.91114 -0.265162 -5.51542e-20)
(-2.87801 -0.299856 0)
(-2.8295 -0.336899 1.47003e-20)
(-2.7646 -0.375407 0)
(-2.68265 -0.414232 -3.61088e-20)
(-2.58357 -0.451868 2.60562e-21)
(-2.46773 -0.486538 -2.54384e-21)
(-2.3359 -0.516019 1.21033e-20)
(-2.19078 -0.537493 0)
(-2.03539 -0.550032 -2.68739e-21)
(-1.87346 -0.552669 1.94652e-21)
(-1.70958 -0.54492 0)
(-1.54831 -0.527343 0)
(-1.39362 -0.501233 0)
(-1.24837 -0.468967 -2.00107e-20)
(-1.11429 -0.433148 0)
(-0.992125 -0.39628 0)
(-0.881827 -0.360456 0)
(-0.782838 -0.327293 0)
(-0.69427 -0.297879 0)
(-0.615042 -0.272848 -3.65498e-20)
(-0.543965 -0.252435 0)
(-0.479796 -0.236555 -4.29763e-20)
(-0.421278 -0.224856 -4.53001e-20)
(-0.367176 -0.216832 4.75095e-20)
(-0.316329 -0.211872 0)
(-0.267718 -0.209356 5.16591e-20)
(-0.220467 -0.20866 0)
(-0.173645 -0.209348 5.55584e-20)
(-0.126423 -0.211347 -5.74224e-20)
(-0.0784101 -0.214113 -1.74726e-19)
(-0.0294208 -0.216855 0)
(0.0207528 -0.219317 -1.84515e-19)
(0.072172 -0.221381 -6.07276e-20)
(0.124739 -0.223013 0)
(0.178291 -0.224185 -1.28511e-19)
(0.232643 -0.224893 -1.30541e-19)
(0.287589 -0.225151 2.00036e-19)
(0.342924 -0.224991 0)
(0.398445 -0.224456 6.93428e-20)
(0.453967 -0.22359 7.02013e-20)
(0.509322 -0.222445 2.10738e-19)
(0.564364 -0.221071 0)
(0.618963 -0.219519 0)
(0.673007 -0.217832 0)
(0.726402 -0.216051 7.18269e-20)
(0.779075 -0.214207 0)
(0.830972 -0.212332 0)
(0.882049 -0.210449 -7.58715e-20)
(0.932276 -0.208581 -7.64369e-20)
(0.981633 -0.206741 0)
(1.03011 -0.204946 0)
(1.0777 -0.203203 -1.55931e-19)
(1.1244 -0.201521 0)
(1.17022 -0.199904 1.57716e-19)
(1.21517 -0.198356 1.56729e-19)
(1.25926 -0.196877 0)
(1.3025 -0.195469 0)
(1.34492 -0.194131 -1.59049e-19)
(1.38652 -0.192862 -1.69805e-21)
(1.42733 -0.191659 -1.6717e-21)
(1.46736 -0.190522 0)
(1.50665 -0.189447 -3.24943e-19)
(1.54521 -0.188436 0)
(1.58307 -0.187485 0)
(1.62025 -0.186594 0)
(1.65677 -0.185761 1.65376e-19)
(1.69267 -0.184985 0)
(1.72796 -0.184264 -3.29624e-19)
(1.76267 -0.183597 -1.66736e-19)
(1.79684 -0.182982 0)
(1.83048 -0.182418 -1.67571e-19)
(1.86364 -0.181903 0)
(1.89633 -0.181434 0)
(1.92859 -0.181009 -5.03498e-19)
(1.96045 -0.180626 3.35526e-19)
(1.99194 -0.180283 0)
(2.02309 -0.179978 3.37012e-19)
(2.05392 -0.17971 -1.7017e-19)
(2.08448 -0.179477 0)
(2.11478 -0.179277 0)
(2.14486 -0.179108 0)
(2.17475 -0.178969 -5.11656e-19)
(2.20448 -0.178857 0)
(2.23407 -0.178769 -1.71916e-19)
(2.26355 -0.178704 0)
(2.29294 -0.178655 0)
(2.32226 -0.178622 0)
(2.35152 -0.17859 0)
(2.38074 -0.178562 0)
(2.40988 -0.1785 0)
(2.43895 -0.178423 -3.44362e-19)
(2.4678 -0.178222 0)
(2.49649 -0.177972 -1.73664e-19)
(2.52451 -0.177344 5.19283e-19)
(2.55218 -0.176556 0)
(2.5778 -0.174596 0)
(2.60319 -0.171725 -3.47958e-19)
(2.62281 -0.166545 -3.52992e-19)
(2.64546 -0.151854 3.55197e-19)
(2.65478 -0.116392 3.65506e-19)
(-0.271598 -0.540582 -1.92068e-19)
(0.168143 -0.383513 -1.08258e-19)
(-0.0369891 -0.400584 -4.25045e-20)
(0.10041 -0.3385 -1.68746e-20)
(0.0415563 -0.339712 0)
(0.104185 -0.322625 2.43636e-20)
(0.0934182 -0.32816 -1.1401e-20)
(0.130847 -0.321949 0)
(0.145913 -0.31878 -9.97646e-21)
(0.177306 -0.299886 0)
(0.200152 -0.276325 1.95449e-20)
(0.224872 -0.244829 0)
(0.242913 -0.213523 9.26304e-21)
(0.258694 -0.181386 1.8278e-20)
(0.269998 -0.146925 -1.80279e-20)
(0.278105 -0.104904 0)
(0.281399 -0.0558707 -1.75485e-20)
(0.278721 -0.00658817 0)
(0.268491 0.0329262 0)
(0.250651 0.0593383 -1.69895e-20)
(0.224486 0.0778527 0)
(0.189442 0.0979351 -4.13448e-22)
(0.147802 0.128105 0)
(0.104165 0.171803 0)
(0.0621766 0.225674 4.55996e-22)
(0.0234763 0.282176 -1.68512e-20)
(-0.0122839 0.333388 -1.71319e-20)
(-0.0459572 0.373396 -1.62656e-20)
(-0.0788415 0.398879 0)
(-0.113517 0.409913 -3.15481e-20)
(-0.155149 0.411075 0)
(-0.210891 0.410623 -1.51935e-20)
(-0.286264 0.416398 0)
(-0.380671 0.431534 0)
(-0.486946 0.454221 1.37121e-20)
(-0.595113 0.480264 0)
(-0.69622 0.50515 -1.28868e-20)
(-0.784011 0.524969 4.93249e-22)
(-0.855209 0.536869 2.41835e-20)
(-0.909137 0.539194 -2.43387e-20)
(-0.947274 0.531785 0)
(-0.972424 0.515783 0)
(-0.988043 0.493297 -1.26015e-20)
(-0.997915 0.467006 0)
(-1.00571 0.439631 -1.16808e-20)
(-1.01469 0.413601 1.18119e-20)
(-1.02748 0.390738 1.19626e-20)
(-1.04604 0.372177 0)
(-1.07169 0.358395 -1.22968e-20)
(-1.10518 0.349369 -1.2475e-20)
(-1.14674 0.344694 2.61982e-20)
(-1.19624 0.34376 -1.2855e-20)
(-1.25328 0.345841 -1.3059e-20)
(-1.3173 0.35021 0)
(-1.38759 0.356165 0)
(-1.46334 0.363081 1.37351e-20)
(-1.54369 0.370403 0)
(-1.62775 0.377659 0)
(-1.71456 0.384451 -2.90192e-20)
(-1.80319 0.390452 -2.95671e-20)
(-1.89269 0.395398 0)
(-1.98218 0.399073 0)
(-2.07079 0.401311 0)
(-2.15776 0.401963 0)
(-2.24235 0.4009 -3.23326e-20)
(-2.32395 0.397974 3.42802e-20)
(-2.40197 0.393019 3.33164e-20)
(-2.47591 0.38581 6.90382e-20)
(-2.5453 0.376073 0)
(-2.60971 0.36346 1.65148e-21)
(-2.66872 0.347584 0)
(-2.72194 0.32801 -3.48277e-20)
(-2.76896 0.304251 1.81833e-21)
(-2.80931 0.275674 -3.47938e-20)
(-2.84259 0.241561 3.45248e-20)
(-2.86819 0.201292 2.02544e-21)