# vtk DataFile Version 2.0
track0
ASCII
DATASET POLYDATA
POINTS 10929 double
-0.0205 0.001 1e-05
-0.0204991 0.00100536 1e-05
-0.0204976 0.00101063 1e-05
-0.0204947 0.00101518 1e-05
-0.0204905 0.00101864 1e-05
-0.0204746 0.00102682 1e-05
-0.0201831 0.00105563 1e-05
-0.0203616 0.00128794 1e-05
-0.0204488 0.00141936 1e-05
-0.0201625 0.0014444 1e-05
-0.0201519 0.00173163 1e-05
-0.0202219 0.00184007 1e-05
-0.0200495 0.00193025 1e-05
-0.0200808 0.00212221 1e-05
-0.0201294 0.00229098 1e-05
-0.0200088 0.00238763 1e-05
-0.0199911 0.00254122 1e-05
-0.0200041 0.00269528 1e-05
-0.0199827 0.00277425 1e-05
-0.019869 0.00287784 1e-05
-0.0198179 0.00302292 1e-05
-0.0198054 0.00317623 1e-05
-0.0197599 0.00329221 1e-05
-0.0196347 0.00340323 1e-05
-0.0195486 0.00354672 1e-05
-0.0194776 0.00369829 1e-05
-0.019391 0.00384149 1e-05
-0.0193841 0.00384734 1e-05
-0.0193107 0.00390807 1e-05
-0.0192439 0.00397591 1e-05
-0.019179 0.00404571 1e-05
-0.0191113 0.00411264 1e-05
-0.0190172 0.0041978 1e-05
-0.0189564 0.0042467 1e-05
-0.0188939 0.00429332 1e-05
-0.0188297 0.00433762 1e-05
-0.018764 0.0043796 1e-05
-0.0186584 0.00444232 1e-05
-0.0184262 0.00456523 1e-05
-0.0181851 0.00466946 1e-05
-0.0179369 0.00475565 1e-05
-0.0176828 0.00482198 1e-05
-0.0174976 0.00485353 1e-05
-0.0172058 0.00488425 1e-05
-0.0169124 0.00488599 1e-05
-0.0166199 0.00486363 1e-05
-0.0163297 0.00482043 1e-05
-0.0160387 0.00475634 1e-05
-0.0158292 0.00469354 1e-05
-0.0156234 0.00461965 1e-05
-0.0154218 0.00453504 1e-05
-0.015223 0.00444396 1e-05
-0.0152197 0.00444232 1e-05
-0.0151034 0.00438406 1e-05
-0.0149899 0.00432055 1e-05
-0.0148795 0.00425171 1e-05
-0.0147714 0.00417927 1e-05
-0.0146381 0.00408405 1e-05
-0.0145771 0.00403671 1e-05
-0.0145171 0.00398827 1e-05
-0.0144579 0.00393872 1e-05
-0.0143997 0.00388804 1e-05
-0.0143537 0.00384734 1e-05
-0.0142296 0.00373631 1e-05
-0.014112 0.00361838 1e-05
-0.0140019 0.00349339 1e-05
-0.0138978 0.0033634 1e-05
-0.0138433 0.00329221 1e-05
-0.0137661 0.00318862 1e-05
-0.0136964 0.00307983 1e-05
-0.0136331 0.00296725 1e-05
-0.0135736 0.0028526 1e-05
-0.0135363 0.00277425 1e-05
-0.0134932 0.0026776 1e-05
-0.0134573 0.00257807 1e-05
-0.0134253 0.00247718 1e-05
-0.0133979 0.00237497 1e-05
-0.0133799 0.00229098 1e-05
-0.0133648 0.0022008 1e-05
-0.0133557 0.00210981 1e-05
-0.0133519 0.00201846 1e-05
-0.0133542 0.00192705 1e-05
-0.0133626 0.00184007 1e-05
-0.0133774 0.00175593 1e-05
-0.0133998 0.0016735 1e-05
-0.0134291 0.00159326 1e-05
-0.0134654 0.00151593 1e-05
-0.0135219 0.00141936 1e-05
-0.0135793 0.00134085 1e-05
-0.0136476 0.00127164 1e-05
-0.0137216 0.00120863 1e-05
-0.0138002 0.00115138 1e-05
-0.0139939 0.00102682 1e-05
-0.0141227 0.000957259 1e-05
-0.0142584 0.000902111 1e-05
-0.0143973 0.000855841 1e-05
-0.0145369 0.000811613 1e-05
-0.0146381 0.000781218 1e-05
-0.0147218 0.000757087 1e-05
-0.0148058 0.000734289 1e-05
-0.0148902 0.000712617 1e-05
-0.014975 0.000692957 1e-05
-0.015148 0.000660566 1e-05
-0.0153261 0.000637961 1e-05
-0.0155047 0.000618784 1e-05
-0.0156835 0.000602273 1e-05
-0.0158625 0.000587759 1e-05
-0.0160387 0.000568039 1e-05
-0.0162826 0.000518199 1e-05
-0.0165304 0.00049345 1e-05
-0.0167791 0.000482384 1e-05
-0.0170281 0.000475587 1e-05
-0.0174976 0.000406396 1e-05
-0.0174976 0.000406396 1e-05
-0.0174976 0.000406396 1e-05
-0.0174976 0.000406396 1e-05
-0.0174976 0.000406396 1e-05
-0.0174976 0.000406396 1e-05
-0.0174952 0.000388885 1e-05
-0.0174898 0.000372052 1e-05
-0.0174821 0.000356138 1e-05
-0.0174727 0.000341173 1e-05
-0.0174557 0.000318841 1e-05
-0.0173838 0.000255072 1e-05
-0.0172967 0.000214399 1e-05
-0.0172047 0.000186604 1e-05
-0.0171105 0.000167062 1e-05
-0.0160387 4.45658e-06 1e-05
-0.0160288 3.56527e-06 1e-05
-0.0160188 3.10958e-06 1e-05
-0.0160088 2.69575e-06 1e-05
-0.0159989 2.28191e-06 1e-05
-0.015944 0 1e-05
-0.0205 0.00367778 1e-05
-0.0203955 0.00371169 1e-05
-0.0203045 0.00377319 1e-05
-0.0202171 0.00383976 1e-05
-0.0201979 0.00384734 1e-05
-0.0199618 0.00393431 1e-05
-0.019766 0.00409242 1e-05
-0.0196201 0.0042975 1e-05
-0.0194753 0.00444232 1e-05
-0.0193836 0.00449614 1e-05
-0.0192963 0.00455664 1e-05
-0.0192132 0.00462286 1e-05
-0.0191277 0.00468597 1e-05
-0.0190172 0.00476145 1e-05
-0.0189141 0.00482516 1e-05
-0.0188083 0.00488434 1e-05
-0.0187001 0.00493907 1e-05
-0.0185899 0.00498945 1e-05
-0.0183685 0.00508 1e-05
-0.0181943 0.00513501 1e-05
-0.0180181 0.00518305 1e-05
-0.0178401 0.00522428 1e-05
-0.0176607 0.00525858 1e-05
-0.0174976 0.00528157 1e-05
-0.0172058 0.00530948 1e-05
-0.0169127 0.00531431 1e-05
-0.0166201 0.00529732 1e-05
-0.0163294 0.00526012 1e-05
-0.0160387 0.00520515 1e-05
-0.0159404 0.00518012 1e-05
-0.0158427 0.0051531 1e-05
-0.0157455 0.00512418 1e-05
-0.0156487 0.00509404 1e-05
-0.0156056 0.00508 1e-05
-0.0154121 0.0050158 1e-05
-0.015222 0.00494217 1e-05
-0.015036 0.00485874 1e-05
-0.0148543 0.00476627 1e-05
-0.0146381 0.00464652 1e-05
-0.0145718 0.00460568 1e-05
-0.0145061 0.00456395 1e-05
-0.0144409 0.00452133 1e-05
-0.0143763 0.00447793 1e-05
-0.0143239 0.00444232 1e-05
-0.0141503 0.00432332 1e-05
-0.0139833 0.00419531 1e-05
-0.013824 0.00405779 1e-05
-0.0136693 0.00391505 1e-05
-0.0135989 0.00384734 1e-05
-0.0135378 0.00378748 1e-05
-0.0134788 0.00372554 1e-05
-0.0134213 0.00366221 1e-05
-0.0133647 0.0035981 1e-05
-0.0132934 0.00351501 1e-05
-0.0132567 0.00347045 1e-05
-0.0132204 0.00342552 1e-05
-0.0131846 0.00338021 1e-05
-0.0131493 0.00333453 1e-05
-0.0131172 0.00329221 1e-05
-0.013039 0.00318862 1e-05
-0.0129628 0.0030836 1e-05
-0.0128894 0.00297659 1e-05
-0.0128192 0.00286744 1e-05
-0.0127618 0.00277425 1e-05
-0.0127041 0.0026776 1e-05
-0.0126477 0.00258012 1e-05
-0.0125929 0.00248176 1e-05
-0.0125396 0.00238261 1e-05
-0.0124927 0.00229098 1e-05
-0.012449 0.0022008 1e-05
-0.0124056 0.00211048 1e-05
-0.0123624 0.00202004 1e-05
-0.0123195 0.00192948 1e-05
-0.0122784 0.00184007 1e-05
-0.0122433 0.00175593 1e-05
-0.0122067 0.00167243 1e-05
-0.0121688 0.0015895 1e-05
-0.0121294 0.00150728 1e-05
-0.0120849 0.00141936 1e-05
-0.0120685 0.00138779 1e-05
-0.0120508 0.00135688 1e-05
-0.012032 0.0013266 1e-05
-0.0120122 0.00129702 1e-05
-0.0120025 0.00128372 1e-05
-0.0119638 0.00123234 1e-05
-0.0119218 0.00118362 1e-05
-0.0118765 0.00113794 1e-05
-0.011828 0.00109562 1e-05
-0.0117366 0.00102682 1e-05
-0.0116207 0.000953567 1e-05
-0.0114969 0.000894605 1e-05
-0.0113685 0.000846424 1e-05
-0.0112372 0.000806719 1e-05
-0.0107632 0.000724087 1e-05
-0.0105252 0.000732538 1e-05
-0.0102872 0.000727718 1e-05
-0.0100491 0.000725033 1e-05
-0.00981095 0.000723643 1e-05
-0.00957337 0.000723068 1e-05
-0.00934491 0.000732514 1e-05
-0.00911629 0.000728851 1e-05
-0.00888765 0.000726342 1e-05
-0.008659 0.000724622 1e-05
-0.00843108 0.000723455 1e-05
-0.00821175 0.000732501 1e-05
-0.00799227 0.000728422 1e-05
-0.00777278 0.000725368 1e-05
-0.00755327 0.00072305 1e-05
-0.00733443 0.000721274 1e-05
-0.00712387 0.000729688 1e-05
-0.00691317 0.000725525 1e-05
-0.00670246 0.000722283 1e-05
-0.00649174 0.000719724 1e-05
-0.0062816 0.00071768 1e-05
-0.00607944 0.000725388 1e-05
-0.00587718 0.000721495 1e-05
-0.0056749 0.000718392 1e-05
-0.00547262 0.000715888 1e-05
-0.00527083 0.000713845 1e-05
-0.00507675 0.000720852 1e-05
-0.00488258 0.000717362 1e-05
-0.0046884 0.000714531 1e-05
-0.00449421 0.000712211 1e-05
-0.00430044 0.000710291 1e-05
-0.00411412 0.000716648 1e-05
-0.00392771 0.000713583 1e-05
-0.0037413 0.000711057 1e-05
-0.00355488 0.000708956 1e-05
-0.00336883 0.000707194 1e-05
-0.00318995 0.000712956 1e-05
-0.003011 0.000710259 1e-05
-0.00283204 0.000708009 1e-05
-0.00265308 0.000706117 1e-05
-0.00247443 0.000704515 1e-05
-0.0023027 0.000709748 1e-05
-0.00213091 0.000707392 1e-05
-0.00195911 0.000705402 1e-05
-0.0017873 0.000703708 1e-05
-0.00161577 0.000702259 1e-05
-0.0014509 0.000707023 1e-05
-0.00128597 0.000705004 1e-05
-0.00112104 0.000703309 1e-05
-0.00095611 0.000701882 1e-05
-0.000791418 0.000700677 1e-05
-0.000633135 0.000705144 1e-05
-0.000474797 0.000703508 1e-05
-0.000316454 0.000702304 1e-05
-0.00015811 0.000701458 1e-05
0 0.000700912 1e-05
0.000105677 0.000704357 1e-05
0.000211411 0.000704016 1e-05
0.000317144 0.000703816 1e-05
0.000422878 0.000703741 1e-05
0.000528387 0.000703777 1e-05
0.000634886 0.000707365 1e-05
0.000741446 0.000707254 1e-05
0.000848005 0.000707106 1e-05
0.000954564 0.000706923 1e-05
0.00106088 0.00070671 1e-05
0.00116821 0.000709767 1e-05
0.00127558 0.000709501 1e-05
0.00138295 0.000709247 1e-05
0.00149032 0.000709003 1e-05
0.00159752 0.00070877 1e-05
0.00170568 0.000711506 1e-05
0.00181388 0.000711433 1e-05
0.00192207 0.000711437 1e-05
0.00203027 0.000711513 1e-05
0.00213833 0.000711653 1e-05
0.00224733 0.000714482 1e-05
0.00235637 0.000714939 1e-05
0.0024654 0.00071552 1e-05
0.00257444 0.000716215 1e-05
0.00268334 0.000717016 1e-05
0.00279319 0.00072036 1e-05
0.00290308 0.000721577 1e-05
0.00301297 0.000722951 1e-05
0.00312286 0.000724471 1e-05
0.00323259 0.000726126 1e-05
0.00334329 0.000730373 1e-05
0.00345405 0.000732563 1e-05
0.00356481 0.000734946 1e-05
0.00367557 0.000737511 1e-05
0.00378611 0.000740243 1e-05
0.00389767 0.000745799 1e-05
0.00400932 0.00074924 1e-05
0.00412096 0.000752909 1e-05
0.0042326 0.000756797 1e-05
0.00434393 0.000760882 1e-05
0.00445636 0.000768133 1e-05
0.00456892 0.000773157 1e-05
0.00468146 0.00077845 1e-05
0.00479399 0.000784 1e-05
0.00490609 0.000790123 1e-05
0.0050194 0.000799426 1e-05
0.00513282 0.000807112 1e-05
0.00524627 0.000814463 1e-05
0.0053597 0.000822118 1e-05
0.00547262 0.000831172 1e-05
0.00558681 0.00084284 1e-05
0.00570109 0.000853594 1e-05
0.00581543 0.000863544 1e-05
0.00592975 0.000873885 1e-05
0.00604356 0.000886072 1e-05
0.00615863 0.000900307 1e-05
0.00627375 0.000914208 1e-05
0.0063889 0.00092778 1e-05
0.006504 0.000941827 1e-05
0.00661893 0.000957172 1e-05
0.0067349 0.000974012 1e-05
0.00685086 0.000990918 1e-05
0.00696678 0.0010081 1e-05
0.00708262 0.00102582 1e-05
0.00719878 0.00104417 1e-05
0.0072833 0.00105816 1e-05
0.00736779 0.00107231 1e-05
0.00745224 0.00108668 1e-05
[...]
POINT_DATA 10929
 FIELD attributes 2
p 1 10929 float
126.123 141.36 145.706 148.305 149.018 146.878 136.055 773.716 752.302 589.377 658.649 298.184 283.943 260.216 -47.1019 13.6418 106.209 -34.2056 -145.474 -54.5049 117.888 -27.5428 -168.553 -102.142 -43.2193 -68.8284 -210.332 -216.988 -198.858 -193.922 -209.824 -227.479 -253.306 -270.832 -289.502 -309.27 -308.879 -282.533 -328.229 -375.711 -388.676 -390.576 -396.65 -400.219 -403.549 -407.625 -390.318 -368.288 -351.719 -337.08 -315.873 -295.981 -295.672 -283.053 -271.432 -256.963 -241.903 -223.678 -215.842 -208.225 -200.835 -200.198 -200.728 -166.739 -134.856 -125.379 -133.669 -138.598 -103.654 -79.7839 -71.5191 -70.4113 -80.1885 -51.1337 -43.7958 -36.7229 -29.9603 -33.0561 -18.3881 -12.7697 -7.54362 -2.7777 -5.75291 4.96252 7.3725 9.21583 10.4495 -13.2429 9.2924 8.29085 4.89811 -7.79121 -86.5955 -83.3527 -95.0013 -135.657 -176.411 -205.899 -228.02 -250.18 -276.401 -310.799 -378.358 -434.092 -490.374 -547.067 -610.85 -680.594 -793.499 -905.415 -1018.61 -1160.4 -1430.52 -1430.52 -1430.52 -1430.52 -1430.52 -1430.52 -1429 -1425.75 -1421.19 -1415.65 -1409.1 -1360.17 -1308.37 -1256.5 -1205.12 -702.611 -698.048 -694.067 -690.612 -687.156 -668.103
109.839 109.734 85.0427 6.95066 -4.34458 -12.6242 33.3539 -34.3381 -133.883 -130.08 -123.596 -137.457 -152.335 -172.327 -190.106 -209.107 -229.249 -225.728 -218.511 -237.977 -258.156 -276.799 -283.19 -290.734 -297.22 -308.637 -305.05 -295.201 -287.047 -283.292 -279.475 -272.367 -265.424 -262.391 -249.915 -238.909 -227.259 -209.622 -189.251 -183.007 -176.893 -171.818 -170.593 -169.649 -139.51 -109.123 -97.5827 -100.306 -101.975 -84.4139 -73.4138 -68.4932 -63.6234 -57.4604 -54.4282 -51.4209 -48.4394 -46.5315 -46.8203 -32.5625 -23.8521 -15.2924 -13.8281 -15.1403 0.332029 15.8504 22.1989 19.8931 17.6561 33.1256 44.3261 48.4477 50.5248 47.3783 61.2 63.8156 66.4127 68.9871 68.8279 72.3021 72.434 72.5555 72.6659 72.7115 73.2208 73.7214 74.2105 74.6853 71.0105 71.9594 72.3103 72.1258 66.4131 47.7963 43.6261 37.4906 31.4673 25.5122 18.3652 15.266 10.8893 6.56309 2.27166 -2.81231 -3.71781 -6.38953 -9.01148 -11.5976 -15.4104 -15.1584 -16.8909 -18.5773 -20.2294 -23.2895 -22.5386 -23.6971 -24.8173 -25.9084 -28.3706 -27.3076 -28.0279 -28.7174 -29.383 -31.3573 -30.083 -30.5056 -30.9037 -31.2825 -32.9369 -31.5824 -31.783 -31.9643 -32.1301 -33.4931 -32.0425 -32.0818 -32.1057 -32.117 -33.3051 -31.7917 -31.517 -31.23 -30.9331 -31.7035 -29.9835 -29.6129 -29.2257 -28.8247 -29.6578 -28.0587 -28.3342 -28.6026 -28.8648 -30.6563 -29.4738 -29.8624 -30.2527 -30.6445 -32.3187 -31.0753 -30.8844 -30.6931 -30.5013 -31.3248 -30.1667 -29.7236 -29.2784 -28.8314 -29.1359 -28.2017 -27.7782 -27.3524 -26.9245 -27.0447 -26.2285 -25.8119 -25.3932 -24.9726 -25.0053 -24.1625 -23.685 -23.2055 -22.7241 -22.7162 -21.8031 -21.2614 -20.7179 -20.1727 -20.2099 -19.2563 -18.7081 -18.1586 -17.6886 -17.8155 -16.9932 -16.419 -15.9683 -15.8531 -16.0642 -15.4631 -14.8923 -14.7049 -15.1503 -15.6073 -15.3403 -15.0707 -15.3312 -16.1234 -16.9242 -17.0809 -17.4832 -18.189 -18.9263 -20.0767 -20.5812 -21.3173 -22.0553 -22.7952 -23.4309 -23.7113 -23.9918 -24.2725 -24.5534 -24.7997 -25.9082 -27.089 -28.2697 -29.4208 -30.4959 -31.6795 -32.8625 -34.1534 -35.3677 -36.5893 -37.9043 -39.1567 -40.2841 -41.4222 -42.7139 -43.588 -44.2918 -44.9892 -45.6873 -46.3875 -46.8515 -47.3156 -47.78 -48.2446 -48.6734 -49.6945 -50.8534 -52.0156 -53.1473 -54.2204 -55.1799 -56.1426 -57.2062 -58.2162 -59.2313 -60.2036 -61.1476 -61.9516 -62.8073 -63.7211 -64.7049 -65.4508 -66.208 -66.9764 -67.7539 -68.0102 -68.2008 -68.3925 -68.5854 -68.7961 -69.3153 -69.8411 -70.3735 -70.9125 -71.4651 -71.9967 -72.6581 -73.335 -74.0272 -74.7283 -75.1479 -75.695 -76.303 -76.921 -77.5474 -77.9171 -78.3343 -78.8655 -79.3989 -79.9486 -80.2537 -80.5781 -81.0279 -81.4986 -81.9908 -82.2375 -82.5054 -82.8796 -83.3005 -83.7449 -83.9397 -84.1575 -84.4742 -84.8417 -85.2345 -85.3787 -85.5566 -85.8132 -86.115 -86.45 -86.5362 -86.6761 -86.8678 -87.0949 -87.3777 -87.402 -87.4993 -87.6252 -87.7797 -87.9851 -87.9707 -87.9755 -87.9849 -87.999 -88.0146 -88.0943 -88.1863 -88.2906 -88.4072 -88.4089 -88.5166 -88.5656 -88.6473 -88.67 -88.6176 -88.6307 -88.6777 -88.6567 -88.5689 -88.5136 -88.418 -88.2798 -88.1416 -88.0375 -87.9679 -87.9622 -87.9557 -87.9488 -87.942 -87.9352 -87.817 -87.7351 -87.6897 -87.5639 -87.3056 -87.1428 -87.0186 -86.7533 -86.5031 -86.2825 -86.2028 -86.1139 -86.005 -85.8993 -85.8031 -85.6747 -85.5677 -85.4822 -85.2483 -84.9756 -84.6829 -84.4166 -84.0006 -83.6244 -83.2808 -83.2774 -83.2741 -83.2702 -83.2663 -83.2624 -82.9207 -82.6218 -82.3582 -81.9019 -81.4731 -81.3063 -81.1467 -80.9643 -80.7843 -80.6224 -80.4255 -80.2457 -80.059 -79.8148 -79.5818 -79.3218 -79.0778 -78.8527 -78.6446 -78.4694 -78.2935 -78.1264 -77.9647 -77.805 -77.6512 -77.2884 -76.9479 -76.6916 -76.4964 -76.3403 -76.1672 -76 -75.8461 -75.7107 -75.5789 -75.1127 -74.6739 -74.3673 -74.1606 -73.9995 -73.8429 -73.6906 -73.5511 -73.4289 -73.309 -72.7851 -72.2926 -71.9518 -71.7328 -71.5644 -71.4144 -71.2676 -71.1349 -71.0206 -70.9077 -70.3388 -69.804 -69.4361 -69.2104 -69.0382 -68.8866 -68.7378 -68.6038 -68.4879 -68.3728 -67.7808 -67.2241 -66.8335 -66.5938 -66.4094 -66.2428 -66.079 -65.933 -65.8076 -65.6826 -65.0795 -64.5113 -64.1036 -63.8524 -63.656 -63.4585 -63.2642 -63.0933 -62.9474 -62.8013 -62.212 -61.6555 -61.2381 -60.9677 -60.7499 -60.4983 -60.2511 -60.0349 -59.8496 -59.6628 -59.0984 -58.5629 -58.1365 -57.8366 -57.5853 -57.243 -56.907 -56.6135 -56.3587 -56.0991 -55.5624 -55.049 -54.6185 -54.296 -54.0147 -53.5308 -53.0566 -52.6317 -52.248 -51.8497 -51.3568 -50.8801 -50.4518 -50.0956 -49.7713 -49.0494 -48.3426 -47.7072 -47.1254 -46.5046 -46.0817 -45.6677 -45.2759 -44.9236 -44.5912 -43.5124 -42.4574 -41.4565 -40.4951 -39.4209 -39.1264 -38.8348 -38.5464 -38.2617 -37.9842 -36.401 -34.8494 -33.4408 -32.1285 -31.0121 -30.7735 -30.5365 -30.3298 -30.1235 -29.9117 -28.626 -27.3601 -26.115 -25.0249 -24.0057 -22.4296 -20.9151 -19.6031 -18.3049 -16.7431 -16.5781 -16.4133 -16.2488 -16.0965 -15.9515 -14.2572 -12.6374 -11.0363 -9.66026 -8.39138 -6.50008 -4.72158 -3.19885 -1.68841 -0.330275 0.242222 0.732434 1.19079 1.6482 2.16332 3.23544 4.30248 5.36409 6.3923 7.26607 8.84546 10.4417 12.047 13.4511 14.778 16.394 18.0016 19.5713 21.1812 22.7602 24.5329 26.3044 27.9792 30.1329 32.2891 34.5056 36.7228 38.9391 41.8226 44.7617 47.6241 50.3392 52.8615 55.2342 58.0439 58.5167 58.958 59.3367 59.6995 59.9154 61.124 61.9076 62.2738 62.3564 61.8269 61.6427 61.4492 61.2464 60.9086 60.5676 58.7967 57.1384 55.3233 52.8059 50.8148 48.7578 46.6806 44.1985 42.0425 40.104 38.557 36.7175 34.822 32.9166 31.2806 30.3704 29.306 28.2428 27.1808 25.7537 25.6336 25.5136 25.3937 25.2737 25.2303 24.3653 23.5962 22.8341 22.0785 22.1045 20.9366 20.5488 20.1664 19.7892 20.6038 19.3728 19.1961 19.0231 18.8536 20.052 18.9236 18.7497 18.6553 18.7551 19.8552 18.8926 18.5833 18.4826 18.675 19.5898 18.6955 18.279 18.1251 18.294 19.0042 18.122 17.6186 17.3959 17.4889 18.0105 17.1198 16.5534 16.2672 16.2717 16.6359 15.7354 15.133 14.8006 14.7276 14.9741 14.0738 13.4628 13.1049 12.9739 13.1405 12.2495 11.653 11.2909 11.1271 11.2545 10.3867 9.82755 9.4819 9.30859 9.43064 8.60276 8.10111 7.78874 7.62311 7.7618 6.99107 6.56064 6.2906 6.14048 6.30214 5.59712 5.24193 5.01642 4.88454 5.07026 4.43502 4.1533 3.97072 3.85686 4.06346 3.4958 3.28174 3.13876 3.04206 3.2681 2.76355 2.60976 2.50211 2.42079 2.6638 2.21567 2.11358 2.036 1.96705 2.22205 1.82347 1.76406 1.71062 1.65711 1.91046 1.56376 1.52849 1.49317 1.4578 1.69725 1.39927 1.37665 1.35397 1.33125 1.55401 1.29662 1.28211 1.26756 1.25297 1.45714 1.23303 1.2232 1.21333 1.20343 1.38834 1.19075 1.18258 1.17438 1.16615 1.33175 1.15517 1.14674 1.13829 1.12982 1.27682 1.11691 1.10776 1.09859 1.08939 1.21994 1.07434 1.06485 1.05534 1.04582 1.16246 1.02977 1.02097 1.01215 1.00332 1.10921 0.988741 0.98068 0.972607 0.964522 1.06046 0.950132 0.942022 0.933901 0.92577 1.01203 0.909756 0.900738 0.891711 0.882675 0.959424 0.863269 0.852656 0.842033 0.831402 0.899265 0.808517 0.796837 0.785148 0.773451 0.834104 0.748867 0.736438 0.724 0.711553 0.76568 0.685214 0.67148 0.657737 0.643986 0.691548 0.61573 0.601161 0.586586 0.572003 0.61392 0.543249 0.528419 0.513583 0.498741 0.535521 0.469572 0.454275 0.438975 0.423669 0.45541 0.394232 0.3792 0.364165 0.349127 0.376993 0.320748 0.305837 0.290924 0.276009 0.299604 0.246796 0.230768 0.21474 0.198712 0.217102 0.16686 0.149333 0.131807 0.114282 0.127385 0.0795095 0.0604161 0.0413246 0.0222352 0.0299994 -0.0156536 -0.0361137 -0.0565708 -0.0770252 -0.0742381 -0.116683 -0.136944 -0.157201 -0.177455 -0.17779 -0.214882 -0.232735 -0.250584 -0.26843 -0.269651 -0.300549 -0.315659 -0.330765 -0.345868 -0.347952 -0.374399 -0.388636 -0.40287 -0.4171 -0.42189 -0.44606 -0.461458 -0.476852 -0.492242 -0.501577 -0.523048 -0.538847 -0.554642 -0.570433 -0.583375 -0.597083 -0.608158 -0.619229 -0.630296 -0.638554 -0.640099 -0.641644 -0.64319 -0.644735 -0.646612 -0.653199 -0.660058 -0.666912 -0.673763 -0.683485 -0.687712 -0.6942 -0.700685 -0.707166 -0.718858 -0.726277 -0.737079 -0.747881 -0.758681 -0.775518 -0.782631 -0.792396 -0.802165 -0.811938 -0.826226 -0.823673 -0.822874 -0.822084 -0.821303 -0.824617 -0.808661 -0.79472 -0.780792 -0.766876 -0.759235 -0.728958 -0.701006 -0.673073 -0.645161 -0.62596 -0.582704 -0.543109 -0.503544 -0.464006 -0.437023 -0.391867 -0.346257 -0.300694 -0.255176 -0.221528 -0.184786 -0.134957 -0.0852068 -0.0355352 0.00926228 0.0301534 0.0844711 0.138653 0.192699 0.255477 0.256437 0.31639 0.376122 0.436105 0.523044 0.513502 0.569572 0.632301 0.702018 0.800438 0.789804 0.825841 0.882607 0.954472 1.04757 1.03196 1.04062 1.08118 1.14518 1.2205 1.19606 1.17672 1.19711 1.25123 1.30629 1.28101 1.25503 1.25227 1.27053 1.28827 1.25522 1.22125 1.1919 1.16439 1.13651 1.08603 1.03507 0.989819 0.930755 0.867892 0.805115 0.740544 0.674556 0.600457 0.495928 0.409856 0.330959 0.251643 0.171908 0.0692173 0.00335386 -0.0551632 -0.113826 -0.172635 -0.225559 -0.246594 -0.267648 -0.288722 -0.309815 -0.324042 -0.39342 -0.466066 -0.538861 -0.611807 -0.677251 -0.720802 -0.780949 -0.841306 -0.903601 -0.968937 -0.994455 -1.02333 -1.0736 -1.1486 -1.22365 -1.26874 -1.31406 -1.36186 -1.40915 -1.45652 -1.49453 -1.52228 -1.53445 -1.54155 -1.53172 -1.51105 -1.4671 -1.42334 -1.37976 -1.33567 -1.32563 -1.31511 -1.30459 -1.29407 -1.28374 -1.21782 -1.15208 -1.08652 -1.02113 -0.942444 -0.841378 -0.76107 -0.682066 -0.615085 -0.557935 -0.475063 -0.3924 -0.336335 -0.304806 -0.273243 -0.209249 -0.150395 -0.101876 -0.0560173 -0.0215496 0.0312149 0.0718701 0.112488 0.153069 0.191899 0.202519 0.213136 0.22375 0.234361 0.245507 0.290651 0.334909 0.379118 0.42277 0.46386 0.495544 0.526779 0.553656 0.583033 0.612413 0.636565 0.661586 0.692156 0.720931 0.747579 0.776307 0.796729 0.817189 0.837686 0.858991 0.861485 0.86398 0.866475 0.868971 0.870829 0.875639 0.878303 0.880985 0.882346 0.86683 0.847925 0.821961 0.771511 0.697773 0.624045 0.545763 0.466769 0.370482 0.25009 0.114013 -0.0273404 -0.167494 -0.307644 -0.447802 -0.588657 -0.594503 -0.60035 -0.606196 -0.61204 -0.617467 -0.783789 -0.953347 -1.12319 -1.29202 -1.43677 -1.59148 -1.75403 -1.93548 -2.07271 -2.21058 -2.36628 -2.52354 -2.62479 -2.73072 -2.83929 -2.97965 -3.07115 -3.15245 -3.23585 -3.31452 -3.3773 -3.4132 -3.44993 -3.48747 -3.53507 -3.56153 -3.58831 -3.6154 -3.6428 -3.66674 -3.70995 -3.7599 -3.81224 -3.86695 -3.91308 -3.94408 -3.98054 -4.01964 -4.05685 -4.08588 -4.1108 -4.13457 -4.15677 -4.17079 -4.18154 -4.19517 -4.20907 -4.21532 -4.21336 -4.21216 -4.21945 -4.22793 -4.22442 -4.21253 -4.20211 -4.20323 -4.20474 -4.19298 -4.17215 -4.15197 -4.14237 -4.13101 -4.10765 -4.07715 -4.04568 -4.02096 -3.9901 -3.94803 -3.90166 -3.85199 -3.80349 -3.74502 -3.68146 -3.61901 -3.55634 -3.48811 -3.3985 -3.31025 -3.22383 -3.14008 -3.0314 -2.90829 -2.78711 -2.66785 -2.55067 -2.54319 -2.53467 -2.52616 -2.51765 -2.50932 -2.36054 -2.21349 -2.06819 -1.92465 -1.74046 -1.544 -1.34772 -1.15281 -0.934749 -0.67423 -0.422456 -0.171547 0.0725579 0.361328 0.650141 0.939113 1.23064 1.56611 1.88459 2.19321 2.50734 2.85259 3.19924 3.54597 3.88506 3.93549 3.98932 4.04315 4.09698 4.15205 4.44641 4.74073 5.03502 5.32927 5.6383 6.01533 6.35445 6.68797 7.01689 7.34175 7.6826 8.02303 8.36362 8.72227 9.07915 9.47492 9.84821 10.1738 10.4988 10.7562 10.869 10.9693 11.0661 11.1628 11.2703 11.429 11.5868 11.7439 11.8961 12.0222 12.2772 12.4898 12.688 12.8418 12.9805 13.1554 13.3275 13.4417 13.4916 13.5385 13.6149 13.6446 13.645 13.6432 13.5971 13.5507 13.4612 13.3696 13.2761 13.1756 13.1373 13.0926 13.0477 13.0027 12.944 12.8348 12.7246 12.6134 12.5012 12.3745 12.1789 11.9792 11.7782 11.576 11.3565 11.1418 10.9258 10.709 10.4914 10.2612 10.0417 9.82244 9.60268 9.38243 9.15432 8.94284 8.73731 8.53151 8.32546 8.11871 7.99966 7.88142 7.76311 7.64473 7.55934 7.48037 7.40137 7.32232 7.24324 7.16545 6.98535 6.80495 6.6244 6.44369 6.27108 6.10898 5.94994 5.79081 5.63158 5.49166 5.35209 5.21697 5.08297 4.95753 4.84148 4.72422 4.60725 4.49378 4.39252 4.29122 4.18788 4.08453 3.98864 3.89778 3.8069 3.71327 3.62189 3.53536 3.44909 3.36327 3.2743 3.19115 3.10799 3.02484 2.9419 2.91329 2.88549 2.85769 2.82989 2.8015 2.74654 2.69157 2.6366 2.58164 2.5279 2.44342 2.3575 2.27157 2.18541 2.09873 2.00852 1.91834 1.82875 1.74028 1.65184 1.5599 1.46796 1.35762 1.23769 1.11531 0.988373 0.896519 0.811238 0.725893 0.650749 0.633578 0.595173 0.556772 0.518374 0.479518 0.395893 0.312218 0.228493 0.144717 0