# vtk DataFile Version 2.0
track0
ASCII
DATASET POLYDATA
POINTS 10929 double
-0.0205 0.001 1e-05
-0.0204991 0.00100536 1e-05
-0.0204976 0.00101063 1e-05
-0.0204947 0.00101518 1e-05
-0.0204905 0.00101864 1e-05
-0.0204746 0.00102682 1e-05
-0.0201831 0.00105563 1e-05
-0.0203616 0.00128794 1e-05
-0.0204488 0.00141936 1e-05
-0.0201625 0.0014444 1e-05
-0.0201519 0.00173163 1e-05
-0.0202219 0.00184007 1e-05
-0.0200495 0.00193025 1e-05
-0.0200808 0.00212221 1e-05
-0.0201294 0.00229098 1e-05
-0.0200088 0.00238763 1e-05
-0.0199911 0.00254122 1e-05
-0.0200041 0.00269528 1e-05
-0.0199827 0.00277425 1e-05
-0.019869 0.00287784 1e-05
-0.0198179 0.00302292 1e-05
-0.0198054 0.00317623 1e-05
-0.0197599 0.00329221 1e-05
-0.0196347 0.00340323 1e-05
-0.0195486 0.00354672 1e-05
-0.0194776 0.00369829 1e-05
-0.019391 0.00384149 1e-05
-0.0193841 0.00384734 1e-05
-0.0193107 0.00390807 1e-05
-0.0192439 0.00397591 1e-05
-0.019179 0.00404571 1e-05
-0.0191113 0.00411264 1e-05
-0.0190172 0.0041978 1e-05
-0.0189564 0.0042467 1e-05
-0.0188939 0.00429332 1e-05
-0.0188297 0.00433762 1e-05
-0.018764 0.0043796 1e-05
-0.0186584 0.00444232 1e-05
-0.0184262 0.00456523 1e-05
-0.0181851 0.00466946 1e-05
-0.0179369 0.00475565 1e-05
-0.0176828 0.00482198 1e-05
-0.0174976 0.00485353 1e-05
-0.0172058 0.00488425 1e-05
-0.0169124 0.00488599 1e-05
-0.0166199 0.00486363 1e-05
-0.0163297 0.00482043 1e-05
-0.0160387 0.00475634 1e-05
-0.0158292 0.00469354 1e-05
-0.0156234 0.00461965 1e-05
-0.0154218 0.00453504 1e-05
-0.015223 0.00444396 1e-05
-0.0152197 0.00444232 1e-05
-0.0151034 0.00438406 1e-05
-0.0149899 0.00432055 1e-05
-0.0148795 0.00425171 1e-05
-0.0147714 0.00417927 1e-05
-0.0146381 0.00408405 1e-05
-0.0145771 0.00403671 1e-05
-0.0145171 0.00398827 1e-05
-0.0144579 0.00393872 1e-05
-0.0143997 0.00388804 1e-05
-0.0143537 0.00384734 1e-05
-0.0142296 0.00373631 1e-05
-0.014112 0.00361838 1e-05
-0.0140019 0.00349339 1e-05
-0.0138978 0.0033634 1e-05
-0.0138433 0.00329221 1e-05
-0.0137661 0.00318862 1e-05
-0.0136964 0.00307983 1e-05
-0.0136331 0.00296725 1e-05
-0.0135736 0.0028526 1e-05
-0.0135363 0.00277425 1e-05
-0.0134932 0.0026776 1e-05
-0.0134573 0.00257807 1e-05
-0.0134253 0.00247718 1e-05
-0.0133979 0.00237497 1e-05
-0.0133799 0.00229098 1e-05
-0.0133648 0.0022008 1e-05
-0.0133557 0.00210981 1e-05
-0.0133519 0.00201846 1e-05
-0.0133542 0.00192705 1e-05
-0.0133626 0.00184007 1e-05
-0.0133774 0.00175593 1e-05
-0.0133998 0.0016735 1e-05
-0.0134291 0.00159326 1e-05
-0.0134654 0.00151593 1e-05
-0.0135219 0.00141936 1e-05
-0.0135793 0.00134085 1e-05
-0.0136476 0.00127164 1e-05
-0.0137216 0.00120863 1e-05
-0.0138002 0.00115138 1e-05
-0.0139939 0.00102682 1e-05
-0.0141227 0.000957259 1e-05
-0.0142584 0.000902111 1e-05
-0.0143973 0.000855841 1e-05
-0.0145369 0.000811613 1e-05
-0.0146381 0.000781218 1e-05
-0.0147218 0.000757087 1e-05
-0.0148058 0.000734289 1e-05
-0.0148902 0.000712617 1e-05
-0.014975 0.000692957 1e-05
-0.015148 0.000660566 1e-05
-0.0153261 0.000637961 1e-05
-0.0155047 0.000618784 1e-05
-0.0156835 0.000602273 1e-05
-0.0158625 0.000587759 1e-05
-0.0160387 0.000568039 1e-05
-0.0162826 0.000518199 1e-05
-0.0165304 0.00049345 1e-05
-0.0167791 0.000482384 1e-05
-0.0170281 0.000475587 1e-05
-0.0174976 0.000406396 1e-05
-0.0174976 0.000406396 1e-05
-0.0174976 0.000406396 1e-05
-0.0174976 0.000406396 1e-05
-0.0174976 0.000406396 1e-05
-0.0174976 0.000406396 1e-05
-0.0174952 0.000388885 1e-05
-0.0174898 0.000372052 1e-05
-0.0174821 0.000356138 1e-05
-0.0174727 0.000341173 1e-05
-0.0174557 0.000318841 1e-05
-0.0173838 0.000255072 1e-05
-0.0172967 0.000214399 1e-05
-0.0172047 0.000186604 1e-05
-0.0171105 0.000167062 1e-05
-0.0160387 4.45658e-06 1e-05
-0.0160288 3.56527e-06 1e-05
-0.0160188 3.10958e-06 1e-05
-0.0160088 2.69575e-06 1e-05
-0.0159989 2.28191e-06 1e-05
-0.015944 0 1e-05
-0.0205 0.00367778 1e-05
-0.0203955 0.00371169 1e-05
-0.0203045 0.00377319 1e-05
-0.0202171 0.00383976 1e-05
-0.0201979 0.00384734 1e-05
-0.0199618 0.00393431 1e-05
-0.019766 0.00409242 1e-05
-0.0196201 0.0042975 1e-05
-0.0194753 0.00444232 1e-05
-0.0193836 0.00449614 1e-05
-0.0192963 0.00455664 1e-05
-0.0192132 0.00462286 1e-05
-0.0191277 0.00468597 1e-05
-0.0190172 0.00476145 1e-05
-0.0189141 0.00482516 1e-05
-0.0188083 0.00488434 1e-05
-0.0187001 0.00493907 1e-05
-0.0185899 0.00498945 1e-05
-0.0183685 0.00508 1e-05
-0.0181943 0.00513501 1e-05
-0.0180181 0.00518305 1e-05
-0.0178401 0.00522428 1e-05
-0.0176607 0.00525858 1e-05
-0.0174976 0.00528157 1e-05
-0.0172058 0.00530948 1e-05
-0.0169127 0.00531431 1e-05
-0.0166201 0.00529732 1e-05
-0.0163294 0.00526012 1e-05
-0.0160387 0.00520515 1e-05
-0.0159404 0.00518012 1e-05
-0.0158427 0.0051531 1e-05
-0.0157455 0.00512418 1e-05
-0.0156487 0.00509404 1e-05
-0.0156056 0.00508 1e-05
-0.0154121 0.0050158 1e-05
-0.015222 0.00494217 1e-05
-0.015036 0.00485874 1e-05
-0.0148543 0.00476627 1e-05
-0.0146381 0.00464652 1e-05
-0.0145718 0.00460568 1e-05
-0.0145061 0.00456395 1e-05
-0.0144409 0.00452133 1e-05
-0.0143763 0.00447793 1e-05
-0.0143239 0.00444232 1e-05
-0.0141503 0.00432332 1e-05
-0.0139833 0.00419531 1e-05
-0.013824 0.00405779 1e-05
-0.0136693 0.00391505 1e-05
-0.0135989 0.00384734 1e-05
-0.0135378 0.00378748 1e-05
-0.0134788 0.00372554 1e-05
-0.0134213 0.00366221 1e-05
-0.0133647 0.0035981 1e-05
-0.0132934 0.00351501 1e-05
-0.0132567 0.00347045 1e-05
-0.0132204 0.00342552 1e-05
-0.0131846 0.00338021 1e-05
-0.0131493 0.00333453 1e-05
-0.0131172 0.00329221 1e-05
-0.013039 0.00318862 1e-05
-0.0129628 0.0030836 1e-05
-0.0128894 0.00297659 1e-05
-0.0128192 0.00286744 1e-05
-0.0127618 0.00277425 1e-05
-0.0127041 0.0026776 1e-05
-0.0126477 0.00258012 1e-05
-0.0125929 0.00248176 1e-05
-0.0125396 0.00238261 1e-05
-0.0124927 0.00229098 1e-05
-0.012449 0.0022008 1e-05
-0.0124056 0.00211048 1e-05
-0.0123624 0.00202004 1e-05
-0.0123195 0.00192948 1e-05
-0.0122784 0.00184007 1e-05
-0.0122433 0.00175593 1e-05
-0.0122067 0.00167243 1e-05
-0.0121688 0.0015895 1e-05
-0.0121294 0.00150728 1e-05
-0.0120849 0.00141936 1e-05
-0.0120685 0.00138779 1e-05
-0.0120508 0.00135688 1e-05
-0.012032 0.0013266 1e-05
-0.0120122 0.00129702 1e-05
-0.0120025 0.00128372 1e-05
-0.0119638 0.00123234 1e-05
-0.0119218 0.00118362 1e-05
-0.0118765 0.00113794 1e-05
-0.011828 0.00109562 1e-05
-0.0117366 0.00102682 1e-05
-0.0116207 0.000953567 1e-05
-0.0114969 0.000894605 1e-05
-0.0113685 0.000846424 1e-05
-0.0112372 0.000806719 1e-05
-0.0107632 0.000724087 1e-05
-0.0105252 0.000732538 1e-05
-0.0102872 0.000727718 1e-05
-0.0100491 0.000725033 1e-05
-0.00981095 0.000723643 1e-05
-0.00957337 0.000723068 1e-05
-0.00934491 0.000732514 1e-05
-0.00911629 0.000728851 1e-05
-0.00888765 0.000726342 1e-05
-0.008659 0.000724622 1e-05
-0.00843108 0.000723455 1e-05
-0.00821175 0.000732501 1e-05
-0.00799227 0.000728422 1e-05
-0.00777278 0.000725368 1e-05
-0.00755327 0.00072305 1e-05
-0.00733443 0.000721274 1e-05
-0.00712387 0.000729688 1e-05
-0.00691317 0.000725525 1e-05
-0.00670246 0.000722283 1e-05
-0.00649174 0.000719724 1e-05
-0.0062816 0.00071768 1e-05
-0.00607944 0.000725388 1e-05
-0.00587718 0.000721495 1e-05
-0.0056749 0.000718392 1e-05
-0.00547262 0.000715888 1e-05
-0.00527083 0.000713845 1e-05
-0.00507675 0.000720852 1e-05
-0.00488258 0.000717362 1e-05
-0.0046884 0.000714531 1e-05
-0.00449421 0.000712211 1e-05
-0.00430044 0.000710291 1e-05
-0.00411412 0.000716648 1e-05
-0.00392771 0.000713583 1e-05
-0.0037413 0.000711057 1e-05
-0.00355488 0.000708956 1e-05
-0.00336883 0.000707194 1e-05
-0.00318995 0.000712956 1e-05
-0.003011 0.000710259 1e-05
-0.00283204 0.000708009 1e-05
-0.00265308 0.000706117 1e-05
-0.00247443 0.000704515 1e-05
-0.0023027 0.000709748 1e-05
-0.00213091 0.000707392 1e-05
-0.00195911 0.000705402 1e-05
-0.0017873 0.000703708 1e-05
-0.00161577 0.000702259 1e-05
-0.0014509 0.000707023 1e-05
-0.00128597 0.000705004 1e-05
-0.00112104 0.000703309 1e-05
-0.00095611 0.000701882 1e-05
-0.000791418 0.000700677 1e-05
-0.000633135 0.000705144 1e-05
-0.000474797 0.000703508 1e-05
-0.000316454 0.000702304 1e-05
-0.00015811 0.000701458 1e-05
0 0.000700912 1e-05
0.000105677 0.000704357 1e-05
0.000211411 0.000704016 1e-05
0.000317144 0.000703816 1e-05
0.000422878 0.000703741 1e-05
0.000528387 0.000703777 1e-05
0.000634886 0.000707365 1e-05
0.000741446 0.000707254 1e-05
0.000848005 0.000707106 1e-05
0.000954564 0.000706923 1e-05
0.00106088 0.00070671 1e-05
0.00116821 0.000709767 1e-05
0.00127558 0.000709501 1e-05
0.00138295 0.000709247 1e-05
0.00149032 0.000709003 1e-05
0.00159752 0.00070877 1e-05
0.00170568 0.000711506 1e-05
0.00181388 0.000711433 1e-05
0.00192207 0.000711437 1e-05
0.00203027 0.000711513 1e-05
0.00213833 0.000711653 1e-05
0.00224733 0.000714482 1e-05
0.00235637 0.000714939 1e-05
0.0024654 0.00071552 1e-05
0.00257444 0.000716215 1e-05
0.00268334 0.000717016 1e-05
0.00279319 0.00072036 1e-05
0.00290308 0.000721577 1e-05
0.00301297 0.000722951 1e-05
0.00312286 0.000724471 1e-05
0.00323259 0.000726126 1e-05
0.00334329 0.000730373 1e-05
0.00345405 0.000732563 1e-05
0.00356481 0.000734946 1e-05
0.00367557 0.000737511 1e-05
0.00378611 0.000740243 1e-05
0.00389767 0.000745799 1e-05
0.00400932 0.00074924 1e-05
0.00412096 0.000752909 1e-05
0.0042326 0.000756797 1e-05
0.00434393 0.000760882 1e-05
0.00445636 0.000768133 1e-05
0.00456892 0.000773157 1e-05
0.00468146 0.00077845 1e-05
0.00479399 0.000784 1e-05
0.00490609 0.000790123 1e-05
0.0050194 0.000799426 1e-05
0.00513282 0.000807112 1e-05
0.00524627 0.000814463 1e-05
0.0053597 0.000822118 1e-05
0.00547262 0.000831172 1e-05
0.00558681 0.00084284 1e-05
0.00570109 0.000853594 1e-05
0.00581543 0.000863544 1e-05
0.00592975 0.000873885 1e-05
0.00604356 0.000886072 1e-05
0.00615863 0.000900307 1e-05
0.00627375 0.000914208 1e-05
0.0063889 0.00092778 1e-05
0.006504 0.000941827 1e-05
0.00661893 0.000957172 1e-05
0.0067349 0.000974012 1e-05
0.00685086 0.000990918 1e-05
0.00696678 0.0010081 1e-05
0.00708262 0.00102582 1e-05
0.00719878 0.00104417 1e-05
0.0072833 0.00105816 1e-05
0.00736779 0.00107231 1e-05
0.00745224 0.00108668 1e-05
[...]
POINT_DATA 10929
 FIELD attributes 1
U 3 10929 float
1.13302 	6.39885 	0 1.5919 	5.97926 	0 3.06068 	4.65989 	0 4.29072 	3.52874 	0 5.18158 	2.68002 	0 7.15405 	0.707064 	0 -4.22487 	5.50138 	0 -5.18608 	7.81087 	0 7.56531 	0.661772 	0 0.171694 	4.66618 	0 -9.04912 	14.0261 	0 5.93243 	3.10461 	0 -2.52809 	15.5168 	0 -6.42014 	22.2985 	0 7.16739 	5.74124 	0 1.97853 	17.2216 	0 -2.24855 	26.6789 	0 4.29327 	15.8512 	0 9.07786 	8.27034 	0 6.22523 	17.6662 	0 2.39175 	29.3761 	0 7.49009 	19.1151 	0 11.9525 	10.5972 	0 10.9791 	18.2859 	0 10.8656 	23.214 	0 12.8654 	21.2665 	0 16.0843 	13.7045 	0 16.233 	13.432 	0 16.3936 	16.6298 	0 16.8109 	18.1015 	0 17.5804 	17.3614 	0 18.3625 	16.6195 	0 19.4193 	15.6308 	0 20.1853 	15.047 	0 20.96 	14.4659 	0 21.7419 	13.8882 	0 22.0876 	13.1244 	0 22.0718 	11.6852 	0 24.2738 	10.4921 	0 26.3559 	9.15323 	0 27.0776 	7.06658 	0 27.2325 	4.63945 	0 27.3596 	2.8803 	0 28.0795 	0.16658 	0 28.3369 	-2.16578 	0 28.2649 	-4.20774 	0 27.2087 	-5.99273 	0 25.815 	-7.74061 	0 25.206 	-9.04943 	0 24.5659 	-10.3085 	0 23.3579 	-10.7021 	0 22.1395 	-11.0717 	0 22.119 	-11.0774 	0 21.4916 	-12.0217 	0 20.8674 	-13.0119 	0 20.0294 	-13.4264 	0 19.1203 	-13.6576 	0 17.9739 	-13.9617 	0 17.5366 	-14.1392 	0 17.098 	-14.3199 	0 16.6582 	-14.5039 	0 16.3255 	-14.4527 	0 16.0764 	-14.378 	0 14.8211 	-14.8642 	0 13.5236 	-15.3566 	0 12.3345 	-15.3975 	0 11.4618 	-14.9751 	0 10.9877 	-14.7476 	0 9.66044 	-15.0831 	0 8.54986 	-15.1952 	0 7.77583 	-14.9735 	0 6.96246 	-14.6559 	0 6.37015 	-14.2899 	0 5.16119 	-14.2838 	0 4.41632 	-13.9467 	0 3.64939 	-13.6198 	0 2.85923 	-13.305 	0 2.16993 	-12.9661 	0 1.26246 	-12.6058 	0 0.501869 	-12.1953 	0 -0.289342 	-11.7988 	0 -1.11157 	-11.4198 	0 -1.93238 	-11.0371 	0 -2.86605 	-10.54 	0 -3.67918 	-10.0764 	0 -4.52735 	-9.64212 	0 -5.40582 	-9.24189 	0 -6.41648 	-8.77944 	0 -8.00166 	-8.1081 	0 -8.97014 	-7.63064 	0 -9.92028 	-7.22523 	0 -10.7125 	-6.89021 	0 -11.619 	-6.27298 	0 -13.1375 	-5.34166 	0 -14.0298 	-4.67329 	0 -13.1686 	-4.17276 	0 -12.3498 	-3.70816 	0 -11.7903 	-3.39966 	0 -12.3909 	-3.36066 	0 -13.0236 	-3.34584 	0 -13.8408 	-3.20708 	0 -15.0234 	-2.81349 	0 -17.5043 	-2.22121 	0 -18.2121 	-1.95617 	0 -19.2528 	-1.77776 	0 -20.5517 	-1.66664 	0 -19.8962 	-2.22647 	0 -16.3301 	-3.3362 	0 -24.474 	-2.44469 	0 -37.0718 	-1.64926 	0 -49.4829 	-1.35126 	0 -35.417 	-5.21927 	0 1.79715 	-13.0841 	0 1.79715 	-13.0841 	0 1.79715 	-13.0841 	0 1.79715 	-13.0841 	0 1.79715 	-13.0841 	0 1.79715 	-13.0841 	0 4.20266 	-13.122 	0 6.33693 	-13.1088 	0 8.20444 	-13.0546 	0 9.83509 	-12.9686 	0 14.8309 	-13.1464 	0 23.0829 	-10.7784 	0 30.0097 	-9.06387 	0 38.0191 	-7.89352 	0 46.6159 	-7.07183 	0 0.354349 	-0.0318225 	0 1.18924 	-0.0544399 	0 1.49385 	-0.0620918 	0 1.29504 	-0.0538284 	0 1.09623 	-0.0455649 	0 0 	0 	0
9.83301 	3.19125 	0 9.65851 	6.52589 	0 10.0781 	7.67585 	0 11.816 	4.68126 	0 12.0611 	4.44159 	0 12.9629 	10.4688 	0 13.405 	18.8467 	0 15.3412 	15.3339 	0 17.3403 	10.1874 	0 17.8532 	12.3624 	0 18.3303 	14.6082 	0 18.9084 	13.9591 	0 19.504 	13.3199 	0 20.275 	12.528 	0 21.1504 	11.8341 	0 22.0495 	11.1574 	0 22.9698 	10.4982 	0 23.0577 	9.43077 	0 23.1858 	7.32208 	0 24.2121 	6.60016 	0 25.2186 	5.84326 	0 26.0689 	4.98329 	0 26.1009 	3.67856 	0 26.1706 	2.50248 	0 26.7816 	0.442211 	0 27.51 	-1.59803 	0 27.2116 	-3.48105 	0 26.2706 	-4.96864 	0 25.311 	-6.44804 	0 25.1474 	-6.95287 	0 24.9645 	-7.42953 	0 24.5445 	-7.64127 	0 24.1263 	-7.85017 	0 23.94 	-7.94237 	0 23.3005 	-9.02522 	0 22.7056 	-10.1835 	0 22.0185 	-11.2055 	0 20.9035 	-11.5799 	0 19.5734 	-12.0606 	0 19.2656 	-12.2302 	0 18.96 	-12.4029 	0 18.6677 	-12.5389 	0 18.4233 	-12.514 	0 18.2252 	-12.4942 	0 17.0669 	-13.0791 	0 15.9008 	-13.7275 	0 14.9691 	-13.8171 	0 14.116 	-13.5634 	0 13.7204 	-13.4467 	0 13.0618 	-13.7161 	0 12.5325 	-13.8079 	0 12.1253 	-13.7324 	0 11.716 	-13.6607 	0 11.1894 	-13.5741 	0 10.9442 	-13.5536 	0 10.6977 	-13.5348 	0 10.4498 	-13.5177 	0 10.2331 	-13.4746 	0 10.0957 	-13.3824 	0 9.61482 	-13.2468 	0 8.94164 	-13.0373 	0 8.25215 	-12.8348 	0 7.70602 	-12.515 	0 7.29292 	-12.2054 	0 6.9067 	-11.9471 	0 6.51439 	-11.6924 	0 6.09715 	-11.3314 	0 5.5595 	-10.8614 	0 5.05476 	-10.4341 	0 4.83057 	-10.0477 	0 4.60878 	-9.66029 	0 4.39186 	-9.27115 	0 4.07149 	-8.85361 	0 3.49215 	-8.37203 	0 3.48619 	-7.95267 	0 3.40814 	-7.46078 	0 3.33781 	-6.9681 	0 3.27666 	-6.47463 	0 3.06897 	-5.87768 	0 3.23772 	-5.65489 	0 3.38106 	-5.45974 	0 3.53021 	-5.26622 	0 3.68526 	-5.07467 	0 3.75955 	-4.98732 	0 3.98538 	-4.61909 	0 4.22267 	-4.2573 	0 4.47092 	-3.90399 	0 4.72921 	-3.56123 	0 5.31958 	-3.36099 	0 6.48554 	-3.08846 	0 7.57038 	-2.84083 	0 8.60112 	-2.60163 	0 10.2662 	-1.78962 	0 15.228 	0.540779 	0 15.2822 	-0.309368 	0 16.1091 	-0.181644 	0 16.884 	-0.0985936 	0 17.6275 	-0.0426325 	0 18.8666 	0.780012 	0 18.731 	-0.300045 	0 19.2672 	-0.211508 	0 19.7778 	-0.148771 	0 20.2709 	-0.103723 	0 21.186 	0.873762 	0 20.9533 	-0.389376 	0 21.3485 	-0.297116 	0 21.7223 	-0.22935 	0 22.0808 	-0.179223 	0 22.7956 	0.910861 	0 22.5307 	-0.445137 	0 22.8458 	-0.351466 	0 23.1423 	-0.281037 	0 23.4251 	-0.227836 	0 24.0147 	0.915594 	0 23.7378 	-0.456843 	0 23.9977 	-0.368152 	0 24.2419 	-0.300134 	0 24.4741 	-0.247792 	0 24.9844 	0.902043 	0 24.6978 	-0.443901 	0 24.9164 	-0.363175 	0 25.1218 	-0.300156 	0 25.317 	-0.250834 	0 25.7773 	0.879417 	0 25.4833 	-0.41901 	0 25.6685 	-0.347784 	0 25.8426 	-0.291264 	0 26.0081 	-0.246325 	0 26.4334 	0.851431 	0 26.133 	-0.393891 	0 26.2964 	-0.330593 	0 26.4505 	-0.279626 	0 26.5971 	-0.238523 	0 27.0031 	0.822834 	0 26.6979 	-0.366122 	0 26.8447 	-0.310971 	0 26.9837 	-0.265949 	0 27.1164 	-0.229148 	0 27.5091 	0.794921 	0 27.1959 	-0.332966 	0 27.3459 	-0.280927 	0 27.4887 	-0.237871 	0 27.6254 	-0.202201 	0 28.0331 	0.791215 	0 27.6827 	-0.286122 	-2.43085e-21 27.837 	-0.211694 	-8.78209e-21 27.9807 	-0.149399 	-1.50968e-20 28.1156 	-0.0971706 	-2.13812e-20 28.5664 	0.931432 	-2.06362e-20 28.1997 	-0.0910448 	-8.46312e-20 28.3194 	-0.0536791 	-7.18505e-20 28.4353 	-0.0201691 	-5.92817e-20 28.548 	0.00991 	-4.69015e-20 29.0143 	0.977388 	1.94432e-20 28.6367 	-0.0297235 	7.6894e-21 28.7265 	-0.0400677 	5.59887e-21 28.8174 	-0.0494117 	3.52106e-21 28.9091 	-0.057859 	1.45465e-21 29.3551 	0.836153 	2.54446e-21 28.9961 	-0.0718952 	7.2327e-22 29.0645 	-0.0688102 	-1.85581e-20 29.1325 	-0.0660188 	-3.78371e-20 29.2002 	-0.0634931 	-5.71141e-20 29.5942 	0.748483 	-7.52218e-20 29.2722 	-0.019827 	-5.94699e-20 29.3267 	0.00121666 	-4.56616e-20 29.3792 	0.0205404 	-3.18333e-20 29.43 	0.0382905 	-1.79866e-20 29.7786 	0.772834 	-3.0869e-20 29.4872 	0.123499 	-6.47749e-20 29.5304 	0.157273 	-5.58852e-20 29.5705 	0.188599 	-4.71994e-20 29.6078 	0.21766 	-3.87022e-20 29.9321 	0.91115 	1.80204e-20 29.6494 	0.328379 	3.06253e-20 29.6799 	0.371075 	4.69452e-20 29.7067 	0.41102 	6.32072e-20 29.7299 	0.448394 	7.94151e-20 30.0528 	1.1531 	1.06237e-19 29.7558 	0.58829 	2.05441e-19 29.7707 	0.640496 	2.02006e-19 29.7813 	0.689716 	1.99018e-19 29.7876 	0.736119 	1.96451e-19 30.1279 	1.50048 	6.73142e-20 29.8046 	0.918418 	-9.45369e-20 29.7988 	0.97944 	-1.29552e-19 29.7881 	1.0374 	-1.65166e-19 29.7726 	1.09244 	-2.0135e-19 30.1346 	1.9434 	-6.12998e-20 29.8052 	1.33054 	-3.91717e-20 29.7711 	1.40005 	-3.69901e-20 29.7317 	1.46655 	-3.47231e-20 29.7307 	1.62376 	-4.06053e-20 30.0396 	2.46626 	-1.07157e-19 29.8326 	2.02163 	-1.27246e-19 29.7187 	1.92567 	-1.33253e-19 29.6436 	2.00038 	-1.32579e-19 29.6815 	2.37998 	-1.11035e-19 29.8107 	3.04613 	-7.008e-20 29.779 	2.80244 	-3.7207e-20 29.7504 	2.58875 	-6.64437e-21 29.6366 	2.68075 	-2.78647e-21 29.5655 	3.16603 	-5.34026e-21 29.4723 	3.64583 	-7.81229e-21 29.6332 	3.57859 	-4.43464e-21 29.7981 	3.51193 	-1.06838e-21 29.778 	3.63427 	-6.03029e-22 29.4611 	3.93345 	-3.02041e-21 29.1332 	4.23037 	-5.38548e-21 29.4698 	4.29657 	-1.91264e-21 29.6398 	4.39385 	-1.05201e-20 29.603 	4.52907 	-3.39808e-20 29.5313 	4.66394 	-5.75413e-20 28.9985 	4.80033 	-8.09674e-20 29.3029 	4.90638 	-9.96724e-20 29.2562 	4.97885 	-9.90422e-20 29.2071 	5.05102 	-9.84027e-20 29.1557 	5.12288 	-9.77537e-20 29.1096 	5.18418 	-9.71896e-20 29.0936 	5.2164 	-1.02389e-19 29.0774 	5.24859 	-1.07626e-19 29.0607 	5.28073 	-1.12899e-19 29.0436 	5.31285 	-1.1821e-19 29.0112 	5.30339 	-9.65763e-20 29.0777 	5.43081 	1.95788e-21 29.0215 	5.5042 	6.32884e-20 28.9634 	5.57745 	1.25028e-19 28.851 	5.61128 	1.4453e-19 28.5891 	5.53476 	4.45411e-20 28.9125 	5.7087 	1.48669e-19 29.2323 	5.88174 	2.52614e-19 29.1343 	5.89448 	2.49095e-19 28.7426 	5.77533 	1.38615e-19 28.3495 	5.65571 	2.75599e-20 28.7488 	5.81287 	9.69084e-21 29.0052 	5.91371 	-1.9764e-21 28.9733 	5.90058 	-9.54801e-22 28.9129 	5.87798 	0 28.4437 	5.71946 	0 28.7031 	5.79545 	0 28.6938 	5.77639 	-3.79054e-22 28.6737 	5.75355 	-7.73316e-22 28.6539 	5.73078 	-1.16734e-21 28.6344 	5.70805 	-1.56203e-21 28.6304 	5.69794 	-1.72121e-21 28.6266 	5.68785 	-1.88049e-21 28.6228 	5.67778 	-2.03987e-21 28.6191 	5.66772 	-2.19935e-21 28.5288 	5.63596 	8.46609e-21 28.7229 	5.64212 	1.3441e-19 28.7125 	5.59334 	1.9879e-19 28.7026 	5.54464 	2.62869e-19 28.5816 	5.46652 	2.3746e-19 28.267 	5.33716 	5.5965e-20 28.6263 	5.36218 	3.85207e-20 28.9867 	5.38743 	2.11722e-20 28.9378 	5.30781 	-1.41286e-20 28.5654 	5.14559 	-6.56348e-20 28.1951 	4.98412 	-1.16795e-19 28.5815 	4.99057 	-2.90539e-19 28.8944 	4.97956 	-4.16579e-19 28.8889 	4.89294 	-3.38184e-19 28.707 	4.7645 	-2.11079e-19 28.3134 	4.58616 	-2.57605e-20 28.6946 	4.56769 	3.1859e-21 28.6884 	4.46531 	2.33348e-21 28.6844 	4.36337 	1.47561e-21 28.6825 	4.26185 	6.12298e-22 28.5684 	4.13696 	0 28.6459 	4.11993 	0 28.6446 	4.08755 	0 28.6435 	4.05518 	0 28.6424 	4.02284 	0 28.6414 	3.98774 	0 28.6443 	3.90817 	0 28.6479 	3.82869 	0 28.6522 	3.7493 	0 28.6572 	3.66999 	0 28.5296 	3.56707 	0 28.7267 	3.47999 	-2.22257e-20 28.7297 	3.35647 	-7.84233e-20 28.7335 	3.23302 	-1.35005e-19 28.7283 	3.10814 	-1.91847e-19 28.4128 	2.93684 	-2.44909e-19 28.7581 	2.85719 	-6.98253e-19 28.8574 	2.73905 	-8.58714e-19 28.8607 	2.60585 	-9.03222e-19 28.6927 	2.45151 	-6.48107e-19 28.3553 	2.27683 	-9.63132e-20 28.711 	2.17944 	5.65525e-19 28.9828 	2.07161 	1.11267e-18 28.9848 	1.93031 	1.29947e-18 28.6835 	1.76115 	8.85934e-19 28.3327 	1.58786 	3.70077e-19 28.6918 	1.47229 	8.23056e-19 29.0531 	1.35686 	1.27608e-18 29.0424 	1.20821 	1.28123e-18 28.6814 	1.03874 	8.16048e-19 28.3233 	0.86973 	3.51942e-19 28.6804 	0.736778 	2.12885e-19 29.0396 	0.603907 	7.38862e-20 29.0364 	0.450457 	2.03148e-20 28.6722 	0.286257 	1.56255e-19 28.3104 	0.122246 	2.91074e-19 28.6572 	-0.0269279 	1.5176e-19 29.006 	-0.176096 	1.15125e-20 29.0079 	-0.336693 	1.38254e-21 28.6462 	-0.495126 	1.51375e-19 28.2867 	-0.653686 	3.00129e-19 28.6151 	-0.81607 	8.8929e-19 28.8945 	-0.979127 	1.38363e-18 28.8784 	-1.1457 	1.33263e-18 28.6091 	-1.30225 	8.56792e-19 28.259 	-1.45597 	2.41527e-19 28.5594 	-1.6288 	6.97495e-20 28.6893 	-1.80011 	-9.03142e-21 28.6655 	-1.97009 	-3.93509e-21 28.5736 	-2.13548 	1.3274e-20 28.2418 	-2.28497 	7.30516e-20 28.489 	-2.46505 	6.66946e-23 28.4555 	-2.6366 	1.37814e-21 28.4232 	-2.80844 	2.69813e-21 28.3922 	-2.98054 	4.02663e-21 28.2507 	-3.14249 	-2.61165e-20 28.309 	-3.21485 	-1.94558e-19 28.2914 	-3.28336 	-1.43863e-19 28.2741 	-3.35194 	-9.22223e-20 28.2571 	-3.42059 	-3.96341e-20 28.2434 	-3.47752 	4.72012e-21 28.2243 	-3.58444 	9.20978e-20 28.2062 	-3.69157 	1.81831e-19 28.1891 	-3.79889 	2.7392e-19 28.173 	-3.90641 	3.68367e-19 27.9919 	-3.99288 	-3.59063e-20 28.1871 	-4.20849 	-5.96256e-19 28.1503 	-4.38225 	-7.58321e-19 28.1171 	-4.55681 	-9.26434e-19 27.9481 	-4.71127 	-7.47748e-19 27.6153 	-4.8432 	-1.54174e-19 27.8184 	-5.0685 	-9.30611e-20 28.0228 	-5.29423 	-3.28726e-20 27.9787 	-5.47264 	3.72236e-20 27.675 	-5.60086 	1.09043e-19 27.3708 	-5.73153 	1.82169e-19 27.5225 	-5.9499 	1.44278e-19 27.5147 	-6.13885 	1.58053e-19 27.4364 	-6.31496 	1.95446e-19 27.3593 	-6.49159 	2.33879e-19 27.2681 	-6.66768 	2.78981e-19 27.271 	-6.67331 	2.86213e-19 27.2703 	-6.67824 	2.85594e-19 27.2677 	-6.68282 	2.80988e-19 27.2652 	-6.6874 	2.76379e-19 27.2627 	-6.69195 	2.71799e-19 27.203 	-6.8694 	6.26297e-20 27.1466 	-7.04811 	-1.50365e-19 27.0937 	-7.22809 	-3.67188e-19 26.9525 	-7.38339 	-3.18755e-19 26.6812 	-7.50551 	1.11434e-19 26.769 	-7.73566 	4.07749e-19 26.8586 	-7.96658 	7.04128e-19 26.7693 	-8.14498 	6.2488e-19 26.6047 	-8.29872 	4.58313e-19 26.3518 	-8.42677 	2.19667e-19 26.3674 	-8.49059 	1.86523e-19 26.3647 	-8.5489 	1.45139e-19 26.3281 	-8.59684 	8.84169e-20 26.2916 	-8.64487 	3.16594e-20 26.2575 	-8.69012 	-2.17425e-20 26.2076 	-8.82485 	-1.03664e-19 26.1594 	-8.96043 	-1.84978e-19 26.113 	-9.09686 	-2.65681e-19 25.9706 	-9.19633 	-3.70268e-19 25.795 	-9.28589 	-4.842e-19 25.8158 	-9.51015 	-9.82007e-19 25.826 	-9.73045 	-1.40779e-18 25.6822 	-9.88966 	-9.63533e-19 25.5395 	-10.0495 	-5.12332e-19 25.3873 	-10.2116 	-2.67493e-20 25.3873 	-10.2134 	-2.25317e-20 25.3872 	-10.2152 	-1.8552e-20 25.3858 	-10.2165 	-2.00935e-20 25.3844 	-10.2177 	-2.16351e-20 25.3831 	-10.219 	-2.31747e-20 25.2985 	-10.4064 	-1.39765e-20 25.2183 	-10.5961 	-4.80019e-21 25.1376 	-10.786 	4.10855e-21 24.9125 	-10.9066 	5.31454e-21 24.6838 	-11.0329 	6.49272e-21 24.6703 	-11.1181 	3.44961e-21 24.6572 	-11.2036 	4.00074e-22 24.5926 	-11.2623 	0 24.5204 	-11.3172 	0 24.4534 	-11.3687 	0 24.4044 	-11.4897 	0 24.3568 	-11.6115 	0 24.2886 	-11.7226 	0 24.1529 	-11.7986 	0 24.0152 	-11.8771 	0 23.9795 	-11.9976 	0 23.9447 	-12.1188 	0 23.8522 	-12.2074 	-8.33599e-21 23.7351 	-12.2821 	-2.0304e-20 23.6289 	-12.3506 	-3.12372e-20 23.5896 	-12.438 	-3.17935e-20 23.551 	-12.5259 	-3.2313e-20 23.4911 	-12.6019 	-3.96158e-20 23.3894 	-12.6547 	-5.99584e-20 23.2864 	-12.7089 	-8.0695e-20 23.2276 	-12.8422 	-1.24184e-19 23.1697 	-12.9763 	-1.67654e-19 23.0555 	-13.077 	-1.69003e-19 22.906 	-13.1567 	-1.43676e-19 22.7715 	-13.2294 	-1.20576e-19 22.7351 	-13.2995 	-1.39459e-19 22.699 	-13.37 	-1.58442e-19 22.6441 	-13.4289 	-1.32405e-19 22.5569 	-13.468 	-3.02199e-20 22.4685 	-13.508 	7.38533e-20 22.3907 	-13.6495 	5.26877e-20 22.3141 	-13.792 	3.2798e-20 22.1778 	-13.8963 	1.19358e-19 22.0006 	-13.9746 	2.79911e-19 21.8416 	-14.0459 	4.26205e-19 21.8079 	-14.104 	4.70541e-19 21.7744 	-14.1624 	5.1509e-19 21.724 	-14.2093 	4.87602e-19 21.6477 	-14.2384 	3.50328e-19 21.5704 	-14.2683 	2.10766e-19 21.4786 	-14.4149 	2.41274e-19 21.3879 	-14.5627 	2.70106e-19 21.2345 	-14.6672 	1.88688e-19 21.0344 	-14.7395 	2.41139e-20 20.8547 	-14.8057 	-1.26257e-19 20.822 	-14.8554 	-1.65172e-19 20.7894 	-14.9054 	-2.04277e-19 20.7416 	-14.9438 	-2.04198e-19 20.6725 	-14.9661 	-1.49519e-19 20.6024 	-14.989 	-9.40477e-20 20.4973 	-15.1351 	-7.23079e-20 20.3933 	-15.2827 	-5.09631e-20 20.2263 	-15.3836 	-1.96997e-20 20.0083 	-15.4468 	1.95463e-20 19.8119 	-15.5052 	5.47285e-20 19.778 	-15.5498 	7.1438e-20 19.7444 	-15.5945 	8.81308e-20 19.6965 	-15.6274 	1.00311e-19 19.6304 	-15.645 	1.0671e-19 19.5633 	-15.6632 	1.13199e-19 19.4454 	-15.8035 	7.33004e-20 19.3287 	-15.9454 	3.35076e-20 19.1515 	-16.0393 	-1.13859e-19 18.9211 	-16.0911 	-3.56056e-19 18.7124 	-16.1397 	-5.76626e-19 18.6747 	-16.1817 	-7.29335e-19 18.6372 	-16.2239 	-8.82286e-19 18.5859 	-16.2535 	-9.4028e-19 18.5182 	-16.268 	-8.85677e-19 18.4493 	-16.2829 	-8.30165e-19 18.3196 	-16.4117 	-1.21985e-18 18.191 	-16.5422 	-1.60776e-18 18.0074 	-16.6261 	-1.61749e-18 17.7708 	-16.6651 	-1.26272e-18 17.5549 	-16.7026 	-9.35187e-19 17.5097 	-16.7443 	-8.64562e-19 17.4646 	-16.7862 	-7.9379e-19 17.4056 	-16.8139 	-7.42283e-19 17.3312 	-16.8258 	-7.11832e-19 17.2552 	-16.8383 	-6.80498e-19 17.1157 	-16.9506 	-1.15679e-18 16.9771 	-17.0647 	-1.62756e-18 16.7917 	-17.1359 	-1.53962e-18 16.5561 	-17.1611 	-8.55328e-19 16.3393 	-17.1863 	-2.17151e-19 16.2817 	-17.2289 	-7.95002e-20 16.2242 	-17.272 	5.86544e-20 16.1519 	-17.298 	7.66437e-20 16.0648 	-17.307 	-2.52847e-20 15.975 	-17.3168 	-1.29936e-19 15.83 	-17.4078 	-4.23245e-20 15.6858 	-17.5008 	4.59444e-20 15.5043 	-17.5565 	9.16281e-20 15.2775 	-17.5667 	8.56567e-20 15.0666 	-17.5781 	8.07686e-20 14.9896 	-17.621 	3.86716e-20 14.9128 	-17.6645 	-3.38778e-21 14.8199 	-17.6872 	-5.75753e-21 14.7123 	-17.691 	2.7551e-20 14.6004 	-17.6957 	6.23407e-20 14.4559 	-17.7609 	3.30248e-19 14.312 	-17.8279 	5.96527e-19 14.1415 	-17.8652 	6.32165e-19 13.933 	-17.8596 	3.41585e-19 13.7369 	-17.8563 	6.61514e-20 13.6309 	-17.8953 	2.48641e-20 13.5253 	-17.9353 	-1.63317e-20 13.4022 	-17.9495 	-5.57779e-21 13.2652 	-17.9434 	4.64174e-20 13.1199 	-17.9381 	1.01737e-19 12.9862 	-17.9748 	-1.52857e-19 12.8529 	-18.013 	-4.04857e-19 12.7031 	-18.0305 	-4.10333e-19 12.524 	-18.0109 	1.20791e-20 12.3532 	-17.9937 	4.17714e-19 12.206 	-18.019 	9.13695e-19 12.0594 	-18.0462 	1.41162e-18 11.8928 	-18.0406 	1.33038e-18 11.7129 	-18.0134 	8.55109e-19 11.5167 	-17.9857 	3.39e-19 11.4071 	-17.9959 	4.10132e-19 11.2978 	-18.0072 	4.80466e-19 11.1793 	-18.0064 	4.85713e-19 11.0393 	-17.9763 	3.40813e-19 10.9038 	-17.9482 	1.99833e-19 10.6952 	-17.9383 	1.44841e-19 10.4875 	-17.9318 	8.95546e-20 10.2687 	-17.8817 	3.02187e-20 10.0441 	-17.8085 	-3.14912e-20 9.78814 	-17.7288 	-1.02354e-19 9.71846 	-17.7215 	-3.10067e-19 9.64881 	-17.7147 	-5.16869e-19 9.57713 	-17.7024 	-6.31535e-19 9.49813 	-17.6699 	-4.22689e-19 9.42045 	-17.6384 	-2.16868e-19 9.15001 	-17.5617 	3.33649e-19 8.8802 	-17.4906 	8.87182e-19 8.6087 	-17.372 	9.26983e-19 8.33386 	-17.2379 	7.69379e-19 8.06348 	-17.1067 	5.32271e-19 8.02754 	-17.0941 	5.00462e-19 7.99164 	-17.0812 	4.69413e-19 7.95684 	-17.0598 	4.60267e-19 7.92204 	-17.0385 	4.51096e-19 7.88622 	-17.0166 	4.4163e-19 7.66111 	-16.8922 	2.85823e-19 7.43553 	-16.7713 	1.30387e-19 7.20947 	-16.654 	-2.46557e-20 6.99179 	-16.5066 	-2.28828e-20 6.78275 	-16.3654 	-8.45608e-21 6.55721 	-16.2125 	-1.35241e-19 6.33551 	-16.0575 	-2.23188e-19 6.13142 	-15.8829 	-1.4672e-19 5.92681 	-15.7115 	-7.19632e-20 5.67725 	-15.5071 	1.68126e-20 5.64949 	-15.4864 	1.38686e-20 5.62172 	-15.4658 	1.09272e-20 5.59393 	-15.4453 	7.98853e-21 5.56748 	-15.4234 	7.02081e-21 5.54185 	-15.4008 	7.11521e-21 5.30438 	-15.1616 	9.99627e-21 5.0638 	-14.9373 	2.03306e-20 4.82185 	-14.7179 	3.10737e-20 4.60592 	-14.5033 	4.405e-20 4.40188 	-14.3002 	5.73539e-20 4.15595 	-14.0143 	2.38048e-20 3.92047 	-13.7361 	0 3.71347 	-13.4696 	0 3.50473 	-13.2074 	0 3.30421 	-12.9836 	0 3.23294 	-12.8947 	0 3.17169 	-12.8088 	6.18985e-21 3.11413 	-12.7241 	1.4724e-20 3.05641 	-12.6399 	2.32391e-20 2.99106 	-12.5454 	3.28269e-20 2.84709 	-12.3488 	4.3541e-20 2.70201 	-12.1547 	5.44401e-20 2.55579 	-11.9634 	6.55335e-20 2.41344 	-11.7792 	6.57426e-20 2.29643 	-11.6212 	1.40299e-20 2.07862 	-11.2489 	3.80959e-20 1.87225 	-10.9267 	3.13474e-20 1.67335 	-10.643 	2.47978e-21 1.51358 	-10.4121 	-2.83102e-20 1.36327 	-10.2017 	-5.85279e-20 1.14092 	-9.8122 	-3.63262e-20 0.914465 	-9.43156 	-1.35465e-20 0.750425 	-9.14852 	2.45793e-20 0.652765 	-8.97475 	5.39143e-20 0.555241 	-8.81028 	8.14553e-20 0.389839 	-8.45979 	7.21776e-20 0.221372 	-8.12045 	6.04628e-20 0.112376 	-7.88249 	2.11771e-21 0.108213 	-7.80986 	-1.04499e-22 0.108009 	-7.74386 	-2.12148e-22 0.0957292 	-7.53801 	-9.98849e-23 0.0945953 	-7.34462 	0 0.185885 	-7.24533 	0 0.39221 	-7.22818 	1.54298e-20 0.617617 	-7.20248 	3.25205e-20 0.914136 	-7.09462 	1.20015e-20 1.25782 	-6.96658 	5.06175e-21 1.66565 	-6.81745 	1.71144e-20 2.0796 	-6.62384 	2.9824e-20 2.54932 	-6.32309 	4.4378e-20 2.65467 	-6.25609 	4.35499e-20 2.75925 	-6.1877 	4.2963e-20 2.86202 	-6.11899 	4.29672e-20 2.96448 	-6.04841 	4.30352e-20 3.02809 	-6.00328 	4.31179e-20 3.52215 	-5.73266 	7.40222e-20 4.00757 	-5.43585 	1.11217e-19 4.48264 	-5.12132 	1.45255e-19 4.959 	-4.8459 	9.90536e-20 5.72488 	-4.35791 	2.83365e-20 5.80122 	-4.3025 	2.28855e-20 5.87683 	-4.24685 	1.75401e-20 5.95172 	-4.19096 	1.23e-20 6.00596 	-4.11012 	1.57947e-20 6.05074 	-4.0315 	2.07557e-20 6.58892 	-3.92334 	-5.76563e-20 6.99961 	-3.70237 	-1.02