# vtk DataFile Version 2.0
track0
ASCII
DATASET POLYDATA
POINTS 10945 double
-0.0205 0.001 1e-05
-0.0202034 0.00100003 1e-05
-0.0199069 0.00100026 1e-05
-0.0196103 0.00100071 1e-05
-0.0193137 0.00100137 1e-05
-0.0190172 0.00100225 1e-05
-0.0187132 0.00100354 1e-05
-0.0184093 0.00100451 1e-05
-0.0181054 0.00100548 1e-05
-0.0178015 0.00100645 1e-05
-0.0174976 0.00100742 1e-05
-0.0172058 0.00100865 1e-05
-0.016914 0.00100942 1e-05
-0.0166222 0.00101013 1e-05
-0.0163305 0.00101079 1e-05
-0.0160387 0.0010114 1e-05
-0.0157586 0.00101224 1e-05
-0.0154784 0.00101266 1e-05
-0.0151983 0.00101303 1e-05
-0.0149182 0.00101336 1e-05
-0.0146381 0.00101364 1e-05
-0.0143692 0.0010142 1e-05
-0.0141002 0.00101435 1e-05
-0.0138313 0.00101447 1e-05
-0.0135624 0.00101455 1e-05
-0.0132934 0.0010146 1e-05
-0.0130353 0.00101495 1e-05
-0.0127771 0.00101491 1e-05
-0.0125189 0.00101484 1e-05
-0.0122607 0.00101474 1e-05
-0.0120025 0.00101461 1e-05
-0.0117547 0.00101483 1e-05
-0.0115068 0.00101464 1e-05
-0.0112589 0.00101443 1e-05
-0.0110111 0.0010142 1e-05
-0.0107632 0.00101394 1e-05
-0.0105252 0.00101407 1e-05
-0.0102873 0.00101377 1e-05
-0.0100493 0.00101345 1e-05
-0.00981133 0.00101311 1e-05
-0.00957337 0.00101275 1e-05
-0.00934491 0.00101284 1e-05
-0.00911645 0.00101245 1e-05
-0.008888 0.00101204 1e-05
-0.00865954 0.00101161 1e-05
-0.00843108 0.00101117 1e-05
-0.00821175 0.00101122 1e-05
-0.00799242 0.00101075 1e-05
-0.00777309 0.00101026 1e-05
-0.00755376 0.00100976 1e-05
-0.00733443 0.00100923 1e-05
-0.00712387 0.00100926 1e-05
-0.0069133 0.00100872 1e-05
-0.00670273 0.00100816 1e-05
-0.00649217 0.00100759 1e-05
-0.0062816 0.00100699 1e-05
-0.00607944 0.00100701 1e-05
-0.00587729 0.0010064 1e-05
-0.00567514 0.00100577 1e-05
-0.00547299 0.00100513 1e-05
-0.00527083 0.00100446 1e-05
-0.00507675 0.00100448 1e-05
-0.00488268 0.0010038 1e-05
-0.0046886 0.0010031 1e-05
-0.00449452 0.00100238 1e-05
-0.00430044 0.00100164 1e-05
-0.00411412 0.00100165 1e-05
-0.0039278 0.00100091 1e-05
-0.00374148 0.00100013 1e-05
-0.00355516 0.000999338 1e-05
-0.00336883 0.000998518 1e-05
-0.00318995 0.000998519 1e-05
-0.00301107 0.000997689 1e-05
-0.00283219 0.000996832 1e-05
-0.00265332 0.000995945 1e-05
-0.00247443 0.000995029 1e-05
-0.0023027 0.000995005 1e-05
-0.00213097 0.000994073 1e-05
-0.00195924 0.000993106 1e-05
-0.00178751 0.000992103 1e-05
-0.00161577 0.000991064 1e-05
-0.0014509 0.000990992 1e-05
-0.00128603 0.000989925 1e-05
-0.00112117 0.000988805 1e-05
-0.000956301 0.000987633 1e-05
-0.000791418 0.000986407 1e-05
-0.000633135 0.000986223 1e-05
-0.000474856 0.000984921 1e-05
-0.000316578 0.000983556 1e-05
-0.000158301 0.000982129 1e-05
0 0.000980636 1e-05
0.000105677 0.000980406 1e-05
0.00021135 0.000979331 1e-05
0.000317022 0.000978218 1e-05
0.000422693 0.000977066 1e-05
0.000528387 0.000975876 1e-05
0.000634886 0.000975622 1e-05
0.000741379 0.000974402 1e-05
0.000847871 0.000973162 1e-05
0.000954363 0.0009719 1e-05
0.00106088 0.000970616 1e-05
0.00116821 0.00097042 1e-05
0.00127553 0.000969163 1e-05
0.00138285 0.000967898 1e-05
0.00149017 0.000966623 1e-05
0.00159752 0.000965383 1e-05
0.00170568 0.000965291 1e-05
0.00181384 0.000964174 1e-05
0.00192199 0.000962963 1e-05
0.00203014 0.000961751 1e-05
0.00213833 0.000960724 1e-05
0.00224733 0.000960763 1e-05
0.00235633 0.000959869 1e-05
0.00246532 0.000958762 1e-05
0.00257432 0.000957656 1e-05
0.00268334 0.000956846 1e-05
0.00279319 0.000957015 1e-05
0.00290304 0.00095633 1e-05
0.00301288 0.000955342 1e-05
0.00312273 0.000954354 1e-05
0.00323259 0.000953741 1e-05
0.00334329 0.000954023 1e-05
0.00345399 0.000953525 1e-05
0.0035647 0.000952657 1e-05
0.0036754 0.000951789 1e-05
0.00378611 0.00095135 1e-05
0.00389767 0.000951731 1e-05
0.00400924 0.000951394 1e-05
0.0041208 0.000950643 1e-05
0.00423236 0.00094989 1e-05
0.00434393 0.000949602 1e-05
0.00445636 0.000950067 1e-05
0.0045688 0.00094987 1e-05
0.00468123 0.000949226 1e-05
0.00479366 0.000948579 1e-05
0.00490609 0.000948421 1e-05
0.0050194 0.000948956 1e-05
0.0051327 0.000948879 1e-05
0.00524601 0.000948333 1e-05
0.00535932 0.000947784 1e-05
0.00547262 0.000947738 1e-05
0.00558681 0.000948333 1e-05
0.005701 0.000948359 1e-05
0.00581518 0.000947904 1e-05
0.00592937 0.000947446 1e-05
0.00604356 0.000947499 1e-05
0.00615863 0.000948145 1e-05
0.00627371 0.000948263 1e-05
0.00638878 0.000947893 1e-05
0.00650386 0.000947519 1e-05
0.00661893 0.000947659 1e-05
0.0067349 0.000948352 1e-05
0.00685087 0.000948552 1e-05
0.00696684 0.000948263 1e-05
0.00708281 0.000947979 1e-05
0.00719878 0.000948198 1e-05
0.00731565 0.000948933 1e-05
0.00743252 0.000949208 1e-05
0.0075494 0.000949026 1e-05
0.00766627 0.000948848 1e-05
0.00778313 0.000949141 1e-05
0.00790091 0.000949917 1e-05
0.0080187 0.000950262 1e-05
0.00813648 0.000950179 1e-05
0.00825426 0.0009501 1e-05
0.00837203 0.000950461 1e-05
0.00849073 0.000951277 1e-05
0.00860943 0.000951687 1e-05
0.00872813 0.000951696 1e-05
0.00884682 0.000951709 1e-05
0.00896551 0.000952135 1e-05
0.00908513 0.000952989 1e-05
0.00920475 0.000953461 1e-05
0.00932437 0.000953555 1e-05
0.00944399 0.000953652 1e-05
0.0095636 0.000954138 1e-05
0.00968415 0.000955027 1e-05
0.0098047 0.000955555 1e-05
0.00992525 0.000955726 1e-05
0.0100458 0.0009559 1e-05
0.0101663 0.00095644 1e-05
0.0102878 0.000957359 1e-05
0.0104093 0.000957937 1e-05
0.0105308 0.000958176 1e-05
0.0106523 0.000958416 1e-05
0.0107738 0.000959001 1e-05
0.0108962 0.000959943 1e-05
0.0110186 0.000960561 1e-05
0.0111411 0.000960857 1e-05
0.0112635 0.000961152 1e-05
0.0113859 0.000961771 1e-05
0.0115093 0.000962727 1e-05
0.0116327 0.000963373 1e-05
0.0117561 0.000963711 1e-05
0.0118795 0.000964047 1e-05
0.0120028 0.000964687 1e-05
0.0121272 0.000965644 1e-05
0.0122515 0.000966304 1e-05
0.0123759 0.00096667 1e-05
0.0125002 0.00096703 1e-05
0.0126245 0.000967675 1e-05
0.0127498 0.000968618 1e-05
0.0128752 0.000969275 1e-05
0.0130005 0.00096965 1e-05
0.0131258 0.000970015 1e-05
0.0132511 0.000970647 1e-05
0.0133774 0.000971558 1e-05
0.0135036 0.000972193 1e-05
0.0136299 0.000972554 1e-05
0.0137562 0.000972902 1e-05
0.0138825 0.000973498 1e-05
0.0140098 0.000974352 1e-05
0.014137 0.000974939 1e-05
0.0142643 0.000975261 1e-05
0.0143916 0.000975563 1e-05
0.0145188 0.000976095 1e-05
0.0146471 0.000976864 1e-05
0.0147753 0.000977373 1e-05
0.0149036 0.000977623 1e-05
0.0150318 0.000977848 1e-05
0.0151601 0.000978281 1e-05
0.0152893 0.00097893 1e-05
0.0154186 0.000979325 1e-05
0.0155478 0.000979468 1e-05
0.0156771 0.000979577 1e-05
0.0158063 0.000979873 1e-05
0.0159366 0.000980362 1e-05
0.0160668 0.000980601 1e-05
0.0161971 0.000980593 1e-05
0.0163274 0.000980545 1e-05
0.0164576 0.00098066 1e-05
0.0165889 0.000980943 1e-05
0.0167201 0.000980981 1e-05
0.0168514 0.000980778 1e-05
0.0169827 0.000980526 1e-05
0.0171139 0.000980413 1e-05
0.0172462 0.000980443 1e-05
0.0173785 0.000980234 1e-05
0.0175108 0.000979788 1e-05
0.0176431 0.000979284 1e-05
0.0177754 0.000978895 1e-05
0.0179087 0.00097862 1e-05
0.018042 0.00097811 1e-05
0.0181753 0.000977368 1e-05
0.0183087 0.000976558 1e-05
0.018442 0.000975836 1e-05
0.0185763 0.0009752 1e-05
0.0187107 0.000974333 1e-05
0.018845 0.000973246 1e-05
0.0189794 0.000972084 1e-05
0.0191137 0.000970972 1e-05
0.0192491 0.000969915 1e-05
0.0193845 0.00096863 1e-05
0.0195199 0.000967145 1e-05
0.0196553 0.000965575 1e-05
0.0197907 0.000964011 1e-05
0.0199272 0.000962471 1e-05
0.0200636 0.000960705 1e-05
0.0202001 0.00095876 1e-05
0.0203365 0.000956716 1e-05
0.020473 0.000954636 1e-05
0.0206105 0.000952547 1e-05
0.020748 0.000950236 1e-05
0.0208855 0.00094776 1e-05
0.021023 0.000945174 1e-05
0.0211606 0.000942511 1e-05
0.0212991 0.000939806 1e-05
0.0214377 0.000936879 1e-05
0.0215763 0.000933802 1e-05
0.0217149 0.0009306 1e-05
0.0218535 0.000927284 1e-05
0.0219931 0.000923895 1e-05
0.0221328 0.000920283 1e-05
0.0222724 0.00091653 1e-05
0.0224121 0.000912639 1e-05
0.0225517 0.000908609 1e-05
0.0226925 0.000904463 1e-05
0.0228332 0.000900109 1e-05
0.022974 0.000895603 1e-05
0.0231147 0.000890944 1e-05
0.0232555 0.00088613 1e-05
0.0233973 0.000881153 1e-05
0.0235391 0.000875981 1e-05
0.023681 0.000870641 1e-05
0.0238228 0.000865134 1e-05
0.0239647 0.000859457 1e-05
0.0240182 0.000857256 1e-05
0.0240717 0.000855026 1e-05
0.0241252 0.000852771 1e-05
0.0241787 0.00085049 1e-05
0.024227 0.000848408 1e-05
0.0243174 0.000844469 1e-05
0.0244079 0.000840458 1e-05
0.0244984 0.000836373 1e-05
0.0245889 0.000832217 1e-05
0.0246794 0.000827986 1e-05
0.0248234 0.000821131 1e-05
0.0249675 0.000814085 1e-05
0.0251115 0.000806843 1e-05
0.0252555 0.000799404 1e-05
0.0253996 0.000791763 1e-05
0.0255448 0.00078386 1e-05
0.02569 0.000775754 1e-05
0.0258351 0.000767436 1e-05
0.0259802 0.000758904 1e-05
0.0261255 0.000750152 1e-05
0.0262718 0.000741118 1e-05
0.0264181 0.000731861 1e-05
0.0265644 0.000722379 1e-05
0.0267106 0.000712667 1e-05
0.026857 0.000702718 1e-05
0.0270044 0.000692469 1e-05
0.0271519 0.000681975 1e-05
0.0272993 0.000671239 1e-05
0.0274466 0.000660258 1e-05
0.0275942 0.000649025 1e-05
0.0277428 0.00063747 1e-05
0.0278913 0.000625649 1e-05
0.0280399 0.000613563 1e-05
0.0281884 0.000601223 1e-05
0.0283371 0.000588611 1e-05
0.0284869 0.000575653 1e-05
0.0286366 0.000562408 1e-05
0.0287863 0.000548883 1e-05
0.0289359 0.000535086 1e-05
0.0290858 0.000520993 1e-05
0.0292367 0.000506527 1e-05
0.0293876 0.000491754 1e-05
0.0295384 0.000476688 1e-05
0.0296893 0.000461326 1e-05
0.0298403 0.000445638 1e-05
0.0298576 0.000443815 1e-05
0.0298748 0.000441987 1e-05
0.029892 0.000440155 1e-05
0.0299093 0.000438319 1e-05
0.0299261 0.000436518 1e-05
0.030061 0.000422077 1e-05
0.0301959 0.000407387 1e-05
0.0303308 0.000392447 1e-05
0.0304656 0.000377256 1e-05
0.0306007 0.000361784 1e-05
0.030754 0.000343943 1e-05
0.0309072 0.00032576 1e-05
0.0310604 0.000307231 1e-05
0.0312135 0.000288354 1e-05
0.031367 0.000269081 1e-05
0.0315215 0.000249336 1e-05
0.0316759 0.000229212 1e-05
0.0318302 0.000208711 1e-05
0.0319845 0.000187832 1e-05
0.0321393 0.000166505 1e-05
[...]
POINT_DATA 10945
 FIELD attributes 1
U 3 10945 float
10.0021 	0.000982854 	0 10.0076 	0.00794201 	0 10.013 	0.015143 	0 10.0184 	0.0223572 	0 10.0238 	0.0295846 	0 10.0305 	0.042646 	0 10.0338 	0.0319938 	0 10.037 	0.0320271 	0 10.0401 	0.0320605 	0 10.0433 	0.0320941 	0 10.046 	0.0421149 	0 10.0439 	0.0265907 	0 10.0429 	0.0246515 	0 10.0419 	0.0226864 	0 10.0408 	0.020695 	0 10.0398 	0.030353 	0 10.0363 	0.0148709 	0 10.0339 	0.0133057 	0 10.0316 	0.0117132 	0 10.0292 	0.0100932 	0 10.0272 	0.0208915 	0 10.0238 	0.00561431 	0 10.0214 	0.00436503 	0 10.019 	0.00309008 	0 10.0166 	0.00178893 	0 10.0145 	0.0138694 	0 10.0112 	-0.00171365 	0 10.0087 	-0.00275484 	0 10.0062 	-0.0038199 	0 10.0037 	-0.00490939 	0 10.0014 	0.00885761 	0 9.9982 	-0.00768679 	0 9.99559 	-0.00855714 	0 9.99298 	-0.00944882 	0 9.99036 	-0.0103624 	0 9.98779 	0.00561824 	0 9.98485 	-0.0126297 	0 9.98225 	-0.0134149 	0 9.97964 	-0.0142201 	0 9.97702 	-0.0150459 	0 9.97424 	0.00359878 	0 9.9716 	-0.017029 	0 9.96903 	-0.0178087 	0 9.96646 	-0.0186086 	0 9.96388 	-0.0194294 	0 9.96085 	0.00230368 	0 9.95855 	-0.0212797 	0 9.95601 	-0.0220898 	0 9.95347 	-0.022921 	0 9.95092 	-0.023774 	0 9.94755 	0.00149931 	0 9.94568 	-0.0255486 	0 9.94319 	-0.0264042 	0 9.9407 	-0.027282 	0 9.93821 	-0.0281828 	0 9.93447 	0.00107169 	0 9.93312 	-0.0299296 	0 9.93071 	-0.0308568 	0 9.9283 	-0.0318079 	0 9.92587 	-0.0327835 	0 9.92168 	0.000860925 	0 9.92096 	-0.0345779 	0 9.91865 	-0.0356301 	0 9.91634 	-0.0367091 	0 9.91401 	-0.0378154 	0 9.90931 	0.00059381 	0 9.90935 	-0.0397984 	0 9.90713 	-0.041032 	0 9.90491 	-0.0422962 	0 9.90267 	-0.0435917 	0 9.8973 	2.10172e-05 	0 9.89816 	-0.0458997 	0 9.89604 	-0.0474423 	0 9.8939 	-0.0490222 	0 9.89176 	-0.0506403 	0 9.88564 	-0.00140663 	0 9.8875 	-0.0536843 	0 9.88543 	-0.0556725 	0 9.88335 	-0.0577076 	0 9.88126 	-0.0597906 	0 9.87411 	-0.00426312 	0 9.8768 	-0.0639698 	0 9.8743 	-0.0670422 	0 9.87178 	-0.0701845 	0 9.86924 	-0.0733985 	0 9.86015 	-0.0114383 	0 9.86242 	-0.0811606 	-2.24925e-23 9.85924 	-0.0849896 	-7.20456e-23 9.85603 	-0.088906 	-1.21556e-22 9.85279 	-0.0929119 	-1.71022e-22 9.84233 	-0.0213664 	-1.7238e-22 9.84486 	-0.100177 	2.07459e-21 9.84124 	-0.103664 	2.6137e-21 9.8376 	-0.107206 	3.15429e-21 9.83395 	-0.110803 	3.6964e-21 9.82101 	-0.023363 	1.26104e-21 9.82672 	-0.112568 	2.0171e-21 9.82294 	-0.114444 	2.06853e-21 9.81916 	-0.116349 	2.11994e-21 9.81536 	-0.118284 	2.17135e-21 9.79759 	-0.0179345 	1.53935e-21 9.80918 	-0.114836 	1.38087e-21 9.80553 	-0.115628 	9.1467e-22 9.80189 	-0.116431 	4.4841e-22 9.79746 	-0.113188 	2.40957e-23 9.7735 	-0.00825322 	6.51519e-22 9.79091 	-0.101191 	5.3099e-23 9.7894 	-0.109569 	1.21662e-21 9.78605 	-0.109705 	2.55183e-21 9.77819 	-0.0928241 	3.85721e-21 9.74943 	0.00352998 	5.02758e-21 9.77175 	-0.0801743 	9.13919e-21 9.77445 	-0.0992527 	9.621e-21 9.77138 	-0.0991535 	9.02694e-21 9.75892 	-0.0725131 	7.03894e-21 9.72523 	0.0149362 	1.86176e-21 9.75222 	-0.0607953 	1.64341e-21 9.75984 	-0.0878007 	6.72886e-22 9.75683 	-0.0877237 	-7.1304e-22 9.73857 	-0.054381 	-2.01255e-21 9.69968 	0.0247633 	-3.19439e-21 9.73085 	-0.0438314 	-1.02724e-20 9.74379 	-0.0763742 	-1.33894e-20 9.7406 	-0.0763575 	-1.29309e-20 9.71563 	-0.0385609 	-8.51564e-21 9.67163 	0.033034 	-5.60983e-22 9.70656 	-0.0292583 	7.04315e-21 9.72516 	-0.0655226 	1.17667e-20 9.72165 	-0.0655893 	1.24887e-20 9.68947 	-0.0250126 	8.65266e-21 9.64067 	0.0398379 	2.09865e-21 9.67898 	-0.0169461 	1.34718e-21 9.70342 	-0.0556008 	1.08853e-21 9.69952 	-0.0557537 	1.87847e-21 9.65988 	-0.0135788 	2.99715e-21 9.60669 	0.0453393 	4.25462e-21 9.64797 	-0.00659168 	5.37845e-21 9.67831 	-0.0466349 	6.11022e-21 9.67395 	-0.0468408 	5.56024e-21 9.62685 	-0.00389108 	4.0499e-21 9.56974 	0.0498317 	2.30637e-21 9.61356 	0.00221941 	1.61608e-21 9.64972 	-0.0384583 	9.0399e-22 9.64489 	-0.0386928 	9.79115e-23 9.59055 	0.00441525 	-1.24716e-22 9.53005 	0.0535509 	-2.65756e-22 9.57599 	0.00980063 	-1.27653e-22 9.61775 	-0.0309489 	0 9.61247 	-0.0311937 	0 9.55129 	0.011619 	-1.3493e-22 9.48795 	0.0566867 	-2.75891e-22 9.5356 	0.0164126 	-1.37646e-22 9.58254 	-0.0238993 	-2.77364e-25 9.57581 	-0.0234366 	2.54584e-23 9.50945 	0.0179796 	6.85048e-23 9.44385 	0.0594327 	1.11601e-22 9.49281 	0.0222994 	-5.10795e-22 9.54108 	-0.0148706 	-1.13325e-21 9.53365 	-0.0144795 	-1.16142e-21 9.46559 	0.0237106 	-6.54354e-22 9.39827 	0.0619356 	-1.46829e-22 9.44818 	0.0276328 	-8.39665e-22 9.49741 	-0.00670523 	-1.53297e-21 9.48942 	-0.00636553 	-1.38145e-21 9.42019 	0.028931 	-2.1283e-22 9.35169 	0.0642606 	9.54918e-22 9.40222 	0.0324999 	5.55354e-22 9.45209 	0.00070565 	1.56497e-22 9.44369 	0.0009982 	1.09402e-22 9.3738 	0.0336825 	1.98351e-22 9.30463 	0.0663978 	2.88382e-22 9.35551 	0.0369096 	1.95858e-22 9.40575 	0.00738953 	1.02327e-22 9.39707 	0.00762299 	-1.04383e-22 9.32699 	0.0379263 	-5.357e-22 9.25761 	0.0682587 	-9.64916e-22 9.3086 	0.0407937 	-5.41387e-22 9.35895 	0.0132988 	-1.19761e-22 9.35013 	0.0134501 	-4.32747e-22 9.28028 	0.0415631 	-1.03965e-21 9.21112 	0.0697029 	-1.64928e-21 9.26198 	0.0440353 	-1.03416e-21 9.31221 	0.0183396 	-4.16446e-22 9.30338 	0.0183796 	-1.37943e-21 9.23413 	0.0444604 	-3.94581e-21 9.16555 	0.070566 	-6.5145e-21 9.21607 	0.0464913 	-1.90713e-20 9.26598 	0.0223905 	-3.1626e-20 9.25724 	0.0222877 	-3.1279e-20 9.18893 	0.0464725 	-1.80806e-20 9.12126 	0.0706801 	-4.88333e-21 9.17125 	0.0480111 	-2.93043e-21 9.22064 	0.0253179 	-9.77628e-22 9.21208 	0.0250411 	0 9.14502 	0.0474504 	0 9.07857 	0.0698803 	0 9.12787 	0.0484514 	0 9.17657 	0.027 	0 9.16829 	0.0265194 	0 9.10277 	0.0472547 	0 9.03782 	0.0680085 	0 9.08626 	0.0476687 	0 9.13414 	0.0273082 	0 9.12623 	0.0265906 	1.8501e-21 9.06248 	0.0457302 	5.57778e-21 8.99929 	0.0648862 	9.30423e-21 9.04679 	0.0454649 	3.42429e-20 9.09373 	0.0260247 	5.91828e-20 9.08628 	0.0250111 	5.92803e-20 9.02454 	0.0425979 	3.43019e-20 8.96331 	0.0601989 	9.3246e-21 9.00979 	0.0415508 	5.60501e-21 9.05572 	0.0228857 	1.8864e-21 9.0488 	0.0215049 	1.81084e-21 8.9892 	0.0375329 	5.16398e-21 8.93007 	0.053573 	8.51034e-21 8.97545 	0.0355991 	2.82059e-20 9.02029 	0.0176101 	4.79091e-20 9.01396 	0.0158032 	4.66097e-20 8.9566 	0.030244 	2.44072e-20 8.89968 	0.0446948 	2.20361e-21 8.94387 	0.0273118 	-2.41909e-20 8.98753 	0.00991539 	-5.05827e-20 8.98182 	0.00762795 	-5.65138e-20 8.92679 	0.0204427 	-4.0438e-20 8.87215 	0.0332655 	-2.43554e-20 8.91506 	0.0163728 	-5.89394e-20 8.95746 	-0.000531275 	-9.35337e-20 8.95242 	-0.00333643 	-9.21551e-20 8.89974 	0.00786269 	-5.50856e-20 8.84741 	0.0190679 	-1.80133e-20 8.88895 	0.00262295 	-1.1034e-20 8.92998 	-0.0138316 	-4.06043e-21 8.92563 	-0.01717 	0 8.87533 	-0.00759319 	0 8.82531 	0.00198808 	0 8.86537 	-0.0140079 	0 8.90495 	-0.0300115 	0 8.90132 	-0.0339114 	1.32532e-21 8.85336 	-0.0260408 	2.88244e-21 8.80563 	-0.0181671 	4.43757e-21 8.8442 	-0.0338156 	2.94207e-21 8.88229 	-0.0494699 	1.45072e-21 8.87945 	-0.0539605 	1.47754e-21 8.83376 	-0.047786 	3.04112e-21 8.78825 	-0.0416097 	4.60322e-21 8.82531 	-0.0569725 	3.11303e-21 8.8595 	-0.0716986 	1.91149e-21 8.85624 	-0.0765774 	5.08965e-21 8.81646 	-0.0729658 	1.26539e-20 8.77305 	-0.0684832 	2.06677e-20 8.80855 	-0.0836037 	7.41176e-20 8.83636 	-0.0968868 	1.16981e-19 8.83349 	-0.10247 	1.15514e-19 8.80116 	-0.101667 	7.43987e-20 8.75971 	-0.0988713 	2.0919e-20 8.79356 	-0.113771 	1.29856e-20 8.8146 	-0.125692 	6.89696e-21 8.812 	-0.131997 	4.28252e-21 8.78752 	-0.133937 	4.29702e-21 8.74791 	-0.132846 	6.13517e-21 8.7801 	-0.147602 	4.4366e-21 8.79407 	-0.158319 	4.90192e-22 8.79162 	-0.16538 	-5.49136e-21 8.77537 	-0.169931 	-9.98667e-21 8.73744 	-0.170504 	-1.21194e-20 8.76795 	-0.185188 	-3.07446e-20 8.77449 	-0.194863 	-3.73265e-20 8.77206 	-0.202685 	-3.94625e-20 8.76445 	-0.209671 	-3.88063e-20 8.72801 	-0.211825 	-2.18844e-20 8.75681 	-0.226479 	2.92852e-20 8.75561 	-0.235295 	3.39054e-20 8.75307 	-0.243894 	3.6801e-20 8.75024 	-0.252481 	3.96095e-20 8.71947 	-0.256852 	1.88418e-21 8.73982 	-0.270357 	-3.35455e-21 8.73736 	-0.279772 	-6.59292e-21 8.7346 	-0.289175 	-9.83877e-21 8.73151 	-0.298565 	-1.30921e-20 8.71169 	-0.305683 	-1.44263e-20 8.72228 	-0.318091 	-1.81949e-20 8.71945 	-0.328279 	-2.39981e-20 8.71628 	-0.338454 	-2.98239e-20 8.71279 	-0.348615 	-3.56723e-20 8.70439 	-0.358191 	-4.44193e-20 8.7068 	-0.362844 	-4.99156e-20 8.70563 	-0.366947 	-4.38862e-20 8.7044 	-0.371048 	-3.78324e-20 8.70312 	-0.375146 	-3.17541e-20 8.70193 	-0.378845 	-2.62447e-20 8.69919 	-0.38571 	-1.69582e-20 8.6963 	-0.392568 	-7.61893e-21 8.69326 	-0.399419 	1.77311e-21 8.69008 	-0.406264 	1.1218e-20 8.68575 	-0.413311 	4.95457e-21 8.68446 	-0.424791 	2.43413e-21 8.67974 	-0.436431 	1.85411e-21 8.67465 	-0.448052 	1.27236e-21 8.66918 	-0.459654 	6.8889e-22 8.65985 	-0.471435 	5.88162e-22 8.66396 	-0.483812 	-4.02621e-22 8.65847 	-0.496228 	-5.56513e-21 8.65258 	-0.508623 	-1.0714e-20 8.64535 	-0.520957 	-1.58297e-20 8.6324 	-0.533045 	-2.08274e-20 8.6385 	-0.546617 	-1.46088e-20 8.63748 	-0.559955 	-8.36494e-21 8.63072 	-0.573104 	-2.09819e-21 8.61858 	-0.585727 	0 8.60353 	-0.598087 	0 8.60967 	-0.612822 	0 8.61538 	-0.627532 	0 8.60759 	-0.641301 	-2.34552e-21 8.59078 	-0.654035 	-4.79263e-21 8.57354 	-0.66676 	-7.23264e-21 8.5796 	-0.682644 	-2.98815e-20 8.58518 	-0.698501 	-5.25165e-20 8.58139 	-0.713015 	-5.74063e-20 8.56232 	-0.726155 	-4.31101e-20 8.54281 	-0.739288 	-2.879e-20 8.54855 	-0.756271 	-8.72117e-20 8.54865 	-0.772374 	-1.16595e-19 8.54255 	-0.787504 	-1.13734e-19 8.53363 	-0.802366 	-1.0255e-19 8.51178 	-0.815972 	-4.77816e-20 8.5149 	-0.833695 	-7.01772e-20 8.50767 	-0.849752 	-6.02118e-20 8.49994 	-0.865773 	-5.01602e-20 8.49171 	-0.881758 	-4.00222e-20 8.48101 	-0.897517 	-2.64748e-20 8.48116 	-0.899639 	-2.5915e-20 8.48019 	-0.901578 	-2.54154e-20 8.47921 	-0.903516 	-2.49161e-20 8.47822 	-0.905454 	-2.44171e-20 8.47725 	-0.907349 	-2.39291e-20 8.46862 	-0.922256 	-1.82217e-20 8.45958 	-0.937129 	-1.24999e-20 8.45012 	-0.951968 	-6.76376e-21 8.44025 	-0.966771 	-1.01316e-21 8.4222 	-0.980378 	0 8.42509 	-0.999861 	0 8.41479 	-1.0179 	0 8.40235 	-1.03572 	0 8.38278 	-1.05247 	0 8.35823 	-1.06854 	0 8.35928 	-1.08947 	0 8.35971 	-1.11034 	0 8.34694 	-1.12944 	0 8.32021 	-1.14666 	0 8.2928 	-1.16389 	0 8.29168 	-1.1865 	0 8.28384 	-1.20818 	0 8.2693 	-1.22891 	0 8.25406 	-1.24958 	0 8.22611 	-1.26853 	0 8.22436 	-1.27927 	0 8.21723 	-1.28928 	0 8.20962 	-1.29924 	0 8.20186 	-1.30919 	0 8.19462 	-1.3183 	0 8.18485 	-1.33093 	0 8.17485 	-1.34353 	0 8.16463 	-1.35611 	0 8.15343 	-1.36855 	-1.96693e-22 8.13511 	-1.38 	-2.20535e-21 8.13136 	-1.40726 	-2.71101e-22 8.11315 	-1.43194 	4.88036e-22 8.09198 	-1.45612 	1.05131e-21 8.05878 	-1.47864 	1.56618e-21 8.02119 	-1.50073 	2.06557e-21 8.0125 	-1.53032 	7.53145e-21 8.00292 	-1.55981 	1.29876e-20 7.97691 	-1.58777 	8.92957e-21 7.94139 	-1.61408 	2.7016e-21 7.89703 	-1.6391 	-5.4253e-21 7.88836 	-1.6573 	-5.48862e-21 7.87362 	-1.67555 	-5.91757e-21 7.85588 	-1.6938 	-6.51936e-21 7.8378 	-1.71202 	-7.12912e-21 7.82155 	-1.72805 	-7.67353e-21 7.80834 	-1.74237 	-9.12576e-21 7.79492 	-1.75667 	-1.05922e-20 7.78129 	-1.77094 	-1.20729e-20 7.76538 	-1.7852 	-1.07202e-20 7.74463 	-1.79957 	-3.17294e-21 7.7279 	-1.84043 	-3.49637e-21 7.69832 	-1.87758 	-2.15309e-21 7.66229 	-1.91299 	-3.92445e-23 7.60862 	-1.94641 	2.62821e-22 7.5526 	-1.98013 	5.21654e-22 7.52622 	-2.02438 	1.80125e-21 7.48742 	-2.06715 	2.31839e-21 7.43299 	-2.10805 	1.8562e-21 7.37691 	-2.14877 	1.38207e-21 7.31793 	-2.19 	8.81121e-22 7.31783 	-2.19009 	8.80894e-22 7.31773 	-2.1902 	8.81247e-22 7.31762 	-2.19033 	8.82567e-22 7.3175 	-2.19047 	8.83888e-22 7.31739 	-2.1906 	8.85207e-22 7.2641 	-2.24297 	9.08556e-22 7.20929 	-2.29498 	9.22128e-22 7.15296 	-2.34662 	9.25813e-22 7.08989 	-2.40718 	7.95304e-22 7.01921 	-2.47612 	5.53496e-22 6.97518 	-2.55934 	-6.10358e-21 6.92751 	-2.64701 	-1.10807e-20 6.87407 	-2.74702 	-1.16863e-20 6.81767 	-2.84662 	-1.2208e-20 6.7783 	-2.91235 	-1.24975e-20 6.77283 	-2.91877 	-1.28644e-20 6.76734 	-2.92518 	-1.32316e-20 6.76183 	-2.93158 	-1.35991e-20 6.75747 	-2.9407 	-1.33323e-20 6.75324 	-2.95025 	-1.2972e-20 6.72031 	-3.08029 	-1.64784e-20 6.6642 	-3.19054 	-1.83e-20 6.6025 	-3.29764 	-1.93703e-20 6.48486 	-3.35607 	-1.05125e-20 6.3566 	-3.41986 	-9.73584e-22 6.32672 	-3.45817 	-2.49272e-22 6.2966 	-3.49654 	4.78386e-22 6.23048 	-3.48736 	3.92483e-22 6.15789 	-3.46975 	1.63085e-22 6.09262 	-3.4539 	-4.26916e-23 6.04692 	-3.5259 	-2.89183e-22 6.00184 	-3.59971 	-5.31801e-22 5.94631 	-3.66142 	-1.29697e-21 5.82244 	-3.63811 	-5.33454e-21 5.69015 	-3.61393 	-9.6599e-21 5.59537 	-3.61708 	-1.92328e-20 5.50064 	-3.62095 	-2.87857e-20 5.38473 	-3.57687 	-2.64142e-20 5.2611 	-3.5154 	-1.96896e-20 5.1505 	-3.46057 	-1.36531e-20 5.09746 	-3.48025 	-1.11449e-20 5.0448 	-3.50098 	-8.61775e-21 4.98253 	-3.5044 	-7.24269e-21 4.89053 	-3.45341 	-9.37291e-21 4.79434 	-3.4003 	-1.15998e-20 4.64865 	-3.32694 	-8.31058e-21 4.5032 	-3.25447 	-5.0342e-21 4.37237 	-3.18235 	-4.12485e-21 4.24839 	-3.11065 	-4.31499e-21 4.13169 	-3.04362 	-4.50495e-21 4.08593 	-3.02494 	-7.87049e-21 4.04021 	-3.00646 	-1.12503e-20 3.99416 	-2.98324 	-1.22575e-20 3.9471 	-2.94662 	-6.7283e-21 3.89932 	-2.90943 	-1.11517e-21 3.75006 	-2.79021 	1.71677e-20 3.60072 	-2.67063 	3.54682e-20 3.47762 	-2.58889 	3.2425e-20 3.36532 	-2.5232 	2.066e-20 3.25277 	-2.45822 	8.7784e-21 3.24171 	-2.44821 	7.59311e-21 3.23064 	-2.4382 	6.40843e-21 3.21999 	-2.42865 	5.76508e-21 3.21099 	-2.42093 	7.2446e-21 3.20202 	-2.41323 	8.72097e-21 3.09082 	-2.31508 	2.13242e-20 2.98041 	-2.22346 	3.19564e-20 2.87932 	-2.15241 	3.44927e-20 2.79373 	-2.11106 	2.48625e-20 2.70886 	-2.07068 	1.53548e-20 2.69322 	-2.06323 	1.44841e-20 2.67758 	-2.05581 	1.36145e-20 2.66443 	-2.05129 	1.33329e-20 2.65203 	-2.04768 	1.32313e-20 2.63983 	-2.04416 	1.31329e-20 2.57868 	-1.99942 	1.47111e-20 2.51753 	-1.95472 	1.6294e-20 2.45823 	-1.91268 	1.57473e-20 2.40968 	-1.88571 	2.89413e-21 2.36077 	-1.85875 	-1.00369e-20 2.33193 	-1.84493 	-1.43787e-20 2.30309 	-1.83122 	-1.8719e-20 2.27925 	-1.82036 	-1.77785e-20 2.25649 	-1.8102 	-1.57026e-20 2.2344 	-1.80042 	-1.3686e-20 2.20909 	-1.78046 	-1.39856e-20 2.18379 	-1.7605 	-1.42854e-20 2.15901 	-1.74098 	-1.41871e-20 2.13885 	-1.72524 	-1.05967e-20 2.11867 	-1.70949 	-7.00286e-21 2.08593 	-1.68811 	-1.04656e-20 2.05318 	-1.6668 	-1.39202e-20 2.02665 	-1.64711 	-1.12174e-20 2.00091 	-1.62765 	-7.7234e-21 1.97556 	-1.6085 	-4.27989e-21 1.97133 	-1.60402 	-4.30653e-21 1.96709 	-1.59954 	-4.33323e-21 1.96287 	-1.59507 	-4.35622e-21 1.95926 	-1.59085 	-4.19911e-21 1.95566 	-1.58664 	-4.0425e-21 1.9333 	-1.56319 	4.2629e-21 1.91026 	-1.54015 	1.14496e-20 1.88757 	-1.51717 	1.43055e-20 1.86686 	-1.49358 	8.8218e-21 1.84645 	-1.47025 	3.39658e-21 1.84092 	-1.46426 	3.28786e-21 1.83539 	-1.45827 	3.17887e-21 1.83036 	-1.45167 	3.53017e-21 1.82535 	-1.44505 	3.88757e-21 1.8203 	-1.43836 	4.24744e-21 1.81056 	-1.42322 	3.51893e-21 1.80084 	-1.40804 	2.79253e-21 1.79115 	-1.39283 	2.0683e-21 1.78224 	-1.37789 	2.09498e-21 1.77362 	-1.36326 	2.2039e-21 1.76394 	-1.34401 	7.46027e-21 1.75442 	-1.32473 	1.14697e-20 1.74552 	-1.30554 	6.13545e-21 1.73671 	-1.28628 	8.26237e-22 1.7281 	-1.26768 	-4.6065e-21 1.72798 	-1.26736 	-4.75345e-21 1.72786 	-1.26704 	-4.86179e-21 1.72774 	-1.26673 	-4.77532e-21 1.72762 	-1.26642 	-4.68886e-21 1.7275 	-1.2661 	-4.60231e-21 1.72081 	-1.24835 	-3.07304e-21 1.7142 	-1.23056 	-1.54343e-21 1.70768 	-1.21274 	-1.35281e-23 1.70301 	-1.1931 	-1.25228e-21 1.69882 	-1.17392 	-2.77476e-21 1.69618 	-1.16301 	2.82413e-21 1.69381 	-1.15182 	7.2153e-21 1.69266 	-1.13926 	5.54176e-21 1.69155 	-1.1267 	3.89547e-21 1.69045 	-1.11336 	2.17639e-21 1.69003 	-1.10841 	1.5327e-21 1.68962 	-1.10347 	8.93242e-22 1.68922 	-1.09853 	2.58037e-22 1.68911 	-1.09384 	1.89189e-21 1.68911 	-1.08929 	4.15783e-21 1.68992 	-1.07231 	1.10863e-20 1.6906 	-1.05554 	1.6414e-20 1.69132 	-1.03938 	1.67195e-20 1.69309 	-1.02418 	8.13263e-21 1.69488 	-1.00968 	-1.01993e-22 1.69665 	-0.999861 	-5.74839e-21 1.69867 	-0.990311 	-9.01475e-21 1.70118 	-0.981334 	-7.17837e-21 1.70375 	-0.972363 	-5.36399e-21 1.70657 	-0.962645 	-3.42133e-21 1.70791 	-0.957777 	-2.04398e-21 1.70926 	-0.952913 	-6.74955e-22 1.71062 	-0.948051 	6.85712e-22 1.71171 	-0.942553 	-5.50229e-22 1.71262 	-0.936747 	-3.35711e-21 1.7191 	-0.92492 	-2.48252e-21 1.72499 	-0.912583 	-1.98287e-21 1.73003 	-0.899295 	-2.3091e-21 1.73356 	-0.88335 	-5.44249e-21 1.73706 	-0.868048 	-8.4825e-21 1.74415 	-0.858817 	-2.32904e-20 1.75029 	-0.848252 	-2.73416e-20 1.75546 	-0.836318 	-2.03559e-20 1.76073 	-0.824442 	-1.34691e-20 1.76683 	-0.811014 	-5.75789e-21 1.76726 	-0.810061 	-5.36471e-21 1.7677 	-0.809108 	-4.972e-21 1.76813 	-0.808156 	-4.57976e-21 1.76836 	-0.807321 	-4.6547e-21 1.76831 	-0.80665 	-5.38307e-21 1.77542 	-0.793878 	-3.32082e-21 1.78187 	-0.781579 	-8.43829e-22 1.78843 	-0.769357 	1.6431e-21 1.7914 	-0.759267 	2.1249e-21 1.79093 	-0.751452 	7.30308e-22 1.8015 	-0.738439 	2.24022e-23 1.81226 	-0.725489 	-6.60681e-22 1.81683 	-0.716033 	-1.8375e-21 1.81719 	-0.708846 	-2.55758e-21 1.81693 	-0.702232 	-3.12833e-21 1.82486 	-0.693745 	-5.01403e-21 1.82883 	-0.687416 	-5.08146e-21 1.83135 	-0.681897 	-4.47084e-21 1.83393 	-0.676391 	-3.8552e-21 1.83688 	-0.670248 	-3.16078e-21 1.83797 	-0.668003 	-2.56145e-21 1.83907 	-0.66576 	-1.96254e-21 1.84017 	-0.663521 	-1.36406e-21 1.84072 	-0.661037 	-7.22054e-22 1.83921 	-0.657664 	7.8078e-23 1.84603 	-0.651893 	-1.25811e-20 1.8499 	-0.644605 	-1.84459e-20 1.85388 	-0.637347 	-2.42656e-20 1.8528 	-0.62785 	-1.78414e-20 1.84752 	-0.616612 	-1.20628e-21 1.85636 	-0.612464 	-1.55815e-20 1.8653 	-0.608356 	-2.99898e-20 1.86693 	-0.600912 	-3.04138e-20 1.86158 	-0.590064 	-1.59406e-20 1.85642 	-0.579384 	-1.62971e-21 1.86561 	-0.575957 	-1.48721e-20 1.86722 	-0.569094 	-1.66725e-20 1.86695 	-0.561363 	-1.54946e-20 1.86682 	-0.553683 	-1.43684e-20 1.86561 	-0.545492 	-1.01483e-20 1.86688 	-0.54512 	-8.08735e-21 1.86691 	-0.544181 	-8.70586e-21 1.86688 	-0.543215 	-9.46012e-21 1.86685 	-0.54225 	-1.02132e-20 1.86682 	-0.54127 	-1.09765e-20 1.86672 	-0.534951 	-1.42267e-20 1.86672 	-0.528669 	-1.74427e-20 1.86682 	-0.522425 	-2.06246e-20 1.86679 	-0.516429 	-2.31566e-20 1.85953 	-0.516767 	-7.29753e-21 1.86409 	-0.505541 	-5.81233e-21 1.86654 	-0.496607 	-4.51846e-21 1.86688 	-0.48988 	-3.40495e-21 1.85966 	-0.48993 	-4.38012e-21 1.85155 	-0.490784 	-5.59156e-21 1.85617 	-0.479819 	-2.18646e-20 1.86109 	-0.468897 	-3.81801e-20 1.85906 	-0.464538 	-4.19826e-20 1.85145 	-0.465538 	-2.86192e-20 1.84357 	-0.4668 	-1.44064e-20 1.84821 	-0.456052 	-3.21896e-20 1.84654 	-0.451464 	-3.16688e-20 1.84329 	-0.448439 	-2.65135e-20 1.84011 	-0.445416 	-2.13709e-20 1.83494 	-0.444472 	-1.06335e-20 1.83615 	-0.441454 	-1.05689e-20 1.83512 	-0.440602 	-8.10462e-21 1.8341 	-0.439751 	-5.64039e-21 1.83308 	-0.4389 	-3.17624e-21 1.83203 	-0.438017 	-6.19423e-22 1.82974 	-0.436044 	4.20504e-21 1.82747 	-0.434072 	9.03177e-21 1.82524 	-0.432102 	1.38608e-20 1.82303 	-0.430132 	1.86921e-20 1.81746 	-0.422503 	1.90815e-20 1.81713 	-0.425799 	1.56299e-20 1.81372 	-0.423149 	1.51551e-20 1.81036 	-0.420501 	1.46924e-20 1.80426 	-0.412975 	1.33557e-20 1.79593 	-0.401252 	1.12954e-20 1.7957 	-0.404941 	-1.62726e-20 1.79534 	-0.408608 	-4.38563e-20 1.79091 	-0.404556 	-4.76187e-20 1.78255 	-0.392844 	-2.58873e-20 1.77449 	-0.381157 	-4.07557e-21 1.77431 	-0.385165 	-4.41852e-21 1.77258 	-0.386405 	-5.85338e-21 1.76736 	-0.381013 	-9.90053e-21 1.76146 	-0.373848 	-1.39768e-20 1.75367 	-0.362203 	-1.81484e-20 1.75286 	-0.365135 	-1.75105e-20 1.74796 	-0.359953 	-1.97202e-20 1.74321 	-0.35481 	-2.19053e-20 1.73861 	-0.349707 	-2.40655e-20 1.73405 	-0.344386 	-2.62867e-20 1.73402 	-0.34448 	-2.62278e-20 1.73386 	-0.344312 	-2.60654e-20 1.73371 	-0.344144 	-2.59031e-20 1.73356 	-0.343976 	-2.57407e-20 1.7334 	-0.343808 	-2.55781e-20 1.72904 	-0.338993 	-1.91084e-20 1.72481 	-0