# vtk DataFile Version 2.0
track0
ASCII
DATASET POLYDATA
POINTS 10945 double
-0.0205 0.001 1e-05
-0.0202034 0.00100003 1e-05
-0.0199069 0.00100026 1e-05
-0.0196103 0.00100071 1e-05
-0.0193137 0.00100137 1e-05
-0.0190172 0.00100225 1e-05
-0.0187132 0.00100354 1e-05
-0.0184093 0.00100451 1e-05
-0.0181054 0.00100548 1e-05
-0.0178015 0.00100645 1e-05
-0.0174976 0.00100742 1e-05
-0.0172058 0.00100865 1e-05
-0.016914 0.00100942 1e-05
-0.0166222 0.00101013 1e-05
-0.0163305 0.00101079 1e-05
-0.0160387 0.0010114 1e-05
-0.0157586 0.00101224 1e-05
-0.0154784 0.00101266 1e-05
-0.0151983 0.00101303 1e-05
-0.0149182 0.00101336 1e-05
-0.0146381 0.00101364 1e-05
-0.0143692 0.0010142 1e-05
-0.0141002 0.00101435 1e-05
-0.0138313 0.00101447 1e-05
-0.0135624 0.00101455 1e-05
-0.0132934 0.0010146 1e-05
-0.0130353 0.00101495 1e-05
-0.0127771 0.00101491 1e-05
-0.0125189 0.00101484 1e-05
-0.0122607 0.00101474 1e-05
-0.0120025 0.00101461 1e-05
-0.0117547 0.00101483 1e-05
-0.0115068 0.00101464 1e-05
-0.0112589 0.00101443 1e-05
-0.0110111 0.0010142 1e-05
-0.0107632 0.00101394 1e-05
-0.0105252 0.00101407 1e-05
-0.0102873 0.00101377 1e-05
-0.0100493 0.00101345 1e-05
-0.00981133 0.00101311 1e-05
-0.00957337 0.00101275 1e-05
-0.00934491 0.00101284 1e-05
-0.00911645 0.00101245 1e-05
-0.008888 0.00101204 1e-05
-0.00865954 0.00101161 1e-05
-0.00843108 0.00101117 1e-05
-0.00821175 0.00101122 1e-05
-0.00799242 0.00101075 1e-05
-0.00777309 0.00101026 1e-05
-0.00755376 0.00100976 1e-05
-0.00733443 0.00100923 1e-05
-0.00712387 0.00100926 1e-05
-0.0069133 0.00100872 1e-05
-0.00670273 0.00100816 1e-05
-0.00649217 0.00100759 1e-05
-0.0062816 0.00100699 1e-05
-0.00607944 0.00100701 1e-05
-0.00587729 0.0010064 1e-05
-0.00567514 0.00100577 1e-05
-0.00547299 0.00100513 1e-05
-0.00527083 0.00100446 1e-05
-0.00507675 0.00100448 1e-05
-0.00488268 0.0010038 1e-05
-0.0046886 0.0010031 1e-05
-0.00449452 0.00100238 1e-05
-0.00430044 0.00100164 1e-05
-0.00411412 0.00100165 1e-05
-0.0039278 0.00100091 1e-05
-0.00374148 0.00100013 1e-05
-0.00355516 0.000999338 1e-05
-0.00336883 0.000998518 1e-05
-0.00318995 0.000998519 1e-05
-0.00301107 0.000997689 1e-05
-0.00283219 0.000996832 1e-05
-0.00265332 0.000995945 1e-05
-0.00247443 0.000995029 1e-05
-0.0023027 0.000995005 1e-05
-0.00213097 0.000994073 1e-05
-0.00195924 0.000993106 1e-05
-0.00178751 0.000992103 1e-05
-0.00161577 0.000991064 1e-05
-0.0014509 0.000990992 1e-05
-0.00128603 0.000989925 1e-05
-0.00112117 0.000988805 1e-05
-0.000956301 0.000987633 1e-05
-0.000791418 0.000986407 1e-05
-0.000633135 0.000986223 1e-05
-0.000474856 0.000984921 1e-05
-0.000316578 0.000983556 1e-05
-0.000158301 0.000982129 1e-05
0 0.000980636 1e-05
0.000105677 0.000980406 1e-05
0.00021135 0.000979331 1e-05
0.000317022 0.000978218 1e-05
0.000422693 0.000977066 1e-05
0.000528387 0.000975876 1e-05
0.000634886 0.000975622 1e-05
0.000741379 0.000974402 1e-05
0.000847871 0.000973162 1e-05
0.000954363 0.0009719 1e-05
0.00106088 0.000970616 1e-05
0.00116821 0.00097042 1e-05
0.00127553 0.000969163 1e-05
0.00138285 0.000967898 1e-05
0.00149017 0.000966623 1e-05
0.00159752 0.000965383 1e-05
0.00170568 0.000965291 1e-05
0.00181384 0.000964174 1e-05
0.00192199 0.000962963 1e-05
0.00203014 0.000961751 1e-05
0.00213833 0.000960724 1e-05
0.00224733 0.000960763 1e-05
0.00235633 0.000959869 1e-05
0.00246532 0.000958762 1e-05
0.00257432 0.000957656 1e-05
0.00268334 0.000956846 1e-05
0.00279319 0.000957015 1e-05
0.00290304 0.00095633 1e-05
0.00301288 0.000955342 1e-05
0.00312273 0.000954354 1e-05
0.00323259 0.000953741 1e-05
0.00334329 0.000954023 1e-05
0.00345399 0.000953525 1e-05
0.0035647 0.000952657 1e-05
0.0036754 0.000951789 1e-05
0.00378611 0.00095135 1e-05
0.00389767 0.000951731 1e-05
0.00400924 0.000951394 1e-05
0.0041208 0.000950643 1e-05
0.00423236 0.00094989 1e-05
0.00434393 0.000949602 1e-05
0.00445636 0.000950067 1e-05
0.0045688 0.00094987 1e-05
0.00468123 0.000949226 1e-05
0.00479366 0.000948579 1e-05
0.00490609 0.000948421 1e-05
0.0050194 0.000948956 1e-05
0.0051327 0.000948879 1e-05
0.00524601 0.000948333 1e-05
0.00535932 0.000947784 1e-05
0.00547262 0.000947738 1e-05
0.00558681 0.000948333 1e-05
0.005701 0.000948359 1e-05
0.00581518 0.000947904 1e-05
0.00592937 0.000947446 1e-05
0.00604356 0.000947499 1e-05
0.00615863 0.000948145 1e-05
0.00627371 0.000948263 1e-05
0.00638878 0.000947893 1e-05
0.00650386 0.000947519 1e-05
0.00661893 0.000947659 1e-05
0.0067349 0.000948352 1e-05
0.00685087 0.000948552 1e-05
0.00696684 0.000948263 1e-05
0.00708281 0.000947979 1e-05
0.00719878 0.000948198 1e-05
0.00731565 0.000948933 1e-05
0.00743252 0.000949208 1e-05
0.0075494 0.000949026 1e-05
0.00766627 0.000948848 1e-05
0.00778313 0.000949141 1e-05
0.00790091 0.000949917 1e-05
0.0080187 0.000950262 1e-05
0.00813648 0.000950179 1e-05
0.00825426 0.0009501 1e-05
0.00837203 0.000950461 1e-05
0.00849073 0.000951277 1e-05
0.00860943 0.000951687 1e-05
0.00872813 0.000951696 1e-05
0.00884682 0.000951709 1e-05
0.00896551 0.000952135 1e-05
0.00908513 0.000952989 1e-05
0.00920475 0.000953461 1e-05
0.00932437 0.000953555 1e-05
0.00944399 0.000953652 1e-05
0.0095636 0.000954138 1e-05
0.00968415 0.000955027 1e-05
0.0098047 0.000955555 1e-05
0.00992525 0.000955726 1e-05
0.0100458 0.0009559 1e-05
0.0101663 0.00095644 1e-05
0.0102878 0.000957359 1e-05
0.0104093 0.000957937 1e-05
0.0105308 0.000958176 1e-05
0.0106523 0.000958416 1e-05
0.0107738 0.000959001 1e-05
0.0108962 0.000959943 1e-05
0.0110186 0.000960561 1e-05
0.0111411 0.000960857 1e-05
0.0112635 0.000961152 1e-05
0.0113859 0.000961771 1e-05
0.0115093 0.000962727 1e-05
0.0116327 0.000963373 1e-05
0.0117561 0.000963711 1e-05
0.0118795 0.000964047 1e-05
0.0120028 0.000964687 1e-05
0.0121272 0.000965644 1e-05
0.0122515 0.000966304 1e-05
0.0123759 0.00096667 1e-05
0.0125002 0.00096703 1e-05
0.0126245 0.000967675 1e-05
0.0127498 0.000968618 1e-05
0.0128752 0.000969275 1e-05
0.0130005 0.00096965 1e-05
0.0131258 0.000970015 1e-05
0.0132511 0.000970647 1e-05
0.0133774 0.000971558 1e-05
0.0135036 0.000972193 1e-05
0.0136299 0.000972554 1e-05
0.0137562 0.000972902 1e-05
0.0138825 0.000973498 1e-05
0.0140098 0.000974352 1e-05
0.014137 0.000974939 1e-05
0.0142643 0.000975261 1e-05
0.0143916 0.000975563 1e-05
0.0145188 0.000976095 1e-05
0.0146471 0.000976864 1e-05
0.0147753 0.000977373 1e-05
0.0149036 0.000977623 1e-05
0.0150318 0.000977848 1e-05
0.0151601 0.000978281 1e-05
0.0152893 0.00097893 1e-05
0.0154186 0.000979325 1e-05
0.0155478 0.000979468 1e-05
0.0156771 0.000979577 1e-05
0.0158063 0.000979873 1e-05
0.0159366 0.000980362 1e-05
0.0160668 0.000980601 1e-05
0.0161971 0.000980593 1e-05
0.0163274 0.000980545 1e-05
0.0164576 0.00098066 1e-05
0.0165889 0.000980943 1e-05
0.0167201 0.000980981 1e-05
0.0168514 0.000980778 1e-05
0.0169827 0.000980526 1e-05
0.0171139 0.000980413 1e-05
0.0172462 0.000980443 1e-05
0.0173785 0.000980234 1e-05
0.0175108 0.000979788 1e-05
0.0176431 0.000979284 1e-05
0.0177754 0.000978895 1e-05
0.0179087 0.00097862 1e-05
0.018042 0.00097811 1e-05
0.0181753 0.000977368 1e-05
0.0183087 0.000976558 1e-05
0.018442 0.000975836 1e-05
0.0185763 0.0009752 1e-05
0.0187107 0.000974333 1e-05
0.018845 0.000973246 1e-05
0.0189794 0.000972084 1e-05
0.0191137 0.000970972 1e-05
0.0192491 0.000969915 1e-05
0.0193845 0.00096863 1e-05
0.0195199 0.000967145 1e-05
0.0196553 0.000965575 1e-05
0.0197907 0.000964011 1e-05
0.0199272 0.000962471 1e-05
0.0200636 0.000960705 1e-05
0.0202001 0.00095876 1e-05
0.0203365 0.000956716 1e-05
0.020473 0.000954636 1e-05
0.0206105 0.000952547 1e-05
0.020748 0.000950236 1e-05
0.0208855 0.00094776 1e-05
0.021023 0.000945174 1e-05
0.0211606 0.000942511 1e-05
0.0212991 0.000939806 1e-05
0.0214377 0.000936879 1e-05
0.0215763 0.000933802 1e-05
0.0217149 0.0009306 1e-05
0.0218535 0.000927284 1e-05
0.0219931 0.000923895 1e-05
0.0221328 0.000920283 1e-05
0.0222724 0.00091653 1e-05
0.0224121 0.000912639 1e-05
0.0225517 0.000908609 1e-05
0.0226925 0.000904463 1e-05
0.0228332 0.000900109 1e-05
0.022974 0.000895603 1e-05
0.0231147 0.000890944 1e-05
0.0232555 0.00088613 1e-05
0.0233973 0.000881153 1e-05
0.0235391 0.000875981 1e-05
0.023681 0.000870641 1e-05
0.0238228 0.000865134 1e-05
0.0239647 0.000859457 1e-05
0.0240182 0.000857256 1e-05
0.0240717 0.000855026 1e-05
0.0241252 0.000852771 1e-05
0.0241787 0.00085049 1e-05
0.024227 0.000848408 1e-05
0.0243174 0.000844469 1e-05
0.0244079 0.000840458 1e-05
0.0244984 0.000836373 1e-05
0.0245889 0.000832217 1e-05
0.0246794 0.000827986 1e-05
0.0248234 0.000821131 1e-05
0.0249675 0.000814085 1e-05
0.0251115 0.000806843 1e-05
0.0252555 0.000799404 1e-05
0.0253996 0.000791763 1e-05
0.0255448 0.00078386 1e-05
0.02569 0.000775754 1e-05
0.0258351 0.000767436 1e-05
0.0259802 0.000758904 1e-05
0.0261255 0.000750152 1e-05
0.0262718 0.000741118 1e-05
0.0264181 0.000731861 1e-05
0.0265644 0.000722379 1e-05
0.0267106 0.000712667 1e-05
0.026857 0.000702718 1e-05
0.0270044 0.000692469 1e-05
0.0271519 0.000681975 1e-05
0.0272993 0.000671239 1e-05
0.0274466 0.000660258 1e-05
0.0275942 0.000649025 1e-05
0.0277428 0.00063747 1e-05
0.0278913 0.000625649 1e-05
0.0280399 0.000613563 1e-05
0.0281884 0.000601223 1e-05
0.0283371 0.000588611 1e-05
0.0284869 0.000575653 1e-05
0.0286366 0.000562408 1e-05
0.0287863 0.000548883 1e-05
0.0289359 0.000535086 1e-05
0.0290858 0.000520993 1e-05
0.0292367 0.000506527 1e-05
0.0293876 0.000491754 1e-05
0.0295384 0.000476688 1e-05
0.0296893 0.000461326 1e-05
0.0298403 0.000445638 1e-05
0.0298576 0.000443815 1e-05
0.0298748 0.000441987 1e-05
0.029892 0.000440155 1e-05
0.0299093 0.000438319 1e-05
0.0299261 0.000436518 1e-05
0.030061 0.000422077 1e-05
0.0301959 0.000407387 1e-05
0.0303308 0.000392447 1e-05
0.0304656 0.000377256 1e-05
0.0306007 0.000361784 1e-05
0.030754 0.000343943 1e-05
0.0309072 0.00032576 1e-05
0.0310604 0.000307231 1e-05
0.0312135 0.000288354 1e-05
0.031367 0.000269081 1e-05
0.0315215 0.000249336 1e-05
0.0316759 0.000229212 1e-05
0.0318302 0.000208711 1e-05
0.0319845 0.000187832 1e-05
0.0321393 0.000166505 1e-05
[...]
POINT_DATA 10945
 FIELD attributes 2
p 1 10945 float
2.05483 2.00479 1.9448 1.88425 1.82313 1.69793 1.62489 1.54519 1.46548 1.38578 1.30091 1.29714 1.27707 1.25706 1.2371 1.20547 1.21666 1.20816 1.19973 1.19137 1.16682 1.17143 1.15897 1.14657 1.13422 1.10596 1.11125 1.10041 1.08962 1.07887 1.05167 1.0597 1.05106 1.04245 1.03389 1.00717 1.01686 1.00865 1.00047 0.992333 0.963892 0.975468 0.967364 0.959293 0.951254 0.920362 0.934659 0.926869 0.919111 0.911386 0.877741 0.895229 0.887658 0.88012 0.872615 0.835604 0.856439 0.848717 0.841029 0.833378 0.792089 0.816454 0.80838 0.800344 0.792347 0.746179 0.774568 0.766066 0.757607 0.749192 0.697401 0.730233 0.721365 0.712547 0.703782 0.645861 0.684234 0.675341 0.666511 0.657745 0.592759 0.638425 0.631116 0.623898 0.616772 0.544968 0.609463 0.613861 0.618363 0.622973 0.555209 0.670947 0.691658 0.712453 0.733333 0.644814 0.780675 0.80486 0.829094 0.853376 0.756677 0.877893 0.89606 0.914246 0.928155 0.834441 0.929099 0.946935 0.957277 0.951316 0.869099 0.937349 0.954687 0.956876 0.93508 0.858186 0.906822 0.921242 0.916563 0.883539 0.811363 0.847551 0.859855 0.850472 0.809897 0.741333 0.76896 0.779678 0.766766 0.720596 0.654536 0.67614 0.685823 0.670127 0.619518 0.555133 0.572292 0.581357 0.563397 0.509209 0.446068 0.459774 0.468499 0.448666 0.391565 0.329425 0.340314 0.348843 0.327331 0.267616 0.206089 0.214291 0.222346 0.198453 0.136979 0.0756959 0.0811305 0.0863941 0.0604171 -0.00111271 -0.0624341 -0.0599241 -0.0576011 -0.0857355 -0.147621 -0.209286 -0.210011 -0.210934 -0.241411 -0.303944 -0.366249 -0.370572 -0.3751 -0.408139 -0.471581 -0.534789 -0.543054 -0.551529 -0.587335 -0.651887 -0.716205 -0.728713 -0.741434 -0.780176 -0.845978 -0.911547 -0.928539 -0.945745 -0.98757 -1.05475 -1.1217 -1.14338 -1.16528 -1.21026 -1.2788 -1.34712 -1.37358 -1.40026 -1.44845 -1.5184 -1.58814 -1.61944 -1.65097 -1.70242 -1.77388 -1.84513 -1.88137 -1.91783 -1.97247 -2.04517 -2.11766 -2.15868 -2.19992 -2.25749 -2.33109 -2.40449 -2.45002 -2.49578 -2.55592 -2.62996 -2.70382 -2.75342 -2.80324 -2.86544 -2.93932 -3.01303 -3.06596 -3.11911 -3.18279 -3.25609 -3.32923 -3.3849 -3.44079 -3.50536 -3.57749 -3.6495 -3.70724 -3.76521 -3.83006 -3.90051 -3.97085 -4.02994 -4.08926 -4.15388 -4.22223 -4.2905 -4.35012 -4.41018 -4.47383 -4.5393 -4.6049 -4.66418 -4.72405 -4.78561 -4.84753 -4.90954 -4.96722 -5.02534 -5.08403 -5.14243 -5.20059 -5.25595 -5.31123 -5.36641 -5.42105 -5.47475 -5.52689 -5.5781 -5.62905 -5.67974 -5.72842 -5.77656 -5.82253 -5.86854 -5.9147 -5.95823 -6.00076 -6.04121 -6.0818 -6.12256 -6.16159 -6.19763 -6.23209 -6.26672 -6.30152 -6.33586 -6.34673 -6.35706 -6.36741 -6.37778 -6.38718 -6.40546 -6.42382 -6.44227 -6.46081 -6.47541 -6.50094 -6.5224 -6.5441 -6.56603 -6.57734 -6.6021 -6.61581 -6.62978 -6.64159 -6.6403 -6.65841 -6.66958 -6.67529 -6.67111 -6.66206 -6.67082 -6.67984 -6.6754 -6.65813 -6.64108 -6.64007 -6.63934 -6.62677 -6.60122 -6.57591 -6.56476 -6.54759 -6.52368 -6.49831 -6.46394 -6.43968 -6.40491 -6.37043 -6.33624 -6.30094 -6.29676 -6.29145 -6.28616 -6.28086 -6.27569 -6.23732 -6.19926 -6.16151 -6.12406 -6.07545 -6.03272 -5.97887 -5.924 -5.86046 -5.79112 -5.73448 -5.67827 -5.6087 -5.52529 -5.44208 -5.36931 -5.2892 -5.20179 -5.11483 -5.01767 -4.97759 -4.93063 -4.88332 -4.83613 -4.79292 -4.73571 -4.67872 -4.62195 -4.56446 -4.49833 -4.39025 -4.26927 -4.14688 -4.01172 -3.8725 -3.73788 -3.60414 -3.45237 -3.29272 -3.12504 -3.03222 -2.93087 -2.8258 -2.72108 -2.62912 -2.54986 -2.4709 -2.39223 -2.31052 -2.22145 -2.02884 -1.8226 -1.61117 -1.37898 -1.14509 -0.907567 -0.6605 -0.400649 -0.143073 0.11704 0.117633 0.118266 0.118966 0.119666 0.120366 0.415819 0.706467 0.992236 1.30327 1.64027 1.97182 2.30409 2.64877 2.98537 3.20302 3.22594 3.24879 3.27157 3.29912 3.32743 3.6628 3.98296 4.28927 4.55033 4.82199 4.9269 5.03001 5.09437 5.15124 5.20153 5.36726 5.52823 5.678 5.78386 5.89413 6.01025 6.12302 6.18766 6.23428 6.27491 6.36236 6.44813 6.5239 6.57334 6.62462 6.73819 6.84979 6.86547 6.83618 6.80723 6.85441 6.90137 6.93622 6.93832 6.94048 6.97349 7.00702 6.93205 6.81197 6.68995 6.69426 6.69858 6.70048 6.69288 6.6853 6.6025 6.50805 6.38338 6.21724 6.05194 6.02465 5.99733 5.96777 5.9375 5.90767 5.80785 5.708 5.60682 5.49809 5.3884 5.32776 5.26703 5.21008 5.15387 5.09926 5.04962 4.99998 4.95125 4.9106 4.86991 4.79937 4.72876 4.67538 4.6242 4.57377 4.56661 4.55944 4.55234 4.54802 4.5437 4.50844 4.47131 4.438 4.41708 4.39651 4.39014 4.38377 4.38175 4.37981 4.37785 4.37454 4.37129 4.3681 4.37674 4.38653 4.39144 4.39852 4.42083 4.44327 4.46509 4.46535 4.46566 4.46621 4.46675 4.4673 4.49453 4.52186 4.5493 4.57353 4.59662 4.62297 4.64873 4.67118 4.69373 4.71779 4.72616 4.73455 4.74295 4.75493 4.76779 4.79816 4.82999 4.86769 4.91813 4.96644 4.98695 5.01066 5.04119 5.07173 5.10486 5.12076 5.13666 5.15256 5.16558 5.17665 5.23017 5.28065 5.326 5.35866 5.39013 5.43828 5.47976 5.5144 5.54915 5.58875 5.59153 5.59431 5.59708 5.60046 5.60466 5.64086 5.67914 5.71752 5.76618 5.82281 5.85141 5.87996 5.92495 5.98078 6.03661 6.05574 6.08479 6.11751 6.15019 6.18673 6.19988 6.21303 6.22617 6.23786 6.2442 6.29831 6.34407 6.38977 6.42239 6.44354 6.5011 6.55869 6.59752 6.6178 6.63781 6.69458 6.73229 6.76502 6.79781 6.82701 6.83447 6.83888 6.84314 6.8474 6.85172 6.87957 6.90746 6.93539 6.96414 7.01594 7.03047 7.05367 7.08527 7.14184 7.20073 7.21426 7.22771 7.26504 7.3228 7.38101 7.3936 7.42843 7.46886 7.50927 7.55715 7.56132 7.57331 7.5853 7.59729 7.60972 7.63736 7.66499 7.69259 7.72019 7.72647 7.7866 7.82562 7.8646 7.88561 7.89102 7.95067 8.01032 8.0426 8.04741 8.05217 8.11116 8.16043 8.18622 8.20582 8.20994 8.26351 8.28889 8.31432 8.3398 8.3644 8.36614 8.36698 8.36783 8.36867 8.36951 8.39378 8.41809 8.44245 8.46685 8.52105 8.51914 8.54061 8.5655 8.61156 8.67457 8.67215 8.66959 8.69989 8.76273 8.82506 8.82217 8.82085 8.85579 8.91107 8.97284 8.96951 8.99541 9.02996 9.06453 9.11824 9.12235 9.14561 9.16888 9.19215 9.21753 9.22806 9.2386 9.24913 9.25967 9.26036 9.304 9.33798 9.37197 9.40597 9.39795 9.46213 9.50663 9.54035 9.54372 9.53359 9.59722 9.66089 9.68783 9.67764 9.66719 9.73029 9.78772 9.80772 9.80937 9.79864 9.86123 9.88861 9.9087 9.92886 9.92783 9.96576 9.98226 9.99881 10.0154 10.0318 10.0355 10.0392 10.0429 10.0466 10.0556 10.0704 10.0906 10.1109 10.1313 10.1849 10.1716 10.1919 10.2123 10.2434 10.3117 10.2936 10.293 10.3134 10.3685 10.4362 10.418 10.3995 10.4241 10.4917 10.5588 10.5405 10.5217 10.546 10.613 10.6797 10.6612 10.6482 10.6755 10.7329 10.7992 10.7805 10.7876 10.815 10.8515 10.9174 10.8987 10.9257 10.9531 10.9805 11.0347 11.0358 11.0632 11.0906 11.1181 11.1512 11.1527 11.1598 11.1668 11.1739 11.1814 11.2018 11.2221 11.2425 11.2629 11.2657 11.3104 11.338 11.3657 11.3934 11.379 11.4471 11.4754 11.5033 11.5151 11.4917 11.5594 11.6118 11.6399 11.6271 11.6036 11.6709 11.7384 11.761 11.7381 11.7145 11.7814 11.8485 11.8709 11.8479 11.8243 11.8908 11.9489 11.9659 11.9565 11.9329 11.9991 12.0366 12.054 12.0639 12.0403 12.1061 12.1252 12.1429 12.1607 12.1464 12.197 12.2149 12.2329 12.251 12.2513 12.2876 12.3058 12.3241 12.3424 12.355 12.3709 12.381 12.3912 12.4013 12.411 12.4194 12.4279 12.4363 12.4448 12.4586 12.4717 12.4903 12.5089 12.5276 12.5621 12.5648 12.5835 12.6023 12.6211 12.6646 12.6584 12.6772 12.6961 12.715 12.7661 12.7524 12.7713 12.7903 12.8093 12.8667 12.8467 12.8657 12.8848 12.9039 12.9665 12.9413 12.9604 12.9795 12.9987 13.0656 13.0361 13.0553 13.0744 13.0936 13.1642 13.1327 13.1502 13.1694 13.1913 13.2622 13.2309 13.2452 13.2644 13.2891 13.3597 13.3286 13.3401 13.3594 13.3865 13.4569 13.4258 13.435 13.4543 13.4835 13.5536 13.5227 13.5298 13.5491 13.5801 13.65 13.6192 13.6246 13.6438 13.6764 13.746 13.7153 13.7192 13.7385 13.7723 13.8417 13.8111 13.8138 13.833 13.8678 13.937 13.9065 13.9082 13.9274 13.9631 14.032 14.0017 14.0025 14.0217 14.058 14.1266 14.0965 14.0966 14.1158 14.1526 14.221 14.1909 14.1905 14.2096 14.2468 14.315 14.285 14.2842 14.3033 14.3407 14.4086 14.3787 14.3777 14.3967 14.4342 14.5019 14.4721 14.4709 14.4899 14.5274 14.5948 14.5651 14.5638 14.5827 14.6201 14.6873 14.6577 14.6563 14.6752 14.7124 14.7793 14.7498 14.7485 14.7673 14.8043 14.8709 14.8415 14.8403 14.8589 14.8957 14.9621 14.9327 14.9316 14.9501 14.9866 15.0526 15.0234 15.0224 15.0408 15.0769 15.1427 15.1134 15.1126 15.1309 15.1666 15.2321 15.2029 15.2022 15.2204 15.2556 15.3208 15.2916 15.2911 15.3092 15.344 15.4088 15.3797 15.3793 15.3972 15.4315 15.4961 15.4669 15.4667 15.4844 15.5183 15.5825 15.5533 15.5532 15.5708 15.6042 15.6679 15.6388 15.6389 15.6562 15.6891 15.7525 15.7233 15.7235 15.7406 15.773 15.836 15.8068 15.8071 15.824 15.8558 15.9184 15.8892 15.8895 15.9062 15.9375 15.9997 15.9704 15.9709 15.9873 16.018 16.0798 16.0505 16.051 16.0672 16.0974 16.1587 16.1294 16.13 16.146 16.1756 16.2364 16.2071 16.2078 16.2236 16.2526 16.313 16.2836 16.2846 16.3001 16.3285 16.3886 16.3592 16.3604 16.3758 16.4035 16.4632 16.4338 16.4355 16.4508 16.4778 16.5373 16.508 16.5103 16.5255 16.5518 16.611 16.5819 16.5851 16.6004 16.6259 16.6852 16.6565 16.661 16.6765 16.7011 16.7603 16.732 16.7383 16.7544 16.7782 16.8382 16.8113 16.82 16.8368 16.8591 16.919 16.8925 16.9052 16.9237 16.9452 17.0083 16.9855 17.0022 17.0214 17.0407 17.101 17.0791 17.1026 17.1262 17.1498 17.2141 17.2082 17.2286 17.2489 17.2692 17.3135 17.3071 17.3301 17.3532 17.3763 17.4183 17.4127 17.4051 17.397 17.3885 17.3769 17.2752 17.2222 17.1693 17.125 17.1203 17.0275 16.9668 16.9259 16.9103 16.9234 16.8483 16.7848 16.7469 16.7392 16.7433 16.66 16.579 16.5335 16.5258 16.5212 16.4304 16.3388 16.2884 16.2795 16.2713 16.1771 16.0821 16.0277 16.0142 16.0015 15.902 15.8018 15.7418 15.7223 15.7036 15.5972 15.4899 15.4231 15.397 15.3717 15.2575 15.1424 15.0683 15.0352 15.003 14.8806 14.7573 14.675 14.6336 14.593 14.4611 14.328 14.2365 14.1866 14.1374 13.9956 13.8526 13.7506 13.6897 13.6297 13.4755 13.3201 13.2068 13.136 13.066 12.9005 12.7337 12.6071 12.5211 12.4359 12.2538 12.0702 11.9302 11.8345 11.7397 11.5465 11.3517 11.1939 11.0742 10.9553 10.7362 10.5153 10.3427 10.2196 10.0975 9.87383 9.65249 9.45657 9.28003 9.11092 8.83734 8.58896 8.38526 8.20753 8.06366 7.81467 7.56026 7.30333 7.04612 6.78571 6.41499 6.16254 5.92267 5.68202 5.5367 5.27787 4.90862 4.53988 4.17161 3.72875 3.25141 3.00186 2.74815 2.49078 2.37929 2.12282 1.65358 1.1895 0.730186 0