# vtk DataFile Version 2.0
track0
ASCII
DATASET POLYDATA
POINTS 12530 double
-0.0205 0.001 1e-05
-0.0202034 0.000999023 1e-05
-0.0199069 0.000997149 1e-05
-0.0196103 0.00099447 1e-05
-0.0193138 0.000990964 1e-05
-0.0190172 0.000986609 1e-05
-0.0187132 0.000982858 1e-05
-0.0184093 0.000979504 1e-05
-0.0181054 0.000977374 1e-05
-0.0178014 0.000976483 1e-05
-0.0174976 0.000976845 1e-05
-0.0172058 0.000979467 1e-05
-0.016914 0.000982956 1e-05
-0.0166223 0.000989292 1e-05
-0.0163307 0.000998563 1e-05
-0.0160387 0.00101089 1e-05
-0.0159807 0.00101407 1e-05
-0.0159227 0.0010174 1e-05
-0.0158647 0.0010209 1e-05
-0.0158067 0.00102458 1e-05
-0.0157731 0.00102682 1e-05
-0.0155461 0.00104235 1e-05
-0.0153193 0.00106064 1e-05
-0.0150927 0.00108171 1e-05
-0.0148665 0.00110562 1e-05
-0.0146381 0.00113267 1e-05
-0.0143692 0.00116805 1e-05
-0.0141009 0.00120817 1e-05
-0.0138334 0.00125308 1e-05
-0.0135665 0.00130156 1e-05
-0.0132934 0.00135375 1e-05
-0.0132283 0.00136687 1e-05
-0.0131633 0.00138015 1e-05
-0.0130982 0.00139359 1e-05
-0.0130332 0.00140706 1e-05
-0.012974 0.00141936 1e-05
-0.0127797 0.00145977 1e-05
-0.0125857 0.00150159 1e-05
-0.012392 0.00154488 1e-05
-0.0121987 0.00158971 1e-05
-0.0120025 0.00163598 1e-05
-0.0118326 0.0016768 1e-05
-0.0116628 0.00171814 1e-05
-0.0114931 0.00176003 1e-05
-0.0113238 0.00180323 1e-05
-0.0111845 0.00184007 1e-05
-0.0111002 0.00186308 1e-05
-0.0110161 0.00188646 1e-05
-0.010932 0.00191022 1e-05
-0.0108481 0.00193437 1e-05
-0.0107632 0.00195926 1e-05
-0.0105414 0.0020256 1e-05
-0.0103208 0.00209605 1e-05
-0.0101018 0.0021711 1e-05
-0.0098836 0.00224862 1e-05
-0.00976802 0.00229098 1e-05
-0.00972909 0.0023055 1e-05
-0.00969021 0.00232016 1e-05
-0.00965139 0.00233497 1e-05
-0.0096126 0.00234986 1e-05
-0.00957337 0.0023649 1e-05
-0.00935939 0.00244677 1e-05
-0.00914531 0.00252838 1e-05
-0.00893112 0.00260971 1e-05
-0.0087151 0.00268604 1e-05
-0.00843322 0.00277425 1e-05
-0.00843279 0.00277436 1e-05
-0.00843236 0.00277447 1e-05
-0.00843194 0.00277459 1e-05
-0.00843151 0.0027747 1e-05
-0.00843108 0.00277481 1e-05
-0.00821175 0.00283226 1e-05
-0.00799012 0.00288009 1e-05
-0.0077667 0.00291866 1e-05
-0.00754192 0.00294832 1e-05
-0.00733443 0.00296836 1e-05
-0.00712387 0.00298261 1e-05
-0.00691301 0.00299152 1e-05
-0.00670199 0.00299526 1e-05
-0.00649094 0.00299483 1e-05
-0.0062816 0.00299142 1e-05
-0.00607944 0.00298534 1e-05
-0.00587738 0.00297682 1e-05
-0.00567543 0.00296591 1e-05
-0.00547361 0.00295273 1e-05
-0.00527083 0.00293713 1e-05
-0.00507675 0.00291992 1e-05
-0.00488285 0.00290083 1e-05
-0.00468915 0.00287979 1e-05
-0.00449568 0.00285676 1e-05
-0.00430044 0.00283155 1e-05
-0.00421883 0.00282009 1e-05
-0.00413727 0.00280828 1e-05
-0.00405577 0.00279608 1e-05
-0.00397432 0.0027835 1e-05
-0.00391622 0.00277425 1e-05
-0.00380674 0.00275645 1e-05
-0.00369737 0.00273802 1e-05
-0.0035881 0.00271897 1e-05
-0.00347895 0.00269929 1e-05
-0.00336883 0.00267882 1e-05
-0.00318995 0.00264458 1e-05
-0.00301141 0.00260864 1e-05
-0.00283322 0.00257097 1e-05
-0.00265541 0.00253154 1e-05
-0.00247443 0.00248959 1e-05
-0.00231013 0.00244987 1e-05
-0.0021462 0.0024086 1e-05
-0.00198269 0.00236571 1e-05
-0.00181964 0.00232114 1e-05
-0.00171352 0.00229098 1e-05
-0.00169397 0.00228529 1e-05
-0.00167442 0.00227958 1e-05
-0.00165489 0.00227385 1e-05
-0.00163535 0.0022681 1e-05
-0.00161577 0.00226232 1e-05
-0.0014509 0.00221336 1e-05
-0.00128653 0.00216276 1e-05
-0.00112274 0.0021103 1e-05
-0.000959531 0.00205607 1e-05
-0.000791418 0.00199731 1e-05
-0.000705705 0.00196586 1e-05
-0.00062023 0.00193377 1e-05
-0.000534996 0.00190105 1e-05
-0.000450083 0.00186749 1e-05
-0.000382559 0.00184007 1e-05
-0.000306047 0.00180833 1e-05
-0.000229712 0.00177616 1e-05
-0.000153552 0.00174358 1e-05
-7.75883e-05 0.00171055 1e-05
0 0.00167603 1e-05
0.000105677 0.00162792 1e-05
0.000210515 0.00157801 1e-05
0.000314519 0.00152639 1e-05
0.0004176 0.00147294 1e-05
0.00050279 0.00142691 1e-05
0.000507909 0.00142405 1e-05
0.000513027 0.00142119 1e-05
0.000518142 0.00141833 1e-05
0.000523255 0.00141546 1e-05
0.000528387 0.00141257 1e-05
0.000634886 0.00135251 1e-05
0.000740065 0.00129016 1e-05
0.000843955 0.00122569 1e-05
0.000946474 0.00115907 1e-05
0.00106088 0.00108087 1e-05
0.0010723 0.00107262 1e-05
0.0010837 0.00106434 1e-05
0.00109507 0.00105603 1e-05
0.00110642 0.00104769 1e-05
0.00111733 0.00103962 1e-05
0.00121337 0.000968176 1e-05
0.00130741 0.000894134 1e-05
0.00139946 0.000817619 1e-05
0.00148936 0.000738595 1e-05
0.00156021 0.000672663 1e-05
0.00156768 0.000665396 1e-05
0.00157512 0.000658111 1e-05
0.00158254 0.000650809 1e-05
0.00158995 0.000643486 1e-05
0.00159752 0.000635961 1e-05
0.00165944 0.000574037 1e-05
0.00171988 0.000510664 1e-05
0.00177882 0.000445898 1e-05
0.00183626 0.000379793 1e-05
0.00188095 0.000326237 1e-05
0.00193242 0.000262507 1e-05
0.00198221 0.000197447 1e-05
0.00203038 0.000131183 1e-05
0.00207702 6.38335e-05 1e-05
0.0021191 0 1e-05
0.00212295 -6.10079e-06 1e-05
0.00212678 -1.22092e-05 1e-05
0.0021306 -1.83251e-05 1e-05
0.00213441 -2.44482e-05 1e-05
0.00213833 -3.07709e-05 1e-05
0.00217977 -9.79763e-05 1e-05
0.00221981 -0.000166026 1e-05
0.00225846 -0.000234877 1e-05
0.00229573 -0.000304488 1e-05
0.00232787 -0.000366748 1e-05
0.00236925 -0.000448561 1e-05
0.0024085 -0.000531418 1e-05
0.00244568 -0.000615227 1e-05
0.00248158 -0.000699589 1e-05
0.0025133 -0.000775695 1e-05
0.0025473 -0.000858875 1e-05
0.00257954 -0.000942759 1e-05
0.00261069 -0.00102705 1e-05
0.00264101 -0.00111164 1e-05
0.00268258 -0.00123136 1e-05
0.00268273 -0.00123181 1e-05
0.00268288 -0.00123227 1e-05
0.00268304 -0.00123272 1e-05
0.00268319 -0.00123318 1e-05
0.00268334 -0.00123364 1e-05
0.00271683 -0.0013347 1e-05
0.00274922 -0.00143613 1e-05
0.00278048 -0.0015379 1e-05
0.00281063 -0.00164001 1e-05
0.00283876 -0.00173884 1e-05
0.0028707 -0.00185188 1e-05
0.00290087 -0.0019654 1e-05
0.00292928 -0.00207938 1e-05
0.00295619 -0.00219372 1e-05
0.00298142 -0.00230384 1e-05
0.00300948 -0.00242965 1e-05
0.00303515 -0.00255597 1e-05
0.00305865 -0.00268272 1e-05
0.00308119 -0.00280964 1e-05
0.0031019 -0.00293264 1e-05
0.003124 -0.00307263 1e-05
0.00314411 -0.00321291 1e-05
0.00316364 -0.00335327 1e-05
0.00318254 -0.00349372 1e-05
0.00320049 -0.00363239 1e-05
0.00320691 -0.00368473 1e-05
0.00321343 -0.00373707 1e-05
0.00322005 -0.0037894 1e-05
0.00322677 -0.00384171 1e-05
0.00323259 -0.00388634 1e-05
0.00324647 -0.00399137 1e-05
0.00326063 -0.00409636 1e-05
0.0032751 -0.0042013 1e-05
0.00328989 -0.0043062 1e-05
0.00330511 -0.00441151 1e-05
0.00333051 -0.00458507 1e-05
0.00335859 -0.00475822 1e-05
0.0033897 -0.00493085 1e-05
0.00342425 -0.00510282 1e-05
0.00346269 -0.00527979 1e-05
0.00350704 -0.00547332 1e-05
0.00355569 -0.00566582 1e-05
0.00360902 -0.00585706 1e-05
0.00366462 -0.00604767 1e-05
0.00372557 -0.00624808 1e-05
0.00373767 -0.00628626 1e-05
0.00374989 -0.00632441 1e-05
0.0037622 -0.00636252 1e-05
0.00377457 -0.00640062 1e-05
0.00378611 -0.00643603 1e-05
0.00384443 -0.00661423 1e-05
0.00390425 -0.00679195 1e-05
0.00396559 -0.00696914 1e-05
0.00402851 -0.00714577 1e-05
0.00409451 -0.0073273 1e-05
0.00414439 -0.00746165 1e-05
0.00419491 -0.00759577 1e-05
0.00424607 -0.00772964 1e-05
0.00429774 -0.00786331 1e-05
0.00434393 -0.00798154 1e-05
0.00438713 -0.00809106 1e-05
0.00443077 -0.0082004 1e-05
0.00447488 -0.00830956 1e-05
0.00451942 -0.00841854 1e-05
0.00456507 -0.00852921 1e-05
0.00463327 -0.00869298 1e-05
0.00470225 -0.00885644 1e-05
0.00477202 -0.00901955 1e-05
0.00484254 -0.00918234 1e-05
0.00490609 -0.00932725 1e-05
0.00493562 -0.00939383 1e-05
0.0049653 -0.00946035 1e-05
0.00499513 -0.00952681 1e-05
0.00502509 -0.0095932 1e-05
0.00505549 -0.0096602 1e-05
0.00513891 -0.00984317 1e-05
0.00522331 -0.0100257 1e-05
0.00530872 -0.0102077 1e-05
0.00539518 -0.0103893 1e-05
0.00547262 -0.0105495 1e-05
0.0054963 -0.0105977 1e-05
0.00552005 -0.010646 1e-05
0.00554388 -0.0106942 1e-05
0.00556779 -0.0107423 1e-05
0.00559197 -0.0107908 1e-05
0.00568229 -0.0109712 1e-05
0.00577378 -0.011151 1e-05
0.0058665 -0.0113301 1e-05
0.00596054 -0.0115086 1e-05
0.00604356 -0.0116631 1e-05
0.00607175 -0.0117147 1e-05
0.00610006 -0.0117663 1e-05
0.00612849 -0.0118177 1e-05
0.00615704 -0.0118691 1e-05
0.00618608 -0.0119211 1e-05
0.00627265 -0.0120752 1e-05
0.00636039 -0.0122287 1e-05
0.00644933 -0.0123814 1e-05
0.0065395 -0.0125334 1e-05
0.00661893 -0.0126648 1e-05
0.00666645 -0.0127421 1e-05
0.0067143 -0.0128191 1e-05
0.00676249 -0.012896 1e-05
0.00681103 -0.0129726 1e-05
0.0068613 -0.0130512 1e-05
0.00692879 -0.0131555 1e-05
0.00699697 -0.0132595 1e-05
0.00706584 -0.0133629 1e-05
0.00713543 -0.0134659 1e-05
0.00719878 -0.0135582 1e-05
0.00728554 -0.0136827 1e-05
0.00737334 -0.0138065 1e-05
0.0074622 -0.0139295 1e-05
0.00755221 -0.0140517 1e-05
0.0076493 -0.014181 1e-05
0.00767607 -0.0142158 1e-05
0.00770293 -0.0142506 1e-05
0.0077299 -0.0142853 1e-05
0.00775697 -0.01432 1e-05
0.00778313 -0.0143533 1e-05
0.00790091 -0.0145022 1e-05
0.00802052 -0.0146497 1e-05
0.00814197 -0.0147957 1e-05
0.0082653 -0.0149401 1e-05
0.00837203 -0.0150619 1e-05
0.00841666 -0.0151116 1e-05
0.00846151 -0.0151612 1e-05
0.00850659 -0.0152105 1e-05
0.0085519 -0.0152596 1e-05
0.0085994 -0.0153107 1e-05
0.00867262 -0.0153886 1e-05
0.00874643 -0.015466 1e-05
0.00882081 -0.0155428 1e-05
0.00889577 -0.015619 1e-05
0.00896551 -0.0156888 1e-05
0.00908513 -0.0158067 1e-05
0.00920609 -0.0159233 1e-05
0.00932838 -0.0160384 1e-05
0.00945207 -0.0161521 1e-05
0.0095636 -0.016252 1e-05
0.00960666 -0.0162897 1e-05
0.00964986 -0.0163272 1e-05
0.00969322 -0.0163645 1e-05
0.00973673 -0.0164016 1e-05
0.00978248 -0.0164404 1e-05
0.00985926 -0.0165048 1e-05
0.0099365 -0.0165686 1e-05
0.0100142 -0.0166319 1e-05
0.0100924 -0.0166946 1e-05
0.0101663 -0.0167531 1e-05
0.0102878 -0.0168479 1e-05
0.0104104 -0.0169414 1e-05
0.010534 -0.0170335 1e-05
0.0106585 -0.0171242 1e-05
0.0107738 -0.0172064 1e-05
0.0108777 -0.0172791 1e-05
0.0109823 -0.0173509 1e-05
0.0110874 -0.0174218 1e-05
[...]
POINT_DATA 12530
 FIELD attributes 2
p 1 12530 float
-34.4862 -35.1683 -35.8886 -36.5981 -37.2966 -38.4936 -39.4941 -40.0778 -40.6497 -41.2098 -41.2269 -40.8622 -40.7988 -40.755 -40.7316 -40.8089 -40.816 -40.7368 -40.6569 -40.5765 -40.5295 -40.4431 -40.3885 -40.3662 -40.2481 -39.5002 -38.7754 -38.0659 -37.462 -36.9669 -36.4663 -36.3463 -36.2269 -36.1154 -36.004 -35.9026 -35.5299 -35.1601 -34.7933 -34.3816 -33.9641 -33.5674 -33.1716 -32.7974 -32.4272 -32.1245 -31.9159 -31.7076 -31.5035 -31.3193 -31.1333 -30.6259 -30.1243 -29.8676 -29.6681 -29.5656 -29.4775 -29.3893 -29.3145 -29.2597 -29.2042 -28.9473 -28.6903 -28.4943 -28.3317 -28.1153 -28.1147 -28.1141 -28.1135 -28.1133 -28.1133 -28.055 -28.0119 -27.9826 -28.0806 -28.2536 -28.4041 -28.5548 -28.6378 -28.6525 -28.667 -28.7354 -28.8014 -28.8123 -28.7802 -28.7392 -28.7811 -28.7551 -28.6922 -28.6278 -28.5073 -28.4892 -28.4457 -28.4019 -28.358 -28.3265 -28.2685 -28.2103 -28.1521 -28.106 -28.1001 -27.9735 -27.8484 -27.7276 -27.6441 -27.5603 -27.3706 -27.2552 -27.215 -27.1781 -27.1562 -27.1492 -27.1423 -27.1354 -27.1259 -27.1157 -27.154 -27.1365 -27.1256 -26.9203 -26.7134 -26.6713 -26.6324 -26.6283 -26.6263 -26.6263 -26.5959 -26.5662 -26.5776 -26.7491 -26.9273 -27.0275 -27.1147 -27.0007 -26.8927 -26.8077 -26.8291 -26.8504 -26.8666 -26.8579 -26.8492 -26.6221 -26.4174 -26.1928 -25.8989 -25.5935 -25.555 -25.5169 -25.4749 -25.4292 -25.3856 -25.0841 -24.8153 -24.5935 -24.4302 -24.3462 -24.3585 -24.3707 -24.3517 -24.333 -24.3142 -24.1986 -24.1104 -24.0493 -24.0943 -24.1508 -24.0141 -24.037 -24.3175 -24.6199 -24.9935 -25.011 -25.037 -25.0713 -25.1058 -25.1416 -25.4829 -25.8493 -26.2402 -26.9071 -27.7738 -27.9181 -28.0828 -28.728 -29.8284 -30.8263 -31.0457 -31.5537 -32.1734 -32.7999 -33.6955 -33.6971 -33.6994 -33.7019 -33.7044 -33.7069 -34.2769 -34.8565 -35.4457 -36.0686 -36.8142 -36.9239 -37.0568 -37.6528 -38.5352 -39.39 -39.1995 -39.1356 -39.6217 -40.4269 -41.5279 -41.3911 -41.6642 -41.9414 -42.223 -42.5894 -42.4952 -42.3432 -42.1902 -42.0361 -41.9037 -41.7103 -41.5163 -41.3216 -41.1263 -40.797 -39.9793 -38.9952 -38.0082 -37.0094 -35.9682 -34.8698 -33.7683 -32.8193 -31.8765 -30.8532 -30.6817 -30.5139 -30.3815 -30.2492 -30.1263 -29.3933 -28.6605 -27.928 -27.3318 -26.7242 -26.3318 -25.94 -25.6291 -25.3411 -25.0867 -24.7731 -24.4594 -24.1684 -23.9317 -23.6912 -23.3473 -23.0038 -22.7287 -22.48 -22.2588 -22.1194 -21.9799 -21.851 -21.7419 -21.6316 -21.366 -21.1004 -20.8547 -20.6211 -20.4148 -20.3379 -20.261 -20.1891 -20.1228 -20.056 -19.8199 -19.5835 -19.3777 -19.2004 -19.0463 -18.9725 -18.8986 -18.8335 -18.7745 -18.7147 -18.5503 -18.3852 -18.2041 -17.998 -17.8181 -17.725 -17.6318 -17.5258 -17.415 -17.3009 -17.1488 -16.9963 -16.8522 -16.7382 -16.6354 -16.4352 -16.2339 -16.0792 -15.9304 -15.771 -15.7278 -15.6844 -15.6407 -15.5732 -15.5082 -15.3441 -15.18 -14.9507 -14.6627 -14.4156 -14.3617 -14.3022 -14.2122 -14.1222 -14.0283 -13.8833 -13.7382 -13.5932 -13.5169 -13.4625 -13.2001 -12.9364 -12.788 -12.6939 -12.6249 -12.5363 -12.4676 -12.4278 -12.388 -12.3461 -12.2749 -12.2034 -12.1316 -12.0094 -11.8558 -11.8132 -11.7714 -11.6239 -11.3772 -11.1499 -11.1245 -11.0265 -10.8851 -10.7442 -10.5851 -10.566 -10.5469 -10.5278 -10.5152 -10.5188 -10.3354 -10.1804 -10.0261 -9.95538 -9.99159 -9.75468 -9.51717 -9.42259 -9.46602 -9.50822 -9.27915 -9.18076 -9.13012 -9.07891 -9.06318 -9.02054 -9.01007 -9.00089 -8.9917 -8.98222 -8.94303 -8.90353 -8.8637 -8.82049 -8.64157 -8.70446 -8.69363 -8.64643 -8.4625 -8.24686 -8.31354 -8.38076 -8.3056 -8.08943 -7.87856 -7.94868 -7.92778 -7.83114 -7.73499 -7.53389 -7.56648 -7.49445 -7.42271 -7.35126 -7.27092 -7.254 -7.2371 -7.22021 -7.20335 -7.21532 -7.10048 -7.01434 -6.92863 -6.84336 -6.93456 -6.7148 -6.60028 -6.51969 -6.55572 -6.66926 -6.45377 -6.23819 -6.18819 -6.30369 -6.41855 -6.20714 -5.99567 -5.95377 -6.06556 -6.18158 -5.97402 -5.86015 -5.83703 -5.84042 -5.95749 -5.76819 -5.74593 -5.72339 -5.70058 -5.74536 -5.66229 -5.64676 -5.6311 -5.6153 -5.59775 -5.59174 -5.58571 -5.57967 -5.57361 -5.54129 -5.54647 -5.52515 -5.5036 -5.48182 -5.33934 -5.43944 -5.41873 -5.39779 -5.36192 -5.14776 -5.28749 -5.31568 -5.2954 -5.1775 -4.96598 -5.10685 -5.2163 -5.1967 -5.00258 -4.79348 -4.93555 -5.07784 -5.04455 -4.83666 -4.62968 -4.77293 -4.91639 -4.88489 -4.67905 -4.47402 -4.6184 -4.75887 -4.71695 -4.52923 -4.32601 -4.47136 -4.55102 -4.51114 -4.38663 -4.18521 -4.33134 -4.35362 -4.31567 -4.25082 -4.05123 -4.19789 -4.16606 -4.12992 -4.09393 -3.92359 -4.02229 -3.9877 -3.95325 -3.91892 -3.80178 -3.85089 -3.81786 -3.78496 -3.75219 -3.68533 -3.69636 -3.67349 -3.65069 -3.62794 -3.60292 -3.59473 -3.58655 -3.57837 -3.57021 -3.57355 -3.53178 -3.50149 -3.47131 -3.44125 -3.46538 -3.38276 -3.35372 -3.32479 -3.29596 -3.36126 -3.24028 -3.21239 -3.18461 -3.15693 -3.26094 -3.10386 -3.07704 -3.05033 -3.02371 -3.16411 -2.98507 -2.94721 -2.92147 -2.92879 -3.07053 -2.89326 -2.82268 -2.79784 -2.83875 -2.97996 -2.80435 -2.70301 -2.67902 -2.7515 -2.89221 -2.71821 -2.58795 -2.56474 -2.66692 -2.80711 -2.63472 -2.47726 -2.4548 -2.58492 -2.72454 -2.55377 -2.38289 -2.36671 -2.50534 -2.64429 -2.475 -2.30561 -2.28984 -2.42778 -2.56603 -2.39812 -2.23011 -2.21468 -2.35195 -2.48951 -2.32283 -2.15604 -2.14093 -2.27764 -2.41462 -2.24922 -2.0837 -2.06891 -2.20494 -2.34126 -2.17701 -2.01263 -1.99813 -2.13359 -2.26933 -2.10627 -1.94308 -1.92883 -2.06362 -2.19869 -2.03658 -1.88766 -1.87764 -1.99467 -2.12924 -1.96818 -1.83774 -1.8277 -1.92691 -2.06081 -1.90068 -1.78754 -1.77746 -1.85994 -1.99326 -1.83418 -1.7374 -1.72727 -1.79391 -1.92646 -1.76825 -1.68677 -1.67658 -1.72838 -1.86028 -1.703 -1.63592 -1.62565 -1.66345 -1.79463 -1.63802 -1.5844 -1.57406 -1.59874 -1.7294 -1.5735 -1.53258 -1.52215 -1.53445 -1.66452 -1.50915 -1.48017 -1.46967 -1.47033 -1.59999 -1.44532 -1.42762 -1.41704 -1.40671 -1.53578 -1.38522 -1.37455 -1.36387 -1.35316 -1.47172 -1.33178 -1.32096 -1.31013 -1.29927 -1.40758 -1.27739 -1.26641 -1.25542 -1.24441 -1.3433 -1.22232 -1.2112 -1.20006 -1.18891 -1.27891 -1.16642 -1.15516 -1.14389 -1.1326 -1.21441 -1.10988 -1.09848 -1.08706 -1.07563 -1.14972 -1.05247 -1.04091 -1.02934 -1.01775 -1.08475 -0.994343 -0.982627 -0.970897 -0.959154 -1.01946 -0.935397 -0.923535 -0.911661 -0.899774 -0.953877 -0.875883 -0.86388 -0.851865 -0.839838 -0.888024 -0.815633 -0.803499 -0.791353 -0.779195 -0.821927 -0.754786 -0.742527 -0.730256 -0.717973 -0.755611 -0.693218 -0.680829 -0.66843 -0.656019 -0.689028 -0.631032 -0.61851 -0.605978 -0.593436 -0.622138 -0.568142 -0.555504 -0.542857 -0.530201 -0.555004 -0.50475 -0.492016 -0.479272 -0.466519 -0.487707 -0.440839 -0.428007 -0.415165 -0.402314 -0.420226 -0.376459 -0.363515 -0.350561 -0.3376 -0.35248 -0.311458 -0.298395 -0.285323 -0.272244 -0.284403 -0.245874 -0.232686 -0.219491 -0.206289 -0.215954 -0.179656 -0.166347 -0.153031 -0.139708 -0.147131 -0.112877 -0.0994396 -0.0859963 -0.072547 -0.0778899 -0.0454975 -0.0319696 -0.0184361 -0.00489706 -0.00839334 0.0222552 0.0358025 0.0493551 0.0629128 0.0610184 0.0900928 0.103669 0.117251 0.130837 0.130406 0.158096 0.171707 0.185324 0.198945 0.199803 0.22626 0.239908 0.253562 0.26722 0.269222 0.294618 0.308298 0.321984 0.335673 0.338646 0.363165 0.376921 0.390681 0.404446 0.408302 0.432156 0.446037 0.459922 0.47381 0.478447 0.501742 0.515734 0.52973 0.54373 0.549012 0.571847 0.585918 0.599992 0.614071 0.619829 0.642332 0.656494 0.670661 0.684832 0.690954 0.713283 0.727549 0.741819 0.756094 0.762447 0.784808 0.799229 0.813655 0.828085 0.834557 0.857247 0.871954 0.886667 0.901386 0.907912 0.931115 0.946089 0.961069 0.976056 0.982377 1.00627 1.02148 1.0367 1.05192 1.05778 1.08265 1.09815 1.11365 1.12916 1.13435 1.16049 1.17629 1.19209 1.2079 1.21216 1.23983 1.25592 1.27201 1.28811 1.29113 1.32053 1.33678 1.35304 1.36931 1.37068 1.40194 1.41826 1.43459 1.45093 1.45036 1.4837 1.50008 1.51646 1.53285 1.53014 1.56575 1.58221 1.59867 1.61513 1.61014 1.64826 1.66477 1.68129 1.69781 1.69031 1.731 1.74745 1.76391 1.78037 1.77006 1.81335 1.82961 1.84586 1.86212 1.84875 1.89464 1.91068 1.92672 1.94276 1.92636 1.97486 1.99066 2.00647 2.02227 2.00282 2.05386 2.06936 2.08487 2.10038 2.07783 2.13139 2.14668 2.16196 2.17725 2.1518 2.208 2.22309 2.23819 2.25329 2.22488 2.28358 2.29845 2.31333 2.32821 2.29693 2.35812 2.37273 2.38735 2.40196 2.36775 2.43123 2.44559 2.45995 2.4743 2.43734 2.50332 2.51753 2.53175 2.54596 2.50631 2.575 2.5892 2.60341 2.6176 2.57529 2.64689 2.66111 2.67533 2.68955 2.64442 2.7187 2.73298 2.74727 2.76155 2.71393 2.79097 2.8054 2.81983 2.83425 2.78427 2.86394 2.87854 2.89315 2.90775 2.8556 2.93763 2.95228 2.96692 2.98156 2.9272 3.01092 3.02539 3.03985 3.05431 2.99803 3.08327 3.09754 3.11181 3.12608 3.06803 3.15498 3.16931 3.18363 3.19796 3.13847 3.2286 3.24351 3.25842 3.27333 3.21212 3.30683 3.32302 3.3392 3.35536 3.29249 3.39202 3.40996 3.4279 3.44582 3.38206 3.48513 3.50449 3.52384 3.54317 3.47905 3.58295 3.60208 3.6212 3.64031 3.57542 3.67814 3.69578 3.71343 3.73108 3.66531 3.76871 3.78785 3.80703 3.82624 3.76276 3.87098 3.89602 3.92113 3.94629 3.8878 4.00073 4.031 4.06132 4.09169 4.03638 4.15145 4.18343 4.21545 4.2475 4.19202 4.30956 4.3412 4.37285 4.40452 4.34553 4.46689 4.49743 4.52797 4.55851 4.4937 4.61943 4.64898 4.67852 4.70806 4.6372 4.76764 4.79671 4.82578 4.85484 4.77873 4.91398 4.94313 4.97227 5.00141 4.92098 5.06104 5.09022 5.1194 5.14857 5.06352 5.20747 5.23616 5.26484 5.29351 5.20383 5.35033 5.37948 5.40761 5.4335 5.34187 5.48797 5.5211 5.54903 5.57084 5.47925 5.62544 5.66244 5.69037 5.70861 5.61695 5.76338 5.80397 5.83194 5.84696 5.75529 5.9021 5.94613 5.97429 5.98656 5.89515 6.04288 6.09039 6.11909 6.12924 6.03823 6.18729 6.23828 6.26777 6.27622 6.18557 6.33555 6.38988 6.42024 6.42713 6.33728 6.48764 6.54519 6.57629 6.58142 6.49268 6.6429 6.70366 6.7354 6.73857 6.65126 6.80139 6.86561 6.89807 6.89922 6.81345 6.96367 7.03181 7.06536 7.06477 6.98099 7.13213 7.20496 7.24016 7.23816 7.15662 7.30948 7.38777 7.42506 7.42167 7.34243 7.49755 7.58227 7.62229 7.61778 7.54158 7.70025 7.79249 7.83542 7.82902 7.75491 7.91642 8.01731 8.06463 8.05811 7.98982 8.15803 8.27028 8.32196 8.3123 8.2456 8.41591 8.54046 8.60131 8.5969 8.5458 8.73319 8.88023 8.94865 8.93516 8.88028 9.06692 9.23132 9.323 9.33505 9.32339 9.56255 9.79054 9.89951 9.86415 9.81604 10.002 10.1889 10.3185 10.3726 10.4231 10.7255 11.0284 11.0211 10.7114 10.399 10.3586 10.3197 10.21 10.0537 9.89653 9.99655 10.098 10.0822 9.95433 9.82598 9.90889 9.99302 9.97081 9.84441 9.71774 9.76977 9.82318 9.78366 9.65406 9.5244 9.56278 9.60267 9.55617 9.42462 9.29304 9.34267 9.39402 9.33628 9.17086 9.00551 9.04301 9.08225 9.02955 8.8856 8.7414 8.81527 8.891 8.84345 8.6728 8.50191 8.55023 8.60037 8.56379 8.44761 8.32776 8.42672 8.51106 8.46471 8.30852 8.12782 8.16097 8.17967 8.14829 8.07391 7.97952 8.10019 8.16027 8.10536 7.95938 7.74277 7.73148 7.70883 7.6716 7.62181 7.55758 7.7 7.72506 7.64454 7.4859 7.20029 7.10623 7.04233 6.99677 6.96583 6.96329 7.16 7.1602 7.04859 6.86231 6.46783 6.25438 6.16266 6.11888 6.1129 6.22646 6.54372 6.51432 6.35908 6.14631 5.56634 5.16278 5.08265 5.0589 5.0734 5.40812 5.95891 5.83344 5.60928 5.39002 4.49559 3.76348 3.78774 3.81319 3.83971 4.58821 5.58545 5.18159 4.78611 4.39802 3.01231 1.83858 1.98108 2.14362 2.32427 3.54396 4.45501 3.39863 2.32103 1.22506 0