# vtk DataFile Version 2.0
track0
ASCII
DATASET POLYDATA
POINTS 12530 double
-0.0205 0.001 1e-05
-0.0202034 0.000999023 1e-05
-0.0199069 0.000997149 1e-05
-0.0196103 0.00099447 1e-05
-0.0193138 0.000990964 1e-05
-0.0190172 0.000986609 1e-05
-0.0187132 0.000982858 1e-05
-0.0184093 0.000979504 1e-05
-0.0181054 0.000977374 1e-05
-0.0178014 0.000976483 1e-05
-0.0174976 0.000976845 1e-05
-0.0172058 0.000979467 1e-05
-0.016914 0.000982956 1e-05
-0.0166223 0.000989292 1e-05
-0.0163307 0.000998563 1e-05
-0.0160387 0.00101089 1e-05
-0.0159807 0.00101407 1e-05
-0.0159227 0.0010174 1e-05
-0.0158647 0.0010209 1e-05
-0.0158067 0.00102458 1e-05
-0.0157731 0.00102682 1e-05
-0.0155461 0.00104235 1e-05
-0.0153193 0.00106064 1e-05
-0.0150927 0.00108171 1e-05
-0.0148665 0.00110562 1e-05
-0.0146381 0.00113267 1e-05
-0.0143692 0.00116805 1e-05
-0.0141009 0.00120817 1e-05
-0.0138334 0.00125308 1e-05
-0.0135665 0.00130156 1e-05
-0.0132934 0.00135375 1e-05
-0.0132283 0.00136687 1e-05
-0.0131633 0.00138015 1e-05
-0.0130982 0.00139359 1e-05
-0.0130332 0.00140706 1e-05
-0.012974 0.00141936 1e-05
-0.0127797 0.00145977 1e-05
-0.0125857 0.00150159 1e-05
-0.012392 0.00154488 1e-05
-0.0121987 0.00158971 1e-05
-0.0120025 0.00163598 1e-05
-0.0118326 0.0016768 1e-05
-0.0116628 0.00171814 1e-05
-0.0114931 0.00176003 1e-05
-0.0113238 0.00180323 1e-05
-0.0111845 0.00184007 1e-05
-0.0111002 0.00186308 1e-05
-0.0110161 0.00188646 1e-05
-0.010932 0.00191022 1e-05
-0.0108481 0.00193437 1e-05
-0.0107632 0.00195926 1e-05
-0.0105414 0.0020256 1e-05
-0.0103208 0.00209605 1e-05
-0.0101018 0.0021711 1e-05
-0.0098836 0.00224862 1e-05
-0.00976802 0.00229098 1e-05
-0.00972909 0.0023055 1e-05
-0.00969021 0.00232016 1e-05
-0.00965139 0.00233497 1e-05
-0.0096126 0.00234986 1e-05
-0.00957337 0.0023649 1e-05
-0.00935939 0.00244677 1e-05
-0.00914531 0.00252838 1e-05
-0.00893112 0.00260971 1e-05
-0.0087151 0.00268604 1e-05
-0.00843322 0.00277425 1e-05
-0.00843279 0.00277436 1e-05
-0.00843236 0.00277447 1e-05
-0.00843194 0.00277459 1e-05
-0.00843151 0.0027747 1e-05
-0.00843108 0.00277481 1e-05
-0.00821175 0.00283226 1e-05
-0.00799012 0.00288009 1e-05
-0.0077667 0.00291866 1e-05
-0.00754192 0.00294832 1e-05
-0.00733443 0.00296836 1e-05
-0.00712387 0.00298261 1e-05
-0.00691301 0.00299152 1e-05
-0.00670199 0.00299526 1e-05
-0.00649094 0.00299483 1e-05
-0.0062816 0.00299142 1e-05
-0.00607944 0.00298534 1e-05
-0.00587738 0.00297682 1e-05
-0.00567543 0.00296591 1e-05
-0.00547361 0.00295273 1e-05
-0.00527083 0.00293713 1e-05
-0.00507675 0.00291992 1e-05
-0.00488285 0.00290083 1e-05
-0.00468915 0.00287979 1e-05
-0.00449568 0.00285676 1e-05
-0.00430044 0.00283155 1e-05
-0.00421883 0.00282009 1e-05
-0.00413727 0.00280828 1e-05
-0.00405577 0.00279608 1e-05
-0.00397432 0.0027835 1e-05
-0.00391622 0.00277425 1e-05
-0.00380674 0.00275645 1e-05
-0.00369737 0.00273802 1e-05
-0.0035881 0.00271897 1e-05
-0.00347895 0.00269929 1e-05
-0.00336883 0.00267882 1e-05
-0.00318995 0.00264458 1e-05
-0.00301141 0.00260864 1e-05
-0.00283322 0.00257097 1e-05
-0.00265541 0.00253154 1e-05
-0.00247443 0.00248959 1e-05
-0.00231013 0.00244987 1e-05
-0.0021462 0.0024086 1e-05
-0.00198269 0.00236571 1e-05
-0.00181964 0.00232114 1e-05
-0.00171352 0.00229098 1e-05
-0.00169397 0.00228529 1e-05
-0.00167442 0.00227958 1e-05
-0.00165489 0.00227385 1e-05
-0.00163535 0.0022681 1e-05
-0.00161577 0.00226232 1e-05
-0.0014509 0.00221336 1e-05
-0.00128653 0.00216276 1e-05
-0.00112274 0.0021103 1e-05
-0.000959531 0.00205607 1e-05
-0.000791418 0.00199731 1e-05
-0.000705705 0.00196586 1e-05
-0.00062023 0.00193377 1e-05
-0.000534996 0.00190105 1e-05
-0.000450083 0.00186749 1e-05
-0.000382559 0.00184007 1e-05
-0.000306047 0.00180833 1e-05
-0.000229712 0.00177616 1e-05
-0.000153552 0.00174358 1e-05
-7.75883e-05 0.00171055 1e-05
0 0.00167603 1e-05
0.000105677 0.00162792 1e-05
0.000210515 0.00157801 1e-05
0.000314519 0.00152639 1e-05
0.0004176 0.00147294 1e-05
0.00050279 0.00142691 1e-05
0.000507909 0.00142405 1e-05
0.000513027 0.00142119 1e-05
0.000518142 0.00141833 1e-05
0.000523255 0.00141546 1e-05
0.000528387 0.00141257 1e-05
0.000634886 0.00135251 1e-05
0.000740065 0.00129016 1e-05
0.000843955 0.00122569 1e-05
0.000946474 0.00115907 1e-05
0.00106088 0.00108087 1e-05
0.0010723 0.00107262 1e-05
0.0010837 0.00106434 1e-05
0.00109507 0.00105603 1e-05
0.00110642 0.00104769 1e-05
0.00111733 0.00103962 1e-05
0.00121337 0.000968176 1e-05
0.00130741 0.000894134 1e-05
0.00139946 0.000817619 1e-05
0.00148936 0.000738595 1e-05
0.00156021 0.000672663 1e-05
0.00156768 0.000665396 1e-05
0.00157512 0.000658111 1e-05
0.00158254 0.000650809 1e-05
0.00158995 0.000643486 1e-05
0.00159752 0.000635961 1e-05
0.00165944 0.000574037 1e-05
0.00171988 0.000510664 1e-05
0.00177882 0.000445898 1e-05
0.00183626 0.000379793 1e-05
0.00188095 0.000326237 1e-05
0.00193242 0.000262507 1e-05
0.00198221 0.000197447 1e-05
0.00203038 0.000131183 1e-05
0.00207702 6.38335e-05 1e-05
0.0021191 0 1e-05
0.00212295 -6.10079e-06 1e-05
0.00212678 -1.22092e-05 1e-05
0.0021306 -1.83251e-05 1e-05
0.00213441 -2.44482e-05 1e-05
0.00213833 -3.07709e-05 1e-05
0.00217977 -9.79763e-05 1e-05
0.00221981 -0.000166026 1e-05
0.00225846 -0.000234877 1e-05
0.00229573 -0.000304488 1e-05
0.00232787 -0.000366748 1e-05
0.00236925 -0.000448561 1e-05
0.0024085 -0.000531418 1e-05
0.00244568 -0.000615227 1e-05
0.00248158 -0.000699589 1e-05
0.0025133 -0.000775695 1e-05
0.0025473 -0.000858875 1e-05
0.00257954 -0.000942759 1e-05
0.00261069 -0.00102705 1e-05
0.00264101 -0.00111164 1e-05
0.00268258 -0.00123136 1e-05
0.00268273 -0.00123181 1e-05
0.00268288 -0.00123227 1e-05
0.00268304 -0.00123272 1e-05
0.00268319 -0.00123318 1e-05
0.00268334 -0.00123364 1e-05
0.00271683 -0.0013347 1e-05
0.00274922 -0.00143613 1e-05
0.00278048 -0.0015379 1e-05
0.00281063 -0.00164001 1e-05
0.00283876 -0.00173884 1e-05
0.0028707 -0.00185188 1e-05
0.00290087 -0.0019654 1e-05
0.00292928 -0.00207938 1e-05
0.00295619 -0.00219372 1e-05
0.00298142 -0.00230384 1e-05
0.00300948 -0.00242965 1e-05
0.00303515 -0.00255597 1e-05
0.00305865 -0.00268272 1e-05
0.00308119 -0.00280964 1e-05
0.0031019 -0.00293264 1e-05
0.003124 -0.00307263 1e-05
0.00314411 -0.00321291 1e-05
0.00316364 -0.00335327 1e-05
0.00318254 -0.00349372 1e-05
0.00320049 -0.00363239 1e-05
0.00320691 -0.00368473 1e-05
0.00321343 -0.00373707 1e-05
0.00322005 -0.0037894 1e-05
0.00322677 -0.00384171 1e-05
0.00323259 -0.00388634 1e-05
0.00324647 -0.00399137 1e-05
0.00326063 -0.00409636 1e-05
0.0032751 -0.0042013 1e-05
0.00328989 -0.0043062 1e-05
0.00330511 -0.00441151 1e-05
0.00333051 -0.00458507 1e-05
0.00335859 -0.00475822 1e-05
0.0033897 -0.00493085 1e-05
0.00342425 -0.00510282 1e-05
0.00346269 -0.00527979 1e-05
0.00350704 -0.00547332 1e-05
0.00355569 -0.00566582 1e-05
0.00360902 -0.00585706 1e-05
0.00366462 -0.00604767 1e-05
0.00372557 -0.00624808 1e-05
0.00373767 -0.00628626 1e-05
0.00374989 -0.00632441 1e-05
0.0037622 -0.00636252 1e-05
0.00377457 -0.00640062 1e-05
0.00378611 -0.00643603 1e-05
0.00384443 -0.00661423 1e-05
0.00390425 -0.00679195 1e-05
0.00396559 -0.00696914 1e-05
0.00402851 -0.00714577 1e-05
0.00409451 -0.0073273 1e-05
0.00414439 -0.00746165 1e-05
0.00419491 -0.00759577 1e-05
0.00424607 -0.00772964 1e-05
0.00429774 -0.00786331 1e-05
0.00434393 -0.00798154 1e-05
0.00438713 -0.00809106 1e-05
0.00443077 -0.0082004 1e-05
0.00447488 -0.00830956 1e-05
0.00451942 -0.00841854 1e-05
0.00456507 -0.00852921 1e-05
0.00463327 -0.00869298 1e-05
0.00470225 -0.00885644 1e-05
0.00477202 -0.00901955 1e-05
0.00484254 -0.00918234 1e-05
0.00490609 -0.00932725 1e-05
0.00493562 -0.00939383 1e-05
0.0049653 -0.00946035 1e-05
0.00499513 -0.00952681 1e-05
0.00502509 -0.0095932 1e-05
0.00505549 -0.0096602 1e-05
0.00513891 -0.00984317 1e-05
0.00522331 -0.0100257 1e-05
0.00530872 -0.0102077 1e-05
0.00539518 -0.0103893 1e-05
0.00547262 -0.0105495 1e-05
0.0054963 -0.0105977 1e-05
0.00552005 -0.010646 1e-05
0.00554388 -0.0106942 1e-05
0.00556779 -0.0107423 1e-05
0.00559197 -0.0107908 1e-05
0.00568229 -0.0109712 1e-05
0.00577378 -0.011151 1e-05
0.0058665 -0.0113301 1e-05
0.00596054 -0.0115086 1e-05
0.00604356 -0.0116631 1e-05
0.00607175 -0.0117147 1e-05
0.00610006 -0.0117663 1e-05
0.00612849 -0.0118177 1e-05
0.00615704 -0.0118691 1e-05
0.00618608 -0.0119211 1e-05
0.00627265 -0.0120752 1e-05
0.00636039 -0.0122287 1e-05
0.00644933 -0.0123814 1e-05
0.0065395 -0.0125334 1e-05
0.00661893 -0.0126648 1e-05
0.00666645 -0.0127421 1e-05
0.0067143 -0.0128191 1e-05
0.00676249 -0.012896 1e-05
0.00681103 -0.0129726 1e-05
0.0068613 -0.0130512 1e-05
0.00692879 -0.0131555 1e-05
0.00699697 -0.0132595 1e-05
0.00706584 -0.0133629 1e-05
0.00713543 -0.0134659 1e-05
0.00719878 -0.0135582 1e-05
0.00728554 -0.0136827 1e-05
0.00737334 -0.0138065 1e-05
0.0074622 -0.0139295 1e-05
0.00755221 -0.0140517 1e-05
0.0076493 -0.014181 1e-05
0.00767607 -0.0142158 1e-05
0.00770293 -0.0142506 1e-05
0.0077299 -0.0142853 1e-05
0.00775697 -0.01432 1e-05
0.00778313 -0.0143533 1e-05
0.00790091 -0.0145022 1e-05
0.00802052 -0.0146497 1e-05
0.00814197 -0.0147957 1e-05
0.0082653 -0.0149401 1e-05
0.00837203 -0.0150619 1e-05
0.00841666 -0.0151116 1e-05
0.00846151 -0.0151612 1e-05
0.00850659 -0.0152105 1e-05
0.0085519 -0.0152596 1e-05
0.0085994 -0.0153107 1e-05
0.00867262 -0.0153886 1e-05
0.00874643 -0.015466 1e-05
0.00882081 -0.0155428 1e-05
0.00889577 -0.015619 1e-05
0.00896551 -0.0156888 1e-05
0.00908513 -0.0158067 1e-05
0.00920609 -0.0159233 1e-05
0.00932838 -0.0160384 1e-05
0.00945207 -0.0161521 1e-05
0.0095636 -0.016252 1e-05
0.00960666 -0.0162897 1e-05
0.00964986 -0.0163272 1e-05
0.00969322 -0.0163645 1e-05
0.00973673 -0.0164016 1e-05
0.00978248 -0.0164404 1e-05
0.00985926 -0.0165048 1e-05
0.0099365 -0.0165686 1e-05
0.0100142 -0.0166319 1e-05
0.0100924 -0.0166946 1e-05
0.0101663 -0.0167531 1e-05
0.0102878 -0.0168479 1e-05
0.0104104 -0.0169414 1e-05
0.010534 -0.0170335 1e-05
0.0106585 -0.0171242 1e-05
0.0107738 -0.0172064 1e-05
0.0108777 -0.0172791 1e-05
0.0109823 -0.0173509 1e-05
0.0110874 -0.0174218 1e-05
[...]
POINT_DATA 12530
 FIELD attributes 1
U 3 12530 float
10.0235 	-0.0330229 	0 10.0503 	-0.0634958 	0 10.0752 	-0.0910347 	0 10.1007 	-0.119423 	0 10.1268 	-0.148682 	0 10.1563 	-0.125343 	0 10.2173 	-0.112769 	0 10.2257 	-0.0716453 	0 10.2317 	-0.0299936 	0 10.2351 	0.0121914 	0 10.214 	0.0917715 	0 10.2469 	0.122542 	0 10.2473 	0.222562 	0 10.2415 	0.325581 	0 10.2292 	0.431685 	0 10.2041 	0.560465 	0 10.2201 	0.585629 	0 10.2068 	0.616407 	0 10.1928 	0.647215 	0 10.1781 	0.678052 	0 10.1692 	0.695936 	0 10.1302 	0.816838 	0 10.0853 	0.938169 	0 10.0342 	1.05992 	0 9.97017 	1.18092 	0 9.86427 	1.29771 	0 9.85075 	1.47342 	0 9.8245 	1.64927 	0 9.68129 	1.75889 	0 9.40027 	1.79645 	0 9.11073 	1.8362 	0 9.09416 	1.85618 	0 9.07689 	1.8759 	0 9.00993 	1.86621 	0 8.94291 	1.85651 	0 8.88183 	1.84767 	0 8.76808 	1.89 	0 8.65431 	1.93427 	0 8.54053 	1.98059 	0 8.29218 	1.95596 	0 8.03725 	1.93052 	0 7.91911 	1.92795 	0 7.80029 	1.92577 	0 7.54324 	1.92431 	0 7.27294 	1.92383 	0 7.04687 	1.92435 	0 6.96252 	1.934 	0 6.87807 	1.94405 	0 6.78605 	1.95258 	0 6.65451 	1.95123 	0 6.52085 	1.95025 	0 6.22168 	1.98724 	0 5.9181 	2.02785 	0 5.66354 	2.01236 	0 5.41853 	1.98552 	0 5.2875 	1.9718 	0 5.24307 	1.97751 	0 5.19855 	1.98339 	0 5.15877 	1.9806 	0 5.12615 	1.96473 	0 5.09317 	1.94867 	0 4.97014 	1.89465 	0 4.84723 	1.8405 	0 4.82853 	1.70626 	0 4.87081 	1.52423 	0 4.92133 	1.29089 	0 4.92129 	1.29064 	0 4.92124 	1.29039 	0 4.9212 	1.29013 	0 4.92149 	1.28966 	0 4.92184 	1.28915 	0 5.03204 	1.086 	0 5.13257 	0.886034 	0 5.22388 	0.689386 	0 5.31026 	0.512918 	0 5.38488 	0.364277 	0 5.44627 	0.230222 	0 5.50189 	0.0975474 	0 5.54315 	-0.0113482 	0 5.57737 	-0.090729 	0 5.60782 	-0.168842 	0 5.64498 	-0.238064 	0 5.67925 	-0.306666 	0 5.71059 	-0.372881 	0 5.74204 	-0.441983 	0 5.77136 	-0.511496 	0 5.81422 	-0.572462 	0 5.8554 	-0.63628 	0 5.89451 	-0.701364 	0 5.93116 	-0.765912 	0 5.96468 	-0.837625 	0 5.98692 	-0.867244 	0 6.00572 	-0.898908 	0 6.02401 	-0.930445 	0 6.04179 	-0.961836 	0 6.05414 	-0.984142 	0 6.07443 	-1.02362 	0 6.09381 	-1.06277 	0 6.11228 	-1.10159 	0 6.12924 	-1.13955 	0 6.14343 	-1.17575 	0 6.18644 	-1.24545 	0 6.22553 	-1.31625 	0 6.26082 	-1.38843 	0 6.2981 	-1.45969 	0 6.33363 	-1.53122 	0 6.38693 	-1.60809 	0 6.43406 	-1.68765 	0 6.47487 	-1.76988 	0 6.51307 	-1.85098 	0 6.53633 	-1.90319 	0 6.53983 	-1.9107 	0 6.54329 	-1.91819 	0 6.54673 	-1.92566 	0 6.5497 	-1.93529 	0 6.55252 	-1.94552 	0 6.60047 	-2.03217 	0 6.6421 	-2.12725 	0 6.68074 	-2.21985 	0 6.73188 	-2.35291 	0 6.78087 	-2.48793 	0 6.81898 	-2.56011 	0 6.85573 	-2.63235 	-2.08516e-22 6.88525 	-2.72058 	-4.6338e-21 6.91337 	-2.80796 	-9.09402e-21 6.9347 	-2.87704 	-1.26815e-20 6.96135 	-2.93334 	-1.32025e-20 6.98731 	-2.9889 	-1.36934e-20 7.01207 	-3.04915 	-1.43952e-20 7.03402 	-3.1299 	-1.60115e-20 7.05542 	-3.2117 	-1.76294e-20 7.15235 	-3.405 	-6.39959e-20 7.23774 	-3.59259 	-1.03063e-19 7.24042 	-3.75381 	-7.32448e-20 7.23865 	-3.91122 	-4.23367e-20 7.23357 	-4.03937 	-1.56841e-20 7.23674 	-4.04795 	-1.39683e-20 7.23991 	-4.05651 	-1.22502e-20 7.24247 	-4.06524 	-1.12401e-20 7.24223 	-4.0747 	-1.35758e-20 7.24197 	-4.08419 	-1.592e-20 7.2597 	-4.30325 	-2.4258e-20 7.25907 	-4.50456 	-3.06433e-20 7.227 	-4.69684 	-3.19234e-20 7.12563 	-4.87011 	-2.15961e-20 7.01004 	-5.06499 	-1.0154e-20 6.99944 	-5.08629 	-1.00471e-20 6.98883 	-5.10756 	-9.94139e-21 6.97407 	-5.12676 	-9.89056e-21 6.95534 	-5.14398 	-9.89234e-21 6.93727 	-5.16054 	-9.89541e-21 6.88617 	-5.42138 	-5.75698e-21 6.83763 	-5.68391 	-1.58284e-21 6.70249 	-5.89147 	-2.64287e-21 6.50309 	-6.05156 	-6.53474e-21 6.328 	-6.1636 	-9.22714e-21 6.32714 	-6.19215 	-1.09864e-20 6.32608 	-6.22057 	-1.27068e-20 6.31025 	-6.23972 	-1.1631e-20 6.29443 	-6.25886 	-1.05563e-20 6.27822 	-6.27846 	-9.45613e-21 6.1489 	-6.4474 	-9.24249e-21 6.02026 	-6.61512 	-8.89875e-21 5.89237 	-6.78154 	-8.42687e-21 5.71399 	-6.84806 	-1.36036e-21 5.57109 	-6.89729 	4.53479e-21 5.48709 	-7.17086 	1.07173e-20 5.37366 	-7.39181 	1.29888e-20 5.20709 	-7.51923 	8.36279e-21 5.04277 	-7.64832 	3.82616e-21 4.87829 	-7.74165 	-9.00909e-22 4.87438 	-7.76974 	-1.95638e-21 4.86556 	-7.78924 	-2.10517e-21 4.85193 	-7.80036 	-1.36892e-21 4.83832 	-7.81148 	-6.33377e-22 4.8243 	-7.82297 	1.24506e-22 4.67744 	-7.94875 	2.70143e-21 4.53292 	-8.07527 	5.37507e-21 4.39075 	-8.20245 	8.14277e-21 4.27153 	-8.27411 	1.11382e-20 4.18848 	-8.28036 	1.39965e-20 4.04306 	-8.53492 	1.8517e-20 3.90073 	-8.79387 	2.31789e-20 3.7809 	-8.88449 	2.03376e-20 3.67236 	-8.81126 	9.78268e-21 3.5755 	-8.74527 	2.63243e-22 3.48009 	-9.05637 	-1.16646e-20 3.38557 	-9.1595 	-1.04487e-20 3.29197 	-9.18564 	-4.3482e-21 3.19956 	-9.21408 	1.64769e-21 3.07058 	-9.25518 	1.00682e-20 3.07025 	-9.25717 	1.00397e-20 3.06975 	-9.25754 	1.00115e-20 3.06921 	-9.25755 	9.98348e-21 3.06868 	-9.25757 	9.95544e-21 3.06814 	-9.25758 	9.92733e-21 2.95936 	-9.26838 	1.13835e-20 2.85164 	-9.28192 	1.25817e-20 2.74499 	-9.29822 	1.3521e-20 2.64945 	-9.30648 	9.57807e-21 2.61491 	-9.25569 	-2.05946e-20 2.47021 	-9.29356 	-6.44905e-20 2.32609 	-9.33536 	-1.07262e-19 2.19269 	-9.31618 	-9.9173e-20 2.10873 	-9.20198 	-3.67742e-20 2.02802 	-9.09411 	2.33228e-20 1.85156 	-9.11042 	1.05319e-19 1.68848 	-9.10516 	1.70482e-19 1.59179 	-8.96315 	1.51836e-19 1.48025 	-8.79233 	1.06506e-19 1.3573 	-8.59861 	3.58731e-20 1.21125 	-8.45001 	-5.07324e-20 1.14171 	-8.2051 	-5.68947e-20 1.07134 	-7.96265 	-6.33522e-20 1.00009 	-7.7229 	-7.01335e-20 0.915829 	-7.46913 	-5.95289e-20 0.914248 	-7.33675 	-5.33198e-20 0.915055 	-7.23602 	-4.59511e-20 0.916033 	-7.13504 	-3.85863e-20 0.917191 	-7.0338 	-3.12254e-20 0.91834 	-6.94717 	-2.49466e-20 0.910215 	-6.74729 	-1.40493e-20 0.902372 	-6.54678 	-3.24154e-21 0.894834 	-6.34558 	7.46921e-21 0.887626 	-6.14365 	1.80748e-20 0.882536 	-6.03001 	4.59801e-20 0.931637 	-5.74499 	8.96655e-20 0.987104 	-5.47638 	9.57281e-20 1.04535 	-5.20386 	1.03264e-19 1.08972 	-5.017 	7.88839e-20 1.12302 	-4.90014 	2.53912e-20 1.19158 	-4.71505 	1.23364e-20 1.26308 	-4.52925 	-4.09072e-22 1.29558 	-4.44132 	-1.13784e-20 1.32654 	-4.36227 	-2.22505e-20 1.36094 	-4.2915 	-3.47322e-20 1.36877 	-4.27531 	-3.49143e-20 1.37618 	-4.25969 	-3.47865e-20 1.37903 	-4.2496 	-3.16923e-20 1.38189 	-4.23952 	-2.8589e-20 1.38457 	-4.23017 	-2.56951e-20 1.40454 	-4.17322 	-1.70987e-20 1.42511 	-4.11647 	-8.38488e-21 1.44628 	-4.05994 	4.49796e-22 1.45614 	-4.00514 	3.37916e-21 1.46621 	-3.94893 	6.21586e-21 1.47389 	-3.91301 	1.5659e-20 1.48177 	-3.87719 	2.51178e-20 1.48444 	-3.84031 	2.30193e-20 1.48577 	-3.80319 	1.76952e-20 1.48706 	-3.77037 	1.29451e-20 1.49203 	-3.73782 	1.01229e-20 1.49718 	-3.70532 	7.2806e-21 1.501 	-3.67274 	5.10475e-21 1.50143 	-3.63993 	4.55022e-21 1.50198 	-3.6066 	3.97737e-21 1.50152 	-3.55804 	1.65447e-21 1.50132 	-3.50955 	-6.84684e-22 1.50026 	-3.46342 	-1.97648e-21 1.49903 	-3.41823 	-2.87827e-21 1.49815 	-3.378 	-3.69135e-21 1.4979 	-3.35744 	-4.88373e-21 1.4977 	-3.33689 	-6.08214e-21 1.49722 	-3.31695 	-6.37662e-21 1.49618 	-3.29816 	-4.99555e-21 1.49517 	-3.27918 	-3.6018e-21 1.49282 	-3.22844 	-2.13523e-21 1.49078 	-3.17776 	-6.72262e-22 1.48951 	-3.12798 	-4.6833e-22 1.48887 	-3.07877 	-1.02967e-21 1.48861 	-3.03531 	-1.53821e-21 1.48785 	-3.02171 	-2.25423e-21 1.48712 	-3.00811 	-2.97298e-21 1.48664 	-2.9947 	-2.99296e-21 1.48646 	-2.98152 	-2.20859e-21 1.48631 	-2.96823 	-1.41886e-21 1.4858 	-2.91934 	-1.10095e-21 1.48566 	-2.87053 	-7.89495e-22 1.48744 	-2.8227 	-6.49463e-22 1.49108 	-2.7758 	-6.702e-22 1.49463 	-2.7351 	-6.96642e-22 1.49474 	-2.72102 	-4.07788e-22 1.49488 	-2.70694 	-1.18505e-22 1.49556 	-2.69321 	0 1.49662 	-2.67973 	0 1.49774 	-2.66609 	0 1.50148 	-2.62586 	0 1.50557 	-2.58572 	0 1.51037 	-2.54613 	0 1.51613 	-2.50735 	0 1.52146 	-2.47378 	0 1.52372 	-2.45364 	0 1.52607 	-2.43353 	0 1.52901 	-2.41393 	8.18557e-27 1.53223 	-2.39455 	1.94377e-26 1.53566 	-2.37465 	3.10396e-26 1.54053 	-2.34833 	3.28248e-26 1.5456 	-2.32207 	3.47271e-26 1.5513 	-2.29596 	-8.18297e-23 1.5587 	-2.27024 	-4.52279e-22 1.56558 	-2.24716 	-7.87189e-22 1.57182 	-2.21611 	-1.80628e-21 1.57833 	-2.18518 	-2.83415e-21 1.58701 	-2.15483 	-2.60057e-21 1.59627 	-2.12467 	-2.18758e-21 1.60647 	-2.09271 	-1.75088e-21 1.60943 	-2.08412 	-1.85e-21 1.61242 	-2.07554 	-1.94889e-21 1.61545 	-2.06699 	-2.04014e-21 1.6188 	-2.05909 	-1.69088e-21 1.62206 	-2.05149 	-1.35375e-21 1.63397 	-2.01504 	4.83785e-22 1.64636 	-1.97882 	2.34107e-21 1.66036 	-1.94424 	2.69399e-21 1.67579 	-1.91148 	1.59547e-21 1.6894 	-1.88379 	6.42345e-22 1.6941 	-1.87154 	6.15239e-22 1.69893 	-1.85947 	6.01133e-22 1.7043 	-1.84827 	6.60655e-22 1.70974 	-1.83709 	7.19852e-22 1.71546 	-1.82547 	7.81261e-22 1.72452 	-1.80783 	6.62612e-22 1.73374 	-1.79028 	5.44625e-22 1.74311 	-1.77282 	4.27311e-22 1.75357 	-1.75505 	3.26633e-22 1.76358 	-1.73864 	2.38088e-22 1.7775 	-1.71274 	-1.05794e-21 1.79175 	-1.68709 	-2.36503e-21 1.80774 	-1.66098 	-2.24436e-21 1.82493 	-1.6344 	-1.46692e-21 1.84086 	-1.61064 	-5.94515e-22 1.84596 	-1.60234 	-5.68073e-22 1.8513 	-1.59395 	-5.68133e-22 1.85701 	-1.58541 	-6.06665e-22 1.86275 	-1.57689 	-6.44956e-22 1.86881 	-1.568 	-6.84829e-22 1.87914 	-1.55329 	-5.97438e-22 1.88959 	-1.53867 	-5.10668e-22 1.90017 	-1.52415 	-4.24522e-22 1.91109 	-1.51113 	-4.03525e-22 1.92164 	-1.50004 	-4.33631e-22 1.93715 	-1.47731 	-1.27738e-21 1.95293 	-1.45479 	-2.12991e-21 1.96965 	-1.43489 	-1.98866e-21 1.9872 	-1.41763 	-9.24653e-22 2.00354 	-1.40198 	5.95141e-23 2.01671 	-1.38423 	5.06693e-23 2.03045 	-1.36853 	5.31382e-23 2.04459 	-1.35411 	6.23466e-23 2.05887 	-1.33982 	7.14174e-23 2.0752 	-1.32378 	8.15284e-23 2.0772 	-1.32189 	7.99475e-23 2.07919 	-1.32001 	7.8369e-23 2.08119 	-1.31812 	7.67926e-23 2.08317 	-1.31615 	8.56439e-23 2.08508 	-1.31394 	1.20483e-22 2.10153 	-1.2987 	6.52616e-22 2.11812 	-1.283 	1.00731e-21 2.13489 	-1.26746 	1.35682e-21 2.15153 	-1.25082 	1.16265e-21 2.16708 	-1.23369 	3.07744e-22 2.18366 	-1.22108 	1.91401e-22 2.20039 	-1.20863 	7.38781e-23 2.21675 	-1.19391 	-6.04123e-23 2.23284 	-1.17678 	-1.59826e-22 2.2484 	-1.16053 	-2.54929e-22 2.265 	-1.149 	-2.00881e-22 2.28116 	-1.13557 	-2.13082e-22 2.29725 	-1.12153 	-2.49255e-22 2.31349 	-1.10764 	-2.84766e-22 2.32916 	-1.09365 	-3.6582e-22 2.33236 	-1.09161 	-3.2842e-22 2.3354 	-1.08907 	-2.99284e-22 2.33845 	-1.0865 	-2.70469e-22 2.3415 	-1.08395 	-2.41636e-22 2.34465 	-1.08132 	-2.11942e-22 2.3575 	-1.07072 	-2.12176e-22 2.37043 	-1.06022 	-2.10566e-22 2.38345 	-1.04981 	-2.07129e-22 2.3965 	-1.03958 	-1.89306e-22 2.40768 	-1.03394 	3.87126e-22 2.42459 	-1.01875 	1.38713e-21 2.44089 	-1.0055 	1.9114e-21 2.45694 	-0.993284 	2.20059e-21 2.47152 	-0.98538 	1.48799e-21 2.48532 	-0.978931 	5.24388e-22 2.50217 	-0.964428 	3.0533e-22 2.51915 	-0.950044 	8.61387e-23 2.53466 	-0.939963 	9.93193e-23 2.54877 	-0.933738 	1.74662e-22 2.56258 	-0.927742 	2.47512e-22 2.57935 	-0.913865 	-7.55321e-22 2.59523 	-0.902846 	-1.09971e-21 2.61034 	-0.894205 	-8.96207e-22 2.62554 	-0.885636 	-6.96361e-22 2.63939 	-0.879897 	3.94473e-22 2.65229 	-0.870144 	9.52374e-22 2.66408 	-0.863565 	7.38526e-22 2.67592 	-0.857027 	5.26104e-22 2.68781 	-0.850531 	3.15097e-22 2.70128 	-0.843244 	7.84903e-23 2.70414 	-0.841725 	8.07997e-24 2.707 	-0.840209 	-6.21967e-23 2.70986 	-0.838695 	-1.3234e-22 2.71272 	-0.837183 	-2.0235e-22 2.71443 	-0.834783 	-3.61545e-23 2.73045 	-0.827783 	5.69339e-22 2.74539 	-0.819829 	9.33111e-22 2.76039 	-0.811936 	1.29392e-21 2.77546 	-0.804103 	1.65178e-21 2.78355 	-0.790954 	5.34573e-22 2.80385 	-0.788271 	1.04869e-21 2.82002 	-0.781849 	1.18863e-21 2.83491 	-0.774271 	1.2082e-21 2.84542 	-0.763082 	7.30234e-22 2.85294 	-0.749624 	-7.50047e-23 2.87306 	-0.747327 	-1.64192e-23 2.89322 	-0.745078 	4.26268e-23 2.90708 	-0.737083 	1.23283e-22 2.91481 	-0.723765 	3.61799e-22 2.92257 	-0.710627 	5.9884e-22 2.94246 	-0.708698 	2.28516e-21 2.9624 	-0.706811 	3.97238e-21 2.97627 	-0.699487 	3.91652e-21 2.9844 	-0.686661 	2.27262e-21 2.99239 	-0.673816 	5.88587e-22 3.01202 	-0.672251 	3.45955e-22 3.02844 	-0.667646 	1.76983e-22 3.04175 	-0.66011 	7.93302e-23 3.05415 	-0.651644 	0 3.06235 	-0.63906 	0 3.08122 	-0.637375 	4.04944e-24 3.09455 	-0.630126 	5.44723e-23 3.10795 	-0.622941 	1.04838e-22 3.12141 	-0.615818 	1.55147e-22 3.13245 	-0.606235 	2.2067e-22 3.14419 	-0.603562 	5.18323e-23 3.15379 	-0.59859 	2.26172e-22 3.16343 	-0.593647 	3.99791e-22 3.1731 	-0.588735 	5.72694e-22 3.18378 	-0.583355 	7.62401e-22 3.1874 	-0.581558 	8.22596e-22 3.19102 	-0.579764 	8.82709e-22 3.19464 	-0.577975 	9.42741e-22 3.19827 	-0.576189 	1.00269e-21 3.20091 	-0.575672 	9.4738e-22 3.21539 	-0.567845 	9.00607e-22 3.22884 	-0.561269 	9.0844e-22 3.24235 	-0.554747 	9.17036e-22 3.25592 	-0.548279 	9.26387e-22 3.26528 	-0.547826 	9.9028e-22 3.28328 	-0.535898 	6.91054e-23 3.29672 	-0.52965 	-3.85352e-22 3.31022 	-0.523453 	-8.3831e-22 3.3233 	-0.518048 	-1.18755e-21 3.33073 	-0.521719 	-2.96178e-22 3.34965 	-0.508094 	-2.16589e-22 3.36473 	-0.499856 	-1.50179e-22 3.37816 	-0.493973 	-8.96036e-23 3.38893 	-0.493185 	-3.51742e-23 3.39702 	-0.497293 	1.32253e-23 3.41525 	-0.483735 	1.62643e-21 3.43258 	-0.471782 	2.97541e-21 3.44592 	-0.466193 	3.24349e-21 3.45516 	-0.469904 	1.52118e-21 3.46395 	-0.474433 	-3.74289e-22 3.48138 	-0.460909 	-1.86355e-21 3.49891 	-0.447441 	-3.35271e-21 3.51219 	-0.443074 	-3.45172e-21 3.52179 	-0.448035 	-2.08052e-21 3.53133 	-0.452958 	-7.15697e-22 3.54787 	-0.439443 	-4.39207e-22 3.5645 	-0.425981 	-1.62193e-22 3.57829 	-0.422095 	0 3.58866 	-0.427438 	0 3.59897 	-0.432743 	0 3.61456 	-0.419258 	0 3.63018 	-0.406056 	-2.62518e-24 3.64418 	-0.403232 	-1.22159e-22 3.65561 	-0.408066 	-3.2957e-22 3.66669 	-0.413715 	-5.45957e-22 3.68128 	-0.400301 	-1.14699e-21 3.69567 	-0.390709 	-1.46369e-21 3.70959 	-0.388008 	-1.26356e-21 3.72245 	-0.389826 	-7.7139e-22 3.73427 	-0.395749 	-1.39812e-23 3.74787 	-0.382403 	6.34245e-23 3.76161 	-0.376285 	3.23783e-22 3.77542 	-0.373683 	6.73091e-22 3.78903 	-0.372545 	9.9562e-22 3.80156 	-0.378691 	1.18478e-21 3.81418 	-0.36537 	3.65548e-22 3.82781 	-0.362586 	6.56765e-23 3.84147 	-0.36007 	-2.22002e-22 3.85516 	-0.357559 	-5.10423e-22 3.86841 	-0.362435 	-1.56751e-22 3.88055 	-0.352011 	4.41168e-22 3.89405 	-0.349577 	1.09118e-22 3.90755 	-0.347148 	-2.22356e-22 3.92108 	-0.344723 	-5.53256e-22 3.93472 	-0.34694 	-1.24182e-21 3.94685 	-0.339598 	-6.33017e-22 3.96019 	-0.337249 	-3.44042e-22 3.97354 	-0.334903 	-5.45205e-23 3.98689 	-0.332562 	2.35544e-22 4.00045 	-0.332168 	3.31264e-22 4.00934 	-0.328438 	3.24636e-22 4.01886 	-0.326795 	3.2422e-22 4.02839 	-0.325153 	3.23764e-22 4.03793 	-0.323513 	3.23269e-22 4.04845 	-0.321705 	3.22678e-22 4.05191 	-0.321113 	3.33558e-22 4.05537 	-0.320522 	3.44402e-22 4.05882 	-0.31993 	3.5521e-22 4.06228 	-0.319339 	3.65983e-22 4.06252 	-0.317322 	3.09684e-22 4.0789 	-0.316601 	2.3901e-22 4.09191 	-0.314407 	1.63703e-22 4.10494 	-0.312216 	8.83769e-23 4.11797 	-0.310029 	1.30317e-23 4.11497 	-0.301064 	9.81773e-23 4.14452 	-0.305962 	4.94034e-22 4.15736 	-0.303848 	7.72906e-22 4.17021 	-0.301736 	1.05134e-21 4.18306 	-0.299627 	1.32934e-21 4.16642 	-0.285583 	1.11423e-21 4.20974 	-0.295889 	8.29071e-22 4.22239 	-0.293849 	8.0426e-22 4.23504 	-0.291812 	7.79663e-22 4.2477 	-0.289777 	7.55278e-22 4.21676 	-0.270827 	9.36873e-22 4.27447 	-0.28635 	1.55998e-21 4.28692 	-0.284385 	1.37018e-21 4.29938 	-0.282422 	1.18e-21 4.31184 	-0.280461 	9.89418e-22 4.26591 	-0.256766 	1.40581e-22 4.33423 	-0.275694 	5.84663e-23 4.35088 	-0.275443 	8.76127e-24 4.36314 	-0.273559 	-3.82464e-23 4.36323 	-0.26733 	-7.36541e-23 4.31384 	-0.243408 	-6.17429e-23 4.3846 	-0.262558 	-1.3289e-22 4.41423 	-0.26703 	-1.07305e-22 4.42627 	-0.265228 	-4.03947e-23 4.41282 	-0.254666 	0 4.36052 	-0.230761 	0 4.4338 	-0.250129 	0 4.47691 	-0.259145 	-2.21608e-23 4.48874 	-0.257427 	-6.7384e-23 4.46117 	-0.242697 	-1.83738e-22 4.40589 	-0.218813 	-3.50262e-22 4.48175 	-0.238386 	-1.1222e-21 4.53885 	-0.251767 	-1.67964e-21 4.55047 	-0.250127 	-1.71266e-21 4.50823 	-0.231379 	-1.19471e-21 4.44989 	-0.207516 	-5.09835e-22 4.52839 	-0.227278 	-2.71316e-22 4.60001 	-0.244853 	-5.20974e-23 4.6114 	-0.243272 	-2.80323e-24 4.55393 	-0.220636 	-7.76703e-23 4.49245 	-0.196772 	-1.59862e-22 4.57364 	-0.216722 	-8.29237e-23 4.65464 	-0.23661 	-6.21197e-24 4.66308 	-0.234336 	2.38579e-23 4.59824 	-0.210392 	3.28123e-22 4.53356 	-0.186492 	6.31649e-22 4.61748 	-0.206644 	1.29222e-21 4.70121 	-0.226735 	1.95356e-21 4.70921 	-0.224624 	2.0843e-21 4.64112 	-0.200623 	1.74448e-21 4.5732 	-0.176665 	1.4028e-21 4.65988 	-0.197022 	2.51789e-21 4.74636 	-0.217318 	3.63406e-21 4.75391 	-0.215374 	3.50643e-21 4.68255 	-0.191332 	2.11098e-21 4.61136 	-0.167334 	7.13084e-22 4.70086 	-0.187893 	-3.11733e-22 4.79014 	-0.208392 	-1.33555e-21 4.79724 	-0.206608 	-1.48455e-21 4.72256 	-0.182544 	-7.42208e-22 4.64806 	-0.158524 	2.51637e-25 4.74045 	-0.179282 	1.47907e-23 4.83262 	-0.199981 	2.98381e-23 4.83925 	-0.198346 	-3.24948e-23 4.76119 	-0.174256 	-2.69536e-23 4.68331 	-0.150209 	-2.08419e-23 4.77867 	-0.171187 	6.70952e-22 4.8738 	-0.192107 	1.36217e-21 4.87994 	-0.190611 	1.35702e-21 4.79843 	-0.166467 	6.56775e-22 4.7171 	-0.142365 	-4.3517e-23 4.81548 	-0.163572 	-5.75866e-23 4.91363 	-0.184719 	-7.21522e-23 4.91928 	-0.183356 	2.56665e-22 4.83425 	-0.159132 	5.11045e-22 4.7494 	-0.134949 	7.6471e-22 4.85084 	-0.15637 	1.34598e-21 4.94346 	-0.175704 	1.87517e-21 4.94625 	-0.173809 	1.85328e-21 4.86863 	-0.152187 	1.51182e-21 4.78023 	-0.127915 	1.12638e-21 4.88473 	-0.149508 	1.33761e-21 4.96835 	-0.166309 	1.41443e-21 4.97092 	-0.164503 	9.63942e-22 4.90152 	-0.14555 	3.16923e-22 4.80955 	-0.121212 	-3.91771e-22 4.91711 	-0.142961 	-1.75325e-21 4.99155 	-0.157319 	-2.75202e-21 4.9939 	-0.155589 	-2.95547e-21 4.93291 	-0.139199 	-2.35197e-21 4.83737 	-0.114809 	-1.30518e-21 4.94801 	-0.136724 	-1.72418e-21 5.01312 	-0.148749 	-1.91479e-21 5.01527 	-0.147086 	-1.78696e-21 4.96284 	-0.13314 	-1.4074e-21 4.86375 	-0.108689 	-8.11151e-22 4.97751 	-0.130802 	-6.57708e-22 5.03322 	-0.140605 	-4.04362e-22 5.03517 	-0.139008 	-5.75918e-23 4.99141 	-0.127386 	2.39838e-22 4.88874 	-0.10284 	4.73867e-22 5.0057 	-0.125175 	1.53014e-21 5.05191 	-0.132856 	1.95457e-21 5.05368 	-0.131333 	1.98148e-21 5.01869 	-0.121938 	1.65631e-21 4.91238 	-0.0972699 	6.47411e-22 5.03259 	-0.119843 	3.60358e-22 5.06922 	-0.125494 	2.95607e-22 5.07082 	-0.124051 	3.24226e-22 5.04467 	-0.116802 	4.1052e-22 4.93466 	-0.0919995 	6.71284e-22 5.05816 	-0.114801 	2.15519e-21 5.08513 	-0.118495 	2.53059e-21 5.08654 	-0.117131 	2.61215e-21 5.06933 	-0.111956 	2.48305e-21 4.95558 	-0.0870319 	1.26243e-21 5.08238 	-0.110039 	1.91417e-21 5.09961 	-0.111839 	1.99051e-21 5.10086 	-0.110544 	1.98279e-21 5.09266 	-0.107362 	1.91851e-21 4.97518 	-0.0823315 	1.20059e-21 5.10529 	-0.105516 	1.88026e-21 5.11273 	-0.105481 	1.70378e-21 5.11382 	-0.104243 	1.48281e-21 5.11471 	-0.102966 	1.26032e-21 4.99349 	-0.0778236 	1.677e-22 5.12367 	-0.10058 	-9.45887e-22 5.12455 	-0.0993797 	-9.86485e-22 5.12548 	-0.0981874 	-1.02732e-21 5.12646 	-0.097003 	-1.06838e-21 5.01055 	-0.0734582 	6.60842e-23 5.13444 	-0.0946643 	1.31803e-21 5.13516 	-0.0935078 	1.39788e-21 5.13594 	-0.0923589 	1.47802e-21 5.13676 	-0.0912176 	1.55845e-21 5.02639 	-0.0692403 	5.17016e-22 5.14403 	-0.0889892 	2.60892e-22 5.14462 	-0.0878795 	1.48301e-22 5.14526 	-0.086777 	3.56987e-23 5.14594 	-0.0856819 	-7.69141e-23 5.04105 	-0.0652036 	-5.49914e-23 5.15259 	-0.0835898 	-1.27633e-22 5.15306 	-0.0825314 	-2.46835e-22 5.15358 	-0.0814801 	-3.66004e-22 5.15414 	-0.0804358 	-4.85142e-22 5.05465 	-0.0613723 	-5.92386e-22 5.16024 	-0.0784932 	-1.19667e-21 5.16062 	-0.0774908 	-1.2075e-21 5.16104 	-0.076495 	-1.21844e-21 5.1615 	-0.0755059 	-1.22949e-21 5.06728 	-0.0577569 	-7.44286e-22 5.1671 	-0.0736997 	-1.39846e-21 5.16739 	-0.0727622 	-1.26947e-21 5.16772 	-0.071831 	-1.14066e-21 5.16809 	-0.0709061 	-1.01202e-21 5.079 	-0.0543897 	-2.10995e-22 5.