/*--------------------------------*- C++ -*----------------------------------*\
| =========                 |                                                 |
| \\      /  F ield         | OpenFOAM: The Open Source CFD Toolbox           |
|  \\    /   O peration     | Version:  v1906                                 |
|   \\  /    A nd           | Web:      www.OpenFOAM.com                      |
|    \\/     M anipulation  |                                                 |
\*---------------------------------------------------------------------------*/
FoamFile
{
    version     2.0;
    format      ascii;
    class       volScalarField;
    location    "1100";
    object      epsilon;
}
// * * * * * * * * * * * * * * * * * * * * * * * * * * * * * * * * * * * * * //

dimensions      [0 2 -3 0 0 0 0];


internalField   nonuniform List<scalar> 
12225
(
8534.02
8352.95
7991.39
7605.14
7244.37
6922.48
6639.22
6393.62
6175.22
5989.01
5815.95
5676.97
5565.79
5476.35
5395.08
5337
5268.04
5242.45
612.84
1496.62
1698.52
1689.06
1643.05
1564.97
1507.01
1460.99
1422.73
1390.19
1362.76
1338.63
1320.02
1303.74
1289.99
1279
1263.9
1255.61
136.092
458.853
618.696
686.917
717.3
720.664
717.563
710.217
700.259
689.701
679.675
669.681
660.592
652.097
644.015
637.414
629.026
625.146
58.494
196.181
292.429
349.168
383.807
402.633
412.971
418.165
419.604
419.059
417.519
414.768
411.575
408.164
404.52
401.3
396.888
395.193
35.983
104.797
162.954
203.262
231.267
250.089
262.825
271.458
277.081
280.619
282.792
283.873
284.075
283.852
283.239
282.422
280.871
280.806
26.8377
65.6336
102.216
130.424
151.687
167.444
179.139
187.869
194.35
199.135
202.679
205.258
207.057
208.298
209.098
209.582
209.688
210.232
22.3043
46.129
70.0863
90.0237
105.967
118.523
128.393
136.181
142.332
147.192
151.047
154.103
156.509
158.4
159.878
161.03
161.857
162.898
19.7657
35.3023
51.562
65.8841
77.8824
87.7548
95.841
102.472
107.919
112.401
116.102
119.165
121.7
123.8
125.541
126.987
128.169
129.42
18.2251
28.7915
40.1554
50.6102
59.7069
67.4544
74.0046
79.5363
84.2122
88.1714
91.5328
94.3941
96.834
98.9183
100.703
102.234
103.555
104.85
17.2354
24.6377
32.7695
40.5139
47.4711
53.5692
58.8613
63.4393
67.3983
70.8254
73.7979
76.3815
78.6318
80.5955
82.3131
83.8198
85.1549
86.4189
16.5719
21.8683
27.7957
33.6056
38.9713
43.7932
48.073
51.8522
55.1836
58.1205
60.7124
63.0033
65.0317
66.8307
68.4299
69.8559
71.1397
72.3371
16.15
20.118
24.6282
29.1493
33.4181
37.3324
40.8707
44.0473
46.8908
49.4339
51.7088
53.7458
55.5719
57.2112
58.6858
60.016
61.2252
62.3476
15.8382
18.8307
22.2846
25.8207
29.2306
32.4183
35.3504
38.0245
40.4529
42.6538
44.6473
46.453
48.0899
49.575
50.9245
52.1538
53.2799
54.3246
15.58
17.773
20.348
23.0454
25.7064
28.2471
30.6288
32.8383
34.876
36.7489
38.4675
40.0431
41.4874
42.8118
44.0274
45.1449
46.1762
47.1346
15.3746
16.94
18.814
20.8269
22.8631
24.8527
26.757
28.5567
30.2442
31.8186
33.2828
34.6419
35.9021
37.0699
38.1523
39.1562
40.0891
40.9592
15.2202
16.3202
17.6661
19.1522
20.6972
22.2454
23.7611
25.2223
26.6166
27.9379
29.1839
30.3549
31.453
32.4811
33.4429
34.3423
35.1837
35.9714
15.1154
15.9033
16.8898
18.0101
19.2075
20.4383
21.6704
22.8816
24.0571
25.1876
26.2676
27.2943
28.2669
29.1859
30.0527
30.8691
31.6374
32.3595
15.0629
15.6954
16.5005
17.433
18.4493
19.5122
20.5927
21.6691
22.7258
23.7521
24.741
25.6882
26.5915
27.4501
28.2641
29.0346
29.763
30.4514
15.079
15.7585
16.6173
17.6041
18.672
19.7823
20.9057
22.0204
23.1114
24.1683
25.1848
26.1568
27.0826
27.9615
28.7938
29.5802
30.322
31.0198
15.1988
16.233
17.5008
18.906
20.3739
21.8525
23.3073
24.7168
26.0682
27.3547
28.5733
29.7234
30.8062
31.8238
32.7787
33.6734
34.5101
35.2899
15.4072
17.0667
19.0415
21.1514
23.2774
25.3489
27.3281
29.1966
30.948
32.5821
34.1029
35.5158
36.8275
38.0447
39.1742
40.2214
41.1908
42.0828
15.7671
18.525
21.7123
24.9935
28.1793
31.1796
33.9601
36.515
38.8522
40.986
42.9327
44.709
46.3309
47.8133
49.17
50.4122
51.5487
52.5781
16.3868
21.066
26.3184
31.5137
36.3622
40.7674
44.7217
48.2521
51.3981
54.2017
56.7026
58.9371
60.9373
62.7317
64.3459
65.8015
67.1159
68.2811
17.4988
25.6604
34.5309
42.8944
50.3478
56.8499
62.4808
67.3439
71.5454
75.1818
78.3366
81.0809
83.4746
85.5683
87.4075
89.0286
90.4699
91.7094
19.6475
34.5756
50.1053
63.8333
75.3839
84.9732
92.9192
99.4906
104.938
109.469
113.248
116.409
119.06
121.287
123.169
124.761
126.149
127.279
24.2998
53.9037
82.4119
105.381
123.267
137.15
147.963
156.311
162.793
167.845
171.776
174.832
177.195
179
180.4
181.439
182.299
182.842
36.4922
103.325
158.512
197.274
224.158
242.906
255.962
264.563
270.353
274.159
276.473
277.742
278.222
278.123
277.773
277.026
276.275
275.234
81.6126
262.529
372.084
433.123
466.547
484.63
492.865
493.5
492.271
489.346
485.128
480.477
475.723
470.828
466.237
461.476
457.515
453.159
390.158
975.277
1160.18
1205.52
1197.67
1174.1
1134.77
1094.95
1063.54
1037.66
1015.64
996.533
979.906
965.111
952.253
940.506
930.606
921.19
6457.22
6260.43
5992.3
5735.75
5500.33
5289.55
5101.34
4933.88
4785.04
4652.39
4533.71
4426.95
4330.78
4243.38
4164.4
4091.66
4026.09
3964.38
7.2893
9.31701
15.9096
19.8808
23.1091
25.4391
27.482
29.1216
30.5852
31.8366
32.9681
33.9653
34.8634
35.6517
36.3408
36.9202
37.385
37.7302
37.9502
38.0253
38.0006
37.8729
37.5999
37.3059
36.7295
35.5187
33.5526
30.8011
27.2583
23.0173
18.0558
13.6507
10.4892
8.41025
7.12907
6.30444
5.79956
5.76293
6.53416
8.02131
10.0378
12.5896
15.7385
19.6008
24.4342
29.673
34.6947
39.6377
44.5365
49.2729
53.8689
58.3244
62.6499
66.8539
70.9479
74.945
78.8591
82.7051
86.4978
90.2519
93.9812
97.6989
101.417
105.146
108.896
112.674
116.489
120.346
124.252
128.21
132.224
136.299
140.437
144.64
148.91
153.249
157.656
162.133
166.677
171.289
175.966
180.707
185.507
190.365
195.276
200.236
205.239
210.279
215.35
220.442
225.547
230.654
235.752
240.829
245.874
250.874
255.819
260.706
265.552
270.416
275.305
280.222
285.162
290.114
295.062
299.993
304.887
309.723
314.478
319.129
323.665
328.116
332.492
336.773
340.926
344.904
348.634
351.996
354.445
355.993
356.848
357.623
358.358
358.553
358.787
358.731
358.572
358.256
357.824
357.277
356.628
355.892
355.088
354.237
353.369
352.515
351.708
350.972
350.328
349.78
349.337
349.011
348.8
348.707
348.726
348.922
349.443
350.674
352.91
355.567
357.767
359.324
360.278
360.578
360.431
358.487
354.208
349.39
344.586
340.215
337.15
336.081
337.13
340.094
345.356
352.194
360.555
370.659
382.405
395.063
408.18
420.115
425.564
420.866
398.469
351.367
291.264
239.492
233.67
267.287
21.5705
14.9222
13.5563
13.7091
14.0334
14.4658
14.8853
15.3069
15.6897
16.0541
16.3902
16.7087
17.0075
17.2899
17.5545
17.8055
18.0479
18.2888
18.5315
18.7752
19.0178
19.2558
19.4929
19.7483
20.0157
20.301
20.7553
21.4534
22.3443
23.3591
24.4398
25.7732
27.3457
29.0769
30.8103
32.3237
33.4318
34.0795
34.3496
34.3945
34.337
34.3055
34.3895
34.6507
35.101
35.7037
36.4163
37.2228
38.1126
39.0697
40.0815
41.1367
42.2255
43.3392
44.4709
45.6154
46.7685
47.9277
49.0912
50.2581
51.4283
52.602
53.7801
54.9633
56.1531
57.3506
58.5571
59.7741
61.0028
62.2443
63.4997
64.7699
66.0557
67.3576
68.6763
70.0121
71.3655
72.7368
74.1262
75.5341
76.9606
78.4057
79.8694
81.3516
82.852
84.3701
85.9055
87.4575
89.0255
90.609
92.2075
93.8204
95.448
97.0912
98.7528
100.438
102.155
103.919
105.742
107.573
109.409
111.245
113.074
114.889
116.697
118.502
120.31
122.127
123.965
125.85
127.835
129.915
131.992
134.046
136.065
138.035
139.938
141.749
143.445
145.052
146.609
148.148
149.649
151.101
152.523
153.895
155.229
156.52
157.768
158.972
160.13
161.242
162.309
163.331
164.307
165.235
166.111
166.93
167.685
168.372
168.986
169.52
169.97
170.331
170.616
170.834
171.02
171.162
171.086
170.733
170.159
169.382
168.371
167.095
165.554
163.623
161.355
159.039
156.92
155.296
154.335
154.013
154.322
155.418
157.42
160.39
164.387
169.027
173.941
178.71
182.847
185.657
185.365
182.104
174.033
164.172
158.534
154.596
157.175
169.819
42.9542
22.3603
17.9653
16.1851
15.47
15.1466
15.0461
15.1222
15.256
15.4434
15.6492
15.8802
16.1233
16.379
16.6425
16.9209
17.225
17.5716
17.975
18.4308
18.9385
19.5048
20.1447
20.8821
21.7477
22.7807
24.0162
25.4741
27.1549
29.0387
31.0726
33.0769
34.9504
36.5849
37.8487
38.6192
38.8844
38.733
38.2668
37.6345
36.9751
36.4003
35.9916
35.8021
35.8039
36.0235
36.4327
36.9896
37.6663
38.4343
39.2675
40.1438
41.045
41.9574
42.8713
43.7803
44.6805
45.5704
46.4498
47.3194
48.1809
49.0361
49.887
50.7356
51.584
52.4341
53.2878
54.1468
55.0125
55.8864
56.7699
57.6639
58.5697
59.488
60.4198
61.3658
62.3267
63.3029
64.2952
65.3038
66.3293
67.3721
68.4325
69.511
70.608
71.724
72.8596
74.0155
75.1927
76.3924
77.6161
78.8655
80.1434
81.4533
82.7999
84.1903
85.6348
87.15
88.7246
90.3228
91.9314
93.5438
95.1556
96.7657
98.376
99.9899
101.61
103.24
104.882
106.538
108.205
109.871
111.524
113.16
114.776
116.368
117.935
119.478
121.003
122.509
123.993
125.454
126.885
128.286
129.656
130.992
132.294
133.561
134.791
135.982
137.135
138.248
139.321
140.353
141.34
142.273
143.141
143.934
144.642
145.261
145.781
146.198
146.503
146.694
146.77
146.73
146.56
146.247
145.746
145.043
144.158
143.111
141.912
140.57
139.112
137.575
136.047
134.644
133.495
132.724
132.414
132.575
133.247
134.49
136.284
138.607
141.33
144.166
146.801
148.904
150.121
150.039
148.334
144.882
140.133
135.816
133.382
134.125
138.498
147.92
57.0699
28.6795
22.0904
19.4063
18.0465
17.3304
16.9564
16.8242
16.8135
16.9148
17.0755
17.3003
17.5665
17.8784
18.2292
18.63
19.0869
19.6175
20.2306
20.9171
21.6719
22.488
23.3606
24.2803
25.2354
26.2132
27.2131
28.2403
29.2977
30.3786
31.4726
32.5638
33.5875
34.4597
35.1151
35.518
35.6859
35.6933
35.6044
35.4958
35.4418
35.49
35.6712
35.9908
36.4443
37.0216
37.7076
38.4829
39.3196
40.1936
41.0858
41.9817
42.8715
43.7491
44.6117
45.4586
46.2908
47.1102
47.9195
48.7216
49.5193
50.315
51.1107
51.909
52.712
53.522
54.3407
55.1701
56.0119
56.8675
57.7383
58.6256
59.5305
60.4539
61.3967
62.3595
63.343
64.3476
65.3739
66.4222
67.493
68.5864
69.7027
70.8424
72.0054
73.1923
74.4032
75.6386
76.8988
78.1846
79.4965
80.8354
82.2025
83.5989
85.0263
86.486
87.9782
89.5005
91.0454
92.6046
94.1725
95.7457
97.3217
98.8997
100.48
102.061
103.645
105.23
106.814
108.395
109.97
111.535
113.086
114.624
116.148
117.66
119.166
120.675
122.206
123.746
125.266
126.757
128.216
129.642
131.031
132.382
133.694
134.966
136.196
137.385
138.532
139.638
140.706
141.735
142.73
143.675
144.547
145.326
146.001
146.565
147.008
147.324
147.505
147.555
147.46
147.202
146.776
146.172
145.398
144.463
143.39
142.199
140.916
139.574
138.22
136.915
135.732
134.744
134.018
133.617
133.584
133.929
134.716
135.931
137.499
139.297
141.143
142.803
144.009
144.501
144.05
142.522
140.038
137.011
133.938
131.722
130.875
131.966
135.715
142.981
78.5356
35.9601
26.6282
22.7718
20.8782
19.7964
19.2467
18.965
18.8915
18.9401
19.1012
19.3439
19.6609
20.0356
20.4633
20.9401
21.4712
22.0588
22.7007
23.3894
24.1154
24.865
25.622
26.3676
27.0821
27.7501
28.3667
28.9382
29.4798
30.0081
30.529
31.0334
31.5234
31.9947
32.4362
32.8497
33.25
33.6591
34.0986
34.5879
35.1407
35.7605
36.4586
37.2456
38.1047
39.0123
39.9489
40.9016
41.8589
42.8113
43.7522
44.6774
45.5849
46.4743
47.3468
48.2043
49.0494
49.885
50.7142
51.5401
52.3657
53.1948
54.0305
54.8757
55.7331
56.6051
57.4939
58.4015
59.3297
60.2801
61.2541
62.2529
63.2774
64.3283
65.4064
66.5121
67.6458
68.8078
69.9984
71.2179
72.4662
73.7434
75.0496
76.3846
77.7483
79.1407
80.5617
82.0113
83.4893
84.9959
86.5308
88.0939
89.685
91.3037
92.9491
94.6203
96.3154
98.0318
99.7662
101.515
103.275
105.042
106.814
108.588
110.363
112.137
113.907
115.671
117.425
119.168
120.895
122.606
124.297
125.969
127.619
129.249
130.858
132.445
134.007
135.535
137.021
138.463
139.859
141.205
142.5
143.742
144.93
146.062
147.139
148.161
149.129
150.049
150.926
151.774
152.618
153.453
154.214
154.869
155.403
155.807
156.075
156.202
156.192
156.024
155.697
155.206
154.551
153.733
152.761
151.652
150.429
149.119
147.755
146.374
145.027
143.769
142.658
141.745
141.078
140.697
140.624
140.848
141.388
142.201
143.199
144.25
145.175
145.78
145.84
145.221
143.809
141.714
139.188
136.766
134.864
133.696
133.596
134.91
138.331
144.26
92.9678
42.5367
30.8874
26.0612
23.6969
22.3203
21.6072
21.221
21.0873
21.1038
21.2522
21.4975
21.8291
22.2265
22.6802
23.1778
23.7112
24.2704
24.8468
25.4305
26.0114
26.5776
27.1172
27.6191
28.076
28.4863
28.8565
29.2008
29.5377
29.8825
30.2518
30.6605
31.1172
31.6271
32.1707
32.7354
33.3176
33.9263
34.5804
35.3013
36.1141
37.019
37.9905
39.0027
40.0422
41.0964
42.1548
43.2088
44.252
45.2799
46.2898
47.2807
48.2529
49.208
50.1483
51.077
51.9974
52.9134
53.8287
54.7473
55.6729
56.6091
57.5594
58.5269
59.5145
60.5248
61.5604
62.6232
63.7153
64.8382
65.9933
67.1816
68.4041
69.6614
70.9538
72.2818
73.6456
75.0454
76.4812
77.9531
79.4612
81.0052
82.5851
84.2007
85.8518
87.5381
89.2592
91.0147
92.804
94.6263
96.481
98.3669
100.283
102.227
104.199
106.195
108.213
110.25
112.303
114.369
116.443
118.523
120.606
122.688
124.766
126.836
128.894
130.938
132.965
134.97
136.951
138.905
140.83
142.723
144.581
146.402
148.183
149.919
151.606
153.24
154.817
156.334
157.788
159.176
160.497
161.748
162.927
164.032
165.064
166.022
166.907
167.722
168.468
169.153
169.781
170.366
170.883
171.276
171.525
171.628
171.591
171.396
171.046
170.54
169.88
169.071
168.118
167.031
165.826
164.522
163.142
161.711
160.258
158.817
157.427
156.129
154.962
153.961
153.158
152.576
152.226
152.104
152.174
152.384
152.654
152.867
152.873
152.536
151.736
150.437
148.653
146.542
144.371
142.596
141.169
140.102
139.84
140.676
143.194
147.523
110.813
48.9744
34.874
29.0758
26.3359
24.7275
23.8627
23.3762
23.1736
23.14
23.2455
23.4519
23.743
24.098
24.5052
24.9504
25.4225
25.9089
26.3983
26.8805
27.3467
27.789
28.201
28.5789
28.9225
29.236
29.5289
29.8156
30.1153
30.4535
30.8536
31.336
31.8821
32.4743
33.1017
33.7617
34.4596
35.2035
36.0044
36.877
37.8335
38.8541
39.9221
41.0225
42.143
43.2737
44.4063
45.5348
46.6546
47.7627
48.8578
49.9396
51.0093
52.0687
53.1206
54.1682
55.2152
56.2655
57.3233
58.3924
59.4768
60.5805
61.7069
62.8594
64.0412
65.2552
66.5038
67.7894
69.114
70.4791
71.8863
73.3366
74.8308
76.3696
77.9536
79.5832
81.2587
82.9805
84.7487
86.5634
88.4246
90.3322
92.2857
94.2846
96.3279
98.4147
100.544
102.714
104.923
107.171
109.455
111.774
114.125
116.506
118.915
121.347
123.801
126.272
128.757
131.252
133.752
136.255
138.754
141.245
143.724
146.187
148.63
151.049
153.441
155.8
158.124
160.409
162.65
164.845
166.99
169.079
171.11
173.078
174.978
176.808
178.562
180.238
181.833
183.341
184.761
186.089
187.322
188.457
189.491
190.423
191.249
191.967
192.573
193.065
193.437
193.679
193.782
193.738
193.524
193.149
192.615
191.925
191.086
190.104
188.992
187.76
186.422
184.991
183.483
181.917
180.313
178.689
177.069
175.477
173.936
172.468
171.096
169.838
168.712
167.724
166.874
166.147
165.513
164.927
164.327
163.642
162.798
161.734
160.418
158.855
157.109
155.275
153.471
151.732
150.059
148.553
147.632
147.598
148.931
151.815
119.31
53.8225
38.0931
31.6347
28.5461
26.7232
25.7287
25.1564
24.9006
24.8331
24.9123
25.091
25.3488
25.662
26.0176
26.4018
26.8051
27.2168
27.6292
28.0351
28.4292
28.8078
29.1688
29.5124
29.841
30.1609
30.4822
30.8187
31.1876
31.608
32.0994
32.6613
33.2757
33.9311
34.6219
35.3482
36.1151
36.9313
37.8076
38.7562
39.7771
40.8546
41.9752
43.1277
44.3028
45.4928
46.6912
47.8933
49.0954
50.2952
51.4917
52.6851
53.8765
55.0678
56.2619
57.462
58.6718
59.8953
61.1365
62.3996
63.6887
65.0075
66.36
67.7495
69.1792
70.6523
72.1712
73.7384
75.3559
77.0254
78.7482
80.5257
82.3586
84.2479
86.1941
88.1978
90.2594
92.3792
94.5571
96.7929
99.0859
101.435
103.839
106.297
108.806
111.365
113.973
116.627
119.328
122.071
124.855
127.677
130.534
133.423
136.339
139.279
142.24
145.216
148.202
151.195
154.189
157.178
160.16
163.128
166.078
169.003
171.899
174.761
177.584
180.364
183.096
185.774
188.396
190.956
193.45
195.873
198.22
200.487
202.669
204.761
206.76
208.66
210.456
212.145
213.722
215.18
216.517
217.727
218.805
219.746
220.542
221.188
221.675
221.996
222.153
222.146
221.947
221.556
220.972
220.2
219.244
218.114
216.819
215.372
213.789
212.086
210.279
208.385
206.422
204.409
202.365
200.309
198.263
196.246
194.275
192.367
190.536
188.795
187.151
185.606
184.153
182.779
181.46
180.162
178.844
177.46
175.965
174.323
172.52
170.556
168.468
166.288
164.052
161.744
159.412
157.16
155.338
154.22
154.366
155.809
135.274
58.6535
40.8929
33.7016
30.3057
28.3007
27.1853
26.5336
26.2242
26.1231
26.1778
26.3387
26.5801
26.8755
27.2099
27.5692
27.9442
28.3272
28.7133
29.0983
29.48
29.8571
30.2296
30.5987
30.9673
31.3406
31.7263
32.1344
32.5766
33.0653
33.6118
34.2244
34.8889
35.5971
36.3458
37.1361
37.9722
38.8613
39.812
40.8312
41.9098
43.0387
44.2097
45.4153
46.649
47.9052
49.1795
50.4682
51.7688
53.0798
54.4007
55.7321
57.0752
58.4322
59.8058
61.1993
62.6163
64.0606
65.5363
67.0473
68.5977
70.1913
71.8317
73.5226
75.2671
77.0682
78.9285
80.8503
82.8358
84.8866
87.0041
89.1896
91.444
93.7681
96.1624
98.6274
101.163
103.769
106.445
109.19
112.002
114.88
117.822
120.827
123.892
127.016
130.198
133.434
136.721
140.056
143.435
146.854
150.311
153.799
157.314
160.851
164.405
167.969
171.539
175.108
178.671
182.221
185.751
189.255
192.728
196.163
199.557
202.904
206.198
209.435
212.61
215.717
218.751
221.708
224.582
227.368
230.061
232.655
235.146
237.527
239.794
241.94
243.961
245.849
247.6
249.207
250.664
251.963
253.097
254.059
254.84
255.429
255.818
256.005
255.992
255.753
255.281
254.576
253.637
252.469
251.077
249.472
247.665
245.674
243.518
241.219
238.796
236.274
233.675
231.023
228.342
225.654
222.983
220.348
217.764
215.247
212.808
210.456
208.193
206.018
203.924
201.895
199.909
197.936
195.938
193.874
191.7
189.378
186.88
184.186
181.307
178.258
175.079
171.79
168.477
165.244
162.387
160.153
159.116
159.361
140.65
61.587
42.9432
35.3556
31.7245
29.5727
28.3682
27.6547
27.3053
27.1785
27.2169
27.3683
27.6054
27.8997
28.2357
28.5983
28.9793
29.3718
29.7724
30.1785
30.5896
31.0055
31.426
31.8524
32.2871
32.7343
33.1993
33.689
34.211
34.7729
35.3821
36.0446
36.7606
37.524
38.3327
39.1877
40.0923
41.0516
42.0718
43.1529
44.2894
45.476
46.7077
47.9799
49.2885
50.6297
52.0007
53.3993
54.824
56.2743
57.7502
59.2529
60.7838
62.3453
63.9402
65.5718
67.2435
68.9591
70.7226
72.5377
74.4084
76.3383
78.331
80.3898
82.5178
84.7179
86.9925
89.3438
91.7737
94.2838
96.8752
99.549
102.306
105.146
108.071
111.079
114.17
117.344
120.598
123.932
127.343
130.83
134.389
138.019
141.718
145.481
149.305
153.186
157.12
161.101
165.127
169.193
173.293
177.422
181.573
185.739
189.915
194.093
198.267
202.429
206.573
210.693
214.783
218.837
222.849
226.813
230.721
234.568
238.349
242.057
245.688
249.235
252.693
256.056
259.32
262.477
265.524
268.453
271.258
273.933
276.473
278.87
281.119
283.213
285.145
286.907
288.493
289.894
291.101
292.103
292.891
293.453
293.777
293.864
293.696
293.255
292.535
291.53
290.237
288.658
286.797
284.663
282.269
279.636
276.787
273.748
270.548
267.217
263.787
260.292
256.765
253.238
249.741
246.298
242.93
239.656
236.487
233.431
230.49
227.66
224.927
222.271
219.661
217.057
214.405
211.644
208.714
205.553
202.114
198.369
194.328
190.036
185.577
181.035
176.533
172.173
168.213
164.873
162.718
161.889
148.237
63.7552
44.4047
36.5287
32.7268
30.481
29.2296
28.4917
28.1348
28.0102
28.0599
28.2294
28.4909
28.8149
29.1858
29.5884
30.0146
30.4573
30.9135
31.3808
31.8581
32.3445
32.8401
33.3458
33.8636
34.3967
34.9493
35.5265
36.1335
36.7756
37.4577
38.1842
38.9584
39.7831
40.6598
41.588
42.5702
43.6103
44.7095
45.8666
47.0797
48.3467
49.6651
51.0327
52.4473
53.9073
55.4113
56.9586
58.5488
60.1825
61.8605
63.5844
65.3563
67.1788
69.0547
70.9874
72.9804
75.0372
77.1615
79.3571
81.6275
83.976
86.406
88.9204
91.522
94.2132
96.9961
99.8726
102.844
105.911
109.076
112.337
115.697
119.153
122.707
126.356
130.1
133.936
137.864
141.879
145.978
150.16
154.421
158.756
163.163
167.635
172.17
176.762
181.406
186.098
190.831
195.601
200.397
205.215
210.044
214.879
219.71
224.529
229.331
234.108
238.852
243.555
248.21
252.809
257.348
261.82
266.219
270.54
274.775
278.92
282.968
286.913
290.75
294.473
298.075
301.551
304.895
308.101
311.162
314.072
316.826
319.416
321.838
324.083
326.146
328.019
329.694
331.162
332.412
333.435
334.216
334.743
335.001
334.981
334.669
334.038
333.076
331.774
330.123
328.117
325.756
323.045
319.999
316.639
312.992
309.091
304.972
300.678
296.254
291.746
287.202
282.666
278.178
273.774
269.481
265.325
261.321
257.479
253.799
250.274
246.883
243.593
240.357
237.109
233.771
230.248
226.446
222.276
217.674
212.612
207.126
201.308
195.311
189.291
183.415
177.801
172.684
168.273
165.116
163.359
150.663
64.7906
45.2189
37.2626
33.3636
31.076
29.8204
29.0943
28.7629
28.6689
28.7591
28.9754
29.2909
29.6754
30.1137
30.5904
31.0974
31.6271
32.1755
32.7388
33.3149
33.9016
34.4986
35.1069
35.7281
36.3651
37.0215
37.7012
38.4088
39.1489
39.926
40.7446
41.6089
42.5225
43.4887
44.5101
45.5893
46.7284
47.9285
49.1903
50.5138
51.899
53.3455
54.8531
56.4216
58.051
59.7416
61.4939
63.3091
65.1884
67.1338
69.1475
71.232
73.3902
75.6252
77.9402
80.3387
82.824
85.3995
88.0685
90.8339
93.6988
96.6657
99.7371
102.915
106.201
109.596
113.102
116.719
120.448
124.288
128.238
132.299
136.468
140.744
145.126
149.609
154.192
158.871
163.643
168.502
173.444
178.466
183.563
188.728
193.956
199.241
204.578
209.96
215.379
220.828
226.299
231.783
237.274
242.761
248.236
253.691
259.116
264.503
269.845
275.135
280.369
285.537
290.634
295.65
300.579
305.414
310.148
314.773
319.283
323.672
327.935
332.064
336.056
339.905
343.604
347.148
350.532
353.749
356.795
359.664
362.352
364.853
367.161
369.27
371.175
372.867
374.337
375.574
376.567
377.301
377.761
377.931
377.802
377.349
376.539
375.358
373.787
371.808
369.406
366.569
363.295
359.593
355.484
350.993
346.156
341.019
335.638
330.073
324.39
318.654
312.929
307.274
301.739
296.365
291.187
286.229
281.503
277.012
272.744
268.668
264.738
260.882
257.005
252.988
248.696
243.991
238.749
232.886
226.378
219.29
211.77
204.051
196.369
188.958
181.973
175.653
170.209
166.175
163.698
152.266
64.936
45.4597
37.5791
33.6801
31.4156
30.2018
29.5257
29.2531
29.2199
29.3815
29.6762
30.0785
30.5574
31.0985
31.6856
32.3103
32.9639
33.6411
34.3369
35.0476
35.7706
36.505
37.2499
38.0065
38.7777
39.5665
40.3772
41.2146
42.0838
42.9897
43.937
44.9304
45.9741
47.0723
48.2286
49.4466
50.7294
52.0798
53.5
54.9919
56.5574
58.198
59.9155
61.7115
63.5876
65.5458
67.5883
69.7171
71.9349
74.2444
76.6483
79.1498
81.7519
84.4578
87.2706
90.1934
93.229
96.3802
99.6495
103.039
106.551
110.187
113.947
117.834
121.847
125.987
130.253
134.645
139.16
143.799
148.559
153.437
158.431
163.537
168.752
174.073
179.493
185.008
190.613
196.303
202.07
207.91
213.816
219.781
225.798
231.859
237.958
244.086
250.236
256.4
262.569
268.733
274.881
281.002
287.086
293.125
299.112
305.038
310.894
316.668
322.354
327.942
333.427
338.801
344.056
349.187
354.186
359.047
363.765
368.332
372.745
376.999
381.088
385.009
388.757
392.327
395.714
398.914
401.922
404.737
407.354
409.769
411.979
413.979
415.764
417.328
418.662
419.755
420.597
421.172
421.466
421.463
421.158
420.501
419.478
418.066
416.239
413.969
411.229
407.992
404.248
399.993
395.234
389.985
384.275
378.151
371.677
364.927
357.987
350.947
343.895
336.917
330.085
323.459
317.091
311.016
305.255
299.813
294.677
289.811
285.154
280.616
276.074
271.372
266.331
260.764
254.501
247.423
239.496
230.8
221.53
211.992
202.519
193.432
184.959
177.377
170.932
166.143
163.15
151.462
64.4927
45.3094
37.6087
33.7688
31.5773
30.4378
29.8423
29.6563
29.7169
29.9838
30.3919
30.9176
31.5291
32.2127
32.9514
33.7364
34.5576
35.4092
36.2847
37.1798
38.0905
39.0141
39.9489
40.8952
41.8541
42.8286
43.8245
44.848
45.9045
46.999
48.137
49.3237
50.5641
51.8634
53.2266
54.6587
56.1645
57.7485
59.4149
61.1677
63.0104
64.9469
66.9807
69.1153
71.3542
73.7009
76.1589
78.7316
81.4225
84.2351
87.1727
90.2384
93.4353
96.7663
100.234
103.84
107.587
111.477
115.509
119.686
124.007
128.473
133.082
137.834
142.727
147.76
152.93
158.234
163.669
169.232
174.918
180.724
186.644
192.673
198.806
205.036
211.357
217.762
224.245
230.797
237.413
244.083
250.801
257.559
264.347
271.158
277.984
284.814
291.639
298.448
305.233
311.981
318.68
325.321
331.891
338.379
344.777
351.078
357.276
363.362
369.327
375.164
380.863
386.418
391.821
397.065
402.144
407.052
411.785
416.337
420.704
424.883
428.871
432.664
436.26
439.653
442.841
445.821
448.591
451.151
453.499
455.632
457.549
459.247
460.724
461.976
462.993
463.768
464.289
464.547
464.52
464.208
463.568
462.591
461.252
459.525
457.384
454.794
451.721
448.135
444.015
439.344
434.105
428.29
421.911
414.996
407.599
399.794
391.677
383.356
374.947
366.566
358.318
350.295
342.572
335.205
328.229
321.658
315.482
309.662
304.132
298.79
293.495
288.068
282.297
275.953
268.817
260.724
251.599
241.502
230.64
219.364
208.092
197.255
187.194
178.28
170.825
165.35
161.96
149.188
63.336
44.7681
37.3806
33.6851
31.6356
30.5992
30.117
30.0525
30.2475
30.6621
31.2286
31.9259
32.7211
33.6015
34.5487
35.5542
36.6067
37.7001
38.8266
39.9812
41.1582
42.3538
43.5646
44.7894
46.0292
47.2876
48.5689
49.8793
51.2247
52.612
54.0477
55.5375
57.0879
58.7061
60.3988
62.1725
64.034
65.9898
68.0463
70.2095
72.4853
74.8794
77.3975
80.0449
82.8269
85.7483
88.8139
92.0281
95.3949
98.9181
102.601
106.446
110.456
114.632
118.975
123.487
128.166
133.013
138.026
143.204
148.544
154.043
159.699
165.508
171.464
177.564
183.803
190.175
196.673
203.293
210.027
216.868
223.809
230.843
237.962
245.157
252.421
259.744
267.118
274.535
281.984
289.458
296.947
304.442
311.934
319.412
326.867
334.289
341.666
348.988
356.242
363.415
370.498
377.481
384.356
391.111
397.735
404.218
410.55
416.724
422.731
428.565
434.219
439.686
444.962
450.041
454.918
459.59
464.053
468.304
472.34
476.16
479.761
483.141
486.3
489.233
491.94
494.419
496.673
498.705
500.515
502.101
503.464
504.607
505.532
506.237
506.709
506.946
506.938
506.68
506.135
505.314
504.189
502.74
500.941
498.768
496.19
493.175
489.688
485.706
481.207
476.164
470.546
464.331
457.506
450.075
442.061
433.516
424.518
415.17
405.598
395.938
386.326
376.89
367.738
358.958
350.61
342.725
335.304
328.317
321.696
315.337
309.099
302.796
296.208
289.09
281.197
272.322
262.337
251.242
239.191
226.511
213.646
201.119
189.421
179.084
170.544
164.355
160.557
143.959
61.3048
43.7231
36.8475
33.4173
31.5998
30.7314
30.4201
30.5443
30.9417
31.5759
32.3766
33.3267
34.3917
35.5612
36.8156
38.147
39.5431
40.998
42.5029
44.0524
45.6394
47.2594
48.9078
50.5831
52.2852
54.0161
55.7785
57.5749
59.411
61.2959
63.2362
65.2401
67.3182
69.48
71.7339
74.0878
76.55
79.1293
81.8347
84.6747
87.6577
90.7915
94.0837
97.5412
101.171
104.978
108.969
113.147
117.517
122.081
126.841
131.798
136.953
142.303
147.848
153.585
159.51
165.619
171.907
178.368
184.998
191.788
198.732
205.822
213.05
220.408
227.887
235.478
243.172
250.959
258.83
266.776
274.785
282.848
290.956
299.097
307.263
315.442
323.625
331.801
339.96
348.092
356.188
364.237
372.23
380.157
388.009
395.774
403.443
411.005
418.445
425.75
432.906
439.903
446.734
453.39
459.867
466.156
472.25
478.143
483.828
489.297
494.543
499.562
504.349
508.901
513.214
517.288
521.117
524.703
528.043
531.139
533.99
536.598
538.962
541.078
542.948
544.578
545.975
547.145
548.088
548.799
549.289
549.571
549.654
549.533
549.175
548.598
547.813
546.804
545.553
544.049
542.271
540.197
537.804
535.063
531.94
528.4
524.414
519.959
515.01
509.538
503.513
496.911
489.711
481.903
473.489
464.488
454.944
444.932
434.554
423.937
413.227
402.57
392.108
381.961
372.222
362.95
354.171
345.867
337.983
330.421
323.043
315.671
308.097
300.09
291.417
281.867
271.286
259.611
246.896
233.35
219.335
205.385
192.134
180.332
170.615
163.601
159.276
137.644
58.6525
42.3564
36.1126
33.0654
31.5814
30.9849
30.9405
31.3516
32.054
33.0206
34.177
35.5122
36.9889
38.6001
40.3252
42.1595
44.09
46.1123
48.2174
50.4004
52.6538
54.9732
57.3538
59.7933
62.2898
64.8424
67.4496
70.1126
72.8355
75.6182
78.4629
81.385
84.4068
87.5375
90.7813
94.1448
97.6416
101.284
105.083
109.051
113.197
117.531
122.06
126.793
131.736
136.895
142.275
147.878
153.705
159.756
166.029
172.521
179.227
186.142
193.259
200.569
208.065
215.737
223.575
231.568
239.706
247.976
256.367
264.867
273.464
282.145
290.897
299.709
308.568
317.463
326.38
335.309
344.237
353.152
362.044
370.901
379.713
388.469
397.159
405.771
414.296
422.724
431.046
439.251
447.333
455.28
463.083
470.731
478.217
485.531
492.663
499.603
506.342
512.87
519.177
525.257
531.104
536.712
542.076
547.19
552.048
556.644
560.974
565.037
568.831
572.359
575.618
578.609
581.328
583.777
585.96
587.881
589.545
590.954
592.103
592.988
593.622
594.018
594.197
594.151
593.873
593.35
592.641
591.747
590.674
589.419
587.981
586.37
584.586
582.621
580.463
578.102
575.521
572.7
569.615
566.236
562.525
558.448
553.973
549.067
543.697
537.827
531.425
524.465
516.928
508.803
500.087
490.788
480.928
470.553
459.732
448.562
437.163
425.674
414.24
402.999
392.072
381.549
371.483
361.888
352.729
343.925
335.349
326.835
318.186
309.19
299.64
289.357
278.208
266.12
253.079
239.157
224.542
209.659
195.189
182.085
171.219
163.3
158.3
129.591
55.6777
40.8751
35.3782
32.8152
31.7551
31.5304
31.8813
32.6997
33.8415
35.2895
36.9631
38.8592
40.9378
43.1988
45.6209
48.2053
50.9402
53.8248
56.8504
60.0146
63.3103
66.7346
70.2827
73.9523
77.7392
81.6397
85.6483
89.7618
93.9739
98.2778
102.671
107.164
111.775
116.503
121.355
126.344
131.485
136.792
142.279
147.957
153.836
159.926
166.234
172.769
179.534
186.533
193.767
201.234
208.929
216.846
224.977
233.312
241.842
250.553
259.432
268.467
277.642
286.944
296.356
305.863
315.451
325.101
334.799
344.53
354.278
364.027
373.765
383.476
393.147
402.765
412.317
421.791
431.174
440.456
449.627
458.676
467.594
476.371
484.998
493.464
501.763
509.885
517.826
525.578
533.135
540.49
547.636
554.565
561.27
567.744