/*--------------------------------*- C++ -*----------------------------------*\
| =========                 |                                                 |
| \\      /  F ield         | OpenFOAM: The Open Source CFD Toolbox           |
|  \\    /   O peration     | Version:  v1906                                 |
|   \\  /    A nd           | Web:      www.OpenFOAM.com                      |
|    \\/     M anipulation  |                                                 |
\*---------------------------------------------------------------------------*/
FoamFile
{
    version     2.0;
    format      ascii;
    class       volScalarField;
    location    "1100";
    object      k;
}
// * * * * * * * * * * * * * * * * * * * * * * * * * * * * * * * * * * * * * //

dimensions      [0 2 -2 0 0 0 0];


internalField   nonuniform List<scalar> 
12225
(
2.25874
2.22668
2.16195
2.09171
2.02503
1.96459
1.91062
1.86321
1.82053
1.78375
1.74922
1.72124
1.69869
1.68044
1.66378
1.65181
1.63755
1.63224
2.25029
2.13779
1.98565
1.87243
1.78123
1.71368
1.66067
1.61696
1.58113
1.55029
1.52536
1.50224
1.48551
1.46762
1.45719
1.44239
1.43606
1.42183
2.25785
2.21888
2.14361
2.07155
2.00395
1.94414
1.89183
1.84559
1.80507
1.76894
1.73736
1.70853
1.68382
1.66051
1.64129
1.62194
1.60744
1.59156
2.25839
2.23538
2.18791
2.13577
2.08419
2.03588
1.99183
1.95174
1.91552
1.88262
1.85296
1.82581
1.80145
1.7789
1.75884
1.73986
1.7236
1.70661
2.25891
2.24457
2.21501
2.18006
2.14382
2.10824
2.07435
2.04243
2.01264
1.98489
1.95922
1.93532
1.91327
1.89273
1.87384
1.85614
1.84025
1.82447
2.25905
2.24839
2.22761
2.20199
2.17442
2.14647
2.1191
2.09277
2.06769
2.04397
2.02165
2.00065
1.98097
1.9625
1.94524
1.92903
1.91398
1.89925
2.25918
2.25077
2.23561
2.21657
2.1956
2.17389
2.1522
2.13092
2.11033
2.09054
2.07166
2.05368
2.03662
2.02045
2.00517
1.99073
1.97719
1.96407
2.25922
2.25211
2.24034
2.22547
2.20883
2.19132
2.17352
2.15582
2.13846
2.12159
2.10531
2.08967
2.07469
2.06038
2.04675
2.03377
2.02143
2.00952
2.25927
2.2531
2.24365
2.23178
2.2184
2.20416
2.18953
2.17482
2.16025
2.14595
2.13202
2.11853
2.10551
2.09298
2.08097
2.06947
2.05848
2.04788
2.25929
2.25376
2.24586
2.23607
2.22499
2.21312
2.20081
2.18832
2.17584
2.16349
2.15138
2.13956
2.12808
2.11697
2.10625
2.09592
2.08598
2.07639
2.25932
2.2543
2.24753
2.23929
2.22998
2.21996
2.20951
2.19884
2.1881
2.17742
2.16687
2.15652
2.14641
2.13658
2.12704
2.11782
2.10891
2.10029
2.25934
2.25466
2.24864
2.24143
2.23332
2.22458
2.21543
2.20605
2.19655
2.18706
2.17764
2.16835
2.15924
2.15035
2.14168
2.13327
2.12511
2.1172
2.25937
2.25498
2.24954
2.24315
2.23601
2.22832
2.22024
2.21192
2.20348
2.195
2.18655
2.1782
2.16997
2.1619
2.15402
2.14634
2.13887
2.13161
2.25939
2.25525
2.25032
2.24464
2.23834
2.23156
2.22443
2.21707
2.20957
2.20201
2.19445
2.18693
2.17951
2.1722
2.16504
2.15803
2.1512
2.14456
2.25943
2.25552
2.25102
2.24594
2.24036
2.23438
2.22809
2.22157
2.21492
2.20819
2.20143
2.19469
2.18801
2.18141
2.17492
2.16856
2.16234
2.15626
2.25946
2.25574
2.25157
2.24697
2.24196
2.23661
2.23099
2.22517
2.2192
2.21315
2.20706
2.20096
2.1949
2.1889
2.18298
2.17716
2.17145
2.16587
2.25949
2.25592
2.252
2.24774
2.24315
2.23826
2.23314
2.22782
2.22237
2.21683
2.21123
2.20562
2.20003
2.19447
2.18898
2.18357
2.17826
2.17305
2.25951
2.25603
2.25225
2.24818
2.24381
2.23919
2.23434
2.22932
2.22416
2.21892
2.21361
2.20829
2.20298
2.19769
2.19246
2.1873
2.18222
2.17722
2.2595
2.25599
2.25218
2.24805
2.24363
2.23894
2.23402
2.22892
2.22368
2.21835
2.21296
2.20756
2.20216
2.19679
2.19148
2.18624
2.1811
2.17608
2.25949
2.25585
2.25179
2.24732
2.24248
2.23731
2.23188
2.22626
2.22051
2.21466
2.20877
2.20287
2.197
2.19118
2.18543
2.17977
2.1742
2.16872
2.25943
2.25553
2.25102
2.24592
2.24031
2.23429
2.22796
2.2214
2.2147
2.20791
2.20109
2.19429
2.18754
2.18088
2.17432
2.16788
2.1616
2.1555
2.25941
2.25519
2.25002
2.24399
2.23727
2.23003
2.22243
2.2146
2.20663
2.19862
2.19062
2.18268
2.17485
2.16716
2.15963
2.15228
2.14512
2.1381
2.25935
2.25456
2.24826
2.24066
2.23209
2.22284
2.21316
2.20324
2.19322
2.1832
2.17327
2.16348
2.15389
2.14452
2.13539
2.12652
2.11791
2.10967
2.25935
2.25385
2.24584
2.23594
2.22475
2.21278
2.20039
2.18783
2.17527
2.16284
2.15065
2.13875
2.12718
2.11597
2.10516
2.09475
2.08478
2.07514
2.25927
2.25242
2.24124
2.22717
2.21139
2.1947
2.17766
2.16062
2.14384
2.12747
2.11162
2.09634
2.08166
2.0676
2.05413
2.04125
2.02886
2.01715
2.25924
2.25041
2.23397
2.21363
2.19147
2.16867
2.14591
2.12362
2.10205
2.08135
2.06159
2.0428
2.02496
2.00806
1.99208
1.97698
1.96285
1.94964
2.25889
2.24472
2.21618
2.18219
2.14678
2.11175
2.07806
2.04624
2.01648
1.98877
1.96301
1.9391
1.91688
1.89626
1.87703
1.85918
1.84218
1.82641
2.25872
2.23436
2.18569
2.13367
2.08299
2.03496
1.99028
1.9496
1.91262
1.879
1.8484
1.82053
1.79503
1.77175
1.75031
1.73071
1.71259
1.69708
2.25333
2.17275
2.05404
1.95318
1.87048
1.80144
1.74471
1.69879
1.66016
1.6271
1.59838
1.57342
1.55129
1.53199
1.51452
1.49937
1.48525
1.47203
2.25474
2.20869
2.14517
2.08349
2.02609
1.97399
1.92688
1.88448
1.84639
1.8121
1.78115
1.75308
1.7276
1.70428
1.68306
1.66341
1.64559
1.62873
0.0284755
0.0556055
0.0794157
0.0921167
0.101806
0.108507
0.114204
0.118665
0.122568
0.125848
0.128771
0.131312
0.133573
0.135535
0.137232
0.138642
0.139759
0.140575
0.141077
0.141219
0.141112
0.14075
0.140025
0.139257
0.137751
0.134631
0.129557
0.122325
0.112721
0.100689
0.0856816
0.0711331
0.0597301
0.0516206
0.0463057
0.0427007
0.0403476
0.0400004
0.0432073
0.0493927
0.0572758
0.0665624
0.0772127
0.0893507
0.10345
0.117907
0.13093
0.143129
0.154705
0.1655
0.175627
0.185159
0.194168
0.202713
0.21085
0.218631
0.226104
0.233315
0.240306
0.247114
0.253774
0.260316
0.266766
0.273148
0.27948
0.285779
0.29206
0.298333
0.304608
0.310894
0.317197
0.323523
0.329875
0.336257
0.342672
0.349119
0.355599
0.362112
0.368656
0.375228
0.381825
0.388444
0.39508
0.401728
0.408384
0.415039
0.421688
0.428322
0.434931
0.441506
0.448036
0.454507
0.460906
0.46722
0.473436
0.479541
0.485524
0.491381
0.497135
0.502864
0.508576
0.514276
0.51996
0.525612
0.531216
0.536757
0.542212
0.547559
0.552772
0.557828
0.562714
0.567461
0.572092
0.576584
0.580903
0.585003
0.588806
0.592187
0.594604
0.595951
0.596479
0.596901
0.597257
0.597017
0.596824
0.596302
0.59567
0.594853
0.593909
0.592831
0.591638
0.590343
0.588965
0.587526
0.586058
0.584593
0.58317
0.581816
0.580555
0.579393
0.578341
0.577412
0.576608
0.575934
0.575375
0.574993
0.574938
0.575577
0.57735
0.579719
0.581671
0.582913
0.583462
0.583347
0.582766
0.580592
0.575574
0.569642
0.563719
0.558115
0.553602
0.551056
0.551049
0.552979
0.557366
0.563641
0.571358
0.580826
0.592004
0.604086
0.616716
0.628266
0.634889
0.631426
0.61259
0.566865
0.502653
0.436995
0.419314
0.451239
0.058696
0.121352
0.167732
0.193721
0.214248
0.230093
0.243747
0.255428
0.266082
0.27581
0.284952
0.293517
0.301603
0.309189
0.316275
0.322785
0.328637
0.333722
0.337971
0.341359
0.343911
0.345729
0.347005
0.348073
0.349493
0.351933
0.355979
0.362081
0.370467
0.380983
0.393
0.40556
0.418249
0.430947
0.443298
0.454578
0.464067
0.471491
0.477006
0.480827
0.483263
0.484809
0.486019
0.487382
0.489178
0.491812
0.495864
0.501564
0.508871
0.517569
0.527375
0.538001
0.54918
0.560687
0.57234
0.583997
0.595557
0.60695
0.618132
0.629084
0.639801
0.650293
0.660579
0.670682
0.68063
0.690452
0.700179
0.709838
0.719456
0.729058
0.738667
0.748303
0.757982
0.76772
0.77753
0.787423
0.797409
0.807495
0.817688
0.827993
0.838415
0.848956
0.859617
0.870399
0.8813
0.892317
0.903443
0.91467
0.925987
0.937381
0.948832
0.960311
0.971784
0.98321
0.99454
1.00572
1.0167
1.02743
1.03786
1.04811
1.05829
1.06846
1.07861
1.08872
1.0988
1.10885
1.11884
1.12875
1.13858
1.14829
1.15787
1.16732
1.17662
1.18577
1.19475
1.20351
1.21203
1.22024
1.22815
1.23581
1.24325
1.25054
1.25765
1.26454
1.27127
1.27781
1.28415
1.29028
1.29619
1.30186
1.30727
1.31242
1.31729
1.32187
1.32617
1.33019
1.33396
1.33747
1.34072
1.34369
1.34636
1.34872
1.35074
1.35242
1.35372
1.3547
1.3554
1.35621
1.35812
1.36078
1.36282
1.36385
1.36412
1.36396
1.36336
1.36236
1.36123
1.36032
1.35986
1.36009
1.36105
1.36265
1.36454
1.3662
1.36716
1.36769
1.36857
1.37036
1.37373
1.37853
1.38451
1.39042
1.39668
1.39743
1.39577
1.39476
1.3999
1.41261
1.44336
1.48314
0.0929026
0.175488
0.231226
0.262426
0.287884
0.30746
0.324758
0.339797
0.353895
0.367045
0.379724
0.391901
0.403788
0.415409
0.426866
0.43813
0.449173
0.45993
0.470419
0.480705
0.490907
0.501222
0.511952
0.523506
0.53637
0.550982
0.567585
0.58613
0.606266
0.627384
0.648688
0.669307
0.688388
0.705047
0.718276
0.727238
0.731682
0.732413
0.730412
0.726866
0.723003
0.719915
0.718462
0.718986
0.721922
0.72733
0.735111
0.745017
0.756692
0.769734
0.783738
0.798334
0.813204
0.828095
0.842818
0.857239
0.871272
0.884872
0.898024
0.910735
0.923027
0.934934
0.946496
0.957754
0.968751
0.979531
0.990132
1.00059
1.01095
1.02124
1.03148
1.0417
1.05193
1.06219
1.0725
1.08287
1.09331
1.10383
1.11446
1.12518
1.13601
1.14696
1.15802
1.16919
1.18048
1.19189
1.2034
1.21503
1.22677
1.23861
1.25054
1.26256
1.27465
1.2868
1.299
1.31123
1.32349
1.33577
1.3481
1.3605
1.37296
1.38551
1.39815
1.41086
1.4236
1.43634
1.44905
1.46171
1.4743
1.48681
1.49922
1.51151
1.52367
1.53566
1.54747
1.55907
1.57044
1.58157
1.59245
1.60311
1.61359
1.6239
1.63403
1.64395
1.65369
1.6632
1.6725
1.68155
1.69036
1.69889
1.70715
1.71511
1.72275
1.73007
1.73706
1.74373
1.75009
1.75616
1.76193
1.76738
1.77252
1.77732
1.78179
1.78593
1.78976
1.7933
1.79651
1.79936
1.80192
1.80408
1.80558
1.80636
1.80648
1.80606
1.80507
1.80355
1.80169
1.7997
1.79779
1.79607
1.79461
1.79338
1.79241
1.79193
1.79202
1.79285
1.79515
1.79932
1.80544
1.8131
1.82174
1.82991
1.83681
1.84106
1.84515
1.85139
1.86739
1.89262
1.92444
1.9531
0.11229
0.214497
0.279418
0.315986
0.346073
0.369986
0.391351
0.410051
0.427548
0.443856
0.459656
0.474929
0.490015
0.504925
0.519849
0.534786
0.549854
0.565075
0.580523
0.596185
0.61207
0.628139
0.644367
0.660657
0.676847
0.692763
0.708343
0.723593
0.738525
0.75311
0.767262
0.780829
0.793541
0.80499
0.814757
0.822668
0.828923
0.834018
0.838581
0.843257
0.848632
0.85517
0.863178
0.872798
0.884035
0.896775
0.910807
0.92586
0.941639
0.957852
0.974235
0.99057
1.00669
1.02247
1.03783
1.05273
1.06717
1.08113
1.09466
1.10778
1.12053
1.13296
1.1451
1.157
1.16871
1.18027
1.19171
1.20307
1.21438
1.22568
1.237
1.24836
1.25978
1.27129
1.28289
1.29461
1.30646
1.31844
1.33057
1.34285
1.35528
1.36786
1.3806
1.3935
1.40655
1.41975
1.4331
1.44659
1.46023
1.474
1.48789
1.50191
1.51605
1.5303
1.54467
1.55914
1.57373
1.58844
1.60324
1.61813
1.63309
1.64808
1.66308
1.67807
1.69303
1.70793
1.72276
1.7375
1.75212
1.76662
1.78096
1.79514
1.80913
1.82292
1.83649
1.84982
1.86291
1.87576
1.88837
1.90073
1.91287
1.92477
1.93643
1.94784
1.95899
1.96989
1.98051
1.99084
2.00089
2.01063
2.02007
2.02917
2.03794
2.04635
2.05439
2.06207
2.06941
2.07643
2.08313
2.08951
2.09556
2.10128
2.10667
2.11174
2.11648
2.12089
2.12494
2.12858
2.1317
2.13415
2.13582
2.13668
2.13672
2.13595
2.13431
2.13187
2.12877
2.12521
2.12142
2.11761
2.11392
2.1105
2.10759
2.10559
2.10492
2.10592
2.10917
2.11493
2.12306
2.13297
2.14394
2.15447
2.16332
2.16923
2.17461
2.18184
2.19623
2.21629
2.24017
2.26127
0.138931
0.255942
0.327877
0.368116
0.401322
0.428294
0.452726
0.47467
0.495258
0.514566
0.533179
0.551221
0.568948
0.586381
0.603613
0.620691
0.63775
0.654863
0.672045
0.689237
0.706342
0.723202
0.739622
0.755369
0.770196
0.78391
0.796459
0.807949
0.818617
0.828758
0.838644
0.84846
0.858282
0.868119
0.877988
0.88799
0.898307
0.909158
0.920752
0.933251
0.946754
0.961283
0.976788
0.993165
1.01026
1.0279
1.04589
1.06404
1.08217
1.10014
1.11782
1.13514
1.15202
1.16844
1.18439
1.19988
1.21492
1.22954
1.24379
1.2577
1.27132
1.2847
1.29788
1.3109
1.32382
1.33666
1.34947
1.36229
1.37514
1.38805
1.40106
1.41418
1.42744
1.44085
1.45442
1.46817
1.4821
1.49622
1.51054
1.52505
1.53977
1.55468
1.56978
1.58508
1.60057
1.61625
1.6321
1.64813
1.66433
1.6807
1.69723
1.71391
1.73074
1.74772
1.76483
1.78208
1.79945
1.81694
1.83452
1.85219
1.86991
1.88765
1.90538
1.92308
1.94071
1.95825
1.97567
1.99294
2.01005
2.02697
2.04367
2.06014
2.07637
2.09233
2.10802
2.12342
2.13854
2.15336
2.1679
2.18213
2.19607
2.2097
2.22301
2.23599
2.24865
2.26097
2.27296
2.2846
2.2959
2.30684
2.31743
2.32767
2.33753
2.34701
2.35611
2.36479
2.37308
2.38099
2.38852
2.39567
2.40242
2.40878
2.41473
2.42027
2.42537
2.42999
2.43409
2.43757
2.44038
2.4424
2.44356
2.4438
2.44307
2.44134
2.43862
2.43496
2.43048
2.42535
2.41984
2.41419
2.40873
2.40383
2.39997
2.39759
2.39708
2.39857
2.40251
2.40901
2.41775
2.42804
2.43911
2.44961
2.45845
2.46405
2.46712
2.4692
2.47488
2.48444
2.49861
2.51476
0.155486
0.28738
0.368231
0.412874
0.44936
0.479058
0.505987
0.530321
0.553242
0.574853
0.595662
0.615771
0.63543
0.654676
0.673592
0.69217
0.710413
0.728274
0.745701
0.762613
0.778911
0.794465
0.809137
0.822796
0.835357
0.846811
0.857257
0.866902
0.876038
0.884995
0.894095
0.903615
0.913781
0.924769
0.936721
0.949738
0.963872
0.979126
0.995447
1.01274
1.03088
1.04974
1.06915
1.08896
1.10898
1.12908
1.1491
1.16893
1.18847
1.20763
1.22637
1.24463
1.26242
1.27974
1.29659
1.31301
1.32903
1.3447
1.36006
1.37516
1.39006
1.40481
1.41944
1.43401
1.44856
1.46313
1.47776
1.49249
1.50734
1.52234
1.53751
1.55289
1.56847
1.58428
1.60032
1.6166
1.63313
1.64991
1.66694
1.68421
1.70174
1.71952
1.73754
1.7558
1.77429
1.79302
1.81196
1.83113
1.8505
1.87007
1.88983
1.90978
1.92989
1.95017
1.97059
1.99114
2.01181
2.03257
2.05339
2.07426
2.09513
2.11598
2.13677
2.15748
2.17806
2.19849
2.21873
2.23876
2.25855
2.27808
2.29733
2.31628
2.3349
2.35319
2.37114
2.38873
2.40596
2.42282
2.4393
2.45539
2.4711
2.48641
2.50131
2.51582
2.52991
2.54359
2.55686
2.56972
2.58217
2.59421
2.60584
2.61706
2.62786
2.63826
2.64823
2.65777
2.66685
2.67548
2.68365
2.69135
2.69857
2.7053
2.71152
2.7172
2.72229
2.72674
2.73049
2.73345
2.73552
2.73659
2.73659
2.73546
2.73315
2.72968
2.72509
2.71947
2.71298
2.70584
2.69836
2.69086
2.68373
2.67741
2.67241
2.66918
2.66813
2.66934
2.67294
2.67885
2.6866
2.69537
2.70431
2.71221
2.71804
2.72057
2.71993
2.71685
2.71492
2.71547
2.72153
2.73232
0.174793
0.317396
0.405047
0.453003
0.492
0.523859
0.552692
0.578783
0.603295
0.626354
0.648431
0.669644
0.6902
0.710138
0.72954
0.748409
0.766741
0.784472
0.801538
0.817863
0.833378
0.848015
0.861724
0.874477
0.886297
0.897263
0.90753
0.917323
0.926923
0.936637
0.946774
0.957622
0.969424
0.982365
0.99655
1.01201
1.02869
1.04649
1.06527
1.08485
1.10508
1.12579
1.14684
1.16806
1.18934
1.21055
1.23158
1.25237
1.27282
1.29291
1.31259
1.33185
1.35068
1.36911
1.38715
1.40484
1.42223
1.43935
1.45625
1.47299
1.48962
1.50618
1.52273
1.53931
1.55597
1.57274
1.58966
1.60677
1.62409
1.64166
1.65948
1.67759
1.69598
1.71468
1.73369
1.75301
1.77266
1.79263
1.81292
1.83353
1.85446
1.87571
1.89727
1.91912
1.94126
1.96368
1.98636
2.00929
2.03246
2.05584
2.07943
2.10321
2.12716
2.15126
2.17548
2.19981
2.22423
2.24869
2.27318
2.29765
2.32208
2.34642
2.37063
2.39468
2.41853
2.44215
2.4655
2.48857
2.51131
2.53371
2.55575
2.5774
2.59864
2.61947
2.63986
2.65981
2.67929
2.69832
2.71686
2.73493
2.7525
2.76959
2.78617
2.80225
2.81783
2.8329
2.84747
2.86153
2.87509
2.88815
2.9007
2.91275
2.9243
2.93532
2.94581
2.95577
2.96517
2.974
2.98225
2.98992
2.99698
3.00341
3.00921
3.01432
3.01872
3.02235
3.02514
3.027
3.02784
3.02758
3.02613
3.02343
3.01948
3.0143
3.00794
3.00051
2.99218
2.9832
2.97389
2.96462
2.9558
2.94788
2.94133
2.93652
2.93374
2.93309
2.93444
2.93757
2.942
2.94689
2.9514
2.95449
2.9551
2.95217
2.94561
2.93618
2.92699
2.9201
2.92001
2.92638
0.183642
0.336737
0.432255
0.483876
0.525478
0.559297
0.589829
0.617405
0.643285
0.667573
0.690731
0.712814
0.734021
0.754389
0.773991
0.792836
0.810948
0.828314
0.844928
0.860771
0.875837
0.890125
0.903652
0.916452
0.928592
0.940181
0.951374
0.962375
0.973423
0.984775
0.996683
1.00938
1.02304
1.03779
1.05368
1.07069
1.08874
1.10771
1.12747
1.14789
1.16882
1.19015
1.21174
1.23348
1.25528
1.27704
1.29867
1.32012
1.34132
1.36223
1.38284
1.40313
1.4231
1.44278
1.46218
1.48135
1.50032
1.51913
1.53785
1.55651
1.57516
1.59386
1.61266
1.63159
1.6507
1.67002
1.6896
1.70946
1.72963
1.75014
1.77099
1.79221
1.81381
1.8358
1.85818
1.88096
1.90414
1.92772
1.95169
1.97606
2.00081
2.02593
2.05139
2.0772
2.10331
2.12973
2.15642
2.18339
2.2106
2.23804
2.26568
2.29352
2.3215
2.34962
2.37785
2.40614
2.43447
2.46281
2.49111
2.51933
2.54744
2.5754
2.60317
2.63071
2.65799
2.68496
2.71159
2.73784
2.76369
2.78912
2.81409
2.83859
2.86259
2.88608
2.90905
2.93149
2.95337
2.97469
2.99543
3.0156
3.03518
3.05416
3.07255
3.09032
3.1075
3.12405
3.14
3.15533
3.17004
3.18412
3.19758
3.21039
3.22255
3.23403
3.24482
3.25491
3.26427
3.2729
3.28078
3.2879
3.29424
3.29978
3.30451
3.3084
3.31143
3.31354
3.31468
3.31477
3.31374
3.3115
3.30801
3.30324
3.29721
3.28993
3.2815
3.27203
3.2617
3.25078
3.23956
3.2284
3.21769
3.20781
3.19914
3.19197
3.18647
3.18263
3.18029
3.17906
3.17837
3.17746
3.17558
3.17186
3.16562
3.15606
3.14324
3.1277
3.11217
3.09895
3.09311
3.09474
0.199648
0.358441
0.457208
0.51044
0.553202
0.588038
0.619429
0.647808
0.674418
0.699399
0.723186
0.745833
0.767513
0.788249
0.808115
0.827129
0.845327
0.862726
0.879368
0.89529
0.910536
0.925153
0.939195
0.952726
0.965825
0.978598
0.99118
1.00374
1.01645
1.02952
1.04313
1.05745
1.0726
1.08864
1.10561
1.12347
1.14216
1.16161
1.18171
1.20238
1.22353
1.24504
1.26684
1.28884
1.31095
1.3331
1.35523
1.37727
1.3992
1.42097
1.44257
1.464
1.48525
1.50636
1.52734
1.54822
1.56905
1.58986
1.61071
1.63163
1.65267
1.67388
1.6953
1.71698
1.73895
1.76124
1.7839
1.80694
1.83039
1.85427
1.87859
1.90337
1.92862
1.95435
1.98054
2.00722
2.03437
2.06198
2.09005
2.11857
2.14751
2.17685
2.20658
2.23668
2.26712
2.29788
2.32896
2.36031
2.39192
2.42375
2.45577
2.48795
2.52027
2.55268
2.58515
2.61763
2.6501
2.6825
2.71479
2.74693
2.77887
2.81058
2.84199
2.87306
2.90376
2.93406
2.96392
2.99331
3.02221
3.05058
3.07841
3.10567
3.13235
3.15843
3.18389
3.20871
3.2329
3.25642
3.27927
3.30145
3.32294
3.34373
3.36382
3.3832
3.40186
3.41979
3.437
3.45348
3.4692
3.48417
3.49836
3.51176
3.52434
3.53607
3.54692
3.55688
3.56592
3.57402
3.58116
3.58732
3.59248
3.59663
3.59977
3.60186
3.60291
3.60288
3.60174
3.59945
3.59595
3.59123
3.58525
3.57804
3.56961
3.56001
3.54932
3.53768
3.52526
3.51229
3.49903
3.48578
3.47286
3.46055
3.44911
3.4387
3.42935
3.42095
3.41325
3.40581
3.39806
3.38935
3.37912
3.36684
3.3522
3.33486
3.31507
3.29337
3.27213
3.25355
3.24262
3.23982
0.204887
0.37057
0.473508
0.528872
0.573307
0.609335
0.641714
0.670881
0.698169
0.723728
0.74803
0.771129
0.793215
0.814315
0.834515
0.853842
0.872357
0.890106
0.907153
0.923553
0.939384
0.954717
0.969618
0.984158
0.998417
1.01249
1.02649
1.04055
1.05479
1.06936
1.08438
1.09997
1.11621
1.13316
1.15083
1.16922
1.18829
1.20799
1.22828
1.24908
1.27034
1.292
1.31398
1.33622
1.35866
1.38124
1.40391
1.42664
1.44939
1.47213
1.49487
1.51759
1.54031
1.56304
1.58581
1.60864
1.63158
1.65466
1.67791
1.70139
1.72513
1.74917
1.77356
1.79832
1.82349
1.84911
1.8752
1.90178
1.92886
1.95648
1.98463
2.01332
2.04257
2.07236
2.1027
2.13358
2.16499
2.19692
2.22935
2.26226
2.29563
2.32943
2.36363
2.39822
2.43316
2.46843
2.50398
2.5398
2.57582
2.61204
2.6484
2.68488
2.72145
2.75804
2.79463
2.83116
2.86758
2.90385
2.93992
2.97574
3.01126
3.04645
3.08126
3.11566
3.14961
3.18306
3.21598
3.24835
3.28013
3.31129
3.34182
3.37169
3.40089
3.42939
3.45718
3.48424
3.51057
3.53615
3.56096
3.58499
3.60824
3.6307
3.65235
3.67319
3.69321
3.7124
3.73076
3.74827
3.76491
3.78066
3.7955
3.80939
3.8223
3.83418
3.845
3.85472
3.8633
3.87071
3.8769
3.88185
3.88553
3.88793
3.88905
3.88886
3.8874
3.88463
3.88056
3.87521
3.86857
3.86068
3.85156
3.84125
3.82984
3.81737
3.80397
3.78976
3.77492
3.75963
3.74411
3.72858
3.71325
3.69827
3.68373
3.66963
3.65582
3.64204
3.62793
3.613
3.59676
3.57875
3.55872
3.53656
3.51247
3.48661
3.4595
3.43166
3.40509
3.3817
3.36627
3.3594
0.212177
0.381717
0.485869
0.542182
0.587622
0.624465
0.657595
0.687415
0.715308
0.741418
0.766246
0.789852
0.81244
0.834046
0.854771
0.874654
0.89377
0.912172
0.92994
0.947141
0.963845
0.980118
0.996031
1.01166
1.02707
1.04236
1.05762
1.07295
1.08845
1.10422
1.12035
1.13692
1.15401
1.17165
1.18989
1.20871
1.22813
1.24811
1.26864
1.28967
1.31117
1.33309
1.35539
1.37804
1.40097
1.42417
1.44758
1.4712
1.49499
1.51895
1.54307
1.56735
1.59181
1.61646
1.64133
1.66644
1.69182
1.71751
1.74355
1.76996
1.79679
1.82406
1.85181
1.88007
1.90886
1.93821
1.96814
1.99866
2.02979
2.06153
2.0939
2.12688
2.16048
2.19469
2.2295
2.26489
2.30085
2.33736
2.3744
2.41192
2.4499
2.48832
2.52714
2.56632
2.60583
2.64563
2.68568
2.72595
2.76639
2.80697
2.84765
2.88839
2.92912
2.9698
3.01038
3.0508
3.09102
3.13097
3.17061
3.2099
3.24879
3.28722
3.32516
3.36255
3.39938
3.4356
3.47119
3.50613
3.54037
3.5739
3.60669
3.63873
3.66999
3.70046
3.73012
3.75896
3.78697
3.81412
3.84043
3.86586
3.89041
3.91409
3.93687
3.95876
3.97975
3.99983
4.01899
4.03721
4.05447
4.07075
4.08601
4.1002
4.11327
4.12518
4.13584
4.14522
4.15325
4.15986
4.16499
4.16857
4.17058
4.17099
4.1698
4.16699
4.16257
4.15658
4.14907
4.14012
4.12978
4.11816
4.10533
4.09141
4.0765
4.0607
4.04413
4.02695
4.0093
3.99135
3.97324
3.95512
3.93706
3.91908
3.90109
3.88288
3.86413
3.84438
3.82315
3.79991
3.77426
3.74596
3.71509
3.68205
3.6476
3.61245
3.57745
3.54318
3.51137
3.48371
3.46467
3.45502
0.214471
0.386805
0.492264
0.549585
0.596026
0.633644
0.667504
0.697967
0.726485
0.753185
0.778603
0.802796
0.825995
0.84824
0.86965
0.89027
0.910185
0.929451
0.948144
0.966321
0.984046
1.00137
1.01836
1.03508
1.05161
1.06803
1.08441
1.10085
1.11743
1.13422
1.15129
1.16873
1.18658
1.2049
1.22372
1.24307
1.26295
1.28336
1.3043
1.32576
1.34771
1.37014
1.39301
1.41632
1.44003
1.46412
1.48857
1.51338
1.53853
1.56402
1.58985
1.61603
1.64257
1.6695
1.69682
1.72457
1.75278
1.78146
1.81065
1.84038
1.87067
1.90155
1.93305
1.96517
1.99795
2.03139
2.06551
2.1003
2.13579
2.17196
2.2088
2.24632
2.2845
2.32333
2.36278
2.40282
2.44345
2.48462
2.5263
2.56845
2.61104
2.65403
2.69738
2.74105
2.785
2.82917
2.87354
2.91804
2.96264
3.00729
3.05194
3.09653
3.14101
3.18533
3.22943
3.27326
3.31677
3.35989
3.40258
3.44478
3.48648
3.52762
3.56817
3.60808
3.64733
3.68586
3.72364
3.76065
3.79686
3.83223
3.86676
3.90041
3.93317
3.96504
3.99599
4.02602
4.05512
4.08328
4.11049
4.13675
4.16206
4.18641
4.2098
4.23223
4.25371
4.27422
4.29376
4.31231
4.32984
4.34633
4.36174
4.37601
4.38908
4.40088
4.41134
4.42037
4.42788
4.43376
4.43792
4.44025
4.44067
4.4392
4.4357
4.43014
4.42258
4.41307
4.40171
4.38863
4.37399
4.35795
4.34069
4.32238
4.30321
4.28334
4.26292
4.24211
4.22107
4.19993
4.17881
4.15774
4.13672
4.1156
4.09413
4.0719
4.04835
4.02282
3.99465
3.96323
3.92819
3.88945
3.84744
3.80303
3.75757
3.7124
3.66883
3.62766
3.59055
3.55909
3.53755
3.52676
0.21597
0.389246
0.494716
0.552549
0.59967
0.637893
0.672375
0.703429
0.73256
0.759872
0.785931
0.810792
0.834706
0.857715
0.87995
0.901456
0.922319
0.942587
0.962328
0.981587
1.00042
1.01887
1.03699
1.05485
1.0725
1.09002
1.10748
1.12496
1.14254
1.1603
1.17831
1.19663
1.21532
1.23442
1.25398
1.27403
1.29459
1.31569
1.33732
1.35951
1.38224
1.40551
1.42932
1.45367
1.47854
1.50394
1.52985
1.55627
1.58322
1.61068
1.63868
1.66721
1.6963
1.72596
1.75622
1.78708
1.81857
1.85072
1.88353
1.91703
1.95124
1.98617
2.02184
2.05824
2.0954
2.13331
2.17197
2.21137
2.25152
2.29239
2.33397
2.37625
2.4192
2.46279
2.50699
2.55178
2.59712
2.64296
2.68926
2.73599
2.7831
2.83054
2.87826
2.92622
2.97437
3.02266
3.07103
3.11945
3.16786
3.2162
3.26443
3.31249
3.36033
3.40788
3.45507
3.50184
3.54815
3.59396
3.63921
3.68384
3.72781
3.77106
3.81356
3.85528
3.89617
3.93621
3.97536
4.01361
4.05091
4.08726
4.12263
4.15702
4.1904
4.22278
4.25415
4.28451
4.31384
4.34215
4.36943
4.39569
4.42094
4.44517
4.46841
4.49064
4.51188
4.53213
4.55139
4.56963
4.58683
4.60297
4.618
4.63187
4.64452
4.65588
4.66585
4.67435
4.68125
4.68644
4.68976
4.69108
4.69033
4.68738
4.68199
4.67416
4.66387
4.65116
4.63614
4.61896
4.59984
4.57904
4.55684
4.53352
4.50935
4.4846
4.45948
4.43419
4.4089
4.38375
4.35882
4.33411
4.30952
4.28481
4.25961
4.23333
4.20525
4.17449
4.14018
4.10154
4.05809
4.0098
3.95729
3.90179
3.8452
3.78952
3.73671
3.68807
3.64548
3.6107
3.5878
3.5774
0.215202
0.38777
0.492905
0.55104
0.598697
0.637434
0.672509
0.704159
0.733933
0.7619
0.788666
0.814273
0.838992
0.862864
0.886034
0.908535
0.930455
0.951831
0.972723
0.993169
1.01322
1.0329
1.05227
1.07136
1.09023
1.10895
1.12757
1.14618
1.16489
1.18375
1.20284
1.22223
1.24196
1.26209
1.28267
1.30374
1.32533
1.34748
1.37021
1.39355
1.41751
1.4421
1.46734
1.49324
1.5198
1.54702
1.57493
1.60353
1.63282
1.66282
1.69353
1.72498
1.75718
1.79013
1.82385
1.85836
1.89366
1.92977
1.96669
2.00444
2.04301
2.08241
2.12263
2.16368
2.20554
2.24821
2.29167
2.33591
2.3809
2.42661
2.47303
2.52012
2.56784
2.61617
2.66506
2.71446
2.76434
2.81465
2.86533
2.91635
2.96764
3.01916
3.07086
3.12268
3.17457
3.22647
3.27835
3.33013
3.38177
3.4332
3.48437
3.53522
3.58568
3.63569
3.68519
3.73411
3.78239
3.82999
3.87687
3.92298
3.96829
4.01275
4.05632
4.09897
4.14065
4.18133
4.221
4.25961
4.29715
4.33361
4.36898
4.40324
4.43639
4.46844
4.49938
4.52922
4.55795
4.58558
4.61211
4.63757
4.66195
4.68529
4.70759
4.72886
4.74912
4.76837
4.78661
4.80383
4.82001
4.83513
4.84914
4.86199
4.87362
4.88397
4.89295
4.90045
4.90637
4.91057
4.9129
4.91323
4.91149
4.90733
4.90061
4.89121
4.87902
4.864
4.84617
4.82564
4.80263
4.77741
4.75034
4.72181
4.69222
4.66195
4.63135
4.60069
4.5702
4.54007
4.51037
4.48108
4.45208
4.42309
4.39364
4.36311
4.33065
4.29526
4.25591
4.21161
4.16168
4.10594
4.04494
3.98001
3.91337
3.84759
3.78536
3.72881
3.68049
3.64259
3.61912
3.61024
0.213025
0.383701
0.487822
0.546002
0.594039
0.633194
0.668783
0.70095
0.731321
0.759935
0.787434
0.813845
0.839468
0.864327
0.888561
0.912187
0.935298
0.957925
0.980125
1.00193
1.02337
1.04447
1.06528
1.08582
1.10613
1.12628
1.14634
1.16638
1.18651
1.20679
1.2273
1.24811
1.26928
1.29085
1.3129
1.33547
1.3586
1.38236
1.40676
1.43186
1.45768
1.48424
1.51158
1.5397
1.56865
1.59842
1.62904
1.66053
1.69289
1.72614
1.7603
1.79536
1.83135
1.86826
1.90611
1.94489
1.9846
2.02524
2.06682
2.10931
2.1527
2.19699
2.24216
2.28819
2.33506
2.38273
2.43119
2.4804
2.53032
2.58093
2.63217
2.68402
2.73641
2.78932
2.84268
2.89646
2.95058
3.00502
3.0597
3.11457
3.16958
3.22468
3.27981
3.33491
3.38992
3.4448
3.49948
3.5539
3.60801
3.66175
3.71504
3.76782
3.82003
3.87161
3.92251
3.97268
4.02205
4.07058
4.1182
4.16487
4.21055
4.2552
4.29878
4.34127
4.38264
4.42286
4.46191
4.49978
4.53646
4.57193
4.60619
4.63925
4.6711
4.70175
4.7312
4.75947
4.78657
4.8125
4.83728
4.86094
4.8835
4.90499
4.92543
4.94484
4.96324
4.98064
4.99706
5.01247
5.02687
5.04024
5.05255
5.06372
5.07372
5.08245
5.08985
5.09579
5.10018
5.10289
5.10377
5.10277
5.09964
5.09414
5.08615
5.07549
5.062
5.04553
5.02601
5.00341
4.97784
4.94948
4.91865
4.88576
4.85128
4.81569
4.77947
4.74303
4.70672
4.67079
4.63538
4.60051
4.56606
4.53174
4.49712
4.46155
4.42422
4.38417
4.34033
4.29166
4.23733
4.17694
4.11073
4.03973
3.96596
3.89211
3.82143
3.75706
3.70267
3.66144
3.63742
3.63021
0.207988
0.375383
0.4783
0.536416
0.584799
0.62441
0.660628
0.693467
0.724623
0.754083
0.782533
0.809961
0.836683
0.862704
0.888201
0.913193
0.937759
0.961921
0.985737
1.00923
1.03242
1.05535
1.07803
1.10048
1.12276
1.14491
1.16701
1.18912
1.21131
1.23365
1.25624
1.27915
1.30245
1.3262
1.35049
1.37538
1.40092
1.42716
1.45415
1.48193
1.51056
1.54007
1.57049
1.60185
1.63419
1.66752
1.70188
1.73726
1.7737
1.81119
1.84974
1.88937
1.93005
1.97179
2.01459
2.05842
2.10327
2.14913
2.19596
2.24375
2.29246
2.34207
2.39254
2.44383
2.49592
2.54874
2.60227
2.65646
2.71126
2.76662
2.82249
2.87882
2.93556
2.99264
3.05002
3.10763
3.16542
3.22334
3.28131
3.33929
3.39722
3.45505
3.5127
3.57013
3.62728
3.6841
3.74052
3.79649
3.85195
3.90684
3.96109
4.01464
4.0674
4.11932
4.17034
4.22042
4.2695
4.31756
4.36455
4.41043
4.45517
4.49872
4.54106
4.58216
4.62199
4.66054
4.69778
4.73371
4.76832
4.80161
4.83359
4.86426
4.89363
4.92171
4.94853
4.97408
4.99841
5.02153
5.04346
5.06424
5.08392
5.10253
5.12011
5.13669
5.15229
5.16695
5.18068
5.19346
5.20532
5.21623
5.22615
5.23504
5.24283
5.24944
5.25478
5.25874
5.26119
5.26201
5.26112
5.2583
5.25332
5.24609
5.23644
5.22421
5.20926
5.19143
5.17057
5.14661
5.11949
5.08927
5.05613
5.02034
4.98231
4.94254
4.90154
4.85984
4.8179
4.7761
4.73468
4.69374
4.65323
4.61291
4.57236
4.53101
4.48812
4.44284
4.39428
4.34156
4.284
4.22118
4.15308
4.08019
4.00371
3.9256
3.84904
3.77806
3.7178
3.67284
3.6476
3.64115
0.201848
0.365044
0.465761
0.523472
0.572054
0.612085
0.648969
0.682568
0.714651
0.745132
0.774749
0.803453
0.831597
0.859161
0.886321
0.913058
0.939469
0.965597
0.991512
1.01723
1.04279
1.06819
1.09348
1.11868
1.14381
1.16894
1.19409
1.21932
1.24468
1.27026
1.29609
1.32223
1.34879
1.37592
1.4037
1.43218
1.46139
1.49139
1.52224
1.55402
1.58675
1.6205
1.6553
1.69117
1.72816
1.76627
1.80553
1.84595
1.88754
1.93028
1.97419
2.01924
2.06542
2.11271
2.16107
2.21048
2.2609
2.3123
2.36463
2.41785
2.47192
2.52678
2.58239
2.6387
2.69566
2.7532
2.81129
2.86985
2.92884
2.98819
3.04786
3.10776
3.16786
3.22809
3.28839
3.34871
3.40897
3.46913
3.52912
3.5889
3.64839
3.70756
3.76634
3.82467
3.88251
3.93978
3.99645
4.05244
4.10769
4.16215
4.21576
4.26846
4.32021
4.37094
4.4206
4.46914
4.51652
4.56269
4.60761
4.65125
4.69358
4.73457
4.77419
4.81243
4.84927
4.88469
4.91869
4.95127
4.98243
5.01219
5.04055
5.06754
5.09317
5.11745
5.14042
5.16211
5.18254
5.20176
5.21979
5.2367
5.25254
5.26735
5.28119
5.29409
5.3061
5.31725
5.32756
5.33706
5.34575
5.35362
5.36065
5.3668
5.37201
5.37617
5.3792
5.38098
5.38137
5.38034
5.37758
5.37293
5.36624
5.35734
5.34607
5.33226
5.31578
5.29649
5.27428
5.24905
5.22073
5.18931
5.15484
5.11746
5.07742
5.03508
4.9909
4.94539
4.89904
4.85231
4.80557
4.75903
4.71275
4.66657
4.62019
4.5731
4.52462
4.47404
4.42063
4.36383
4.30322
4.23863
4.17013
4.09792
4.0224
3.9444
3.86617