/*--------------------------------*- C++ -*----------------------------------*\
| =========                 |                                                 |
| \\      /  F ield         | OpenFOAM: The Open Source CFD Toolbox           |
|  \\    /   O peration     | Version:  v1906                                 |
|   \\  /    A nd           | Web:      www.OpenFOAM.com                      |
|    \\/     M anipulation  |                                                 |
\*---------------------------------------------------------------------------*/
FoamFile
{
    version     2.0;
    format      ascii;
    class       volScalarField;
    location    "1100";
    object      nut;
}
// * * * * * * * * * * * * * * * * * * * * * * * * * * * * * * * * * * * * * //

dimensions      [0 2 -1 0 0 0 0];


internalField   nonuniform List<scalar> 
12225
(
5.38048e-05
5.34216e-05
5.26394e-05
5.17772e-05
5.09452e-05
5.01792e-05
4.94852e-05
4.88674e-05
4.83044e-05
4.78139e-05
4.73489e-05
4.69687e-05
4.666e-05
4.64087e-05
4.6178e-05
4.60116e-05
4.58125e-05
4.57382e-05
0.000743659
0.000274829
0.000208917
0.000186814
0.000173793
0.000168887
0.000164699
0.000161063
0.000158146
0.000155595
0.000153663
0.000151727
0.000150458
0.000148689
0.000148146
0.000146399
0.000146851
0.000144904
0.00337131
0.000965691
0.000668428
0.000562252
0.000503866
0.000472027
0.000448897
0.00043164
0.000418765
0.000408325
0.000399688
0.000392303
0.00038628
0.000380549
0.000376458
0.000371444
0.000369697
0.000364675
0.00784749
0.00229238
0.00147326
0.00117576
0.0010186
0.000926485
0.000864622
0.000819855
0.000787
0.000761186
0.000740117
0.000723346
0.000709639
0.000697769
0.000688261
0.000678893
0.000673673
0.000663285
0.0127628
0.00432673
0.00270976
0.00210438
0.00178858
0.0015995
0.00147347
0.00138304
0.00131573
0.00126357
0.00122163
0.00118748
0.00115975
0.00113587
0.00111572
0.0010979
0.00108515
0.00106687
0.0171139
0.00693201
0.00436918
0.00334592
0.00280531
0.0024764
0.00225609
0.00209811
0.00197984
0.00188818
0.00181487
0.00175503
0.00170572
0.00166409
0.00162869
0.00159797
0.00157233
0.00154422
0.0205947
0.00988397
0.00641801
0.0049119
0.00409429
0.00358855
0.00324687
0.00300097
0.00281605
0.00267226
0.00255722
0.00246317
0.00238518
0.00231943
0.00226338
0.00221493
0.00217373
0.00213128
0.0232407
0.0129306
0.0087607
0.00676561
0.00563806
0.00492472
0.00443628
0.00408191
0.00381372
0.0036041
0.00343587
0.00329798
0.00318315
0.00308613
0.0030032
0.0029315
0.0028693
0.00280818
0.0252064
0.0158687
0.0112825
0.00885745
0.00741818
0.00648214
0.00583024
0.00535211
0.00498741
0.0047006
0.0044694
0.00427924
0.0041203
0.00398564
0.0038702
0.00377022
0.00368269
0.00359984
0.0266542
0.0185549
0.0138528
0.0111073
0.00938579
0.0082288
0.00740588
0.00679368
0.00632187
0.00594789
0.00564457
0.00539388
0.00518345
0.00500449
0.00485056
0.00471679
0.0045989
0.00449006
0.0277221
0.0209147
0.0163559
0.0134292
0.0114841
0.010128
0.00913969
0.00839193
0.00780851
0.00734171
0.00696035
0.00664332
0.00637592
0.00614756
0.00595043
0.00577853
0.00562663
0.00548832
0.0284467
0.0227416
0.0184777
0.0155119
0.0134327
0.0119304
0.0108081
0.00994381
0.0092606
0.00870842
0.00825372
0.00787332
0.00755077
0.00727408
0.00703429
0.00682445
0.00663857
0.00647063
0.0290075
0.024303
0.0204374
0.0175385
0.0153941
0.013785
0.0125501
0.0115803
0.0108022
0.0101661
0.00963759
0.00919226
0.00881241
0.00848496
0.0082
0.00794974
0.00772766
0.00752768
0.0294889
0.0257557
0.022398
0.0196767
0.0175409
0.0158666
0.0145395
0.0134717
0.0125989
0.0118751
0.0112668
0.0107495
0.0103049
0.00991925
0.00958188
0.00928433
0.0090196
0.00878167
0.0298837
0.0270286
0.0242393
0.0217979
0.019758
0.0180793
0.0166982
0.0155545
0.0145988
0.0137922
0.0131048
0.0125137
0.0120011
0.011553
0.0111586
0.010809
0.0104969
0.0102162
0.0301877
0.0280604
0.025827
0.0237257
0.0218568
0.0202387
0.0188526
0.0176679
0.0166527
0.0157787
0.015022
0.0143628
0.0137851
0.0132758
0.0128244
0.012422
0.0120615
0.0117368
0.0303978
0.0288005
0.0270244
0.0252476
0.0235769
0.0220607
0.0207113
0.0195217
0.018477
0.0175598
0.016753
0.0160411
0.0154106
0.0148501
0.0143497
0.0139012
0.0134977
0.0131335
0.0305044
0.0291849
0.027668
0.0260934
0.0245605
0.0231269
0.0218186
0.0206417
0.019591
0.0186562
0.017825
0.0170853
0.0164255
0.0158355
0.0153063
0.0148301
0.0144
0.0140101
0.0304715
0.029067
0.0274719
0.0258371
0.0242636
0.022806
0.0214859
0.0203052
0.0192559
0.0183255
0.0175006
0.016768
0.0161156
0.0155331
0.0150113
0.0145425
0.0141201
0.0137389
0.030231
0.0282139
0.026076
0.0240422
0.0222138
0.0206155
0.0192351
0.0180469
0.0170229
0.016137
0.0153668
0.0146934
0.0141015
0.0135783
0.0131137
0.0126992
0.0123281
0.011995
0.0298206
0.026828
0.0239497
0.021463
0.0194055
0.017724
0.0163473
0.0152112
0.0142639
0.0134656
0.0127858
0.0122014
0.0116946
0.0112515
0.0108615
0.0105162
0.0102092
0.00993655
0.0291395
0.0247088
0.0209849
0.0181324
0.0159863
0.0143547
0.0130897
0.0120882
0.0112794
0.0106147
0.0100598
0.00959023
0.00918823
0.00884049
0.00853695
0.00827
0.00803393
0.00782519
0.028036
0.0217163
0.0172852
0.0143382
0.0123315
0.010908
0.00985716
0.00905422
0.00842284
0.00791435
0.00749661
0.00714759
0.00685181
0.00659803
0.00637785
0.00618506
0.00601497
0.00586642
0.0262543
0.0178167
0.013146
0.0104897
0.00884759
0.00775157
0.00697421
0.0063969
0.00595232
0.0055999
0.00531394
0.00507741
0.0048786
0.00470922
0.00456314
0.00443585
0.00432373
0.00422593
0.0233814
0.013206
0.00902266
0.00699363
0.00583839
0.00510164
0.0045932
0.00422296
0.00394179
0.00372116
0.00354358
0.00339764
0.00327564
0.0031722
0.00308317
0.00300576
0.00293671
0.00287716
0.0189046
0.00845562
0.00545013
0.00418495
0.00350644
0.00308625
0.00280099
0.0025966
0.00244283
0.00232287
0.00222683
0.0021482
0.00208269
0.00202741
0.00197978
0.00193872
0.0019021
0.001871
0.0125844
0.00438896
0.00278861
0.00217249
0.00185039
0.00165231
0.00151839
0.00142438
0.00135363
0.0012984
0.0012544
0.00121843
0.00118862
0.00116359
0.00114156
0.00112296
0.00110551
0.00109078
0.00562612
0.00171149
0.00115552
0.000945986
0.000836992
0.000769029
0.000723343
0.000693181
0.0006688
0.000649355
0.000633836
0.000620822
0.000609581
0.000600044
0.000591378
0.000584171
0.000576955
0.000571998
0.00117126
0.000435644
0.000327291
0.000284808
0.000262913
0.000248758
0.000241426
0.000237205
0.000233233
0.000229624
0.000226393
0.000223584
0.000221027
0.000218865
0.000216792
0.000215128
0.000213341
0.000211704
7.08579e-05
7.01306e-05
6.91148e-05
6.8114e-05
6.71691e-05
6.62999e-05
6.5504e-05
6.47793e-05
6.41212e-05
6.35231e-05
6.29783e-05
6.24801e-05
6.20243e-05
6.16043e-05
6.12197e-05
6.08612e-05
6.05343e-05
6.02235e-05
1.00115e-05
2.98677e-05
3.56777e-05
3.84136e-05
4.03655e-05
4.16541e-05
4.27129e-05
4.35182e-05
4.42066e-05
4.47725e-05
4.52672e-05
4.56894e-05
4.60585e-05
4.63731e-05
4.66399e-05
4.68565e-05
4.70227e-05
4.71376e-05
4.71995e-05
4.72014e-05
4.71605e-05
4.70772e-05
4.69317e-05
4.67841e-05
4.6496e-05
4.59278e-05
4.50236e-05
4.37227e-05
4.19518e-05
3.96415e-05
3.65932e-05
3.33604e-05
3.06118e-05
2.85154e-05
2.70694e-05
2.60295e-05
2.52629e-05
2.49878e-05
2.57139e-05
2.73731e-05
2.94136e-05
3.16731e-05
3.40923e-05
3.66576e-05
3.94187e-05
4.21658e-05
4.4469e-05
4.65148e-05
4.83653e-05
5.00299e-05
5.15334e-05
5.29034e-05
5.416e-05
5.53197e-05
5.63961e-05
5.74013e-05
5.83453e-05
5.92373e-05
6.00849e-05
6.0895e-05
6.16732e-05
6.24245e-05
6.3153e-05
6.38624e-05
6.45555e-05
6.52348e-05
6.59022e-05
6.65596e-05
6.72083e-05
6.78496e-05
6.84842e-05
6.9113e-05
6.97366e-05
7.03555e-05
7.09699e-05
7.15801e-05
7.2186e-05
7.27877e-05
7.3385e-05
7.39779e-05
7.45661e-05
7.51492e-05
7.5727e-05
7.62992e-05
7.68651e-05
7.74245e-05
7.79767e-05
7.8521e-05
7.90568e-05
7.95833e-05
8.00996e-05
8.06049e-05
8.10982e-05
8.15786e-05
8.20452e-05
8.24971e-05
8.29336e-05
8.33544e-05
8.37609e-05
8.41609e-05
8.4555e-05
8.4944e-05
8.53276e-05
8.57047e-05
8.6074e-05
8.64345e-05
8.67845e-05
8.71227e-05
8.7447e-05
8.7756e-05
8.80485e-05
8.83258e-05
8.85918e-05
8.88445e-05
8.90822e-05
8.93019e-05
8.94988e-05
8.96651e-05
8.97737e-05
8.97889e-05
8.97322e-05
8.96648e-05
8.95876e-05
8.94671e-05
8.93507e-05
8.92084e-05
8.90589e-05
8.88932e-05
8.87181e-05
8.8532e-05
8.83363e-05
8.81318e-05
8.79195e-05
8.77007e-05
8.74772e-05
8.72514e-05
8.70263e-05
8.68042e-05
8.65873e-05
8.63761e-05
8.61719e-05
8.59757e-05
8.57882e-05
8.56106e-05
8.54396e-05
8.52786e-05
8.51351e-05
8.50249e-05
8.50075e-05
8.50661e-05
8.51132e-05
8.51067e-05
8.50412e-05
8.49372e-05
8.48026e-05
8.46276e-05
8.41758e-05
8.35864e-05
8.29987e-05
8.24016e-05
8.18115e-05
8.13186e-05
8.10636e-05
8.0921e-05
8.09573e-05
8.11832e-05
8.1487e-05
8.19144e-05
8.24838e-05
8.31331e-05
8.38613e-05
8.45592e-05
8.52458e-05
8.52597e-05
8.47595e-05
8.23078e-05
7.80714e-05
7.17637e-05
6.77202e-05
6.8561e-05
1.43747e-05
8.88179e-05
0.000186781
0.000246369
0.000294384
0.000329388
0.000359223
0.000383613
0.000406123
0.00042646
0.000445865
0.000464051
0.000481364
0.000497621
0.000512841
0.000526642
0.00053858
0.000548057
0.000554744
0.000558573
0.000559724
0.000558667
0.000555953
0.000552147
0.000549222
0.00054909
0.000549495
0.000549993
0.000552808
0.000559241
0.000568762
0.000574361
0.000575735
0.000574832
0.000574035
0.000575359
0.000579755
0.000587079
0.000596167
0.000604966
0.000612135
0.000616624
0.00061819
0.000616978
0.00061356
0.000609715
0.000607675
0.000608257
0.000611489
0.000617076
0.000624508
0.000633255
0.000642832
0.000652835
0.00066294
0.000672904
0.000682552
0.000691769
0.000700489
0.000708685
0.000716358
0.000723533
0.000730248
0.00073655
0.00074249
0.000748122
0.000753495
0.000758661
0.000763662
0.000768542
0.000773337
0.000778079
0.000782798
0.000787519
0.000792264
0.00079705
0.000801892
0.000806804
0.000811793
0.00081687
0.000822039
0.000827304
0.000832669
0.000838134
0.000843699
0.00084936
0.000855111
0.000860942
0.000866839
0.000872778
0.000878729
0.000884644
0.000890462
0.000896097
0.000901441
0.000906359
0.000910684
0.00091422
0.0009168
0.000919076
0.000921298
0.000923581
0.000925986
0.000928532
0.00093116
0.000933813
0.000936428
0.000938923
0.000941172
0.000942956
0.000943875
0.000943977
0.000943989
0.000944041
0.000944168
0.000944397
0.000944776
0.000945395
0.000946374
0.000947592
0.000948862
0.000950043
0.000951234
0.000952439
0.000953637
0.000954882
0.000956096
0.000957285
0.000958428
0.000959509
0.00096051
0.00096141
0.000962189
0.000962834
0.000963348
0.000963759
0.000964111
0.000964443
0.000964772
0.000965099
0.000965422
0.000965747
0.000966083
0.000966433
0.000966681
0.000966843
0.000966783
0.00096714
0.00097029
0.00097612
0.000982346
0.00098835
0.000994679
0.00100202
0.00101047
0.00102089
0.00103353
0.00104718
0.0010606
0.00107207
0.00108025
0.00108506
0.00108589
0.00108087
0.00106862
0.00104964
0.00102543
0.000999894
0.000976443
0.000957025
0.000943515
0.000937187
0.000947133
0.00096512
0.00100748
0.00106645
0.00111253
0.00116168
0.00119291
0.0011658
1.80839e-05
0.000123953
0.000267845
0.000382949
0.000482154
0.000561701
0.000630867
0.000687173
0.000738841
0.000785121
0.000829252
0.000870437
0.00091011
0.000948217
0.000985386
0.001021
0.00105417
0.00108346
0.00110801
0.00112838
0.00114524
0.00115921
0.00117095
0.00118117
0.00119058
0.00119936
0.00120726
0.00121375
0.00121821
0.00121992
0.00121881
0.0012189
0.00122027
0.00122286
0.0012268
0.00123252
0.00123911
0.00124644
0.00125475
0.00126347
0.00127237
0.00128144
0.00129077
0.0012995
0.00131007
0.00132166
0.00133493
0.0013505
0.00136813
0.00138741
0.00140783
0.00142887
0.00145004
0.00147094
0.00149123
0.00151066
0.00152908
0.0015464
0.00156255
0.00157756
0.00159146
0.00160431
0.00161619
0.00162719
0.00163739
0.00164689
0.00165577
0.00166412
0.00167202
0.00167953
0.00168672
0.00169366
0.00170038
0.00170695
0.00171339
0.00171975
0.00172605
0.00173231
0.00173856
0.00174481
0.00175107
0.00175734
0.00176363
0.00176994
0.00177626
0.00178257
0.00178887
0.00179513
0.00180133
0.00180743
0.00181338
0.00181911
0.00182455
0.0018296
0.00183413
0.00183797
0.00184091
0.00184264
0.00184351
0.00184433
0.00184543
0.00184692
0.00184891
0.00185134
0.00185408
0.00185695
0.00185983
0.00186259
0.00186516
0.00186745
0.00186951
0.00187147
0.0018735
0.0018756
0.00187775
0.00187993
0.0018821
0.0018842
0.00188616
0.00188801
0.00188987
0.00189182
0.00189386
0.00189602
0.00189826
0.00190059
0.00190297
0.00190539
0.00190783
0.00191026
0.00191266
0.00191499
0.00191722
0.00191934
0.00192136
0.00192344
0.00192575
0.00192845
0.00193162
0.00193534
0.00193965
0.00194462
0.00195034
0.00195687
0.00196425
0.00197255
0.00198192
0.00199249
0.00200501
0.00201956
0.00203535
0.00205199
0.00206962
0.0020884
0.00210797
0.00212795
0.0021474
0.002165
0.00217898
0.00218746
0.002189
0.00218335
0.00217001
0.0021488
0.00212072
0.00208711
0.00205216
0.00202113
0.0019984
0.00198692
0.00198965
0.00200862
0.00204706
0.00210555
0.00218657
0.00227137
0.00235296
0.00240358
0.00240661
0.00232094
1.98847e-05
0.000144381
0.000318088
0.000463058
0.000597291
0.000710892
0.000812905
0.000899465
0.000978487
0.00104823
0.00111361
0.0011734
0.0012302
0.00128341
0.00133423
0.00138163
0.00142561
0.00146491
0.00149925
0.00152934
0.00155578
0.00157907
0.00159965
0.00161786
0.00163385
0.00164775
0.0016594
0.00166863
0.00167548
0.00168031
0.00168344
0.00168507
0.00168735
0.00169243
0.00170139
0.00171492
0.00173291
0.00175391
0.00177758
0.00180296
0.0018288
0.00185456
0.00187986
0.00190493
0.00192998
0.00195503
0.00198
0.00200477
0.00202956
0.00205438
0.00207911
0.00210355
0.00212747
0.00215066
0.00217293
0.00219413
0.00221417
0.00223299
0.00225056
0.00226689
0.002282
0.002296
0.00230896
0.00232096
0.0023321
0.00234245
0.0023521
0.00236112
0.00236959
0.00237758
0.00238516
0.0023924
0.00239934
0.00240605
0.00241255
0.00241891
0.00242513
0.00243127
0.00243733
0.00244333
0.00244929
0.00245522
0.00246111
0.00246697
0.00247279
0.00247857
0.0024843
0.00248996
0.00249554
0.002501
0.00250632
0.00251148
0.00251643
0.00252113
0.00252556
0.0025297
0.00253355
0.00253721
0.00254087
0.00254471
0.0025488
0.00255316
0.00255776
0.00256253
0.0025674
0.00257231
0.00257718
0.00258198
0.00258668
0.00259129
0.00259584
0.00260034
0.0026048
0.00260917
0.0026134
0.00261741
0.00262105
0.0026241
0.00262616
0.00262756
0.00262893
0.00263043
0.0026321
0.00263393
0.00263595
0.00263814
0.00264048
0.00264298
0.0026456
0.00264832
0.00265109
0.00265385
0.00265653
0.00265904
0.00266131
0.0026636
0.00266642
0.00267014
0.00267497
0.00268103
0.00268845
0.00269734
0.00270788
0.00271999
0.00273399
0.00275019
0.00276872
0.00278971
0.00281279
0.00283749
0.00286322
0.00288951
0.00291594
0.00294184
0.0029661
0.00298753
0.0030048
0.00301673
0.00302228
0.00302046
0.00301068
0.00299322
0.00296753
0.00293543
0.00290012
0.0028654
0.00283665
0.00281902
0.00281695
0.00283362
0.00287179
0.00293117
0.00300771
0.00309099
0.00317763
0.0032526
0.00331696
0.00334991
0.00332797
0.00321861
2.21194e-05
0.000163948
0.000363348
0.000535567
0.000694281
0.000833951
0.000958424
0.00106924
0.00116853
0.00125818
0.00133945
0.00141368
0.00148179
0.00154454
0.00160245
0.00165583
0.00170485
0.00174969
0.00179061
0.00182794
0.00186199
0.0018931
0.00192154
0.00194756
0.00197134
0.00199301
0.00201262
0.0020302
0.00204588
0.00205996
0.00207341
0.00208774
0.00210315
0.00211994
0.00213889
0.00216037
0.00218424
0.00221013
0.00223765
0.00226629
0.00229566
0.00232564
0.00235528
0.00238347
0.00241064
0.00243751
0.00246441
0.00249126
0.00251796
0.00254437
0.00257033
0.00259568
0.00262025
0.0026439
0.00266651
0.002688
0.00270833
0.00272745
0.00274539
0.00276217
0.00277783
0.00279239
0.0028059
0.00281841
0.00283
0.00284073
0.00285069
0.00285994
0.00286855
0.00287661
0.00288418
0.00289131
0.00289808
0.00290454
0.00291074
0.00291672
0.00292252
0.00292818
0.00293372
0.00293917
0.00294454
0.00294985
0.00295511
0.00296034
0.00296553
0.00297069
0.00297583
0.00298094
0.00298601
0.00299106
0.00299607
0.00300105
0.003006
0.00301091
0.00301582
0.00302074
0.00302571
0.00303079
0.00303603
0.00304147
0.00304712
0.00305296
0.00305899
0.00306516
0.00307141
0.00307772
0.00308404
0.00309036
0.00309667
0.00310297
0.00310925
0.00311549
0.00312169
0.00312781
0.00313382
0.00313969
0.0031454
0.00315094
0.0031564
0.00316195
0.00316772
0.00317375
0.00318005
0.00318664
0.00319353
0.00320073
0.00320825
0.00321607
0.00322419
0.00323255
0.00324111
0.00324976
0.0032583
0.00326645
0.00327361
0.00327986
0.00328659
0.00329452
0.00330401
0.00331519
0.00332817
0.0033431
0.00335987
0.00337892
0.00340031
0.00342409
0.00345019
0.00347849
0.00350868
0.00354021
0.00357238
0.00360445
0.00363559
0.00366468
0.00369047
0.00371159
0.00372674
0.00373494
0.00373555
0.00372822
0.00371329
0.00369232
0.00366641
0.00363823
0.00361133
0.00358947
0.00357833
0.00358278
0.00360735
0.00365364
0.0037232
0.00381087
0.00390809
0.00399544
0.00406187
0.00410429
0.00412626
0.0041177
0.00406181
0.00394538
2.3404e-05
0.00017474
0.000395097
0.000588685
0.000766904
0.000925376
0.00106641
0.00119276
0.00130632
0.00140928
0.00150258
0.00158742
0.00166473
0.0017355
0.00180049
0.00186035
0.00191563
0.00196678
0.0020142
0.00205824
0.0020992
0.00213735
0.00217291
0.00220606
0.00223693
0.00226558
0.00229204
0.00231626
0.00233836
0.00235889
0.00237826
0.00239679
0.00241505
0.0024336
0.00245473
0.00247989
0.00250962
0.00254321
0.00257899
0.00261486
0.00264841
0.00267906
0.002708
0.00273634
0.00276424
0.00279182
0.00281912
0.0028461
0.00287267
0.00289872
0.00292413
0.00294878
0.00297255
0.00299535
0.0030171
0.00303774
0.00305724
0.00307557
0.00309274
0.00310877
0.00312369
0.00313754
0.00315036
0.00316221
0.00317317
0.00318329
0.00319265
0.00320132
0.00320937
0.00321687
0.0032239
0.00323051
0.00323678
0.00324275
0.00324848
0.00325401
0.0032594
0.00326466
0.00326983
0.00327494
0.00328002
0.00328506
0.00329011
0.00329516
0.00330023
0.00330532
0.00331046
0.00331564
0.00332088
0.00332618
0.00333155
0.00333702
0.00334258
0.00334826
0.00335407
0.00336003
0.00336617
0.00337251
0.00337905
0.0033858
0.00339274
0.00339986
0.00340714
0.00341454
0.00342205
0.00342964
0.0034373
0.00344502
0.00345277
0.00346056
0.00346837
0.0034762
0.00348405
0.00349192
0.00349982
0.00350776
0.00351578
0.00352393
0.00353228
0.00354089
0.0035498
0.00355905
0.00356866
0.00357867
0.0035891
0.00359997
0.00361131
0.00362314
0.00363546
0.00364826
0.00366152
0.00367519
0.00368918
0.00370338
0.00371762
0.00373159
0.00374578
0.00376138
0.00377892
0.00379835
0.00381959
0.00384304
0.00386862
0.00389636
0.00392616
0.00395788
0.00399126
0.00402594
0.00406133
0.00409672
0.00413137
0.00416451
0.00419518
0.0042225
0.00424547
0.00426313
0.00427476
0.00427993
0.0042786
0.00427108
0.00425824
0.00424162
0.00422384
0.00420783
0.0041971
0.00419507
0.00420622
0.00423416
0.00428113
0.00434636
0.00442775
0.00451779
0.00460546
0.0046715
0.00471649
0.00474165
0.00474379
0.00471751
0.00465525
0.00455454
2.48141e-05
0.00018513
0.0004234
0.000635204
0.000827226
0.00099883
0.0011521
0.00128973
0.00141354
0.00152588
0.00162791
0.00172089
0.00180575
0.00188342
0.00195471
0.00202043
0.00208123
0.00213771
0.00219035
0.00223957
0.00228571
0.00232904
0.00236981
0.00240821
0.00244436
0.00247836
0.00251025
0.00254006
0.0025677
0.00259268
0.00261474
0.00263383
0.00265291
0.00267454
0.00270016
0.00273014
0.00276376
0.00279981
0.00283663
0.00287228
0.00290504
0.00293577
0.00296505
0.00299331
0.00302083
0.00304776
0.00307415
0.0031
0.00312526
0.00314985
0.00317371
0.00319673
0.00321885
0.00323998
0.00326008
0.0032791
0.00329702
0.00331383
0.00332954
0.00334416
0.00335772
0.00337027
0.00338186
0.00339254
0.00340239
0.00341146
0.00341984
0.00342759
0.00343478
0.0034415
0.0034478
0.00345376
0.00345943
0.00346488
0.00347015
0.00347529
0.00348034
0.00348534
0.00349032
0.0034953
0.0035003
0.00350535
0.00351046
0.00351565
0.00352095
0.00352635
0.00353188
0.00353754
0.00354335
0.00354932
0.00355545
0.00356177
0.00356829
0.003575
0.00358194
0.0035891
0.00359648
0.0036041
0.00361193
0.00361998
0.00362823
0.00363666
0.00364525
0.00365398
0.00366283
0.00367179
0.00368084
0.00368997
0.00369916
0.00370843
0.00371776
0.00372716
0.00373664
0.00374621
0.00375591
0.00376576
0.00377579
0.00378605
0.00379659
0.00380744
0.00381864
0.00383023
0.00384225
0.00385475
0.00386778
0.00388137
0.00389558
0.00391046
0.00392606
0.00394242
0.00395959
0.00397763
0.00399658
0.00401652
0.00403751
0.00405975
0.00408345
0.00410875
0.00413615
0.00416551
0.0041968
0.00423
0.00426499
0.00430159
0.00433955
0.00437852
0.00441811
0.00445777
0.0044969
0.00453481
0.00457079
0.0046041
0.00463409
0.0046601
0.00468157
0.0046981
0.00470953
0.00471598
0.00471789
0.00471612
0.00471198
0.0047073
0.00470434
0.00470562
0.00471386
0.0047315
0.00476039
0.00480195
0.00485597
0.00492006
0.00498999
0.00505948
0.0051211
0.00516948
0.00520392
0.00522308
0.00522281
0.00519946
0.00515258
0.00507681
2.54398e-05
0.00018961
0.000441445
0.000666112
0.000870573
0.00105351
0.00121696
0.00136375
0.00149568
0.00161514
0.00172364
0.00182254
0.00191295
0.00199592
0.00207228
0.00214277
0.00220807
0.00226879
0.00232548
0.00237857
0.00242842
0.00247534
0.00251956
0.00256128
0.00260063
0.00263767
0.00267238
0.00270469
0.00273441
0.00276133
0.00278522
0.00280748
0.00283075
0.00285671
0.0028861
0.00291878
0.00295392
0.0029902
0.00302605
0.00305986
0.00309105
0.00312034
0.00314823
0.00317507
0.00320106
0.00322633
0.00325093
0.00327486
0.00329811
0.00332061
0.00334231
0.00336316
0.0033831
0.00340206
0.00342003
0.00343696
0.00345285
0.0034677
0.00348151
0.00349432
0.00350616
0.00351707
0.00352712
0.00353637
0.00354487
0.00355272
0.00355997
0.0035667
0.003573
0.00357892
0.00358454
0.00358994
0.00359516
0.00360026
0.00360529
0.0036103
0.00361532
0.00362039
0.00362553
0.00363078
0.00363615
0.00364167
0.00364736
0.00365324
0.00365931
0.00366558
0.00367207
0.00367878
0.00368571
0.00369287
0.00370028
0.00370793
0.00371584
0.003724
0.00373241
0.00374108
0.00375
0.00375915
0.00376853
0.00377813
0.00378791
0.00379787
0.00380798
0.00381822
0.00382858
0.00383905
0.0038496
0.00386024
0.00387095
0.00388174
0.0038926
0.00390356
0.00391461
0.00392579
0.00393711
0.00394861
0.00396032
0.00397227
0.00398451
0.00399707
0.00401
0.00402335
0.00403717
0.00405151
0.00406645
0.00408203
0.00409835
0.00411546
0.00413345
0.00415242
0.00417247
0.00419369
0.00421623
0.00424019
0.00426553
0.00429222
0.00432082
0.00435137
0.0043839
0.00441838
0.00445476
0.00449293
0.00453273
0.00457394
0.00461624
0.00465925
0.00470252
0.00474551
0.00478766
0.00482829
0.00486679
0.00490257
0.00493507
0.00496382
0.00498849
0.00500893
0.00502519
0.00503763
0.00504688
0.0050539
0.00506001
0.0050668
0.00507608
0.00508975
0.0051096
0.00513708
0.0051731
0.00521777
0.00527004
0.00532765
0.0053873
0.00544518
0.00549768
0.00554251
0.00557798
0.00560208
0.00561165
0.00560445
0.00557805
0.00553222
2.65191e-05
0.000197144
0.000460069
0.000695796
0.000908838
0.00109965
0.00127026
0.00142344
0.00156099
0.00168526
0.00179808
0.00190078
0.0019946
0.00208072
0.00216004
0.00223339
0.00230144
0.00236475
0.00242382
0.00247914
0.0025311
0.00258001
0.00262616
0.00266978
0.00271105
0.00275008
0.00278695
0.00282171
0.00285437
0.00288497
0.00291361
0.00294054
0.00296775
0.00299638
0.00302684
0.00305892
0.00309195
0.00312496
0.00315684
0.00318667
0.00321479
0.00324154
0.00326717
0.00329184
0.00331569
0.00333877
0.00336111
0.00338271
0.00340355
0.00342359
0.0034428
0.00346112
0.00347853
0.003495
0.0035105
0.00352502
0.00353857
0.00355116
0.00356282
0.00357357
0.00358348
0.0035926
0.00360099
0.00360871
0.00361586
0.00362248
0.00362868
0.00363452
0.00364008
0.00364542
0.00365063
0.00365575
0.00366085
0.00366598
0.00367118
0.0036765
0.00368196
0.0036876
0.00369344
0.00369951
0.00370583
0.00371241
0.00371925
0.00372637
0.00373377
0.00374145
0.0037494
0.00375765
0.00376618
0.00377499
0.0037841
0.0037935
0.00380318
0.00381314
0.00382337
0.00383386
0.00384461
0.00385559
0.0038668
0.0038782
0.00388978
0.00390152
0.0039134
0.0039254
0.0039375
0.00394968
0.00396194
0.00397425
0.00398663
0.00399906
0.00401155
0.00402412
0.00403677
0.00404952
0.00406241
0.00407545
0.00408868
0.00410214
0.00411586
0.00412989
0.00414428
0.00415908
0.00417434
0.00419013
0.00420653
0.00422359
0.00424142
0.00426009
0.00427971
0.00430037
0.0043222
0.00434532
0.00436985
0.00439578
0.00442302
0.00445206
0.00448299
0.00451586
0.00455069
0.00458749
0.0046262
0.00466674
0.00470898
0.00475267
0.00479754
0.00484319
0.00488923
0.00493512
0.00498032
0.00502427
0.00506637
0.0051061
0.00514294
0.0051765
0.00520652
0.0052329
0.00525577
0.00527548
0.00529263
0.00530808
0.0053229
0.00533836
0.0053558
0.00537657
0.0054019
0.00543274
0.00546962
0.00551254
0.00556085
0.00561329
0.00566807
0.00572318
0.00577657
0.00582642
0.00587069
0.00590744
0.00593409
0.00594871
0.0059473
0.00592792
2.68617e-05
0.000200675
0.000469897
0.000712009
0.000932444
0.00112996
0.00130645
0.00146475
0.00160663
0.00173448
0.00185029
0.00195546
0.0020513
0.00213908
0.00221979
0.00229434
0.00236343
0.0024277
0.00248765
0.00254372
0.0025963
0.00264578
0.00269249
0.00273671
0.00277867
0.00281853
0.00285645
0.00289255
0.00292694
0.00295973
0.00299106
0.00302111
0.00305038
0.00307976
0.00310956
0.00313969
0.00316976
0.0031992
0.00322733
0.00325398
0.00327934
0.00330358
0.00332684
0.00334918
0.00337069
0.00339137
0.00341126
0.00343033
0.00344858
0.00346599
0.00348253
0.00349819
0.00351295
0.00352679
0.00353973
0.00355177
0.00356294
0.00357327
0.0035828
0.00359158
0.00359967
0.00360715
0.00361409
0.00362055
0.00362663
0.0036324
0.00363793
0.00364331
0.00364861
0.00365389
0.00365922
0.00366465
0.00367024
0.00367602
0.00368204
0.00368833
0.0036949
0.0037018
0.00370902
0.00371659
0.00372451
0.00373279
0.00374143
0.00375042
0.00375975
0.00376944
0.00377947
0.00378983
0.00380053
0.00381156
0.00382289
0.00383453
0.00384646
0.00385867
0.00387115
0.00388389
0.00389686
0.00391004
0.00392341
0.00393695
0.00395064
0.00396443
0.00397832
0.00399229
0.0040063
0.00402035
0.00403444
0.00404854
0.00406266
0.0040768
0.00409096
0.00410516
0.0041194
0.00413371
0.00414811
0.00416263
0.00417729
0.00419214
0.00420721
0.00422255
0.00423821
0.00425423
0.00427068
0.00428762
0.00430512
0.00432326
0.00434211
0.00436178
0.00438235
0.00440393
0.00442664
0.00445056
0.00447583
0.00450238
0.00453041
0.00456019
0.0045918
0.00462532
0.00466079
0.00469825
0.00473771
0.00477914
0.00482242
0.00486737
0.00491378
0.00496124
0.00500943
0.00505789
0.00510612
0.00515358
0.00519971
0.00524396
0.00528583
0.00532489
0.00536087
0.0053936
0.00542314
0.00544972
0.00547379
0.00549597
0.00551708
0.00553805
0.00555987
0.00558358
0.00561019
0.0056406
0.00567554
0.00571548
0.00576061
0.00581076
0.00586535
0.00592338
0.00598334
0.00604347
0.0061016
0.00615581
0.00620355
0.00624256
0.00626763
0.00627405
2.73327e-05
0.000205689
0.000478467
0.000724268
0.000949589
0.00115141
0.00133149
0.00149267
0.00163676
0.00176626
0.00188318
0.00198898
0.00208506
0.00217272
0.00225305
0.00232698
0.00239531
0.00245869
0.0025177
0.00257281
0.00262444
0.002673
0.00271884
0.00276228
0.00280356
0.00284291
0.00288048
0.00291643
0.00295089
0.00298398
0.00301585
0.00304664
0.00307651
0.00310557
0.00313392
0.00316171
0.00318879
0.00321486
0.0032398
0.00326364
0.00328643
0.00330822
0.00332907
0.003349
0.00336805
0.00338623
0.00340355
0.00342
0.00343559
0.00345031
0.00346417
0.00347716
0.00348929
0.00350059
0.00351107
0.00352079
0.00352977
0.00353807
0.00354576
0.00355291
0.00355958
0.00356586
0.00357182
0.00357756
0.00358314
0.00358866
0.00359418
0.00359977
0.00360551
0.00361144
0.00361764
0.00362413
0.00363096
0.00363816
0.00364576
0.00365377
0.00366222
0.0036711
0.00368043
0.00369021
0.00370043
0.00371108
0.00372216
0.00373365
0.00374554
0.00375781
0.00377046
0.00378346
0.00379681
0.00381047
0.00382443
0.00383869
0.00385323
0.00386803
0.00388307
0.00389833
0.00391378
0.0039294
0.00394517
0.00396104
0.00397701
0.00399304
0.00400911
0.0040252
0.0040413
0.00405738
0.00407344
0.00408947
0.00410546
0.00412142
0.00413736
0.00415328
0.00416919
0.00418513
0.0042011
0.00421713
0.00423326
0.00424952
0.00426594
0.00428257
0.00429946
0.00431665
0.0043342
0.00435216
0.00437061
0.00438962
0.00440925
0.0044296
0.00445075
0.00447281
0.00449587
0.00452003
0.00454539
0.00457201
0.00459998
0.0046296
0.00466096
0.00469416
0.00472927
0.00476638
0.00480555
0.00484681
0.00489018
0.00493541
0.00498233
0.00503071
0.00508025
0.00513057
0.00518123
0.0052317
0.00528143
0.00532985
0.00537642
0.00542065
0.00546216
0.00550069
0.00553613
0.00556853
0.00559812
0.00562531
0.00565062
0.00567474
0.00569847
0.00572272
0.00574852
0.00577697
0.00580925
0.00584651
0.00588981
0.00593992
0.00599717
0.00606123
0.00613097
0.00620463
0.00627993
0.0063547
0.00642607
0.006491
0.006543
0.00657656
2.74772e-05
0.000207833
0.000482301
0.000729523
0.000958298
0.00116281
0.00134474
0.00150697
0.00165144
0.00178088
0.00189714
0.00200181
0.00209635
0.00218214
0.00226031
0.00233185
0.00239761
0.00245831
0.00251458
0.00256698
0.00261599
0.00266203
0.00270547
0.00274661
0.00278574
0.00282307
0.00285877
0.00289298
0.00292584
0.00295742
0.00298784
0.00301716
0.00304545
0.00307275
0.00309908
0.00312446
0.00314884
0.0031722
0.00319452
0.00321582
0.00323612
0.00325545
0.00327382
0.00329126
0.00330779
0.00332341
0.00333815
0.00335201
0.00336502
0.00337718
0.00338853
0.0033991
0.00340892
0.00341803
0.00342648
0.00343435
0.00344168
0.00344857
0.00345507
0.00346129
0.00346729
0.00347317
0.003479
0.00348488
0.00349087
0.00349705
0.00350348
0.00351023
0.00351735
0.00352489
0.00353288
0.00354136
0.00355035
0.00355986
0.0035699
0.00358049
0.00359162
0.00360328
0.00361547
0.00362818
0.00364138
0.00365506
0.0036692
0.00368378
0.00369876
0.00371415
0.00372989
0.00374599
0.00376241
0.00377912
0.00379612
0.00381338
0.00383088
0.00384859
0.00386648
0.00388454
0.00390272
0.00392101
0.00393938
0.00395779
0.00397621
0.00399463
0.00401301
0.00403134
0.00404961
0.00406781
0.00408592
0.00410394
0.00412187
0.00413972
0.00415749
0.00417518
0.00419282
0.00421042
0.004228
0.00424558
0.0042632
0.00428089
0.00429868
0.00431661
0.00433472
0.00435306
0.00437167
0.00439061
0.00440995
0.00442973
0.00445004
0.00447095
0.00449253
0.00451489