/*--------------------------------*- C++ -*----------------------------------*\
| =========                 |                                                 |
| \\      /  F ield         | OpenFOAM: The Open Source CFD Toolbox           |
|  \\    /   O peration     | Version:  v1906                                 |
|   \\  /    A nd           | Web:      www.OpenFOAM.com                      |
|    \\/     M anipulation  |                                                 |
\*---------------------------------------------------------------------------*/
FoamFile
{
    version     2.0;
    format      ascii;
    class       volScalarField;
    location    "1100";
    object      p;
}
// * * * * * * * * * * * * * * * * * * * * * * * * * * * * * * * * * * * * * //

dimensions      [0 2 -2 0 0 0 0];


internalField   nonuniform List<scalar> 
12225
(
-3.50802
-4.71048
-4.76076
-4.76607
-4.90191
-5.04015
-5.14628
-5.2406
-5.33154
-5.41746
-5.4974
-5.57568
-5.65605
-5.74019
-5.8284
-5.92632
-6.0437
-6.19452
-5.26853
-5.78346
-5.94132
-5.92726
-5.98281
-6.04785
-6.09637
-6.14546
-6.20006
-6.25638
-6.31266
-6.37058
-6.43347
-6.50091
-6.57441
-6.65633
-6.74714
-6.87966
-4.6835
-5.46402
-5.60359
-5.5721
-5.60521
-5.65473
-5.69605
-5.73921
-5.78715
-5.83665
-5.88659
-5.93796
-5.99339
-6.05219
-6.1164
-6.18399
-6.25671
-6.31266
-5.33867
-5.80531
-6.02316
-6.09743
-6.19012
-6.27404
-6.33595
-6.39045
-6.44438
-6.49737
-6.54971
-6.60304
-6.65932
-6.71886
-6.78198
-6.8485
-6.91615
-6.99286
-5.14775
-5.60642
-5.82177
-5.8826
-5.94507
-6.00024
-6.04202
-6.08155
-6.1228
-6.1648
-6.20727
-6.25104
-6.29701
-6.34566
-6.39534
-6.44719
-6.48904
-6.52143
-5.52509
-5.82706
-6.0333
-6.13628
-6.24007
-6.33257
-6.40804
-6.47525
-6.53859
-6.59884
-6.65688
-6.71419
-6.77184
-6.83047
-6.889
-6.94807
-7.00348
-7.06388
-5.45965
-5.70722
-5.9073
-6.00581
-6.09276
-6.16394
-6.2199
-6.2693
-6.31609
-6.3611
-6.40496
-6.44852
-6.49215
-6.53609
-6.57849
-6.61941
-6.6492
-6.66647
-5.70045
-5.88413
-6.05909
-6.16684
-6.27125
-6.36367
-6.44349
-6.51606
-6.58399
-6.64824
-6.70966
-6.76921
-6.82744
-6.88465
-6.94001
-6.99357
-7.04457
-7.09693
-5.68768
-5.81446
-5.97527
-6.07729
-6.17107
-6.24984
-6.31572
-6.37399
-6.42741
-6.47729
-6.52451
-6.5698
-6.61333
-6.65514
-6.69376
-6.72877
-6.75379
-6.76807
-5.84914
-5.95881
-6.09835
-6.19827
-6.29724
-6.38617
-6.46607
-6.53987
-6.60902
-6.67439
-6.7366
-6.79623
-6.85352
-6.90856
-6.96108
-7.01084
-7.0593
-7.10655
-5.85898
-5.92371
-6.04399
-6.13522
-6.22488
-6.3039
-6.37375
-6.43684
-6.49467
-6.54826
-6.5983
-6.64531
-6.68935
-6.73039
-6.76748
-6.80022
-6.82495
-6.84215
-5.96168
-6.02823
-6.13628
-6.22352
-6.31308
-6.39569
-6.47218
-6.54368
-6.61088
-6.67435
-6.73449
-6.7916
-6.84582
-6.89712
-6.94555
-6.99072
-7.0345
-7.075
-5.97874
-6.01591
-6.1059
-6.18426
-6.26561
-6.34101
-6.41053
-6.47484
-6.53444
-6.58987
-6.64153
-6.6897
-6.73442
-6.77563
-6.81288
-6.8459
-6.87331
-6.89554
-6.06329
-6.10705
-6.18909
-6.26377
-6.34276
-6.41886
-6.49142
-6.56046
-6.62594
-6.68798
-6.74672
-6.80226
-6.85469
-6.90395
-6.95027
-6.99327
-7.03408
-7.0706
-6.08561
-6.10789
-6.17086
-6.23509
-6.3048
-6.37369
-6.43993
-6.50298
-6.56248
-6.6184
-6.6708
-6.71972
-6.7652
-6.80718
-6.84571
-6.88063
-6.91253
-6.9409
-6.15272
-6.18
-6.23771
-6.29792
-6.36311
-6.42901
-6.4935
-6.55578
-6.61523
-6.67154
-6.72454
-6.77416
-6.82033
-6.86305
-6.90218
-6.93781
-6.96916
-6.99714
-6.17775
-6.19715
-6.2445
-6.29932
-6.36058
-6.42483
-6.4894
-6.55305
-6.61495
-6.67458
-6.7317
-6.78614
-6.83793
-6.88689
-6.93354
-6.97715
-7.01998
-7.05817
-6.18792
-6.20229
-6.24055
-6.28593
-6.33572
-6.38729
-6.43799
-6.4865
-6.53195
-6.5738
-6.61175
-6.64572
-6.67556
-6.70164
-6.72344
-6.74248
-6.75622
-6.77073
-6.22787
-6.25594
-6.31036
-6.37277
-6.44199
-6.51596
-6.59205
-6.669
-6.74596
-6.82228
-6.89756
-6.97144
-7.04378
-7.11401
-7.18233
-7.2471
-7.31009
-7.3655
-6.09262
-6.09966
-6.13449
-6.17582
-6.21902
-6.26141
-6.30031
-6.33467
-6.36405
-6.38831
-6.40742
-6.4216
-6.43091
-6.43601
-6.43669
-6.4351
-6.4293
-6.4274
-6.12073
-6.16639
-6.24187
-6.31782
-6.39747
-6.47899
-6.55979
-6.63921
-6.717
-6.79296
-6.86718
-6.93984
-7.01143
-7.08217
-7.15315
-7.22347
-7.29635
-7.36418
-5.93583
-5.95486
-6.01957
-6.07896
-6.13356
-6.18204
-6.22243
-6.25547
-6.28221
-6.30335
-6.31934
-6.33051
-6.33677
-6.33811
-6.33328
-6.32287
-6.30206
-6.27873
-5.96361
-6.04542
-6.16028
-6.25764
-6.3531
-6.44637
-6.53412
-6.61671
-6.69498
-6.76928
-6.84007
-6.908
-6.97405
-7.03922
-7.10588
-7.17537
-7.25528
-7.34182
-5.70046
-5.77503
-5.89823
-5.9782
-6.03988
-6.08933
-6.12595
-6.1536
-6.17577
-6.19387
-6.2085
-6.22005
-6.22847
-6.23345
-6.2331
-6.22584
-6.20193
-6.1609
-5.76446
-5.92323
-6.09383
-6.21085
-6.31884
-6.42107
-6.51032
-6.5889
-6.66033
-6.72587
-6.78629
-6.8426
-6.89587
-6.94705
-6.9983
-7.05204
-7.11986
-7.20962
-5.35072
-5.59306
-5.78033
-5.85
-5.89364
-5.9298
-5.95401
-5.97215
-5.98955
-6.00656
-6.02248
-6.03724
-6.05079
-6.06296
-6.07268
-6.07863
-6.07008
-6.03446
-5.54253
-5.84373
-6.07435
-6.18957
-6.29411
-6.38989
-6.46198
-6.51909
-6.56984
-6.61617
-6.65858
-6.698
-6.73531
-6.7709
-6.80553
-6.84012
-6.88406
-6.95405
-4.80613
-5.41109
-5.57551
-5.55538
-5.56103
-5.59013
-5.6139
-5.63598
-5.66188
-5.68929
-5.71595
-5.74159
-5.76623
-5.78972
-5.81179
-5.83264
-5.84618
-5.83717
-5.43103
-5.81754
-6.04127
-6.05374
-6.09379
-6.14227
-6.17502
-6.20417
-6.23706
-6.27178
-6.30604
-6.33953
-6.37232
-6.40423
-6.43498
-6.46466
-6.49791
-6.54933
-3.56031
-4.68102
-4.75138
-4.7312
-4.83029
-4.94871
-5.04027
-5.11752
-5.19075
-5.25921
-5.32161
-5.37873
-5.43151
-5.4803
-5.52516
-5.56581
-5.60074
-5.62835
-6.50185
-6.52862
-6.55333
-6.58212
-6.61365
-6.64777
-6.6817
-6.71626
-6.75051
-6.78467
-6.81814
-6.85102
-6.88306
-6.91429
-6.94449
-6.97354
-7.0012
-7.02731
-7.05179
-7.07443
-7.09447
-7.11128
-7.12391
-7.13104
-7.13185
-7.12554
-7.11139
-7.08945
-7.06076
-7.02693
-6.99034
-6.95565
-6.92751
-6.90762
-6.89494
-6.88705
-6.88163
-6.87914
-6.88158
-6.88947
-6.90253
-6.92091
-6.94496
-6.97502
-7.01011
-7.04781
-7.08654
-7.12587
-7.16509
-7.20341
-7.24027
-7.27534
-7.30832
-7.33905
-7.36742
-7.39346
-7.41718
-7.43871
-7.45812
-7.47556
-7.49112
-7.50494
-7.51708
-7.52766
-7.5367
-7.54427
-7.55039
-7.55508
-7.55832
-7.56012
-7.56043
-7.55922
-7.55643
-7.55201
-7.54588
-7.53797
-7.52818
-7.51643
-7.5026
-7.4866
-7.46829
-7.44758
-7.42431
-7.39839
-7.36964
-7.33795
-7.30315
-7.26511
-7.22365
-7.17863
-7.12989
-7.07727
-7.0206
-6.95968
-6.89437
-6.82461
-6.7503
-6.67103
-6.58617
-6.49573
-6.40001
-6.29881
-6.19192
-6.07923
-5.96072
-5.8363
-5.70581
-5.56911
-5.42602
-5.27639
-5.1201
-4.95704
-4.78705
-4.61001
-4.42578
-4.23426
-4.03532
-3.82873
-3.61426
-3.39178
-3.16128
-2.9229
-2.67652
-2.42204
-2.15985
-1.89005
-1.61263
-1.32792
-1.03617
-0.737803
-0.433313
-0.123308
0.191479
0.51019
0.831827
1.15529
1.47932
1.80261
2.12367
2.44102
2.75307
3.05819
3.3547
3.64096
3.9154
4.17637
4.42227
4.65202
4.86738
5.06928
5.25578
5.42627
5.58157
5.72287
5.85266
5.97418
6.08954
6.20067
6.30961
6.41706
6.52348
6.63022
6.73918
6.85201
6.97058
7.09562
7.22661
7.36226
7.50078
7.63763
7.76823
7.88671
7.99922
8.12287
8.29975
8.52475
8.79312
8.98987
9.16188
9.17388
-6.55293
-6.62043
-6.65723
-6.70609
-6.74238
-6.78196
-6.8153
-6.85123
-6.88361
-6.91665
-6.9475
-6.97813
-7.00731
-7.03599
-7.06342
-7.08993
-7.11499
-7.13885
-7.16123
-7.18224
-7.20153
-7.21886
-7.23377
-7.24562
-7.2515
-7.24756
-7.23085
-7.20088
-7.15971
-7.1115
-7.061
-7.0128
-6.9716
-6.9409
-6.92133
-6.91113
-6.90715
-6.90794
-6.91492
-6.92862
-6.94875
-6.97539
-7.00832
-7.04683
-7.08953
-7.13479
-7.18131
-7.22809
-7.27406
-7.31842
-7.36061
-7.40029
-7.43726
-7.47149
-7.50303
-7.53198
-7.55851
-7.58278
-7.60495
-7.6252
-7.64367
-7.66049
-7.67575
-7.68955
-7.70194
-7.71296
-7.72264
-7.73097
-7.73795
-7.74356
-7.74775
-7.75048
-7.75169
-7.75132
-7.74928
-7.74548
-7.73982
-7.73221
-7.72251
-7.71063
-7.69642
-7.67977
-7.66053
-7.63857
-7.61375
-7.58592
-7.55493
-7.52063
-7.48286
-7.44145
-7.39625
-7.34707
-7.29373
-7.236
-7.17367
-7.10647
-7.034
-6.95617
-6.8737
-6.78686
-6.69516
-6.59847
-6.49674
-6.38982
-6.27745
-6.15932
-6.03522
-5.90497
-5.76838
-5.62529
-5.47551
-5.3189
-5.15532
-4.98463
-4.80666
-4.62123
-4.42817
-4.22726
-4.01834
-3.80147
-3.57681
-3.34442
-3.10398
-2.85568
-2.59959
-2.33565
-2.06401
-1.78486
-1.49846
-1.20516
-0.905392
-0.599711
-0.288772
0.0266227
0.345553
0.666963
0.989696
1.31247
1.63393
1.95263
2.26707
2.57567
2.87683
3.16895
3.45039
3.71983
3.97554
4.21587
4.43752
4.64031
4.82761
5.00002
5.15831
5.30356
5.43717
5.56246
5.68261
5.79946
5.91512
6.03061
6.14435
6.25588
6.36605
6.47617
6.58845
6.70524
6.82725
6.95276
7.08062
7.20728
7.3293
7.44001
7.5439
7.64856
7.82047
8.08094
8.42401
8.68181
8.88088
8.90016
-6.56248
-6.65369
-6.67347
-6.72791
-6.74728
-6.79075
-6.81362
-6.84861
-6.87392
-6.90566
-6.93176
-6.9604
-6.98621
-7.01301
-7.03787
-7.06211
-7.08387
-7.10412
-7.1226
-7.13972
-7.15499
-7.1688
-7.1807
-7.19058
-7.19816
-7.20152
-7.19765
-7.18445
-7.16151
-7.13052
-7.09488
-7.05843
-7.02468
-6.99742
-6.97925
-6.96926
-6.96647
-6.96989
-6.97897
-6.9933
-7.01265
-7.03668
-7.06466
-7.09575
-7.12925
-7.16435
-7.2001
-7.2358
-7.27082
-7.30467
-7.33702
-7.36767
-7.39647
-7.4234
-7.44845
-7.47166
-7.49309
-7.5128
-7.53088
-7.5474
-7.56243
-7.57603
-7.58824
-7.59913
-7.60871
-7.617
-7.62402
-7.62977
-7.63423
-7.63738
-7.63918
-7.63959
-7.63856
-7.63603
-7.63191
-7.62614
-7.61861
-7.60924
-7.59792
-7.58454
-7.569
-7.55116
-7.5309
-7.5081
-7.48261
-7.45429
-7.423
-7.38856
-7.35084
-7.30967
-7.26489
-7.21636
-7.16388
-7.10731
-7.0465
-6.98132
-6.91151
-6.83681
-6.75729
-6.67285
-6.58337
-6.48868
-6.38831
-6.28217
-6.17025
-6.05253
-5.92887
-5.79915
-5.66321
-5.52091
-5.37211
-5.21666
-5.0544
-4.8852
-4.70891
-4.5254
-4.3345
-4.13607
-3.92999
-3.71617
-3.49461
-3.26525
-3.02797
-2.78281
-2.53
-2.26945
-2.0013
-1.72573
-1.443
-1.15345
-0.857525
-0.55576
-0.248807
0.0625475
0.377396
0.694701
1.01331
1.33196
1.6493
1.9639
2.27426
2.57883
2.87601
3.16422
3.44196
3.70784
3.96021
4.19891
4.42382
4.63413
4.8297
5.01072
5.17808
5.33274
5.47591
5.60951
5.73587
5.85639
5.97185
6.08373
6.19441
6.30534
6.41703
6.53008
6.64454
6.75933
6.87721
6.9986
7.1233
7.24844
7.37261
7.48944
7.60694
7.72312
7.86805
8.06358
8.3568
8.6034
8.84426
8.94535
-6.56774
-6.68278
-6.7076
-6.77562
-6.79391
-6.84392
-6.86704
-6.91006
-6.9357
-6.97151
-6.99675
-7.02764
-7.05243
-7.08043
-7.10441
-7.12932
-7.15077
-7.17209
-7.19109
-7.20976
-7.22689
-7.24393
-7.25979
-7.27484
-7.28774
-7.29565
-7.29503
-7.28413
-7.26313
-7.2343
-7.20094
-7.16688
-7.1359
-7.11093
-7.09337
-7.0832
-7.08005
-7.08352
-7.09294
-7.10754
-7.12665
-7.14967
-7.17594
-7.20486
-7.23593
-7.26858
-7.3023
-7.33662
-7.37107
-7.40522
-7.43871
-7.47121
-7.50249
-7.53237
-7.56073
-7.58751
-7.61269
-7.63628
-7.65832
-7.67885
-7.69793
-7.71561
-7.73193
-7.74694
-7.76066
-7.77311
-7.7843
-7.79423
-7.80288
-7.81021
-7.8162
-7.82079
-7.82392
-7.82552
-7.82551
-7.8238
-7.82028
-7.81484
-7.80737
-7.79775
-7.78584
-7.7715
-7.7546
-7.73499
-7.71252
-7.68704
-7.65839
-7.62643
-7.59099
-7.55191
-7.50904
-7.46222
-7.41128
-7.35605
-7.29637
-7.23211
-7.16313
-7.08938
-7.0109
-6.92761
-6.83934
-6.7459
-6.64734
-6.54359
-6.4343
-6.31924
-6.19824
-6.07109
-5.93764
-5.79771
-5.65115
-5.49781
-5.33755
-5.17019
-4.9956
-4.81364
-4.62414
-4.42698
-4.22207
-4.00937
-3.78887
-3.5605
-3.32414
-3.07983
-2.82766
-2.56763
-2.29986
-2.02451
-1.74184
-1.45216
-1.15591
-0.853596
-0.545861
-0.233464
0.0827047
0.401603
0.722077
1.04286
1.3626
1.67985
1.9931
2.30078
2.60128
2.893
3.17436
3.44397
3.70025
3.94209
4.16837
4.37866
4.57348
4.75293
4.91782
5.06918
5.20858
5.33832
5.46113
5.57916
5.69355
5.80484
5.9137
6.02031
6.1262
6.23386
6.34664
6.46499
6.58861
6.71629
6.84746
6.97815
7.10689
7.22536
7.34236
7.46986
7.64938
7.86506
8.13939
8.34743
8.55438
8.63538
-6.53564
-6.67477
-6.69873
-6.77308
-6.78715
-6.83686
-6.85682
-6.89562
-6.92008
-6.95363
-6.97826
-7.00602
-7.02962
-7.05479
-7.07746
-7.09991
-7.11985
-7.13899
-7.15643
-7.17291
-7.18842
-7.20337
-7.21756
-7.23137
-7.24418
-7.25485
-7.26142
-7.26236
-7.25695
-7.24583
-7.23065
-7.21372
-7.19743
-7.18383
-7.17428
-7.16928
-7.1688
-7.17253
-7.18003
-7.19087
-7.2047
-7.22123
-7.24018
-7.26125
-7.2842
-7.30872
-7.33442
-7.36092
-7.38784
-7.41481
-7.4415
-7.46763
-7.49299
-7.51738
-7.54069
-7.56283
-7.58374
-7.6034
-7.62177
-7.63888
-7.65471
-7.6693
-7.68264
-7.69476
-7.70564
-7.7153
-7.72373
-7.73092
-7.73685
-7.74148
-7.74478
-7.74671
-7.74722
-7.74624
-7.7437
-7.73952
-7.73362
-7.7259
-7.71626
-7.7046
-7.69081
-7.67478
-7.65638
-7.63549
-7.61198
-7.58571
-7.55654
-7.52432
-7.4889
-7.45011
-7.40782
-7.36184
-7.31202
-7.25818
-7.20014
-7.13773
-7.07073
-6.99899
-6.92241
-6.84088
-6.75427
-6.66247
-6.56532
-6.46262
-6.35429
-6.24021
-6.12023
-5.99421
-5.86199
-5.72342
-5.57835
-5.42663
-5.26811
-5.10264
-4.93008
-4.75028
-4.5631
-4.36842
-4.1661
-3.95605
-3.73821
-3.5125
-3.27886
-3.03729
-2.78785
-2.53054
-2.26547
-1.9928
-1.71277
-1.42569
-1.13197
-0.832131
-0.526791
-0.216698
0.097278
0.41414
0.732763
1.05191
1.37025
1.68635
1.99873
2.30585
2.60615
2.89808
3.18019
3.45116
3.70975
3.95542
4.18748
4.40512
4.60811
4.79626
4.97007
5.1301
5.27732
5.41311
5.53947
5.65825
5.77107
5.87954
5.9854
6.08997
6.19449
6.29962
6.40669
6.51799
6.6355
6.75891
6.88844
7.02065
7.15525
7.28349
7.40885
7.52482
7.67328
7.85188
8.10042
8.2978
8.52196
8.644
-6.50313
-6.66718
-6.69855
-6.78472
-6.8
-6.8554
-6.8763
-6.91888
-6.94413
-6.98001
-7.00678
-7.03835
-7.06397
-7.09106
-7.11492
-7.13926
-7.16154
-7.18371
-7.20411
-7.22382
-7.24184
-7.2588
-7.27407
-7.28764
-7.29875
-7.30669
-7.3106
-7.31012
-7.30542
-7.29734
-7.2872
-7.27654
-7.26687
-7.25941
-7.25499
-7.25392
-7.25623
-7.26176
-7.27031
-7.28168
-7.29573
-7.31233
-7.33132
-7.3525
-7.37564
-7.40043
-7.42655
-7.45367
-7.48143
-7.50949
-7.53755
-7.56533
-7.59261
-7.61918
-7.6449
-7.66965
-7.69336
-7.71596
-7.73742
-7.75772
-7.77687
-7.79485
-7.81167
-7.82734
-7.84185
-7.85519
-7.86736
-7.87834
-7.8881
-7.89661
-7.90382
-7.90968
-7.91413
-7.9171
-7.9185
-7.91826
-7.91625
-7.91238
-7.90653
-7.89857
-7.88837
-7.87579
-7.86069
-7.84292
-7.82231
-7.79872
-7.77198
-7.74194
-7.70844
-7.67132
-7.63043
-7.58563
-7.53677
-7.4837
-7.42629
-7.36444
-7.29802
-7.22693
-7.15109
-7.07037
-6.98465
-6.89378
-6.79757
-6.69574
-6.58821
-6.47483
-6.35545
-6.22993
-6.0981
-5.95981
-5.81491
-5.66325
-5.50469
-5.33907
-5.16626
-4.98611
-4.7985
-4.6033
-4.40042
-4.18977
-3.97127
-3.74485
-3.51044
-3.26803
-3.01764
-2.7593
-2.49311
-2.21923
-1.93786
-1.64933
-1.35403
-1.05248
-0.745296
-0.433219
-0.11711
0.202032
0.523083
0.844793
1.1658
1.48467
1.79988
2.10985
2.41297
2.70765
2.99234
3.26558
3.52592
3.77233
4.00402
4.22043
4.42146
4.60713
4.77804
4.93504
5.07931
5.21242
5.33627
5.45257
5.56277
5.66833
5.7709
5.87212
5.97399
6.07896
6.18913
6.30507
6.42776
6.55631
6.69087
6.82782
6.96806
7.1054
7.24936
7.39343
7.56321
7.73479
7.94781
8.10266
8.29265
8.39719
-6.45866
-6.64196
-6.67763
-6.77027
-6.78519
-6.84183
-6.86209
-6.9035
-6.92774
-6.962
-6.98756
-7.01703
-7.04205
-7.06842
-7.0914
-7.11387
-7.13449
-7.15455
-7.17342
-7.19174
-7.20912
-7.22579
-7.24147
-7.25616
-7.26949
-7.28114
-7.29061
-7.29764
-7.30216
-7.30451
-7.3053
-7.30533
-7.30543
-7.30629
-7.30843
-7.31215
-7.31759
-7.32483
-7.33388
-7.34477
-7.35751
-7.37208
-7.38841
-7.40638
-7.42584
-7.44657
-7.46835
-7.49093
-7.51406
-7.5375
-7.56102
-7.58441
-7.60749
-7.63009
-7.6521
-7.67338
-7.69386
-7.71347
-7.73214
-7.74985
-7.76654
-7.78221
-7.79683
-7.81038
-7.82284
-7.83419
-7.8444
-7.85346
-7.86132
-7.86795
-7.8733
-7.87733
-7.87998
-7.88117
-7.88084
-7.8789
-7.87526
-7.86983
-7.86249
-7.85315
-7.84169
-7.828
-7.81196
-7.79343
-7.7723
-7.74841
-7.72164
-7.69183
-7.65882
-7.62247
-7.58262
-7.53909
-7.49171
-7.44031
-7.38471
-7.32473
-7.26021
-7.19098
-7.11691
-7.03786
-6.95369
-6.86421
-6.76962
-6.6697
-6.56425
-6.45305
-6.33594
-6.21276
-6.08334
-5.94753
-5.80517
-5.65611
-5.50019
-5.33726
-5.16719
-4.98981
-4.805
-4.61263
-4.41256
-4.20471
-3.98897
-3.76527
-3.53353
-3.29372
-3.04585
-2.78993
-2.52604
-2.25431
-1.97495
-1.68823
-1.39454
-1.09438
-0.788335
-0.47714
-0.161637
0.157211
0.478319
0.800481
1.12237
1.44256
1.75958
2.07188
2.37794
2.67619
2.96518
3.24351
3.50996
3.76359
4.0034
4.22851
4.43849
4.63304
4.81233
4.9768
5.12717
5.26464
5.39081
5.5073
5.61574
5.71783
5.81545
5.91052
6.00493
6.10064
6.20087
6.30802
6.42406
6.54853
6.68204
6.82089
6.96567
7.1081
7.2558
7.39903
7.56642
7.72992
7.93031
8.07116
8.25839
8.36685
-6.43223
-6.62815
-6.67119
-6.77291
-6.78889
-6.85057
-6.87114
-6.91551
-6.94002
-6.97624
-7.00288
-7.03486
-7.06173
-7.0903
-7.1159
-7.14174
-7.16499
-7.18732
-7.20795
-7.22759
-7.24566
-7.26247
-7.27778
-7.29167
-7.304
-7.31474
-7.32383
-7.33132
-7.33738
-7.34234
-7.34664
-7.35074
-7.3551
-7.36011
-7.36605
-7.37315
-7.38154
-7.39133
-7.40263
-7.41548
-7.42995
-7.44603
-7.46369
-7.48283
-7.50332
-7.525
-7.54769
-7.57118
-7.59527
-7.61975
-7.64442
-7.6691
-7.69362
-7.71781
-7.74156
-7.76475
-7.78728
-7.80909
-7.8301
-7.85028
-7.86958
-7.88798
-7.90543
-7.92193
-7.93745
-7.95195
-7.96542
-7.97781
-7.98909
-7.99921
-8.00813
-8.01577
-8.02208
-8.02697
-8.03036
-8.03214
-8.03222
-8.03048
-8.02681
-8.02107
-8.01314
-8.00287
-7.99013
-7.97475
-7.95659
-7.93547
-7.91122
-7.88369
-7.85271
-7.81814
-7.77981
-7.73759
-7.69133
-7.6409
-7.58617
-7.52703
-7.46336
-7.39503
-7.32193
-7.24394
-7.16091
-7.0727
-6.97862
-6.87884
-6.77325
-6.66175
-6.54423
-6.42054
-6.29055
-6.15409
-6.01103
-5.86122
-5.7045
-5.54073
-5.36978
-5.19149
-5.00575
-4.81244
-4.61143
-4.40262
-4.18592
-3.96124
-3.7285
-3.48768
-3.23875
-2.98173
-2.71669
-2.44374
-2.16308
-1.87498
-1.57982
-1.27806
-0.970314
-0.657298
-0.339857
-0.0189602
0.304301
0.628715
0.952944
1.27556
1.59503
1.9098
2.21827
2.51885
2.81008
3.09047
3.35865
3.61355
3.85419
4.07984
4.29011
4.48481
4.66415
4.82864
4.97902
5.11642
5.24226
5.35802
5.46528
5.56576
5.66143
5.75448
5.84752
5.94272
6.04266
6.14952
6.26563
6.39087
6.52651
6.66967
6.82236
6.9776
7.14307
7.30481
7.48301
7.64048
7.81858
7.93037
8.09293
8.18315
-6.40022
-6.60734
-6.65292
-6.75829
-6.77551
-6.83815
-6.85966
-6.904
-6.92864
-6.96419
-6.99017
-7.021
-7.04695
-7.07476
-7.09975
-7.12495
-7.14846
-7.17168
-7.19322
-7.21384
-7.23335
-7.25185
-7.26927
-7.28572
-7.30113
-7.31553
-7.32883
-7.34106
-7.35226
-7.36259
-7.37226
-7.38153
-7.39066
-7.39991
-7.40949
-7.41958
-7.43036
-7.44195
-7.45448
-7.46804
-7.48269
-7.49846
-7.51534
-7.53328
-7.55219
-7.57199
-7.59254
-7.61371
-7.63535
-7.65733
-7.67948
-7.70169
-7.72381
-7.74572
-7.76731
-7.78848
-7.80914
-7.82922
-7.84865
-7.86738
-7.88535
-7.90252
-7.91884
-7.93429
-7.94882
-7.9624
-7.97498
-7.98652
-7.99698
-8.00631
-8.01444
-8.02131
-8.02686
-8.03101
-8.03366
-8.03472
-8.0341
-8.03169
-8.02737
-8.02105
-8.0126
-8.0019
-7.98883
-7.97325
-7.95504
-7.93403
-7.9101
-7.8831
-7.85287
-7.81927
-7.78213
-7.74128
-7.69655
-7.64778
-7.59477
-7.53737
-7.4754
-7.4087
-7.33711
-7.2605
-7.17861
-7.09173
-6.99987
-6.90264
-6.7998
-6.69118
-6.57657
-6.45582
-6.32876
-6.19524
-6.0551
-5.90819
-5.75434
-5.59342
-5.42527
-5.24975
-5.06673
-4.87608
-4.67768
-4.4714
-4.25713
-4.0348
-3.80431
-3.56561
-3.31866
-3.06347
-2.80008
-2.52858
-2.24915
-1.96203
-1.66757
-1.36623
-1.05857
-0.745288
-0.427202
-0.10525
0.219523
0.545928
0.872643
1.19827
1.52129
1.8402
2.15346
2.45951
2.75688
3.04413
3.31983
3.58279
3.83187
4.06606
4.28472
4.48732
4.67376
4.84424
4.99924
5.13958
5.26647
5.38124
5.48549
5.581
5.66991
5.75449
5.83766
5.92252
6.01263
6.11094
6.22055
6.34193
6.47676
6.62213
6.77999
6.94296
7.11825
7.28959
7.47411
7.63146
7.80118
7.89932
8.05187
8.12995
-6.38967
-6.60886
-6.65406
-6.76593
-6.78222
-6.84918
-6.87061
-6.91792
-6.94307
-6.98074
-7.00755
-7.0401
-7.06712
-7.09643
-7.12262
-7.14933
-7.17386
-7.19789
-7.22047
-7.24239
-7.26265
-7.28164
-7.2995
-7.31629
-7.33209
-7.34701
-7.36109
-7.37439
-7.38699
-7.39904
-7.41069
-7.42213
-7.43354
-7.44511
-7.45698
-7.46931
-7.48223
-7.49585
-7.51027
-7.52559
-7.54185
-7.55909
-7.57729
-7.59644
-7.61646
-7.6373
-7.65885
-7.681
-7.70364
-7.72665
-7.7499
-7.77326
-7.79663
-7.81989
-7.84294
-7.86569
-7.88805
-7.90995
-7.93133
-7.95212
-7.97228
-7.99176
-8.01052
-8.02851
-8.04569
-8.06202
-8.07745
-8.09194
-8.10544
-8.11788
-8.12919
-8.13932
-8.14818
-8.15569
-8.16174
-8.16624
-8.16908
-8.17014
-8.16931
-8.16645
-8.16144
-8.15413
-8.14438
-8.13203
-8.11691
-8.09886
-8.0777
-8.05326
-8.02538
-7.99388
-7.95861
-7.91942
-7.87618
-7.82874
-7.77699
-7.7208
-7.66007
-7.59466
-7.52444
-7.44934
-7.36904
-7.28291
-7.19108
-7.09347
-6.99003
-6.88065
-6.76521
-6.64357
-6.51561
-6.38116
-6.2401
-6.09225
-5.93748
-5.77564
-5.60658
-5.43017
-5.24627
-5.05477
-4.85553
-4.64844
-4.43338
-4.21027
-3.97901
-3.73954
-3.49182
-3.23583
-2.9716
-2.69922
-2.41884
-2.13069
-1.8351
-1.53252
-1.2235
-0.908746
-0.589059
-0.265374
0.0612578
0.389657
0.718517
1.04643
1.37188
1.69331
2.00919
2.31801
2.61824
2.9084
3.18706
3.45294
3.70491
3.942
4.16347
4.36884
4.55794
4.73092
4.88814
5.03032
5.1585
5.27388
5.37794
5.4724
5.55943
5.64147
5.72151
5.80268
5.88881
5.98324
6.08972
6.20958
6.34526
6.49458
6.65992
6.83403
7.02298
7.20841
7.40305
7.56133
7.72016
7.79975
7.9359
7.99654
-6.38022
-6.60696
-6.64744
-6.76204
-6.7763
-6.84501
-6.86538
-6.91364
-6.93817
-6.97631
-7.00273
-7.03552
-7.06241
-7.09202
-7.11844
-7.14572
-7.17102
-7.19627
-7.21995
-7.2433
-7.26555
-7.28669
-7.30657
-7.32573
-7.34409
-7.36168
-7.37851
-7.39465
-7.41012
-7.42503
-7.43947
-7.45359
-7.46753
-7.48142
-7.49542
-7.50965
-7.52423
-7.53926
-7.55484
-7.57103
-7.5879
-7.60548
-7.62378
-7.64278
-7.66246
-7.68277
-7.70364
-7.725
-7.74677
-7.76886
-7.79117
-7.81362
-7.8361
-7.85854
-7.88083
-7.90292
-7.9247
-7.94613
-7.96713
-7.98764
-8.00761
-8.02697
-8.04569
-8.06371
-8.08097
-8.09743
-8.11304
-8.12772
-8.14143
-8.15409
-8.16564
-8.17599
-8.18507
-8.19278
-8.19903
-8.20371
-8.20671
-8.20793
-8.20724
-8.20453
-8.19967
-8.19253
-8.18297
-8.17085
-8.15601
-8.13833
-8.11764
-8.0938
-8.06667
-8.03609
-8.00189
-7.9639
-7.92197
-7.87591
-7.82555
-7.77072
-7.71125
-7.64695
-7.57763
-7.50323
-7.42407
-7.33993
-7.25051
-7.15559
-7.05495
-6.94842
-6.83583
-6.71701
-6.5918
-6.46006
-6.32162
-6.17633
-6.02404
-5.86459
-5.69785
-5.52366
-5.34191
-5.15245
-4.95517
-4.74994
-4.53663
-4.31515
-4.0854
-3.84732
-3.60083
-3.3459
-3.08257
-2.81089
-2.53099
-2.24307
-1.94746
-1.64459
-1.33498
-1.01928
-0.698297
-0.372919
-0.0441757
0.286785
0.618687
0.950197
1.27972
1.60572
1.92674
2.24131
2.54787
2.84486
3.13077
3.4042
3.66382
3.90846
4.13717
4.3492
4.54414
4.72187
4.88255
5.02666
5.15505
5.26885
5.36952
5.45886
5.53916
5.61311
5.68421
5.7562
5.83361
5.92046
6.02117
6.13776
6.27311
6.42534
6.59681
6.78032
6.98087
7.17846
7.38174
7.54269
7.69732
7.76725
7.89446
7.9398
-6.3879
-6.6186
-6.65621
-6.7741
-6.78716
-6.85882
-6.87873
-6.92924
-6.95386
-6.99369
-7.02051
-7.0546
-7.08201
-7.11262
-7.13961
-7.16771
-7.19359
-7.21951
-7.24384
-7.26774
-7.29022
-7.31219
-7.33329
-7.35335
-7.37233
-7.39076
-7.40857
-7.42578
-7.4424
-7.45859
-7.47437
-7.48991
-7.50531
-7.5207
-7.53621
-7.55196
-7.56804
-7.58454
-7.60154
-7.6191
-7.63728
-7.65611
-7.6756
-7.69575
-7.71653
-7.73792
-7.75986
-7.7823
-7.80516
-7.82838
-7.85186
-7.87554
-7.89933
-7.92316
-7.94693
-7.97059
-7.99405
-8.01725
-8.04013
-8.06262
-8.08468
-8.10624
-8.12725
-8.14765
-8.16739
-8.18642
-8.20468
-8.22209
-8.2386
-8.25413
-8.26861
-8.28195
-8.29407
-8.30487
-8.31424
-8.32209
-8.32828
-8.33272
-8.33526
-8.33578
-8.33415
-8.33021
-8.32381
-8.3148
-8.30301
-8.28826
-8.27039
-8.24921
-8.22454
-8.19621
-8.16404
-8.12787
-8.08759
-8.04307
-7.99416
-7.94076
-7.88283
-7.82017
-7.75256
-7.67955
-7.60096
-7.51678
-7.42693
-7.33132
-7.22983
-7.12236
-7.00876
-6.88892
-6.76269
-6.62993
-6.49048
-6.34419
-6.19092
-6.03052
-5.86284
-5.68775
-5.50511
-5.3148
-5.11669
-4.91066
-4.69659
-4.47436
-4.24389
-4.00509
-3.75789
-3.50224
-3.23816
-2.9657
-2.68498
-2.3962
-2.09965
-1.79576
-1.48501
-1.16807
-0.845684
-0.518756
-0.188286
0.144561
0.478558
0.812344
1.14419
1.47271
1.79659
2.11427
2.42417
2.72469
3.01432
3.29162
3.55522
3.80394
4.03673
4.25278
4.45157
4.63284
4.79664
4.94332
5.07356
5.18835
5.28903
5.37733
5.4555
5.52628
5.59319
5.66024
5.73234
5.81413
5.9107
6.02488
6.16011
6.31501
6.49188
6.68368
6.8944
7.1034
7.31593
7.48192
7.63415
7.69594
7.8156
7.85039
-6.40055
-6.62933
-6.66203
-6.77983
-6.79065
-6.86315
-6.88161
-6.9329
-6.95663
-6.9971
-7.02351
-7.05818
-7.08562
-7.11692
-7.14433
-7.1733
-7.19998
-7.22701
-7.25247
-7.27767
-7.30165
-7.32499
-7.34724
-7.3691
-7.39038
-7.41074
-7.43023
-7.4493
-7.46764
-7.48554
-7.50299
-7.52019
-7.53718
-7.55409
-7.57104
-7.58812
-7.60545
-7.62309
-7.64113
-7.65962
-7.67862
-7.69815
-7.71824
-7.7389
-7.76011
-7.78186
-7.8041
-7.82681
-7.84992
-7.87338
-7.89712
-7.92109
-7.9452
-7.9694
-7.99361
-8.01776
-8.04179
-8.06564
-8.08922
-8.11249
-8.13538
-8.15783
-8.17978
-8.20117
-8.22192
-8.24199
-8.26129
-8.27977
-8.29733
-8.31391
-8.32941
-8.34375
-8.35683
-8.36854
-8.37879
-8.38746
-8.39444
-8.39959
-8.40279
-8.40392
-8.40284
-8.39939
-8.39344
-8.38484
-8.37342
-8.35903
-8.34153
-8.32074
-8.29652
-8.26872
-8.23718
-8.20174
-8.16224
-8.11857
-8.07042
-8.01773
-7.96024
-7.89802
-7.83105
-7.75922
-7.68227
-7.60005
-7.51233
-7.41893
-7.31969
-7.21443
-7.10298
-6.98521
-6.86096
-6.73007
-6.59239
-6.44778
-6.29608
-6.13714
-5.97083
-5.797
-5.61553
-5.4263
-5.22919
-5.02406
-4.81079
-4.58927
-4.35941
-4.12112
-3.8743
-3.6189
-3.35493
-3.08243
-2.80151
-2.51232
-2.21516
-1.91043
-1.59863
-1.28038
-0.956431
-0.627649
-0.295034
0.0402682
0.37712
0.713923
1.04912
1.38156
1.70982
2.03228
2.34734
2.65339
2.94884
3.23215
3.50184
3.75655
3.99506
4.21635
4.41972
4.60471
4.77118
4.91933
5.04975
5.16334
5.26148
5.34595
5.41914
5.48397
5.54428
5.60441
5.66969
5.74531
5.83692
5.94806
6.08258
6.23954
6.42103
6.62018
6.83984
7.05896
7.27973
7.45146
7.6045
7.66439
7.78054
7.80614
-6.42031
-6.64497
-6.67412
-6.79196
-6.8015
-6.87542
-6.8932
-6.94614
-6.9698
-7.01177
-7.03844
-7.07436
-7.1022
-7.13444
-7.1623
-7.19208
-7.21933
-7.24714
-7.27329
-7.29929
-7.32403
-7.3483
-7.37155
-7.39414
-7.41582
-7.43716
-7.45813
-7.47828
-7.49759
-7.51662
-7.53515
-7.55345
-7.57159
-7.58966
-7.60776
-7.62602
-7.64452
-7.66336
-7.68259
-7.70227
-7.72246
-7.74319
-7.76449
-7.78636
-7.80879
-7.83179
-7.85531
-7.87934
-7.90381
-7.92868
-7.9539
-7.9794
-8.00513
-8.03102
-8.05699
-8.08299
-8.10895
-8.1348
-8.16047
-8.1859
-8.21102
-8.23578
-8.26009
-8.28391
-8.30715
-8.32976
-8.35164
-8.37274
-8.39296
-8.41222
-8.43044
-8.44752
-8.46335
-8.47784
-8.49087
-8.50233
-8.5121
-8.52005
-8.52606
-8.52998
-8.53167
-8.53099
-8.52778
-8.52188
-8.51313
-8.50136
-8.48639
-8.46804
-8.44613
-8.4205
-8.39096
-8.3573
-8.3195
-8.27734
-8.23074
-8.17953
-8.12338
-8.06215
-7.99564
-7.92378
-7.84642
-7.76347
-7.6748
-7.58031
-7.47987
-7.37335
-7.26061
-7.14153
-7.01597
-6.88379
-6.74484
-6.59898
-6.44604
-6.2859
-6.1184
-5.94341
-5.76081
-5.57047
-5.37227
-5.16606
-4.95173
-4.72916
-4.49826
-4.25893
-4.01107
-3.75461
-3.48957
-3.21598
-2.93395
-2.6436
-2.34524
-2.03928
-1.72615
-1.40651
-1.0811
-0.750783
-0.416557
-0.0795091
0.25903
0.59741
0.934503
1.26903
1.59948
1.92431
2.24195
2.55081
2.84932
3.13592
3.40912
3.6675
3.90979
4.13487
4.3419
4.53032
4.69985
4.85057
4.98293
5.09777
5.19635
5.28041
5.35228
5.4149
5.47213
5.52846
5.58947
5.6607
5.74829
5.85643
5.98943
6.14683
6.33059
6.53414
6.7595
6.986
7.21352
7.39183
7.54853
7.61145
7.72977
7.75447
-6.44215
-6.65854
-6.68332
-6.79898
-6.80659
-6.88058
-6.89692
-6.95049
-6.97322
-7.01601
-7.04234
-7.07914
-7.10716
-7.14048
-7.16901
-7.19993
-7.2281
-7.25715
-7.28446
-7.31183
-7.33795
-7.36368
-7.38841
-7.41257
-7.43594
-7.45858
-7.48085
-7.50273
-7.52362
-7.54381
-7.56372
-7.58348
-7.603
-7.62235
-7.64174
-7.66119
-7.68089
-7.70086
-7.72123
-7.74202
-7.76331
-7.78513
-7.8075
-7.83045
-7.85397
-7.87806
-7.9027
-7.92786
-7.9535
-7.97958
-8.00605
-8.03286
-8.05993
-8.08721
-8.11463
-8.14213
-8.16962
-8.19705
-8.22433
-8.25141
-8.2782
-8.30463
-8.33063
-8.35613
-8.38105
-8.40531
-8.42883
-8.45152
-8.47329
-8.49405
-8.51371
-8.53215
-8.54928
-8.56499
-8.57915
-8.59165
-8.60236
-8.61116
-8.6179
-8.62245
-8.62467
-8.62441
-8.62151
-8.61581
-8.60717
-8.59541
-8.58038
-8.5619
-8.53984
-8.51404
-8.48431
-8.45053
-8.41254
-8.37023
-8.32356
-8.27234
-8.21652
-8.15582
-8.09012
-8.01925
-7.94304
-7.86131
-7.77391
-7.68067
-7.58144
-7.47605
-7.36437
-7.24624
-7.12154
-6.99011
-6.85182
-6.70649
-6.554
-6.3942
-6.22695
-6.05212
-5.86958
-5.67922
-5.48091
-5.27452
-5.05992
-4.837
-4.60568
-4.36585
-4.1174
-3.86025
-3.59442
-3.31996
-3.03695
-2.74551
-2.44595
-2.13865
-1.82405
-1.50282
-1.1757
-0.843529
-0.507251
-0.168132
0.172357
0.512977
0.852618
1.18976
1.52294
1.85062
2.17124
2.48324
2.78505
3.0751
3.35186
3.61385
3.8597
4.08818
4.29831
4.48936
4.66094
4.81301
4.94597
5.06059
5.15818
5.2405
5.31
5.36971
5.42357
5.47623
5.53335
5.60072
5.68471
5.79001
5.9212
6.07833
6.26311
6.46936
6.69836
6.93028
7.16327
7.34837
7.51034
7.5794
7.70159
7.72825
-6.46743
-6.67189
-6.69389
-6.80681
-6.81367
-6.88796
-6.90376
-6.95854
-6.98107
-7.02527
-7.05182
-7.09005
-7.11861
-7.15317
-7.18246
-7.21468
-7.24385
-7.27422
-7.30272
-7.33146
-7.3589
-7.38608
-7.41224
-7.43787
-7.46265
-7.48677
-7.51022
-7.53287
-7.5552
-7.57733
-7.59865
-7.61947
-7.6404
-7.66093
-7.68147
-7.70221
-7.7232
-7.74456
-7.76632
-7.78856
-7.81133
-7.83468
-7.85863
-7.88322
-7.90843
-7.93427
-7.96072
-7.98775
-8.01532
-8.04339
-8.07191
-8.10083
-8.13008
-8.15959
-8.18929
-8.21912
-8.24898
-8.2788
-8.30851
-8.33803
-8.36729
-8.3962
-8.42468
-8.45266
-8.48005
-8.50678
-8.53275
-8.55787
-8.58204
-8.60518
-8.62717
-8.64793
-8.66733
-8.68527
-8.70164
-8.7163
-8.72915
-8.74005
-8.74887
-8.75546
-8.7597
-8.76142
-8.76049
-8.75672
-8.74999
-8.7401
-8.72691
-8.71024
-8.68989
-8.66572
-8.63755
-8.60515
-8.56828
-8.52685
-8.48061
-8.4295
-8.37338
-8.31208
-8.24548
-8.17345
-8.09586
-8.0126
-7.92354
-7.82855
-7.72749