/*--------------------------------*- C++ -*----------------------------------*\
| =========                 |                                                 |
| \\      /  F ield         | OpenFOAM: The Open Source CFD Toolbox           |
|  \\    /   O peration     | Version:  v1906                                 |
|   \\  /    A nd           | Web:      www.OpenFOAM.com                      |
|    \\/     M anipulation  |                                                 |
\*---------------------------------------------------------------------------*/
FoamFile
{
    version     2.0;
    format      ascii;
    class       surfaceScalarField;
    location    "1100";
    object      phi;
}
// * * * * * * * * * * * * * * * * * * * * * * * * * * * * * * * * * * * * * //

dimensions      [0 3 -1 0 0 0 0];
oriented        oriented;


internalField   nonuniform List<scalar> 
24170
(
3.08282e-06
1.05581e-07
2.98701e-06
9.58151e-08
2.92071e-06
6.62987e-08
2.86471e-06
5.59997e-08
2.81589e-06
4.88173e-08
2.77306e-06
4.2831e-08
2.735e-06
3.80624e-08
2.70082e-06
3.41782e-08
2.67003e-06
3.07917e-08
2.64227e-06
2.77632e-08
2.61709e-06
2.5177e-08
2.5941e-06
2.29892e-08
2.5732e-06
2.08975e-08
2.55443e-06
1.87728e-08
2.53811e-06
1.63181e-08
2.52467e-06
1.34464e-08
2.515e-06
9.667e-09
-1.95047e-09
2.51695e-06
3.44276e-06
8.00725e-08
3.44404e-06
9.45296e-08
3.43233e-06
7.80114e-08
3.41873e-06
6.95993e-08
3.404e-06
6.35426e-08
3.38922e-06
5.76202e-08
3.37486e-06
5.24203e-08
3.36104e-06
4.79963e-08
3.34779e-06
4.40436e-08
3.33514e-06
4.04141e-08
3.32315e-06
3.71659e-08
3.31187e-06
3.42701e-08
3.30122e-06
3.15482e-08
3.29121e-06
2.87824e-08
3.2817e-06
2.58203e-08
3.2728e-06
2.23549e-08
3.26515e-06
1.73144e-08
7.11636e-09
3.25608e-06
3.67627e-06
6.63168e-08
3.67857e-06
9.22325e-08
3.6728e-06
8.37837e-08
3.66529e-06
7.71101e-08
3.65771e-06
7.11168e-08
3.65056e-06
6.47709e-08
3.64389e-06
5.90923e-08
3.63763e-06
5.42563e-08
3.63172e-06
4.99545e-08
3.62611e-06
4.60186e-08
3.62083e-06
4.24494e-08
3.6159e-06
3.91979e-08
3.61134e-06
3.61104e-08
3.60716e-06
3.29645e-08
3.60334e-06
2.96428e-08
3.60004e-06
2.56495e-08
3.59609e-06
2.12688e-08
1.45029e-08
3.5887e-06
3.93547e-06
5.62393e-08
3.94303e-06
8.46731e-08
3.94512e-06
8.16896e-08
3.94514e-06
7.70848e-08
3.94398e-06
7.22848e-08
3.94198e-06
6.67688e-08
3.93951e-06
6.156e-08
3.93682e-06
5.69465e-08
3.93404e-06
5.27307e-08
3.93126e-06
4.87993e-08
3.92856e-06
4.51524e-08
3.92601e-06
4.17473e-08
3.92367e-06
3.84552e-08
3.92155e-06
3.50782e-08
3.91969e-06
3.15081e-08
3.91801e-06
2.73288e-08
3.91678e-06
2.24928e-08
1.48668e-08
3.91642e-06
4.2181e-06
4.52632e-08
4.22759e-06
7.51882e-08
4.23153e-06
7.77481e-08
4.2329e-06
7.5715e-08
4.23309e-06
7.20904e-08
4.23263e-06
6.72322e-08
4.23185e-06
6.23367e-08
4.23096e-06
5.78406e-08
4.23003e-06
5.36645e-08
4.22908e-06
4.97403e-08
4.22818e-06
4.6062e-08
4.22734e-06
4.25792e-08
4.22661e-06
3.91843e-08
4.22599e-06
3.56994e-08
4.22543e-06
3.2075e-08
4.22483e-06
2.79212e-08
4.22348e-06
2.38509e-08
1.89165e-08
4.21943e-06
4.5171e-06
3.72544e-08
4.52583e-06
6.64583e-08
4.53156e-06
7.20133e-08
4.53561e-06
7.16611e-08
4.53866e-06
6.90402e-08
4.5409e-06
6.49989e-08
4.54254e-06
6.06954e-08
4.54379e-06
5.65868e-08
4.54478e-06
5.2673e-08
4.5456e-06
4.89287e-08
4.5463e-06
4.53543e-08
4.54697e-06
4.19097e-08
4.54765e-06
3.85107e-08
4.54832e-06
3.50215e-08
4.54902e-06
3.13794e-08
4.54959e-06
2.73523e-08
4.55047e-06
2.29649e-08
1.76581e-08
4.55173e-06
4.83986e-06
3.01136e-08
4.8484e-06
5.79239e-08
4.85441e-06
6.5995e-08
4.85858e-06
6.74933e-08
4.86161e-06
6.60159e-08
4.86382e-06
6.27852e-08
4.86552e-06
5.89948e-08
4.86693e-06
5.51754e-08
4.86817e-06
5.14333e-08
4.8693e-06
4.77988e-08
4.87037e-06
4.42893e-08
4.8714e-06
4.08755e-08
4.87241e-06
3.74989e-08
4.87338e-06
3.40525e-08
4.87423e-06
3.05304e-08
4.87481e-06
2.67739e-08
4.87456e-06
2.32178e-08
1.95074e-08
4.87271e-06
5.18534e-06
2.43591e-08
5.19298e-06
5.02808e-08
5.19936e-06
5.96183e-08
5.20463e-06
6.22204e-08
5.20912e-06
6.15265e-08
5.21293e-06
5.89692e-08
5.21623e-06
5.56988e-08
5.21915e-06
5.22499e-08
5.22181e-06
4.87819e-08
5.22425e-06
4.53565e-08
5.22654e-06
4.20012e-08
5.22871e-06
3.86997e-08
5.2308e-06
3.54112e-08
5.23279e-06
3.20655e-08
5.23468e-06
2.86368e-08
5.23641e-06
2.50462e-08
5.23834e-06
2.1282e-08
1.73781e-08
5.24047e-06
5.55573e-06
1.99684e-08
5.56256e-06
4.34526e-08
5.56881e-06
5.33673e-08
5.57405e-06
5.69776e-08
5.57843e-06
5.71499e-08
5.58207e-06
5.53239e-08
5.58518e-06
5.25949e-08
5.58791e-06
4.95142e-08
5.59039e-06
4.63038e-08
5.59268e-06
4.30675e-08
5.59482e-06
3.98562e-08
5.59685e-06
3.66726e-08
5.59876e-06
3.35029e-08
5.60052e-06
3.03038e-08
5.60205e-06
2.71033e-08
5.60324e-06
2.38621e-08
5.60366e-06
2.08611e-08
1.7889e-08
5.60315e-06
5.95382e-06
1.59255e-08
5.96021e-06
3.70648e-08
5.96646e-06
4.71108e-08
5.97219e-06
5.12539e-08
5.97738e-06
5.19574e-08
5.98205e-06
5.06521e-08
5.98628e-06
4.8361e-08
5.99018e-06
4.56225e-08
5.99379e-06
4.26857e-08
5.99719e-06
3.96747e-08
6.00039e-06
3.66509e-08
6.00343e-06
3.36307e-08
6.00633e-06
3.06114e-08
6.00906e-06
2.75729e-08
6.01164e-06
2.45163e-08
6.01407e-06
2.14332e-08
6.01662e-06
1.83179e-08
1.53743e-08
6.01913e-06
6.37948e-06
1.32544e-08
6.3848e-06
3.17437e-08
6.39065e-06
4.12681e-08
6.39621e-06
4.5693e-08
6.40128e-06
4.68903e-08
6.4058e-06
4.61255e-08
6.40986e-06
4.43067e-08
6.41353e-06
4.19459e-08
6.41691e-06
3.93119e-08
6.42003e-06
3.65502e-08
6.42294e-06
3.37402e-08
6.42566e-06
3.09158e-08
6.42817e-06
2.80963e-08
6.43046e-06
2.5281e-08
6.43247e-06
2.25116e-08
6.43411e-06
1.97894e-08
6.43515e-06
1.72785e-08
1.4888e-08
6.43564e-06
5.74324e-06
1.08472e-08
5.7477e-06
2.72845e-08
5.75265e-06
3.63207e-08
5.75753e-06
4.08083e-08
5.76219e-06
4.22306e-08
5.76655e-06
4.17729e-08
5.7706e-06
4.02529e-08
5.77439e-06
3.81558e-08
5.77795e-06
3.57529e-08
5.7813e-06
3.31966e-08
5.78447e-06
3.05723e-08
5.78746e-06
2.79227e-08
5.79029e-06
2.52715e-08
5.79294e-06
2.26303e-08
5.79543e-06
2.00168e-08
5.79777e-06
1.7455e-08
5.8001e-06
1.4944e-08
1.26875e-08
5.8023e-06
6.99986e-06
9.14007e-09
7.00401e-06
2.31344e-08
7.00917e-06
3.11634e-08
7.01454e-06
3.54421e-08
7.01975e-06
3.70192e-08
7.02464e-06
3.68794e-08
7.02919e-06
3.57082e-08
7.0334e-06
3.39393e-08
7.03732e-06
3.18339e-08
7.04097e-06
2.95472e-08
7.04437e-06
2.71724e-08
7.04753e-06
2.47625e-08
7.05045e-06
2.23542e-08
7.05311e-06
1.99701e-08
7.05548e-06
1.76459e-08
7.05753e-06
1.54032e-08
7.05918e-06
1.32992e-08
1.12396e-08
7.06062e-06
8.53319e-06
6.7953e-09
8.53809e-06
1.82322e-08
8.54403e-06
2.52267e-08
8.55032e-06
2.91503e-08
8.55661e-06
3.0732e-08
8.56271e-06
3.07813e-08
8.56854e-06
2.98734e-08
8.57409e-06
2.83881e-08
8.57936e-06
2.65668e-08
8.58435e-06
2.45583e-08
8.58907e-06
2.24539e-08
8.59352e-06
2.03096e-08
8.59771e-06
1.81616e-08
8.60165e-06
1.60366e-08
8.60533e-06
1.39584e-08
8.60878e-06
1.19584e-08
8.61203e-06
1.00532e-08
8.41037e-09
8.61485e-06
1.04007e-05
5.33531e-09
1.04049e-05
1.39764e-08
1.04108e-05
1.93713e-08
1.04174e-05
2.25049e-08
1.04243e-05
2.38603e-08
1.04311e-05
2.39965e-08
1.04376e-05
2.33345e-08
1.04439e-05
2.21659e-08
1.04497e-05
2.06881e-08
1.04553e-05
1.90299e-08
1.04604e-05
1.72753e-08
1.04653e-05
1.548e-08
1.04697e-05
1.3681e-08
1.04739e-05
1.19075e-08
1.04777e-05
1.01759e-08
1.04811e-05
8.50867e-09
1.04843e-05
6.89718e-09
5.32928e-09
1.04873e-05
1.26789e-05
3.22307e-09
1.2684e-05
8.92605e-09
1.26906e-05
1.26786e-08
1.26982e-05
1.49249e-08
1.27062e-05
1.59249e-08
1.27141e-05
1.60332e-08
1.27219e-05
1.55404e-08
1.27294e-05
1.46552e-08
1.27366e-05
1.35256e-08
1.27434e-05
1.22519e-08
1.27497e-05
1.09018e-08
1.27557e-05
9.52139e-09
1.27612e-05
8.14497e-09
1.27663e-05
6.79795e-09
1.2771e-05
5.50855e-09
1.27752e-05
4.2957e-09
1.27789e-05
3.18463e-09
2.21631e-09
1.27821e-05
1.5455e-05
1.4404e-09
1.54599e-05
3.96524e-09
1.54671e-05
5.5413e-09
1.54756e-05
6.39113e-09
1.54849e-05
6.63115e-09
1.54945e-05
6.4237e-09
1.55041e-05
5.90778e-09
1.55136e-05
5.18443e-09
1.55228e-05
4.32881e-09
1.55317e-05
3.39535e-09
1.55401e-05
2.42146e-09
1.55482e-05
1.43638e-09
1.55559e-05
4.56745e-10
1.55632e-05
-4.96076e-10
1.55701e-05
-1.42367e-09
1.55767e-05
-2.29662e-09
1.55831e-05
-3.14634e-09
-3.85201e-09
1.55891e-05
1.88392e-05
-8.89912e-11
1.88439e-05
-8.16726e-10
1.8851e-05
-1.49979e-09
1.88594e-05
-2.02774e-09
1.88685e-05
-2.44899e-09
1.88777e-05
-2.80073e-09
1.88867e-05
-3.11109e-09
1.88953e-05
-3.40002e-09
1.89033e-05
-3.67777e-09
1.89107e-05
-3.94925e-09
1.89173e-05
-4.21556e-09
1.89232e-05
-4.47731e-09
1.89284e-05
-4.7326e-09
1.89329e-05
-4.98404e-09
1.89367e-05
-5.23131e-09
1.89399e-05
-5.47762e-09
1.89425e-05
-5.74208e-09
-6.08764e-09
1.89447e-05
2.29673e-05
-4.01964e-09
2.29763e-05
-9.81848e-09
2.29886e-05
-1.37839e-08
2.3003e-05
-1.64941e-08
2.30189e-05
-1.83099e-08
2.30356e-05
-1.94814e-08
2.30527e-05
-2.02095e-08
2.30699e-05
-2.06414e-08
2.30871e-05
-2.08754e-08
2.31041e-05
-2.09741e-08
2.31209e-05
-2.09755e-08
2.31373e-05
-2.08975e-08
2.31533e-05
-2.07447e-08
2.31688e-05
-2.05065e-08
2.31838e-05
-2.01685e-08
2.3198e-05
-1.9695e-08
2.32113e-05
-1.90809e-08
-1.79678e-08
2.32232e-05
1.68112e-05
-4.55538e-09
1.68147e-05
-1.33216e-08
1.68203e-05
-1.93181e-08
1.68268e-05
-2.30359e-08
1.68336e-05
-2.50814e-08
1.68401e-05
-2.59763e-08
1.6846e-05
-2.61373e-08
1.68512e-05
-2.58518e-08
1.68556e-05
-2.53003e-08
1.68593e-05
-2.45935e-08
1.68621e-05
-2.37956e-08
1.68641e-05
-2.29453e-08
1.68655e-05
-2.2061e-08
1.68661e-05
-2.11636e-08
1.68662e-05
-2.02589e-08
1.68659e-05
-1.93948e-08
1.68654e-05
-1.85698e-08
-1.82525e-08
1.68657e-05
1.46387e-05
-8.65931e-09
1.46468e-05
-2.14417e-08
1.46568e-05
-2.92892e-08
1.46676e-05
-3.3902e-08
1.46789e-05
-3.63584e-08
1.46903e-05
-3.73453e-08
1.47015e-05
-3.74063e-08
1.47126e-05
-3.69207e-08
1.47234e-05
-3.61232e-08
1.4734e-05
-3.51593e-08
1.47443e-05
-3.4123e-08
1.47545e-05
-3.30731e-08
1.47644e-05
-3.2051e-08
1.47744e-05
-3.10746e-08
1.47843e-05
-3.01694e-08
1.47942e-05
-2.93013e-08
1.48041e-05
-2.85052e-08
-2.71414e-08
1.4813e-05
1.27416e-05
-1.01326e-08
1.27467e-05
-2.65852e-08
1.27534e-05
-3.58981e-08
1.27601e-05
-4.06116e-08
1.27662e-05
-4.25119e-08
1.27715e-05
-4.26737e-08
1.2776e-05
-4.18693e-08
1.27797e-05
-4.05838e-08
1.27826e-05
-3.90702e-08
1.27849e-05
-3.74581e-08
1.27866e-05
-3.58154e-08
1.27877e-05
-3.41744e-08
1.27882e-05
-3.25355e-08
1.2788e-05
-3.08917e-08
1.2787e-05
-2.91962e-08
1.27852e-05
-2.74525e-08
1.27822e-05
-2.55472e-08
-2.42044e-08
1.27793e-05
1.10965e-05
-1.57513e-08
1.11062e-05
-3.6237e-08
1.11165e-05
-4.62331e-08
1.11267e-05
-5.07893e-08
1.11365e-05
-5.2346e-08
1.11459e-05
-5.20135e-08
1.11547e-05
-5.06583e-08
1.11629e-05
-4.88466e-08
1.11707e-05
-4.68514e-08
1.11781e-05
-4.48094e-08
1.11851e-05
-4.28047e-08
1.11918e-05
-4.08881e-08
1.11983e-05
-3.90991e-08
1.12049e-05
-3.74676e-08
1.12118e-05
-3.60688e-08
1.12193e-05
-3.49408e-08
1.1228e-05
-3.43236e-08
-3.34524e-08
1.12373e-05
9.65974e-06
-2.02727e-08
9.66816e-06
-4.46596e-08
9.67606e-06
-5.41331e-08
9.68239e-06
-5.71216e-08
9.68724e-06
-5.71977e-08
9.69084e-06
-5.56091e-08
9.69348e-06
-5.32986e-08
9.69545e-06
-5.08215e-08
9.69696e-06
-4.83547e-08
9.6981e-06
-4.59484e-08
9.69892e-06
-4.36329e-08
9.69946e-06
-4.14234e-08
9.69967e-06
-3.93073e-08
9.69946e-06
-3.72632e-08
9.69859e-06
-3.51928e-08
9.69665e-06
-3.30062e-08
9.69257e-06
-3.02409e-08
-2.73941e-08
9.68651e-06
8.41352e-06
-2.84371e-08
8.42508e-06
-5.6226e-08
8.43525e-06
-6.43011e-08
8.44401e-06
-6.58799e-08
8.45171e-06
-6.49012e-08
8.45836e-06
-6.22573e-08
8.46406e-06
-5.89942e-08
8.46898e-06
-5.57469e-08
8.47329e-06
-5.26586e-08
8.47708e-06
-4.9743e-08
8.48046e-06
-4.7017e-08
8.48353e-06
-4.44866e-08
8.48637e-06
-4.21507e-08
8.48911e-06
-4.00063e-08
8.49204e-06
-3.81198e-08
8.4956e-06
-3.65673e-08
8.5013e-06
-3.59368e-08
-3.5979e-08
8.50988e-06
7.32785e-06
-3.90047e-08
7.33967e-06
-6.8041e-08
7.34637e-06
-7.10076e-08
7.34964e-06
-6.91439e-08
7.35106e-06
-6.6323e-08
7.35138e-06
-6.25749e-08
7.35111e-06
-5.87251e-08
7.35059e-06
-5.52244e-08
7.34994e-06
-5.20176e-08
7.34922e-06
-4.90197e-08
7.34842e-06
-4.62179e-08
7.34755e-06
-4.36121e-08
7.34658e-06
-4.11854e-08
7.34551e-06
-3.89311e-08
7.34416e-06
-3.67732e-08
7.34225e-06
-3.46543e-08
7.33811e-06
-3.18034e-08
-2.77055e-08
7.32984e-06
6.38127e-06
-5.02054e-08
6.39311e-06
-7.98851e-08
6.39987e-06
-7.77702e-08
6.40406e-06
-7.33287e-08
6.40649e-06
-6.87502e-08
6.40741e-06
-6.35035e-08
6.40731e-06
-5.86186e-08
6.40654e-06
-5.44564e-08
6.40535e-06
-5.0828e-08
6.40389e-06
-4.75566e-08
6.40225e-06
-4.45799e-08
6.4005e-06
-4.18662e-08
6.3987e-06
-3.93854e-08
6.39688e-06
-3.7106e-08
6.39516e-06
-3.50515e-08
6.39371e-06
-3.32051e-08
6.39422e-06
-3.23141e-08
-3.29626e-08
6.39947e-06
5.563e-06
-6.77384e-08
5.56909e-06
-8.59729e-08
5.56467e-06
-7.33588e-08
5.55723e-06
-6.58884e-08
5.54944e-06
-6.09606e-08
5.54201e-06
-5.60727e-08
5.53515e-06
-5.17518e-08
5.52879e-06
-4.8103e-08
5.52283e-06
-4.48607e-08
5.51716e-06
-4.18929e-08
5.51175e-06
-3.91641e-08
5.50654e-06
-3.66609e-08
5.50152e-06
-3.43609e-08
5.49667e-06
-3.22622e-08
5.49195e-06
-3.03323e-08
5.48738e-06
-2.86334e-08
5.4815e-06
-2.64322e-08
-2.22655e-08
5.4708e-06
4.85296e-06
-9.30954e-08
4.85866e-06
-9.16724e-08
4.84879e-06
-6.34863e-08
4.83769e-06
-5.47902e-08
4.82548e-06
-4.87495e-08
4.81327e-06
-4.38656e-08
4.80155e-06
-4.00309e-08
4.79039e-06
-3.694e-08
4.77977e-06
-3.42445e-08
4.76965e-06
-3.17722e-08
4.75998e-06
-2.94905e-08
4.75071e-06
-2.73925e-08
4.74182e-06
-2.5473e-08
4.73329e-06
-2.3724e-08
4.72513e-06
-2.21797e-08
4.71734e-06
-2.08428e-08
4.71148e-06
-2.05733e-08
-2.1772e-08
4.71099e-06
4.10958e-06
4.01791e-06
3.95442e-06
3.89963e-06
3.85088e-06
3.80702e-06
3.76699e-06
3.73005e-06
3.6958e-06
3.66403e-06
3.63454e-06
3.60715e-06
3.58167e-06
3.55795e-06
3.53577e-06
3.51493e-06
3.49435e-06
3.47258e-06
5.91135e-08
-5.91153e-08
1.31309e-07
-7.22116e-08
2.15086e-07
-8.37694e-08
2.86065e-07
-7.09905e-08
3.5202e-07
-6.59448e-08
4.09084e-07
-5.70731e-08
4.6157e-07
-5.24731e-08
5.08358e-07
-4.67941e-08
5.51377e-07
-4.30065e-08
5.9025e-07
-3.8879e-08
6.25918e-07
-3.5655e-08
6.58397e-07
-3.24856e-08
6.88257e-07
-2.98497e-08
7.15528e-07
-2.72789e-08
7.40468e-07
-2.49306e-08
7.63037e-07
-2.25754e-08
7.83418e-07
-2.03727e-08
8.01667e-07
-1.82516e-08
8.17853e-07
-1.6179e-08
8.31872e-07
-1.40181e-08
8.43356e-07
-1.14773e-08
8.51367e-07
-8.00802e-09
8.54414e-07
-3.04059e-09
8.50263e-07
4.15148e-09
8.36628e-07
1.36415e-08
8.11654e-07
2.49678e-08
7.74151e-07
3.75128e-08
7.23901e-07
5.02347e-08
6.62053e-07
6.18588e-08
5.90678e-07
7.13549e-08
5.12417e-07
7.82733e-08
4.30381e-07
8.20221e-08
3.48938e-07
8.14533e-08
2.72653e-07
7.62951e-08
2.03133e-07
6.95266e-08
1.36869e-07
6.6305e-08
6.84465e-08
6.84265e-08
-5.5531e-09
7.40474e-08
-8.55125e-08
7.99584e-08
-1.70617e-07
8.51237e-08
-2.59967e-07
8.93476e-08
-3.51947e-07
9.19751e-08
-4.44727e-07
9.27805e-08
-5.36687e-07
9.19437e-08
-6.26712e-07
9.00294e-08
-7.14262e-07
8.7533e-08
-7.98836e-07
8.4581e-08
-8.80018e-07
8.11653e-08
-9.57438e-07
7.74275e-08
-1.03097e-06
7.35177e-08
-1.10052e-06
6.95543e-08
-1.1662e-06
6.56605e-08
-1.22815e-06
6.1946e-08
-1.28664e-06
5.84801e-08
-1.34195e-06
5.53119e-08
-1.39442e-06
5.24542e-08
-1.44433e-06
4.99098e-08
-1.492e-06
4.76578e-08
-1.53767e-06
4.56772e-08
-1.58161e-06
4.39328e-08
-1.624e-06
4.23973e-08
-1.66504e-06
4.10352e-08
-1.70486e-06
3.98211e-08
-1.74359e-06
3.87242e-08
-1.7813e-06
3.77257e-08
-1.81811e-06
3.68011e-08
-1.85404e-06
3.59381e-08
-1.88916e-06
3.51181e-08
-1.92349e-06
3.43332e-08
-1.95706e-06
3.35685e-08
-1.98987e-06
3.28191e-08
-2.02195e-06
3.20723e-08
-2.05327e-06
3.13246e-08
-2.08384e-06
3.05651e-08
-2.11363e-06
2.97918e-08
-2.14263e-06
2.89954e-08
-2.1708e-06
2.81754e-08
-2.19813e-06
2.73244e-08
-2.22457e-06
2.64426e-08
-2.2501e-06
2.55228e-08
-2.27466e-06
2.45663e-08
-2.29823e-06
2.35668e-08
-2.32075e-06
2.25256e-08
-2.34218e-06
2.14356e-08
-2.36247e-06
2.02982e-08
-2.38158e-06
1.91068e-08
-2.39944e-06
1.7862e-08
-2.41599e-06
1.65577e-08
-2.43117e-06
1.51925e-08
-2.44491e-06
1.37619e-08
-2.45715e-06
1.22609e-08
-2.46783e-06
1.06883e-08
-2.47687e-06
9.0438e-09
-2.4842e-06
7.32826e-09
-2.48975e-06
5.54522e-09
-2.49346e-06
3.70217e-09
-2.49529e-06
1.82846e-09
-2.49533e-06
3.60785e-11
-2.49393e-06
-1.41527e-09
-2.49136e-06
-2.57647e-09
-2.48765e-06
-3.72142e-09
-2.48277e-06
-4.89074e-09
-2.47666e-06
-6.11736e-09
-2.4693e-06
-7.37139e-09
-2.46069e-06
-8.61814e-09
-2.4508e-06
-9.90011e-09
-2.43958e-06
-1.12292e-08
-2.42697e-06
-1.2616e-08
-2.41291e-06
-1.40646e-08
-2.39734e-06
-1.55848e-08
-2.38016e-06
-1.71818e-08
-2.3613e-06
-1.88631e-08
-2.34067e-06
-2.06284e-08
-2.3182e-06
-2.24776e-08
-2.29379e-06
-2.44034e-08
-2.2674e-06
-2.63972e-08
-2.23896e-06
-2.84318e-08
-2.20847e-06
-3.04872e-08
-2.1759e-06
-3.25744e-08
-2.14119e-06
-3.47188e-08
-2.10422e-06
-3.6972e-08
-2.06486e-06
-3.93601e-08
-2.02308e-06
-4.17838e-08
-1.97884e-06
-4.42416e-08
-1.93195e-06
-4.68781e-08
-1.8823e-06
-4.96314e-08
-1.82981e-06
-5.24745e-08
-1.77435e-06
-5.54333e-08
-1.71583e-06
-5.84857e-08
-1.65417e-06
-6.16277e-08
-1.58928e-06
-6.48478e-08
-1.52111e-06
-6.81304e-08
-1.4496e-06
-7.14626e-08
-1.37474e-06
-7.48195e-08
-1.29652e-06
-7.81824e-08
-1.21498e-06
-8.15143e-08
-1.13018e-06
-8.47956e-08
-1.04223e-06
-8.79838e-08
-9.51281e-07
-9.10506e-08
-8.57504e-07
-9.3933e-08
-7.61107e-07
-9.65885e-08
-6.62343e-07
-9.89777e-08
-5.61505e-07
-1.01058e-07
-4.58939e-07
-1.02801e-07
-3.55046e-07
-1.04135e-07
-2.50136e-07
-1.05166e-07
-1.44741e-07
-1.05654e-07
-3.9674e-08
-1.05312e-07
6.56824e-08
-1.05573e-07
1.71326e-07
-1.0582e-07
2.74486e-07
-1.03312e-07
3.72423e-07
-9.80591e-08
4.63096e-07
-9.07835e-08
5.44786e-07
-8.17753e-08
6.15407e-07
-7.06999e-08
6.72373e-07
-5.70212e-08
7.13686e-07
-4.13487e-08
7.38777e-07
-2.51097e-08
7.48546e-07
-9.76862e-09
7.45267e-07
3.29165e-09
7.32734e-07
1.25563e-08
7.14966e-07
1.78089e-08
6.96215e-07
1.88049e-08
6.80723e-07
1.55567e-08
6.72322e-07
8.47751e-09
6.74245e-07
-1.86329e-09
6.89832e-07
-1.55188e-08
7.22013e-07
-3.21203e-08
7.73665e-07
-5.15635e-08
8.46253e-07
-7.25157e-08
9.41199e-07
-9.49009e-08
1.05264e-06
-1.11467e-07
1.1661e-06
-1.13477e-07
1.2406e-06
-7.45332e-08
1.22707e-06
1.36453e-08
1.08649e-06
1.4075e-07
8.38424e-07
2.48343e-07
5.31568e-07
3.07045e-07
2.49293e-07
2.82267e-07
1.12886e-07
1.36559e-07
7.66066e-08
-1.35725e-07
1.16102e-07
-1.11712e-07
1.49347e-07
-1.17013e-07
1.72902e-07
-9.45483e-08
2.02261e-07
-9.53014e-08
2.2963e-07
-8.44432e-08
2.60014e-07
-8.28541e-08
2.88432e-07
-7.52126e-08
3.165e-07
-7.10706e-08
3.41822e-07
-6.42021e-08
3.6551e-07
-5.93399e-08
3.86973e-07
-5.39492e-08
4.07117e-07
-4.99918e-08
4.25678e-07
-4.58403e-08
4.43002e-07
-4.22529e-08
4.58878e-07
-3.84513e-08
4.73724e-07
-3.52173e-08
4.87811e-07
-3.23379e-08
5.01576e-07
-2.99423e-08
5.15101e-07
-2.75421e-08
5.28383e-07
-2.47565e-08
5.41095e-07
-2.07185e-08
5.52993e-07
-1.49368e-08
5.63357e-07
-6.21184e-09
5.69404e-07
7.59585e-09
5.66019e-07
2.83526e-08
5.48794e-07
5.47388e-08
5.15245e-07
8.37812e-08
4.64935e-07
1.12169e-07
3.99175e-07
1.37113e-07
3.20551e-07
1.56898e-07
2.32214e-07
1.70359e-07
1.37104e-07
1.76564e-07
3.67824e-08
1.7662e-07
-6.89735e-08
1.75286e-07
-1.80145e-07
1.77481e-07
-2.94596e-07
1.82882e-07
-4.09563e-07
1.89017e-07
-5.23406e-07
1.93804e-07
-6.34468e-07
1.96187e-07
-7.40706e-07
1.95586e-07
-8.40558e-07
1.91825e-07
-9.32931e-07
1.85152e-07
-1.01712e-06
1.76128e-07
-1.09269e-06
1.65597e-07
-1.1594e-06
1.5424e-07
-1.21736e-06
1.42544e-07
-1.26715e-06
1.30954e-07
-1.30959e-06
1.19869e-07
-1.34564e-06
1.09561e-07
-1.37628e-06
1.0019e-07
-1.40245e-06
9.18287e-08
-1.42499e-06
8.44833e-08
-1.44462e-06
7.81057e-08
-1.46192e-06
7.26175e-08
-1.47739e-06
6.79192e-08
-1.49139e-06
6.39074e-08
-1.50421e-06
6.04771e-08
-1.51607e-06
5.75323e-08
-1.52712e-06
5.49835e-08
-1.53748e-06
5.27556e-08
-1.54722e-06
5.07813e-08
-1.55641e-06
4.90077e-08
-1.56508e-06
4.73888e-08
-1.57324e-06
4.58913e-08
-1.58093e-06
4.44861e-08
-1.58814e-06
4.31541e-08
-1.5949e-06
4.18772e-08
-1.60121e-06
4.06447e-08
-1.60709e-06
3.94446e-08
-1.61254e-06
3.82703e-08
-1.61758e-06
3.71124e-08
-1.62222e-06
3.59664e-08
-1.62648e-06
3.48246e-08
-1.63037e-06
3.36845e-08
-1.63392e-06
3.25404e-08
-1.63713e-06
3.13925e-08
-1.64005e-06
3.02377e-08
-1.64268e-06
2.9078e-08
-1.64507e-06
2.79123e-08
-1.64725e-06
2.67445e-08
-1.64926e-06
2.55744e-08
-1.65113e-06
2.44065e-08
-1.65294e-06
2.32408e-08
-1.65472e-06
2.20825e-08
-1.65654e-06
2.09316e-08
-1.65847e-06
1.9793e-08
-1.66058e-06
1.86666e-08
-1.66293e-06
1.75569e-08
-1.66562e-06
1.64645e-08
-1.66875e-06
1.53918e-08
-1.67239e-06
1.434e-08
-1.67665e-06
1.33043e-08
-1.6816e-06
1.22744e-08
-1.68729e-06
1.12328e-08
-1.69375e-06
1.0163e-08
-1.70097e-06
9.04645e-09
-1.70878e-06
7.84351e-09
-1.71664e-06
6.44235e-09
-1.72411e-06
4.89062e-09
-1.73107e-06
3.22302e-09
-1.73741e-06
1.44703e-09
-1.74305e-06
-4.88936e-10
-1.74773e-06
-2.69077e-09
-1.75128e-06
-5.08219e-09
-1.75359e-06
-7.59892e-09
-1.7546e-06
-1.02209e-08
-1.75428e-06
-1.29397e-08
-1.7526e-06
-1.57548e-08
-1.74951e-06
-1.86732e-08
-1.74499e-06
-2.17022e-08
-1.73901e-06
-2.4848e-08
-1.73153e-06
-2.81108e-08
-1.72252e-06
-3.14923e-08
-1.71193e-06
-3.49908e-08
-1.69973e-06
-3.86025e-08
-1.68584e-06
-4.23175e-08
-1.67019e-06
-4.61406e-08
-1.65265e-06
-5.01134e-08
-1.6331e-06
-5.42724e-08
-1.61138e-06
-5.86888e-08
-1.58735e-06
-6.33921e-08
-1.56087e-06
-6.8266e-08
-1.53179e-06
-7.33228e-08
-1.49995e-06
-7.87124e-08
-1.46526e-06
-8.43112e-08
-1.4276e-06
-9.01255e-08
-1.38685e-06
-9.61639e-08
-1.34291e-06
-1.02406e-07
-1.29568e-06
-1.08841e-07
-1.24506e-06
-1.15444e-07
-1.19098e-06
-1.22189e-07
-1.13337e-06
-1.29043e-07
-1.07221e-06
-1.35965e-07
-1.00746e-06
-1.42907e-07
-9.39151e-07
-1.49813e-07
-8.67319e-07
-1.56621e-07
-7.92055e-07
-1.63266e-07
-7.13484e-07
-1.69664e-07
-6.31767e-07
-1.7572e-07
-5.47095e-07
-1.81336e-07
-4.59711e-07
-1.86441e-07
-3.69901e-07
-1.9094e-07
-2.78024e-07
-1.94755e-07
-1.84377e-07
-1.97857e-07
-8.94497e-08
-2.00173e-07
6.36706e-09
-2.01546e-07
1.02413e-07
-2.01434e-07
1.96262e-07
-1.99486e-07
2.85744e-07
-1.95362e-07
3.70748e-07
-1.88365e-07
4.51058e-07
-1.78414e-07
5.25717e-07
-1.65479e-07
5.93621e-07
-1.4971e-07
6.53787e-07
-1.30889e-07
7.05426e-07
-1.08671e-07
7.47743e-07
-8.36662e-08
7.80171e-07
-5.75282e-08
8.02822e-07
-3.24071e-08
8.16393e-07
-1.02618e-08
8.21417e-07
7.55096e-09
8.19616e-07
1.96399e-08
8.13711e-07
2.47432e-08
8.07044e-07
2.22619e-08
8.03729e-07
1.18211e-08
8.08606e-07
-6.71746e-09
8.25929e-07
-3.28273e-08
8.58235e-07
-6.4412e-08
9.07176e-07
-1.00488e-07
9.72518e-07
-1.3785e-07
1.05156e-06
-1.73948e-07
1.13576e-06
-1.95685e-07
1.20852e-06
-1.86268e-07
1.24704e-06
-1.13068e-07
1.23308e-06
2.76403e-08
1.1539e-06
2.20028e-07
1.02927e-06
3.73128e-07
9.03703e-07
4.32742e-07
8.12896e-07
3.73179e-07
2.01058e-07
7.24847e-07
2.7488e-08
-1.63216e-07
3.48889e-08
-1.19116e-07
4.64379e-08
-1.2856e-07
5.87541e-08
-1.06866e-07
7.51747e-08
-1.1172e-07
9.54523e-08
-1.04721e-07
1.19716e-07
-1.07115e-07
1.45481e-07
-1.00979e-07
1.7147e-07
-9.70571e-08
1.95017e-07
-8.77499e-08
2.16556e-07
-8.0877e-08
2.3612e-07
-7.3514e-08
2.54368e-07
-6.82384e-08
2.70591e-07
-6.20637e-08
2.84011e-07
-5.56728e-08
2.93414e-07
-4.7854e-08
2.98828e-07
-4.06301e-08
3.00937e-07
-3.44477e-08
3.00145e-07
-2.91487e-08
2.96363e-07
-2.37594e-08
2.89722e-07
-1.81147e-08
2.80062e-07
-1.10582e-08
2.67088e-07
-1.96177e-09
2.50457e-07
1.04199e-08
2.29069e-07
2.89845e-08
2.01067e-07
5.6354e-08
1.64664e-07
9.11434e-08
1.18752e-07
1.29692e-07
6.31371e-08
1.67785e-07
-1.57813e-09
2.01827e-07
-7.40785e-08
2.29399e-07
-1.52909e-07
2.4919e-07
-2.37771e-07
2.61426e-07
-3.29729e-07
2.68579e-07
-4.28366e-07
2.73924e-07
-5.29715e-07
2.78832e-07
-6.29083e-07
2.82251e-07
-7.22873e-07
2.82809e-07
-8.08859e-07
2.79789e-07
-8.85692e-07
2.7302e-07
-9.52799e-07
2.62693e-07
-1.01035e-06
2.49375e-07
-1.05911e-06
2.33907e-07
-1.10018e-06
2.17201e-07
-1.13466e-06
2.00081e-07
-1.16369e-06
1.83267e-07
-1.18845e-06
1.67302e-07
-1.21007e-06
1.52577e-07
-1.22954e-06
1.39335e-07
-1.24765e-06
1.27672e-07
-1.26503e-06
1.17571e-07
-1.28215e-06
1.08941e-07
-1.29931e-06
1.01646e-07
-1.31673e-06
9.5526e-08
-1.33453e-06
9.04182e-08
-1.35278e-06
8.61637e-08
-1.37149e-06
8.26184e-08
-1.39067e-06
7.96526e-08
-1.41029e-06
7.71547e-08
-1.43033e-06
7.50285e-08
-1.45077e-06
7.3194e-08
-1.47158e-06
7.15833e-08
-1.49271e-06
7.01422e-08
-1.51415e-06
6.88253e-08
-1.53585e-06
6.75976e-08
-1.5578e-06
6.64302e-08
-1.57995e-06
6.53013e-08
-1.60226e-06
6.41927e-08
-1.62471e-06
6.30909e-08
-1.64725e-06
6.19836e-08
-1.66984e-06
6.08616e-08
-1.69244e-06
5.97159e-08
-1.71501e-06
5.85397e-08
-1.73752e-06
5.73257e-08
-1.7599e-06
5.60693e-08
-1.78212e-06
5.47652e-08
-1.80414e-06
5.34109e-08
-1.82591e-06
5.20033e-08
-1.84737e-06
5.05419e-08
-1.86848e-06
4.90252e-08
-1.88919e-06
4.74543e-08
-1.90945e-06
4.58288e-08
-1.92919e-06
4.41504e-08
-1.94837e-06
4.24196e-08
-1.96692e-06
4.06392e-08
-1.9848e-06
3.88106e-08
-2.00195e-06
3.69379e-08
-2.0183e-06
3.50239e-08
-2.03381e-06
3.30728e-08
-2.04843e-06
3.10883e-08
-2.0621e-06
2.90737e-08
-2.07479e-06
2.70319e-08
-2.08645e-06
2.49622e-08
-2.09703e-06
2.2857e-08
-2.1065e-06
2.06984e-08
-2.11479e-06
1.8457e-08
-2.12184e-06
1.60918e-08
-2.12754e-06
1.35453e-08
-2.13185e-06
1.07484e-08
-2.13469e-06
7.7258e-09
-2.13598e-06
4.51662e-09
-2.13568e-06
1.13745e-09
-2.13382e-06
-2.35688e-09
-2.13059e-06
-5.91766e-09
-2.12609e-06
-9.58956e-09
-2.12031e-06
-1.33841e-08
-2.11323e-06
-1.73103e-08
-2.1048e-06
-2.13706e-08
-2.09499e-06
-2.55715e-08
-2.08374e-06
-2.99197e-08
-2.07102e-06
-3.44263e-08
-2.05677e-06
-3.90991e-08
-2.04094e-06
-4.39449e-08
-2.02346e-06
-4.89657e-08
-2.00429e-06
-5.41661e-08
-1.98334e-06
-5.95483e-08
-1.96054e-06
-6.51201e-08
-1.93578e-06
-7.09011e-08
-1.90895e-06
-7.69369e-08
-1.87995e-06
-8.32725e-08
-1.84868e-06
-8.99578e-08
-1.81508e-06
-9.6994e-08
-1.77901e-06
-1.04327e-07
-1.74035e-06
-1.11984e-07
-1.69903e-06
-1.20023e-07
-1.65495e-06
-1.28385e-07
-1.60799e-06
-1.37071e-07
-1.55807e-06
-1.46072e-07
-1.5051e-06
-1.55366e-07
-1.44899e-06
-1.64927e-07
-1.3897e-06
-1.74718e-07
-1.32717e-06
-1.84694e-07
-1.26139e-06
-1.948e-07
-1.19235e-06
-2.04974e-07
-1.1201e-06
-2.15137e-07
-1.04469e-06
-2.25204e-07
-9.66217e-07
-2.35074e-07
-8.84844e-07
-2.44635e-07
-8.00767e-07
-2.53753e-07
-7.14231e-07
-2.62275e-07
-6.25542e-07
-2.70049e-07
-5.35078e-07
-2.76917e-07
-4.43309e-07
-2.82721e-07
-3.5079e-07
-2.8728e-07
-2.58225e-07
-2.9043e-07
-1.66525e-07
-2.91879e-07
-7.6585e-08
-2.91496e-07
1.09732e-08
-2.89001e-07
9.54873e-08
-2.84012e-07
1.7609e-07
-2.75977e-07
2.52005e-07
-2.64296e-07
3.22594e-07
-2.49019e-07
3.87265e-07
-2.30169e-07
4.45393e-07
-2.07855e-07
4.96495e-07
-1.82007e-07
5.40491e-07
-1.52679e-07
5.775e-07
-1.20678e-07
6.07639e-07
-8.76669e-08
6.31064e-07
-5.58263e-08
6.4819e-07
-2.73879e-08
6.60057e-07
-4.319e-09
6.68576e-07
1.11104e-08
6.76034e-07
1.72736e-08
6.84903e-07
1.33803e-08
6.97658e-07
-9.41412e-10
7.16209e-07
-2.52771e-08
7.42372e-07
-5.89941e-08
7.77124e-07
-9.91698e-08
8.19686e-07
-1.43053e-07
8.66965e-07
-1.85138e-07
9.13417e-07
-2.20418e-07
9.51987e-07
-2.34282e-07
9.75325e-07
-2.09608e-07
9.78051e-07
-1.15762e-07
9.5749e-07
4.82714e-08
9.18046e-07
2.59544e-07
8.66502e-07
4.24743e-07
8.03518e-07
4.95716e-07
7.36116e-07
4.40497e-07
2.97561e-07
6.39535e-07
8.14537e-09
-1.71363e-07
7.25568e-09
-1.18229e-07
6.67346e-09
-1.27976e-07
9.03825e-09
-1.09231e-07
7.69755e-09
-1.10378e-07
8.42337e-09
-1.05448e-07
9.19628e-09
-1.07887e-07
1.39657e-08
-1.05749e-07
1.90895e-08
-1.0218e-07
2.52625e-08
-9.39233e-08
3.02526e-08
-8.5866e-08
3.49478e-08
-7.82099e-08
3.83851e-08
-7.16749e-08
4.06126e-08
-6.42919e-08
4.05005e-08
-5.55601e-08
3.82181e-08
-4.55721e-08
3.28859e-08
-3.52975e-08
2.39798e-08
-2.55416e-08
1.03796e-08
-1.55479e-08
-8.19456e-09
-5.18501e-09
-3.21238e-08
5.81516e-09
-6.13731e-08
1.81915e-08
-9.63229e-08
3.29886e-08
-1.37013e-07
5.111e-08
-1.82245e-07
7.42178e-08
-2.29245e-07
1.03354e-07
-2.76097e-07
1.37996e-07
-3.22345e-07
1.75939e-07
-3.68575e-07
2.14015e-07
-4.15762e-07
2.49013e-07
-4.64865e-07
2.78501e-07
-5.1697e-07
3.01294e-07
-5.7312e-07
3.17577e-07
-6.32953e-07
3.28412e-07
-6.93747e-07
3.34718e-07
-7.5162e-07
3.36706e-07
-8.03567e-07
3.34198e-07
-8.48071e-07
3.27314e-07
-8.84838e-07
3.16555e-07
-9.14432e-07
3.02615e-07
-9.38078e-07
2.86338e-07
-9.5735e-07
2.68646e-07
-9.7385e-07
2.50407e-07
-9.88988e-07
2.32337e-07
-1.00386e-06
2.14954e-07
-1.01925e-06
1.98652e-07
-1.03562e-06
1.83681e-07
-1.05322e-06
1.70174e-07
-1.07206e-06
1.58173e-07
-1.09203e-06
1.47645e-07
-1.11297e-06
1.3851e-07
-1.13469e-06
1.30655e-07
-1.15699e-06
1.2395e-07
-1.17972e-06
1.18259e-07
-1.20275e-06
1.13446e-07
-1.22597e-06
1.09384e-07
-1.24931e-06
1.05952e-07
-1.2727e-06
1.03042e-07
-1.2961e-06
1.00558e-07
-1.31949e-06
9.84158e-08
-1.34284e-06
9.6542e-08
-1.36613e-06
9.48738e-08
-1.38934e-06
9.3358e-08
-1.41247e-06
9.19494e-08
-1.43548e-06
9.06108e-08
-1.45836e-06
8.93109e-08
-1.48109e-06
8.80249e-08
-1.50363e-06
8.67327e-08
-1.52596e-06
8.54187e-08
-1.54804e-06
8.40701e-08
-1.56986e-06
8.26771e-08
-1.59137e-06
8.1231e-08
-1.61256e-06
7.9725e-08
-1.63338e-06
7.81528e-08
-1.65382e-06
7.65096e-08
-1.67385e-06
7.47911e-08
-1.69343e-06
7.2995e-08
-1.71255e-06
7.11191e-08
-1.73117e-06
6.91633e-08
-1.74927e-06
6.71275e-08
-1.76683e-06
6.50137e-08
-1.78382e-06
6.28235e-08
-1.80023e-06
6.05598e-08
-1.81604e-06
5.82249e-08
-1.83122e-06
5.58217e-08
-1.84576e-06
5.3353e-08
-1.85964e-06
5.08221e-08
-1.87285e-06
4.82317e-08
-1.88536e-06
4.55842e-08
-1.89714e-06
4.288e-08
-1.90819e-06
4.01201e-08
-1.91845e-06
3.73031e-08
-1.92792e-06
3.44255e-08
-1.93654e-06
3.1478e-08
-1.94428e-06
2.84462e-08
-1.95114e-06
2.53114e-08
-1.9571e-06
2.20498e-08
-1.96217e-06
1.86223e-08
-1.96641e-06
1.49845e-08
-1.96982e-06
1.1133e-08
-1.97238e-06
7.07764e-09
-1.97407e-06
2.82214e-09
-1.97478e-06
-1.64884e-09
-1.97439e-06
-6.31273e-09
-1.9728e-06
-1.11829e-08
-1.96994e-06
-1.62489e-08
-1.96575e-06
-2.15054e-08
-1.96017e-06
-2.69515e-08
-1.95315e-06
-3.25932e-08
-1.94464e-06
-3.84371e-08
-1.93457e-06
-4.4495e-08
-1.92289e-06