/*--------------------------------*- C++ -*----------------------------------*\
| =========                 |                                                 |
| \\      /  F ield         | OpenFOAM: The Open Source CFD Toolbox           |
|  \\    /   O peration     | Version:  v1906                                 |
|   \\  /    A nd           | Web:      www.OpenFOAM.com                      |
|    \\/     M anipulation  |                                                 |
\*---------------------------------------------------------------------------*/
FoamFile
{
    version     2.0;
    format      ascii;
    class       volSymmTensorField;
    location    "1100";
    object      R;
}
// * * * * * * * * * * * * * * * * * * * * * * * * * * * * * * * * * * * * * //

dimensions      [0 2 -2 0 0 0 0];


internalField   nonuniform List<symmTensor> 
12225
(
(1.62918 -0.333427 0 1.36079 0 1.52752)
(1.99604 -0.597711 0 0.915074 0 1.54224)
(2.14976 -0.586213 0 0.685672 0 1.48847)
(2.1628 -0.548289 0 0.594796 0 1.42582)
(2.13001 -0.521062 0 0.549803 0 1.37024)
(2.08412 -0.50133 0 0.521816 0 1.32324)
(2.03688 -0.485868 0 0.501259 0 1.2831)
(1.99279 -0.473135 0 0.484933 0 1.2487)
(1.95162 -0.462091 0 0.471138 0 1.2183)
(1.91569 -0.4527 0 0.459619 0 1.19219)
(1.88105 -0.443979 0 0.449231 0 1.16815)
(1.85369 -0.437375 0 0.44064 0 1.14815)
(1.83172 -0.432192 0 0.433676 0 1.13199)
(1.81436 -0.42793 0 0.427964 0 1.11856)
(1.7981 -0.423998 0 0.422825 0 1.10663)
(1.78669 -0.421547 0 0.419331 0 1.09761)
(1.77308 -0.41753 0 0.414443 0 1.08758)
(1.76769 -0.418337 0 0.413858 0 1.08294)
(1.52372 -0.0379488 0 1.4601 0 1.51677)
(1.5765 -0.14043 0 1.18694 0 1.51213)
(1.5867 -0.190033 0 0.927633 0 1.45696)
(1.57202 -0.209338 0 0.773784 0 1.39906)
(1.54342 -0.218149 0 0.676208 0 1.34283)
(1.51872 -0.22522 0 0.611076 0 1.29757)
(1.49703 -0.231409 0 0.56439 0 1.25992)
(1.47754 -0.236824 0 0.529023 0 1.22736)
(1.46099 -0.2418 0 0.501421 0 1.19986)
(1.44626 -0.246058 0 0.47905 0 1.17527)
(1.43462 -0.250303 0 0.460974 0 1.15513)
(1.42356 -0.253562 0 0.445302 0 1.13562)
(1.4164 -0.257698 0 0.433195 0 1.12143)
(1.40874 -0.259979 0 0.421243 0 1.10525)
(1.40452 -0.264194 0 0.413778 0 1.09608)
(1.39969 -0.265224 0 0.403267 0 1.08182)
(1.39618 -0.269149 0 0.399616 0 1.07633)
(1.39167 -0.268776 0 0.389714 0 1.06227)
(1.51161 -0.00809877 0 1.49388 0 1.51021)
(1.5345 -0.0358581 0 1.38469 0 1.51858)
(1.54641 -0.0615061 0 1.23519 0 1.50561)
(1.54333 -0.0798331 0 1.11804 0 1.48175)
(1.52916 -0.0934317 0 1.02645 0 1.45228)
(1.51228 -0.105308 0 0.953022 0 1.42299)
(1.49498 -0.115968 0 0.893207 0 1.39547)
(1.47791 -0.125583 0 0.843531 0 1.36973)
(1.46201 -0.134402 0 0.801756 0 1.34637)
(1.44714 -0.142346 0 0.766038 0 1.3247)
(1.43386 -0.14982 0 0.735391 0 1.30548)
(1.4215 -0.156395 0 0.708367 0 1.2872)
(1.41065 -0.162863 0 0.685303 0 1.27169)
(1.40116 -0.168232 0 0.663792 0 1.25605)
(1.39145 -0.173839 0 0.646999 0 1.24413)
(1.38669 -0.178116 0 0.627376 0 1.22982)
(1.37235 -0.182547 0 0.619858 0 1.22268)
(1.38654 -0.185475 0 0.590105 0 1.20647)
(1.51151 -0.0060653 0 1.49419 0 1.51108)
(1.52717 -0.0162723 0 1.42188 0 1.52172)
(1.53967 -0.0294661 0 1.31303 0 1.52312)
(1.5428 -0.0418956 0 1.21366 0 1.51508)
(1.53767 -0.0521823 0 1.12991 0 1.5008)
(1.5286 -0.0612517 0 1.05931 0 1.48386)
(1.51769 -0.0694947 0 0.999775 0 1.46619)
(1.50586 -0.0770553 0 0.949134 0 1.44848)
(1.49394 -0.0840874 0 0.905688 0 1.4314)
(1.48222 -0.0905642 0 0.868023 0 1.41499)
(1.47105 -0.0966639 0 0.835206 0 1.39967)
(1.46041 -0.102235 0 0.806204 0 1.385)
(1.45041 -0.107563 0 0.780817 0 1.37167)
(1.4413 -0.112273 0 0.75778 0 1.35872)
(1.43219 -0.116842 0 0.738063 0 1.34741)
(1.42532 -0.12066 0 0.71859 0 1.33581)
(1.41583 -0.124206 0 0.704539 0 1.32684)
(1.41259 -0.127202 0 0.684695 0 1.31593)
(1.50986 -0.0045364 0 1.49823 0 1.50974)
(1.52087 -0.00881598 0 1.44954 0 1.51873)
(1.53212 -0.0148985 0 1.37344 0 1.52447)
(1.53778 -0.0219479 0 1.29856 0 1.52377)
(1.53765 -0.0285679 0 1.23202 0 1.51797)
(1.53394 -0.0348593 0 1.17335 0 1.50918)
(1.5281 -0.0409492 0 1.1218 0 1.4988)
(1.5209 -0.0468068 0 1.07641 0 1.48755)
(1.51298 -0.0524259 0 1.03627 0 1.47604)
(1.50473 -0.0577534 0 1.00057 0 1.46449)
(1.49645 -0.0628333 0 0.968736 0 1.45325)
(1.48825 -0.0675944 0 0.940132 0 1.44226)
(1.48026 -0.0721165 0 0.914463 0 1.43182)
(1.47265 -0.0762443 0 0.891124 0 1.42169)
(1.46518 -0.0800985 0 0.870211 0 1.41229)
(1.45857 -0.0834951 0 0.850624 0 1.40308)
(1.45176 -0.0864581 0 0.833704 0 1.39504)
(1.44681 -0.0892479 0 0.815395 0 1.38673)
(1.50977 -0.00410988 0 1.49855 0 1.50978)
(1.51843 -0.0058386 0 1.46077 0 1.51758)
(1.52821 -0.00836981 0 1.40251 0 1.5245)
(1.53468 -0.0121677 0 1.34205 0 1.52726)
(1.53712 -0.0162186 0 1.28561 0 1.52611)
(1.5366 -0.0203247 0 1.23409 0 1.52224)
(1.53404 -0.0244838 0 1.18757 0 1.51659)
(1.53002 -0.02862 0 1.14575 0 1.50976)
(1.52504 -0.0326795 0 1.10812 0 1.50222)
(1.51946 -0.0366125 0 1.07419 0 1.49429)
(1.51353 -0.040412 0 1.04354 0 1.48623)
(1.50742 -0.0440311 0 1.01574 0 1.47813)
(1.50127 -0.0474724 0 0.99049 0 1.47018)
(1.49521 -0.050662 0 0.967423 0 1.46236)
(1.48922 -0.0536044 0 0.946387 0 1.45487)
(1.4836 -0.0562485 0 0.926878 0 1.44759)
(1.47803 -0.0585637 0 0.909132 0 1.4408)
(1.47311 -0.0608317 0 0.891353 0 1.43404)
(1.50946 -0.00338443 0 1.49937 0 1.50953)
(1.51631 -0.00432624 0 1.46917 0 1.51607)
(1.52446 -0.00507872 0 1.42405 0 1.52271)
(1.5307 -0.00675327 0 1.37569 0 1.52676)
(1.53417 -0.00887099 0 1.32909 0 1.52795)
(1.53534 -0.0112551 0 1.28556 0 1.52689)
(1.53475 -0.0138697 0 1.24545 0 1.52419)
(1.53282 -0.0166242 0 1.20873 0 1.52029)
(1.52991 -0.0194376 0 1.17517 0 1.51558)
(1.52631 -0.0222477 0 1.14447 0 1.51031)
(1.52225 -0.0250176 0 1.11637 0 1.5047)
(1.51787 -0.0277 0 1.09059 0 1.4989)
(1.51331 -0.0302652 0 1.0669 0 1.49302)
(1.50868 -0.0326661 0 1.04506 0 1.48714)
(1.50406 -0.034877 0 1.0249 0 1.48138)
(1.49959 -0.0368878 0 1.00613 0 1.47575)
(1.49529 -0.0386742 0 0.988688 0 1.47039)
(1.49116 -0.0404685 0 0.971865 0 1.46512)
(1.50951 -0.00298698 0 1.49932 0 1.50962)
(1.51528 -0.00359569 0 1.47358 0 1.51536)
(1.5221 -0.00348206 0 1.43716 0 1.52142)
(1.52784 -0.00395875 0 1.39721 0 1.5259)
(1.53169 -0.00489131 0 1.35764 0 1.52834)
(1.53381 -0.00616179 0 1.31982 0 1.529)
(1.53448 -0.00771996 0 1.28433 0 1.52824)
(1.53396 -0.00947597 0 1.25132 0 1.52637)
(1.53252 -0.0113469 0 1.22073 0 1.52367)
(1.5304 -0.0132711 0 1.19243 0 1.52035)
(1.52775 -0.0152039 0 1.16626 0 1.51661)
(1.52474 -0.0171008 0 1.14203 0 1.51257)
(1.52146 -0.0189257 0 1.11958 0 1.50834)
(1.51803 -0.0206438 0 1.09872 0 1.50401)
(1.51453 -0.0222303 0 1.0793 0 1.49966)
(1.51104 -0.0236857 0 1.06114 0 1.49536)
(1.50755 -0.0250295 0 1.04416 0 1.49115)
(1.50392 -0.0263919 0 1.02812 0 1.487)
(1.50947 -0.00244577 0 1.49948 0 1.5096)
(1.51436 -0.003039 0 1.47722 0 1.51462)
(1.52003 -0.00258012 0 1.44729 0 1.51997)
(1.52511 -0.0023488 0 1.41408 0 1.52437)
(1.52891 -0.00246028 0 1.38056 0 1.52733)
(1.53141 -0.00289541 0 1.348 0 1.52891)
(1.53275 -0.00362774 0 1.31701 0 1.52931)
(1.53308 -0.00458682 0 1.28783 0 1.52874)
(1.53261 -0.00569942 0 1.26049 0 1.52739)
(1.53149 -0.00690671 0 1.23495 0 1.52545)
(1.52988 -0.00816113 0 1.2111 0 1.52306)
(1.52788 -0.00941947 0 1.18884 0 1.52034)
(1.52559 -0.0106447 0 1.16805 0 1.51738)
(1.52312 -0.0118085 0 1.14859 0 1.51426)
(1.52053 -0.0128914 0 1.13034 0 1.51107)
(1.51789 -0.0139003 0 1.1132 0 1.50785)
(1.51519 -0.0148487 0 1.09711 0 1.50467)
(1.51217 -0.0158482 0 1.08209 0 1.5015)
(1.5095 -0.00209023 0 1.49945 0 1.50964)
(1.51384 -0.00270267 0 1.47949 0 1.5142)
(1.51863 -0.00212704 0 1.45413 0 1.51896)
(1.52309 -0.00153187 0 1.42595 0 1.52311)
(1.52667 -0.00116707 0 1.39707 0 1.52625)
(1.5293 -0.0010845 0 1.3686 0 1.52834)
(1.53101 -0.00127874 0 1.34113 0 1.52947)
(1.5319 -0.00169672 0 1.31496 0 1.52978)
(1.53209 -0.00227694 0 1.29017 0 1.52941)
(1.5317 -0.00296642 0 1.2668 0 1.52848)
(1.53086 -0.0037204 0 1.24479 0 1.52711)
(1.52964 -0.00449987 0 1.22408 0 1.5254)
(1.52813 -0.00527221 0 1.2046 0 1.52342)
(1.52642 -0.00601491 0 1.18625 0 1.52127)
(1.52454 -0.00671565 0 1.16896 0 1.51899)
(1.52255 -0.00738375 0 1.15266 0 1.51664)
(1.52036 -0.00804973 0 1.13736 0 1.51425)
(1.5178 -0.00876376 0 1.12315 0 1.51183)
(1.50947 -0.00167838 0 1.49956 0 1.50961)
(1.51334 -0.00231478 0 1.48149 0 1.51378)
(1.51742 -0.00176536 0 1.45966 0 1.51798)
(1.52128 -0.00100783 0 1.4355 0 1.5218)
(1.52455 -0.000353113 0 1.41051 0 1.52489)
(1.52711 9.04199e-05 0 1.3856 0 1.52719)
(1.52896 0.000299995 0 1.36132 0 1.52873)
(1.53015 0.000305342 0 1.33795 0 1.52958)
(1.53075 0.000151726 0 1.31562 0 1.52984)
(1.53084 -0.000117023 0 1.29439 0 1.5296)
(1.53053 -0.000461617 0 1.27425 0 1.52896)
(1.52987 -0.00084798 0 1.25518 0 1.52799)
(1.52895 -0.0012483 0 1.23712 0 1.52676)
(1.5278 -0.00164444 0 1.22001 0 1.52533)
(1.52649 -0.00202773 0 1.20382 0 1.52377)
(1.52502 -0.00240639 0 1.18851 0 1.52211)
(1.52333 -0.00279577 0 1.17411 0 1.52038)
(1.5212 -0.00325704 0 1.16078 0 1.5186)
(1.50943 -0.00141369 0 1.49966 0 1.50959)
(1.51301 -0.00205168 0 1.48282 0 1.51349)
(1.5166 -0.00156634 0 1.46336 0 1.51731)
(1.52001 -0.000774285 0 1.44203 0 1.52083)
(1.52298 1.98108e-06 0 1.41986 0 1.5238)
(1.52542 0.000625725 0 1.39759 0 1.52616)
(1.52729 0.00105636 0 1.37567 0 1.5279)
(1.52862 0.00130689 0 1.3544 0 1.52907)
(1.52946 0.00140997 0 1.33392 0 1.52973)
(1.52986 0.00140123 0 1.3143 0 1.52995)
(1.5299 0.00131411 0 1.29558 0 1.5298)
(1.52963 0.00117749 0 1.27773 0 1.52935)
(1.5291 0.0010143 0 1.26074 0 1.52864)
(1.52837 0.000838652 0 1.24459 0 1.52774)
(1.52744 0.000655835 0 1.22924 0 1.52669)
(1.52633 0.000458143 0 1.21469 0 1.52552)
(1.52495 0.00022594 0 1.20101 0 1.52426)
(1.52315 -5.87194e-05 0 1.18832 0 1.52293)
(1.50937 -0.00114031 0 1.49984 0 1.50953)
(1.51269 -0.00174068 0 1.48407 0 1.5132)
(1.51586 -0.00133244 0 1.46653 0 1.51668)
(1.51887 -0.000562285 0 1.44753 0 1.5199)
(1.52155 0.000265251 0 1.42776 0 1.52272)
(1.52382 0.000999833 0 1.40776 0 1.52505)
(1.52564 0.00158654 0 1.38795 0 1.52688)
(1.52703 0.0020228 0 1.36857 0 1.52824)
(1.52801 0.0023286 0 1.34979 0 1.52917)
(1.52861 0.00253068 0 1.33168 0 1.52971)
(1.5289 0.00265586 0 1.31429 0 1.52992)
(1.52891 0.0027277 0 1.29763 0 1.52985)
(1.52869 0.00276463 0 1.2817 0 1.52955)
(1.52826 0.00277809 0 1.26649 0 1.52905)
(1.52764 0.00277211 0 1.25199 0 1.5284)
(1.52682 0.0027434 0 1.23823 0 1.52763)
(1.52573 0.00268377 0 1.22525 0 1.52676)
(1.52422 0.00256456 0 1.2132 0 1.52579)
(1.50928 -0.000911829 0 1.50006 0 1.50944)
(1.51237 -0.00145773 0 1.48522 0 1.51291)
(1.5152 -0.0011342 0 1.46934 0 1.5161)
(1.51784 -0.000431554 0 1.45239 0 1.51904)
(1.52023 0.000380245 0 1.43478 0 1.52167)
(1.5223 0.0011514 0 1.4169 0 1.52392)
(1.52403 0.00181855 0 1.39905 0 1.52578)
(1.52542 0.00236699 0 1.38146 0 1.52727)
(1.52648 0.00280559 0 1.36428 0 1.52839)
(1.52724 0.00315235 0 1.3476 0 1.52919)
(1.52772 0.00342715 0 1.33148 0 1.52969)
(1.52796 0.00364783 0 1.31596 0 1.52995)
(1.52799 0.00382819 0 1.30104 0 1.52999)
(1.52782 0.00397617 0 1.28673 0 1.52985)
(1.52746 0.00409388 0 1.27306 0 1.52956)
(1.52689 0.00417731 0 1.26005 0 1.52914)
(1.52605 0.00421657 0 1.24775 0 1.5286)
(1.52486 0.00422331 0 1.23627 0 1.52798)
(1.50917 -0.000638645 0 1.50035 0 1.50933)
(1.51202 -0.00105066 0 1.48644 0 1.51258)
(1.51454 -0.000785845 0 1.47201 0 1.51549)
(1.51684 -0.00017147 0 1.45688 0 1.51816)
(1.51893 0.000581896 0 1.44122 0 1.52057)
(1.52079 0.0013429 0 1.42526 0 1.52271)
(1.52239 0.0020475 0 1.40924 0 1.52454)
(1.52373 0.00267249 0 1.39334 0 1.52607)
(1.52482 0.00321663 0 1.37771 0 1.52731)
(1.52566 0.00368887 0 1.36243 0 1.52829)
(1.52628 0.00410149 0 1.34757 0 1.52901)
(1.52669 0.00446646 0 1.33317 0 1.52952)
(1.52691 0.00479323 0 1.31927 0 1.52983)
(1.52695 0.00508807 0 1.30589 0 1.52998)
(1.52681 0.00535333 0 1.29306 0 1.52998)
(1.52647 0.00558812 0 1.28081 0 1.52985)
(1.52587 0.00578804 0 1.26919 0 1.52961)
(1.52494 0.00592423 0 1.25831 0 1.52926)
(1.50903 -0.000434828 0 1.50069 0 1.5092)
(1.51167 -0.000719686 0 1.48757 0 1.51224)
(1.51393 -0.000513056 0 1.47428 0 1.51493)
(1.51597 -1.75135e-05 0 1.46058 0 1.51738)
(1.51782 0.00061601 0 1.4465 0 1.5196)
(1.51948 0.00128397 0 1.43214 0 1.5216)
(1.52094 0.00192957 0 1.41767 0 1.52337)
(1.52221 0.00252719 0 1.40322 0 1.5249)
(1.52328 0.00306936 0 1.38892 0 1.5262)
(1.52416 0.00355803 0 1.37486 0 1.52728)
(1.52485 0.003999 0 1.36111 0 1.52815)
(1.52537 0.00439855 0 1.34772 0 1.52884)
(1.52573 0.00476178 0 1.33472 0 1.52935)
(1.52592 0.00509168 0 1.32217 0 1.5297)
(1.52595 0.0053894 0 1.31008 0 1.52993)
(1.52579 0.00565571 0 1.2985 0 1.53002)
(1.52542 0.00589105 0 1.28747 0 1.53002)
(1.52478 0.006122 0 1.27705 0 1.52991)
(1.50889 -0.000166426 0 1.50104 0 1.50905)
(1.51133 -0.000213918 0 1.4886 0 1.51191)
(1.5134 2.27452e-05 0 1.47619 0 1.51442)
(1.51523 0.000448739 0 1.46357 0 1.51668)
(1.51688 0.000982391 0 1.45066 0 1.51875)
(1.51838 0.00156166 0 1.43751 0 1.52063)
(1.51972 0.0021487 0 1.42422 0 1.52232)
(1.52091 0.00272361 0 1.41091 0 1.52383)
(1.52195 0.00327766 0 1.39765 0 1.52514)
(1.52283 0.00380846 0 1.38456 0 1.52627)
(1.52356 0.00431653 0 1.37169 0 1.52722)
(1.52414 0.00480331 0 1.3591 0 1.52801)
(1.52457 0.0052697 0 1.34684 0 1.52864)
(1.52486 0.00571564 0 1.33496 0 1.52913)
(1.525 0.0061393 0 1.32348 0 1.52949)
(1.52497 0.0065364 0 1.31244 0 1.52974)
(1.52476 0.0069 0 1.30189 0 1.52987)
(1.52434 0.00720219 0 1.29186 0 1.52991)
(1.50877 -3.95098e-06 0 1.50131 0 1.50894)
(1.51109 0.000123745 0 1.4893 0 1.51166)
(1.51306 0.000352441 0 1.47738 0 1.51407)
(1.51479 0.000654475 0 1.46531 0 1.51624)
(1.51636 0.00100615 0 1.45304 0 1.51823)
(1.51778 0.00138714 0 1.44056 0 1.52004)
(1.51906 0.00178318 0 1.42794 0 1.52169)
(1.52021 0.00218498 0 1.41527 0 1.52316)
(1.52123 0.00258661 0 1.40263 0 1.52447)
(1.52211 0.00298432 0 1.3901 0 1.52562)
(1.52286 0.00337563 0 1.37776 0 1.5266)
(1.52348 0.00375872 0 1.36566 0 1.52744)
(1.52397 0.00413224 0 1.35385 0 1.52813)
(1.52434 0.00449552 0 1.34235 0 1.52869)
(1.52457 0.00484856 0 1.33122 0 1.52913)
(1.52466 0.00519443 0 1.32048 0 1.52946)
(1.52461 0.00553677 0 1.31016 0 1.52967)
(1.52437 0.00590036 0 1.30028 0 1.52979)
(1.50879 0.000343526 0 1.50124 0 1.50896)
(1.51114 0.000856902 0 1.48913 0 1.51171)
(1.51314 0.00124017 0 1.47708 0 1.51414)
(1.51491 0.00155643 0 1.46487 0 1.51634)
(1.5165 0.00185623 0 1.45243 0 1.51834)
(1.51793 0.00217234 0 1.43979 0 1.52016)
(1.51922 0.00252276 0 1.42702 0 1.5218)
(1.52037 0.00291457 0 1.41421 0 1.52327)
(1.52137 0.00334773 0 1.40144 0 1.52456)
(1.52223 0.00381814 0 1.3888 0 1.52567)
(1.52295 0.00431949 0 1.37636 0 1.52663)
(1.52353 0.0048444 0 1.36416 0 1.52742)
(1.52399 0.00538486 0 1.35225 0 1.52807)
(1.52432 0.00593237 0 1.34067 0 1.52859)
(1.52454 0.00647766 0 1.32943 0 1.52899)
(1.52465 0.00700968 0 1.31856 0 1.52928)
(1.52467 0.00751525 0 1.30806 0 1.52948)
(1.5246 0.00796901 0 1.29795 0 1.52961)
(1.50904 0.000525445 0 1.50077 0 1.50918)
(1.51171 0.00118578 0 1.48777 0 1.51221)
(1.51401 0.00149923 0 1.47469 0 1.51488)
(1.51609 0.0016237 0 1.46125 0 1.51731)
(1.51797 0.00167634 0 1.44747 0 1.51952)
(1.51967 0.00173177 0 1.43344 0 1.5215)
(1.52119 0.00183082 0 1.41931 0 1.52327)
(1.52253 0.00198991 0 1.40519 0 1.52481)
(1.52368 0.00221062 0 1.3912 0 1.52613)
(1.52464 0.00248641 0 1.37743 0 1.52724)
(1.52544 0.00280678 0 1.36395 0 1.52814)
(1.52607 0.0031595 0 1.35081 0 1.52886)
(1.52654 0.00353224 0 1.33805 0 1.52941)
(1.52686 0.00391343 0 1.3257 0 1.5298)
(1.52704 0.00429428 0 1.31378 0 1.53004)
(1.52708 0.00467007 0 1.3023 0 1.53015)
(1.52698 0.0050452 0 1.2913 0 1.53013)
(1.5267 0.00544687 0 1.28077 0 1.52998)
(1.50921 0.000891436 0 1.5003 0 1.50935)
(1.51222 0.00183809 0 1.48616 0 1.51268)
(1.5149 0.00217649 0 1.47144 0 1.51569)
(1.51738 0.00223616 0 1.45602 0 1.51843)
(1.51963 0.00222008 0 1.44009 0 1.52091)
(1.52163 0.00223897 0 1.42387 0 1.52308)
(1.52336 0.00234555 0 1.40762 0 1.52494)
(1.52482 0.00255502 0 1.39149 0 1.52649)
(1.52601 0.00286239 0 1.37564 0 1.52774)
(1.52695 0.00325426 0 1.36015 0 1.52871)
(1.52765 0.00371501 0 1.3451 0 1.52943)
(1.52814 0.00422991 0 1.33054 0 1.52991)
(1.52843 0.00478672 0 1.31648 0 1.53018)
(1.52853 0.00537691 0 1.30295 0 1.53028)
(1.52848 0.00599528 0 1.28995 0 1.5302)
(1.5283 0.00664001 0 1.27748 0 1.53)
(1.528 0.00730669 0 1.26551 0 1.52968)
(1.52768 0.00797146 0 1.25403 0 1.5293)
(1.50941 0.00115768 0 1.49989 0 1.50953)
(1.5128 0.00221483 0 1.48439 0 1.51318)
(1.51601 0.00246381 0 1.46744 0 1.51659)
(1.51904 0.00241915 0 1.44921 0 1.51973)
(1.52177 0.00233309 0 1.43028 0 1.52249)
(1.52412 0.00232296 0 1.41113 0 1.5248)
(1.52607 0.00244019 0 1.39213 0 1.52666)
(1.52762 0.00269395 0 1.3735 0 1.52808)
(1.52879 0.00307154 0 1.35539 0 1.52909)
(1.52961 0.00355287 0 1.33788 0 1.52975)
(1.53013 0.00411665 0 1.32103 0 1.53008)
(1.53039 0.00474222 0 1.30484 0 1.53014)
(1.53041 0.00541017 0 1.28932 0 1.52997)
(1.53025 0.00610149 0 1.27447 0 1.5296)
(1.52993 0.00679742 0 1.26028 0 1.52907)
(1.52946 0.00747779 0 1.24672 0 1.52839)
(1.52886 0.00812765 0 1.23378 0 1.5276)
(1.52805 0.00876172 0 1.22151 0 1.52665)
(1.50955 0.00172576 0 1.49949 0 1.50966)
(1.51349 0.00299286 0 1.48185 0 1.51378)
(1.51751 0.0032487 0 1.46117 0 1.51783)
(1.52134 0.00331358 0 1.43847 0 1.52151)
(1.52465 0.00346405 0 1.41495 0 1.52457)
(1.52735 0.00377877 0 1.3914 0 1.52693)
(1.52943 0.00427723 0 1.36829 0 1.52861)
(1.5309 0.00494113 0 1.34591 0 1.52968)
(1.53184 0.00573542 0 1.32439 0 1.5302)
(1.53232 0.00662611 0 1.30382 0 1.53025)
(1.5324 0.00758496 0 1.28421 0 1.52992)
(1.53214 0.00858891 0 1.26557 0 1.52926)
(1.53159 0.00961989 0 1.24786 0 1.52832)
(1.5308 0.0106656 0 1.23107 0 1.52716)
(1.5298 0.0117207 0 1.21516 0 1.52581)
(1.52862 0.0127919 0 1.2001 0 1.52431)
(1.52729 0.0138954 0 1.18585 0 1.52268)
(1.52599 0.0150394 0 1.17231 0 1.52104)
(1.50958 0.00209566 0 1.49945 0 1.50966)
(1.51415 0.00346759 0 1.47928 0 1.51426)
(1.51923 0.00387753 0 1.45344 0 1.51902)
(1.52397 0.00429497 0 1.42478 0 1.52313)
(1.5278 0.00489918 0 1.39555 0 1.52616)
(1.53059 0.00569727 0 1.36688 0 1.52809)
(1.53243 0.00669426 0 1.33932 0 1.52903)
(1.53341 0.00786665 0 1.3131 0 1.52914)
(1.53368 0.00917068 0 1.28829 0 1.52856)
(1.53337 0.0105669 0 1.26489 0 1.52743)
(1.53259 0.012025 0 1.24284 0 1.52587)
(1.53144 0.013521 0 1.22207 0 1.52398)
(1.53 0.0150358 0 1.20252 0 1.52183)
(1.52835 0.016554 0 1.1841 0 1.51949)
(1.52655 0.0180605 0 1.16674 0 1.51703)
(1.52467 0.0195298 0 1.15034 0 1.51449)
(1.52279 0.0209195 0 1.13484 0 1.51193)
(1.52073 0.02218 0 1.12025 0 1.50929)
(1.50975 0.00299699 0 1.49898 0 1.5098)
(1.51562 0.00468086 0 1.47378 0 1.51543)
(1.52243 0.00580302 0 1.4388 0 1.52124)
(1.52834 0.0073883 0 1.40038 0 1.52563)
(1.53254 0.009306 0 1.36207 0 1.52817)
(1.53509 0.0113812 0 1.32527 0 1.52904)
(1.53623 0.0135708 0 1.29054 0 1.52855)
(1.5362 0.0158409 0 1.25806 0 1.52698)
(1.53526 0.0181392 0 1.22784 0 1.52458)
(1.53361 0.0204298 0 1.19976 0 1.52157)
(1.53143 0.022693 0 1.17369 0 1.51811)
(1.52886 0.0249145 0 1.14947 0 1.51435)
(1.526 0.0270827 0 1.12695 0 1.51037)
(1.52294 0.0291876 0 1.106 0 1.50626)
(1.51972 0.0312189 0 1.08648 0 1.50206)
(1.51638 0.0331756 0 1.0683 0 1.49782)
(1.51283 0.035073 0 1.05138 0 1.49351)
(1.50936 0.0370003 0 1.03565 0 1.48929)
(1.50955 0.00334766 0 1.4994 0 1.50953)
(1.51696 0.00626213 0 1.46776 0 1.51608)
(1.52589 0.00943371 0 1.4196 0 1.52245)
(1.53253 0.0131575 0 1.36893 0 1.52579)
(1.53611 0.0169778 0 1.32077 0 1.52606)
(1.53711 0.0207033 0 1.27625 0 1.52397)
(1.53618 0.0243849 0 1.23545 0 1.52019)
(1.53384 0.028056 0 1.19815 0 1.51525)
(1.53049 0.0316671 0 1.16408 0 1.50953)
(1.52647 0.0351832 0 1.13291 0 1.50333)
(1.522 0.0385907 0 1.10433 0 1.49685)
(1.51727 0.0418818 0 1.07807 0 1.49026)
(1.51239 0.0450527 0 1.05389 0 1.48364)
(1.50746 0.0481056 0 1.03158 0 1.47709)
(1.50256 0.0510458 0 1.01094 0 1.47065)
(1.49777 0.0538825 0 0.991805 0 1.46438)
(1.49332 0.0566069 0 0.973986 0 1.4584)
(1.4891 0.0590544 0 0.957463 0 1.45271)
(1.51072 0.0049779 0 1.49654 0 1.51053)
(1.52207 0.0113508 0 1.44805 0 1.51932)
(1.5342 0.0199396 0 1.37294 0 1.52521)
(1.54099 0.0285844 0 1.29831 0 1.52509)
(1.54245 0.0362668 0 1.23085 0 1.52026)
(1.54003 0.0428882 0 1.17112 0 1.51235)
(1.53507 0.0487861 0 1.11848 0 1.50257)
(1.52861 0.0542436 0 1.07205 0 1.49182)
(1.52128 0.0592999 0 1.03103 0 1.48065)
(1.51348 0.0640028 0 0.994629 0 1.46943)
(1.50552 0.0684027 0 0.962147 0 1.45836)
(1.49759 0.0725329 0 0.933022 0 1.44759)
(1.48981 0.0764141 0 0.906782 0 1.43718)
(1.48227 0.0800696 0 0.883044 0 1.42721)
(1.47496 0.0835038 0 0.861466 0 1.41764)
(1.468 0.0867301 0 0.84181 0 1.40855)
(1.46092 0.0896961 0 0.823773 0 1.39967)
(1.45401 0.0924859 0 0.807545 0 1.39126)
(1.50985 0.0057933 0 1.49843 0 1.50915)
(1.52695 0.0254821 0 1.42427 0 1.51751)
(1.54205 0.0456297 0 1.31347 0 1.51586)
(1.54569 0.0605973 0 1.21735 0 1.5043)
(1.54105 0.0722081 0 1.13752 0 1.4874)
(1.53135 0.0816204 0 1.0706 0 1.46797)
(1.51923 0.0898464 0 1.01356 0 1.44777)
(1.50655 0.0974269 0 0.964545 0 1.42811)
(1.4938 0.104344 0 0.922113 0 1.40933)
(1.48137 0.110665 0 0.88505 0 1.39158)
(1.46946 0.116468 0 0.852421 0 1.37491)
(1.45822 0.121821 0 0.823494 0 1.35935)
(1.44761 0.126761 0 0.797663 0 1.34478)
(1.43774 0.131344 0 0.774498 0 1.33125)
(1.42851 0.135614 0 0.753538 0 1.31857)
(1.41994 0.139576 0 0.73465 0 1.30683)
(1.41217 0.143431 0 0.717227 0 1.29577)
(1.40584 0.146744 0 0.702058 0 1.28625)
(1.5189 0.0284584 0 1.47294 0 1.51483)
(1.5634 0.112015 0 1.26339 0 1.5187)
(1.58322 0.161041 0 1.03771 0 1.48715)
(1.57567 0.181979 0 0.887055 0 1.44363)
(1.55683 0.192589 0 0.784387 0 1.39973)
(1.53314 0.198881 0 0.711474 0 1.35826)
(1.51043 0.204115 0 0.65731 0 1.32169)
(1.49092 0.209196 0 0.615926 0 1.29073)
(1.47356 0.213992 0 0.583032 0 1.26373)
(1.45811 0.218453 0 0.55617 0 1.23993)
(1.44425 0.222553 0 0.53381 0 1.2187)
(1.43208 0.226353 0 0.514914 0 1.19986)
(1.42111 0.229844 0 0.498684 0 1.18279)
(1.41168 0.233081 0 0.484664 0 1.16764)
(1.40301 0.23608 0 0.472364 0 1.15368)
(1.39579 0.238843 0 0.461576 0 1.14136)
(1.38877 0.241473 0 0.451996 0 1.12973)
(1.38191 0.243682 0 0.443242 0 1.11892)
(1.59274 0.291964 0 1.39581 0 1.52093)
(1.91623 0.578694 0 0.968061 0 1.53309)
(2.06904 0.585626 0 0.732304 0 1.48899)
(2.10353 0.552952 0 0.628163 0 1.43529)
(2.09255 0.525586 0 0.573904 0 1.38571)
(2.06468 0.505446 0 0.540732 0 1.34256)
(2.03082 0.489951 0 0.51767 0 1.30527)
(1.99592 0.477414 0 0.500088 0 1.27294)
(1.96233 0.466894 0 0.485802 0 1.24464)
(1.93085 0.4578 0 0.473747 0 1.21961)
(1.90169 0.449783 0 0.463336 0 1.19727)
(1.87476 0.442621 0 0.454198 0 1.1772)
(1.85002 0.436176 0 0.446092 0 1.15908)
(1.82713 0.430328 0 0.438831 0 1.14259)
(1.80622 0.424993 0 0.432286 0 1.12762)
(1.78662 0.420134 0 0.426368 0 1.11382)
(1.76894 0.41558 0 0.420924 0 1.10132)
(1.75187 0.41136 0 0.416061 0 1.08953)
(0.0081031 0.00289084 0 0.0256801 0 0.0231678)
(0.02132 -0.000444042 0 0.039526 0 0.0503651)
(0.0377523 -0.00213714 0 0.0493835 0 0.0716957)
(0.0496506 -0.00495536 0 0.0517446 0 0.0828382)
(0.0599793 -0.00653782 0 0.0525899 0 0.0910437)
(0.0684837 -0.00773773 0 0.051962 0 0.0965686)
(0.076111 -0.00855349 0 0.0513296 0 0.100968)
(0.0827071 -0.00929843 0 0.0503732 0 0.104249)
(0.0887275 -0.00993347 0 0.0494424 0 0.106967)
(0.0941694 -0.0105246 0 0.048393 0 0.109134)
(0.0992158 -0.0110406 0 0.0473603 0 0.110965)
(0.103848 -0.0115055 0 0.0463101 0 0.112466)
(0.10813 -0.011924 0 0.0452984 0 0.113717)
(0.112054 -0.0123167 0 0.0443031 0 0.114713)
(0.115646 -0.0126879 0 0.0433374 0 0.11548)
(0.118894 -0.0130436 0 0.0423877 0 0.116003)
(0.121774 -0.013387 0 0.041465 0 0.11628)
(0.124291 -0.0137408 0 0.0405677 0 0.11629)
(0.126327 -0.0141202 0 0.0397423 0 0.116084)
(0.128519 -0.0146714 0 0.0386454 0 0.115273)
(0.129502 -0.0150769 0 0.0380348 0 0.114687)
(0.130485 -0.0156987 0 0.0372741 0 0.113741)
(0.131384 -0.0165228 0 0.0363525 0 0.112314)
(0.132394 -0.0175364 0 0.0354206 0 0.110699)
(0.132748 -0.0180549 0 0.0342624 0 0.108491)
(0.131275 -0.0176619 0 0.0327469 0 0.10524)
(0.127696 -0.0166657 0 0.03083 0 0.100589)
(0.121719 -0.0152015 0 0.0285589 0 0.0943728)
(0.113031 -0.0133871 0 0.0259662 0 0.0864443)
(0.101489 -0.0113753 0 0.0230938 0 0.0767952)
(0.08643 -0.00930787 0 0.0198794 0 0.0650537)
(0.071877 -0.0072387 0 0.016556 0 0.0538332)
(0.060896 -0.00515384 0 0.0135022 0 0.0450621)
(0.0534298 -0.00316205 0 0.0110352 0 0.038776)
(0.048689 -0.00152426 0 0.00930455 0 0.0346178)
(0.0453175 -0.000461553 0 0.0082221 0 0.0318619)
(0.0427362 9.75224e-05 0 0.00771756 0 0.0302414)
(0.0418203 0.000428982 0 0.00789956 0 0.0302809)
(0.0447296 0.00104134 0 0.00881837 0 0.0328667)
(0.0509482 0.00219812 0 0.0103381 0 0.0374992)
(0.0588791 0.00370298 0 0.0123399 0 0.0433327)
(0.0682338 0.00539018 0 0.0147134 0 0.0501776)
(0.0790135 0.00715375 0 0.0173875 0 0.0580245)
(0.0914039 0.00894703 0 0.0203037 0 0.0669939)
(0.106026 0.0107498 0 0.0233943 0 0.0774789)
(0.121123 0.012539 0 0.0264223 0 0.0882683)
(0.134645 0.0143099 0 0.0292605 0 0.0979547)
(0.1473 0.0160895 0 0.031977 0 0.106981)
(0.15936 0.0179397 0 0.0345762 0 0.115474)
(0.170595 0.0197279 0 0.0370375 0 0.123367)
(0.181131 0.0214359 0 0.0393755 0 0.130749)
(0.191048 0.0230632 0 0.0415956 0 0.137676)
(0.200425 0.024614 0 0.0437083 0 0.144204)
(0.209324 0.0260948 0 0.0457231 0 0.150379)
(0.217803 0.0275129 0 0.0476509 0 0.156246)
(0.225914 0.0288765 0 0.0495026 0 0.161844)
(0.233707 0.0301937 0 0.0512889 0 0.167212)
(0.241226 0.0314719 0 0.0530205 0 0.172383)
(0.248513 0.0327181 0 0.0547074 0 0.177391)
(0.255606 0.0339384 0 0.0563587 0 0.182264)
(0.262538 0.0351381 0 0.0579826 0 0.187028)
(0.269341 0.0363218 0 0.0595865 0 0.191705)
(0.27604 0.0374931 0 0.0611765 0 0.196316)
(0.282659 0.0386549 0 0.0627583 0 0.200879)
(0.289217 0.0398095 0 0.064336 0 0.205407)
(0.295732 0.0409587 0 0.0659138 0 0.209913)
(0.302217 0.042104 0 0.0674945 0 0.214408)
(0.308684 0.0432464 0 0.0690809 0 0.218901)
(0.315143 0.0443865 0 0.070675 0 0.223398)
(0.321603 0.045525 0 0.0722789 0 0.227907)
(0.328069 0.0466622 0 0.0738938 0 0.232431)
(0.334547 0.0477981 0 0.0755212 0 0.236977)
(0.341042 0.0489329 0 0.0771619 0 0.241546)
(0.347556 0.0500663 0 0.078817 0 0.246142)
(0.35409 0.0511978 0 0.0804868 0 0.250766)
(0.360646 0.0523268 0 0.0821717 0 0.25542)
(0.367223 0.0534527 0 0.0838716 0 0.260104)
(0.373821 0.0545745 0 0.0855867 0 0.264817)
(0.380435 0.055691 0 0.0873165 0 0.269559)
(0.387066 0.056801 0 0.0890606 0 0.274329)
(0.393707 0.0579033 0 0.0908183 0 0.279124)
(0.400356 0.0589966 0 0.092589 0 0.283942)
(0.407006 0.0600792 0 0.0943717 0 0.288781)
(0.413653 0.0611497 0 0.0961656 0 0.293638)
(0.420289 0.0622064 0 0.0979695 0 0.298508)
(0.426908 0.0632478 0 0.0997825 0 0.303388)
(0.4335 0.064272 0 0.101603 0 0.308272)
(0.440056 0.0652772 0 0.10343 0 0.313156)
(0.446566 0.0662609 0 0.105263 0 0.318033)
(0.453017 0.0672205 0 0.107099 0 0.322897)
(0.459395 0.0681529 0 0.108936 0 0.327739)
(0.465687 0.0690557 0 0.110775 0 0.332552)
(0.471875 0.0699255 0 0.112612 0 0.337325)
(0.477943 0.0707575 0 0.114446 0 0.34205)
(0.483877 0.0715463 0 0.116277 0 0.346718)
(0.48966 0.0722869 0 0.118103 0 0.351319)
(0.49528 0.0729771 0 0.119924 0 0.355845)
(0.500728 0.0736162 0 0.121743 0 0.36029)
(0.506025 0.0741986 0 0.123575 0 0.364671)
(0.511251 0.0747563 0 0.125436 0 0.36904)
(0.516417 0.0752984 0 0.127327 0 0.373408)
(0.521526 0.0758152 0 0.129251 0 0.377776)
(0.52657 0.0763062 0 0.131209 0 0.38214)
(0.531538 0.0767643 0 0.133196 0 0.386491)
(0.536414 0.0771897 0 0.135205 0 0.390814)
(0.541182 0.0775819 0 0.137232 0 0.395099)
(0.545821 0.07794 0 0.139273 0 0.399331)
(0.550303 0.0782622 0 0.141324 0 0.403492)
(0.554601 0.0785475 0 0.143382 0 0.407562)
(0.558687 0.0787959 0 0.145444 0 0.411525)
(0.562546 0.0790103 0 0.147509 0 0.415372)
(0.566208 0.07919 0 0.149585 0 0.419129)
(0.569693 0.0793234 0 0.151676 0 0.422817)
(0.572972 0.0794037 0 0.153776 0 0.426419)
(0.576007 0.0794224 0 0.155882 0 0.429919)
(0.578732 0.0793686 0 0.157986 0 0.433289)
(0.581037 0.0792238 0 0.160083 0 0.436491)
(0.582729 0.0789349 0 0.162183 0 0.439463)
(0.583429 0.0783715 0 0.164023 0 0.441756)
(0.583124 0.0774997 0 0.165474 0 0.443304)
(0.581437 0.0755886 0 0.16693 0 0.44459)
(0.579767 0.0736471 0 0.168294 0 0.44574)
(0.578138 0.0717657 0 0.169579 0 0.446797)
(0.57448 0.0688356 0 0.17145 0 0.448104)
(0.571924 0.066259 0 0.17286 0 0.448863)
(0.568654 0.0633981 0 0.174364 0 0.449587)
(0.565294 0.0603518 0 0.17586 0 0.450185)
(0.561679 0.0570923 0 0.177358 0 0.45067)
(0.557914 0.0536257 0 0.178851 0 0.451053)
(0.554003 0.0499455 0 0.180331 0 0.451329)
(0.549986 0.0460506 0 0.181787 0 0.451504)
(0.545898 0.041941 0 0.183208 0 0.451579)
(0.541786 0.0376185 0 0.184582 0 0.451561)
(0.5377 0.0330877 0 0.185896 0 0.451457)
(0.533699 0.0283544 0 0.187136 0 0.451281)
(0.52985 0.0234271 0 0.188289 0 0.451048)
(0.526223 0.0183171 0 0.189341 0 0.450776)
(0.522883 0.0130407 0 0.190274 0 0.450474)
(0.519887 0.00761936 0 0.191071 0 0.450152)
(0.517274 0.0020805 0 0.191706 0 0.449805)
(0.515087 -0.00354278 0 0.192161 0 0.449434)
(0.513365 -0.00921389 0 0.192419 0 0.44904)
(0.512132 -0.0148924 0 0.192466 0 0.448619)
(0.511408 -0.0205361 0 0.192294 0 0.448166)
(0.511178 -0.0261025 0 0.191906 0 0.447665)
(0.511489 -0.0315964 0 0.191341 0 0.447158)
(0.512486 -0.0370769 0 0.190667 0 0.446723)
(0.514443 -0.0430359 0 0.190076 0 0.446635)
(0.518094 -0.0495036 0 0.18919 0 0.447416)
(0.523167 -0.0552296 0 0.187551 0 0.448719)
(0.528372 -0.059758 0 0.185346 0 0.449624)
(0.533275 -0.0634978 0 0.182677 0 0.449874)
(0.538043 -0.0666582 0 0.179372 0 0.449509)
(0.54158 -0.0688731 0 0.176347 0 0.448768)
(0.545451 -0.0708542 0 0.172601 0 0.44748)
(0.547494 -0.0714734 0 0.168405 0 0.445285)
(0.546728 -0.0699103 0 0.16299 0 0.44143)
(0.544533 -0.0677603 0 0.157704 0 0.437046)
(0.541723 -0.0653964 0 0.152933 0 0.432783)
(0.53851 -0.0630361 0 0.148871 0 0.428849)
(0.535666 -0.0608856 0 0.145712 0 0.425825)
(0.533939 -0.0590854 0 0.143762 0 0.424411)
(0.533875 -0.058208 0 0.143422 0 0.424802)