/*--------------------------------*- C++ -*----------------------------------*\
| =========                 |                                                 |
| \\      /  F ield         | OpenFOAM: The Open Source CFD Toolbox           |
|  \\    /   O peration     | Version:  v1906                                 |
|   \\  /    A nd           | Web:      www.OpenFOAM.com                      |
|    \\/     M anipulation  |                                                 |
\*---------------------------------------------------------------------------*/
FoamFile
{
    version     2.0;
    format      ascii;
    class       volVectorField;
    location    "1100";
    object      U;
}
// * * * * * * * * * * * * * * * * * * * * * * * * * * * * * * * * * * * * * //

dimensions      [0 1 -1 0 0 0 0];


internalField   nonuniform List<vector> 
12225
(
(9.79727 -0.10875 0)
(9.50671 -0.356756 0)
(9.2644 -0.48827 0)
(9.066 -0.54082 0)
(8.90306 -0.55945 0)
(8.76198 -0.565127 0)
(8.63586 -0.565564 0)
(8.52262 -0.563543 0)
(8.42091 -0.560144 0)
(8.32929 -0.555942 0)
(8.24676 -0.551033 0)
(8.17121 -0.54543 0)
(8.10236 -0.539611 0)
(8.03995 -0.533843 0)
(7.98467 -0.52833 0)
(7.93761 -0.524461 0)
(7.90033 -0.517056 0)
(7.87873 -0.537425 0)
(10.0492 0.150441 0)
(10.0911 0.259746 0)
(10.0684 0.319244 0)
(10.0256 0.36332 0)
(9.98277 0.39293 0)
(9.93999 0.411571 0)
(9.89719 0.423515 0)
(9.85568 0.431311 0)
(9.81607 0.436152 0)
(9.77813 0.438898 0)
(9.74208 0.440144 0)
(9.70797 0.440336 0)
(9.67592 0.439531 0)
(9.64565 0.437987 0)
(9.61733 0.435217 0)
(9.58997 0.43243 0)
(9.56606 0.424751 0)
(9.5412 0.420373 0)
(10.0166 0.00775749 0)
(10.0499 -0.0105825 0)
(10.0415 -0.0528723 0)
(10.0182 -0.0930546 0)
(9.99672 -0.127466 0)
(9.97705 -0.15584 0)
(9.95822 -0.178161 0)
(9.94049 -0.195548 0)
(9.92389 -0.20934 0)
(9.90823 -0.220542 0)
(9.89331 -0.22967 0)
(9.87939 -0.237193 0)
(9.86632 -0.243507 0)
(9.85451 -0.249266 0)
(9.84338 -0.254596 0)
(9.83369 -0.260895 0)
(9.82483 -0.26734 0)
(9.80901 -0.28308 0)
(10.0096 0.0582917 0)
(10.039 0.0976318 0)
(10.0507 0.115013 0)
(10.0512 0.13408 0)
(10.0493 0.152952 0)
(10.0453 0.169376 0)
(10.0395 0.18336 0)
(10.0327 0.195136 0)
(10.0257 0.204888 0)
(10.0186 0.212916 0)
(10.0115 0.219576 0)
(10.0048 0.225112 0)
(9.99851 0.229607 0)
(9.99285 0.233055 0)
(9.98772 0.235466 0)
(9.98329 0.236484 0)
(9.97934 0.236076 0)
(9.97699 0.23284 0)
(10.0094 0.0199247 0)
(10.0407 0.0291198 0)
(10.0563 0.0219841 0)
(10.0605 0.0109334 0)
(10.0619 -0.00226733 0)
(10.0615 -0.0166899 0)
(10.0599 -0.0306691 0)
(10.0578 -0.0434417 0)
(10.0556 -0.0549872 0)
(10.0533 -0.0654211 0)
(10.0511 -0.0748495 0)
(10.049 -0.0834327 0)
(10.0471 -0.0914056 0)
(10.0455 -0.0990871 0)
(10.0442 -0.106718 0)
(10.0426 -0.114961 0)
(10.0416 -0.123482 0)
(10.0345 -0.13503 0)
(10.0058 0.0332837 0)
(10.0286 0.0619981 0)
(10.0451 0.0730913 0)
(10.0549 0.0811588 0)
(10.0626 0.0886975 0)
(10.0684 0.0957311 0)
(10.0726 0.102587 0)
(10.0757 0.109216 0)
(10.0782 0.115385 0)
(10.0801 0.120986 0)
(10.0818 0.126016 0)
(10.0833 0.130473 0)
(10.0847 0.134313 0)
(10.0862 0.137425 0)
(10.0878 0.139769 0)
(10.0893 0.141077 0)
(10.0905 0.141466 0)
(10.0933 0.140988 0)
(10.0046 0.0159979 0)
(10.0242 0.0297494 0)
(10.0401 0.0320234 0)
(10.0498 0.030181 0)
(10.057 0.025875 0)
(10.0624 0.019705 0)
(10.0663 0.0126877 0)
(10.0694 0.00544449 0)
(10.0721 -0.00178604 0)
(10.0745 -0.00888302 0)
(10.0768 -0.0157785 0)
(10.079 -0.0224865 0)
(10.0811 -0.0290883 0)
(10.0831 -0.035745 0)
(10.0851 -0.0425384 0)
(10.0865 -0.049798 0)
(10.0876 -0.0571289 0)
(10.085 -0.0659785 0)
(10.0032 0.0203235 0)
(10.0185 0.0433393 0)
(10.0328 0.0542672 0)
(10.0435 0.0607295 0)
(10.0529 0.0652794 0)
(10.0609 0.0688225 0)
(10.0677 0.0720754 0)
(10.0737 0.0752821 0)
(10.079 0.0784099 0)
(10.0839 0.0813952 0)
(10.0885 0.0841903 0)
(10.0928 0.0867344 0)
(10.0969 0.0889563 0)
(10.1008 0.0907533 0)
(10.1046 0.09208 0)
(10.1081 0.0928309 0)
(10.1113 0.0930393 0)
(10.1157 0.0933555 0)
(10.0019 0.0115318 0)
(10.0136 0.0247648 0)
(10.0264 0.0300641 0)
(10.0365 0.0315659 0)
(10.0451 0.0306925 0)
(10.0523 0.0281203 0)
(10.0583 0.0245566 0)
(10.0635 0.0204264 0)
(10.0682 0.0159386 0)
(10.0724 0.0112211 0)
(10.0764 0.00635423 0)
(10.0802 0.00136066 0)
(10.0837 -0.00377276 0)
(10.087 -0.00910911 0)
(10.0901 -0.0146525 0)
(10.0925 -0.0205225 0)
(10.0944 -0.02644 0)
(10.0939 -0.0332938 0)
(10.0017 0.0127235 0)
(10.0116 0.0306941 0)
(10.023 0.040957 0)
(10.0329 0.0471856 0)
(10.0422 0.0511156 0)
(10.0505 0.0537148 0)
(10.0579 0.0557013 0)
(10.0647 0.057427 0)
(10.071 0.0590151 0)
(10.0769 0.0605012 0)
(10.0824 0.0618836 0)
(10.0876 0.0631306 0)
(10.0926 0.0642017 0)
(10.0974 0.0650405 0)
(10.1018 0.0656323 0)
(10.1061 0.065967 0)
(10.11 0.0660681 0)
(10.1147 0.0666613 0)
(10.0007 0.00802448 0)
(10.0076 0.0191524 0)
(10.0172 0.0249545 0)
(10.0261 0.0276527 0)
(10.0345 0.0282128 0)
(10.042 0.027269 0)
(10.0487 0.0253585 0)
(10.0548 0.022806 0)
(10.0603 0.0197946 0)
(10.0654 0.0164376 0)
(10.0701 0.0128057 0)
(10.0745 0.00893143 0)
(10.0786 0.00482876 0)
(10.0824 0.000486797 0)
(10.0858 -0.00407257 0)
(10.0887 -0.0088909 0)
(10.091 -0.0137875 0)
(10.0919 -0.0193833 0)
(10.0008 0.00817502 0)
(10.0074 0.0214681 0)
(10.0162 0.0300264 0)
(10.0248 0.0355695 0)
(10.0332 0.039033 0)
(10.0411 0.0411703 0)
(10.0484 0.0425443 0)
(10.0552 0.043487 0)
(10.0616 0.0441747 0)
(10.0676 0.0446979 0)
(10.0733 0.0450988 0)
(10.0786 0.045387 0)
(10.0837 0.0455623 0)
(10.0885 0.0456122 0)
(10.0929 0.0455567 0)
(10.0972 0.0454245 0)
(10.1011 0.0452529 0)
(10.1054 0.0456861 0)
(10.0002 0.00572416 0)
(10.0046 0.0145842 0)
(10.0119 0.0198075 0)
(10.0195 0.022696 0)
(10.0272 0.0237715 0)
(10.0344 0.0235671 0)
(10.0411 0.022478 0)
(10.0474 0.0207622 0)
(10.0532 0.0185803 0)
(10.0586 0.0160327 0)
(10.0636 0.0131829 0)
(10.0683 0.0100676 0)
(10.0727 0.00671019 0)
(10.0767 0.00312562 0)
(10.0803 -0.000668926 0)
(10.0835 -0.00467131 0)
(10.0862 -0.0088143 0)
(10.0882 -0.0136 0)
(10.0005 0.00537457 0)
(10.005 0.0151315 0)
(10.0118 0.0221518 0)
(10.019 0.0271833 0)
(10.0265 0.0306067 0)
(10.0338 0.032936 0)
(10.0408 0.0345636 0)
(10.0475 0.0357573 0)
(10.0538 0.0366887 0)
(10.0598 0.0374615 0)
(10.0655 0.0381376 0)
(10.0709 0.0387502 0)
(10.0759 0.0393237 0)
(10.0807 0.0398722 0)
(10.0852 0.0404311 0)
(10.0894 0.0410516 0)
(10.0932 0.0417344 0)
(10.097 0.0430943 0)
(10.0001 0.00339408 0)
(10.0028 0.00894983 0)
(10.008 0.0123377 0)
(10.0141 0.0141749 0)
(10.0207 0.014687 0)
(10.0274 0.014198 0)
(10.0338 0.0129532 0)
(10.0399 0.0111242 0)
(10.0458 0.00882909 0)
(10.0513 0.0061466 0)
(10.0564 0.00312859 0)
(10.0612 -0.000188367 0)
(10.0657 -0.00378188 0)
(10.0699 -0.00762854 0)
(10.0737 -0.0117216 0)
(10.0771 -0.0160541 0)
(10.0803 -0.0205601 0)
(10.0832 -0.0256823 0)
(10.0002 0.00301572 0)
(10.0031 0.00890076 0)
(10.008 0.0136851 0)
(10.0137 0.0175456 0)
(10.0199 0.0205691 0)
(10.0263 0.022976 0)
(10.0325 0.0249686 0)
(10.0386 0.0267045 0)
(10.0444 0.028302 0)
(10.0499 0.0298439 0)
(10.0551 0.0313879 0)
(10.0599 0.032972 0)
(10.0645 0.0346274 0)
(10.0687 0.0363741 0)
(10.0725 0.0382371 0)
(10.076 0.0402532 0)
(10.0792 0.0423425 0)
(10.0819 0.0450393 0)
(10.0001 0.000995799 0)
(10.0022 0.00245356 0)
(10.0063 0.00291624 0)
(10.0115 0.0025769 0)
(10.0174 0.00150369 0)
(10.0235 -0.000192903 0)
(10.0298 -0.0024169 0)
(10.036 -0.00509976 0)
(10.0421 -0.00819049 0)
(10.0479 -0.0116512 0)
(10.0535 -0.0154543 0)
(10.0589 -0.0195744 0)
(10.064 -0.0239926 0)
(10.0689 -0.02868 0)
(10.0734 -0.0336122 0)
(10.0779 -0.0387637 0)
(10.0819 -0.0440095 0)
(10.0861 -0.0497228 0)
(10 0.000955762 0)
(10.0016 0.00303476 0)
(10.0049 0.00518796 0)
(10.0091 0.00741202 0)
(10.0139 0.00968621 0)
(10.0188 0.0120351 0)
(10.0237 0.0144923 0)
(10.0284 0.017088 0)
(10.0328 0.0198493 0)
(10.0369 0.0227967 0)
(10.0406 0.0259435 0)
(10.0439 0.0292968 0)
(10.0469 0.0328566 0)
(10.0494 0.0366181 0)
(10.0517 0.0405548 0)
(10.0535 0.0446747 0)
(10.0551 0.0488073 0)
(10.0561 0.0534015 0)
(10.0003 -0.00192586 0)
(10.0031 -0.00592152 0)
(10.008 -0.0098848 0)
(10.0139 -0.013794 0)
(10.0205 -0.0177099 0)
(10.0277 -0.0217069 0)
(10.0351 -0.0258598 0)
(10.0426 -0.0302301 0)
(10.0501 -0.0348607 0)
(10.0576 -0.0397771 0)
(10.0649 -0.044991 0)
(10.0722 -0.0505029 0)
(10.0792 -0.0563053 0)
(10.0861 -0.0623829 0)
(10.0927 -0.0687121 0)
(10.0991 -0.0752698 0)
(10.1051 -0.0819607 0)
(10.1109 -0.0889517 0)
(9.99985 -0.00211709 0)
(10.0009 -0.00540109 0)
(10.0038 -0.00729844 0)
(10.0075 -0.00809727 0)
(10.0116 -0.00799436 0)
(10.0156 -0.00714336 0)
(10.0193 -0.00568338 0)
(10.0226 -0.00372436 0)
(10.0255 -0.00134838 0)
(10.0279 0.00138375 0)
(10.0298 0.00443011 0)
(10.0313 0.00776514 0)
(10.0323 0.0113836 0)
(10.0328 0.0152917 0)
(10.0331 0.0195241 0)
(10.0329 0.024115 0)
(10.0328 0.0290903 0)
(10.0322 0.0347137 0)
(10.0006 -0.00471439 0)
(10.005 -0.0136981 0)
(10.0115 -0.0209642 0)
(10.0187 -0.0268252 0)
(10.0263 -0.0316912 0)
(10.0341 -0.0359184 0)
(10.0419 -0.0398102 0)
(10.0495 -0.0435755 0)
(10.057 -0.0473348 0)
(10.0643 -0.0511499 0)
(10.0714 -0.0550492 0)
(10.0784 -0.0590444 0)
(10.0853 -0.0631467 0)
(10.0921 -0.0673752 0)
(10.0988 -0.0717799 0)
(10.1057 -0.0764351 0)
(10.1123 -0.08145 0)
(10.1194 -0.0871805 0)
(9.99993 -0.00475322 0)
(10.0025 -0.0119794 0)
(10.0076 -0.0160528 0)
(10.013 -0.0178907 0)
(10.0181 -0.018037 0)
(10.0227 -0.0168442 0)
(10.0265 -0.014654 0)
(10.0297 -0.0117504 0)
(10.0323 -0.00834378 0)
(10.0344 -0.00459344 0)
(10.0359 -0.000623087 0)
(10.037 0.00347673 0)
(10.0377 0.00764876 0)
(10.0378 0.0118693 0)
(10.0374 0.0161685 0)
(10.0362 0.020635 0)
(10.0346 0.0254481 0)
(10.0314 0.0311607 0)
(10.0012 -0.00958051 0)
(10.0087 -0.0254604 0)
(10.0184 -0.0362412 0)
(10.0277 -0.0440063 0)
(10.0367 -0.0501626 0)
(10.0454 -0.0554634 0)
(10.0536 -0.0604181 0)
(10.0612 -0.0652967 0)
(10.0685 -0.0701741 0)
(10.0753 -0.0750383 0)
(10.0817 -0.0798519 0)
(10.0879 -0.0845713 0)
(10.0938 -0.0891547 0)
(10.0997 -0.0935743 0)
(10.1057 -0.0978357 0)
(10.1122 -0.102007 0)
(10.1191 -0.106288 0)
(10.1282 -0.11135 0)
(10.0009 -0.00810602 0)
(10.0083 -0.0182618 0)
(10.0179 -0.0220383 0)
(10.0253 -0.0220957 0)
(10.0309 -0.0196309 0)
(10.0353 -0.0152141 0)
(10.0385 -0.00953369 0)
(10.0408 -0.00317586 0)
(10.0425 0.003487 0)
(10.0439 0.0102075 0)
(10.0449 0.0168064 0)
(10.0456 0.0231592 0)
(10.046 0.029181 0)
(10.046 0.0348114 0)
(10.0456 0.0400151 0)
(10.0441 0.0448062 0)
(10.0417 0.0493423 0)
(10.0354 0.0544237 0)
(10.0027 -0.0199696 0)
(10.0162 -0.0449077 0)
(10.0301 -0.0584911 0)
(10.0411 -0.0683624 0)
(10.0507 -0.0773387 0)
(10.0593 -0.0859534 0)
(10.0667 -0.0944676 0)
(10.0729 -0.102912 0)
(10.0784 -0.11111 0)
(10.0832 -0.118897 0)
(10.0874 -0.126188 0)
(10.0912 -0.132944 0)
(10.0947 -0.139138 0)
(10.098 -0.144749 0)
(10.1013 -0.149737 0)
(10.1051 -0.154064 0)
(10.1097 -0.157724 0)
(10.1191 -0.16128 0)
(10.0045 -0.0117418 0)
(10.0233 -0.0210134 0)
(10.037 -0.0181434 0)
(10.043 -0.00991063 0)
(10.0456 0.0014319 0)
(10.0467 0.014742 0)
(10.0466 0.0284956 0)
(10.0459 0.0416927 0)
(10.0451 0.053954 0)
(10.0442 0.0651707 0)
(10.0431 0.0753214 0)
(10.042 0.0844331 0)
(10.0407 0.0925577 0)
(10.0393 0.0997437 0)
(10.0378 0.106003 0)
(10.0355 0.111297 0)
(10.0325 0.115554 0)
(10.0234 0.119256 0)
(10.0057 -0.0439055 0)
(10.0279 -0.0818229 0)
(10.0434 -0.101295 0)
(10.051 -0.120683 0)
(10.0557 -0.140556 0)
(10.0584 -0.158907 0)
(10.059 -0.175311 0)
(10.0581 -0.189784 0)
(10.0565 -0.202298 0)
(10.0544 -0.212974 0)
(10.0519 -0.222039 0)
(10.0492 -0.229722 0)
(10.0464 -0.236204 0)
(10.0436 -0.241641 0)
(10.0407 -0.246122 0)
(10.0383 -0.249675 0)
(10.0363 -0.252121 0)
(10.0412 -0.253198 0)
(10.0127 -0.00410222 0)
(10.0433 0.00726715 0)
(10.0436 0.0413034 0)
(10.029 0.0774506 0)
(10.0138 0.11067 0)
(10.0003 0.139444 0)
(9.98757 0.163086 0)
(9.97558 0.182032 0)
(9.96448 0.19723 0)
(9.95404 0.209511 0)
(9.94408 0.21946 0)
(9.93451 0.227505 0)
(9.9253 0.233976 0)
(9.91638 0.239127 0)
(9.90783 0.243119 0)
(9.8992 0.246054 0)
(9.89109 0.247815 0)
(9.876 0.248632 0)
(10.0321 -0.126626 0)
(10.0676 -0.225599 0)
(10.0594 -0.280267 0)
(10.0339 -0.322908 0)
(10.008 -0.35352 0)
(9.98309 -0.374042 0)
(9.95833 -0.388004 0)
(9.93442 -0.397651 0)
(9.91182 -0.404177 0)
(9.8904 -0.408343 0)
(9.86992 -0.410714 0)
(9.85031 -0.411702 0)
(9.8315 -0.4116 0)
(9.81347 -0.410638 0)
(9.79612 -0.408972 0)
(9.77981 -0.406849 0)
(9.76415 -0.404211 0)
(9.75777 -0.400597 0)
(9.86117 0.0769206 0)
(9.66242 0.274092 0)
(9.48807 0.393149 0)
(9.34013 0.447733 0)
(9.21726 0.470351 0)
(9.10928 0.479044 0)
(9.01021 0.481303 0)
(8.91859 0.480307 0)
(8.83391 0.477567 0)
(8.75548 0.473803 0)
(8.68267 0.469354 0)
(8.61504 0.4644 0)
(8.55219 0.459044 0)
(8.49372 0.45337 0)
(8.4392 0.447366 0)
(8.38805 0.441201 0)
(8.33994 0.433956 0)
(8.28885 0.426372 0)
(-0.0367003 -0.111047 -3.18853e-19)
(0.0821754 -0.16451 1.81674e-19)
(0.15694 -0.194481 0)
(0.223367 -0.189158 0)
(0.284238 -0.17973 0)
(0.339352 -0.167892 -8.36983e-20)
(0.387949 -0.158149 0)
(0.432055 -0.1489 0)
(0.472046 -0.141148 0)
(0.508627 -0.134121 0)
(0.541953 -0.128068 6.33261e-20)
(0.572468 -0.122593 0)
(0.600425 -0.117709 0)
(0.626123 -0.113161 0)
(0.649665 -0.108914 0)
(0.671167 -0.104818 5.55537e-20)
(0.690606 -0.100843 0)
(0.708234 -0.0968602 0)
(0.723842 -0.0927372 0)
(0.737693 -0.0883154 0)
(0.749686 -0.0835303 0)
(0.758874 -0.0778185 0)
(0.76469 -0.0706304 0)
(0.765233 -0.0611339 5.23913e-20)
(0.758022 -0.0489461 -5.2674e-20)
(0.74155 -0.0344136 5.33155e-20)
(0.71421 -0.0184415 5.44578e-20)
(0.675263 -0.00261909 0)
(0.624885 0.0113151 0)
(0.565127 0.0221653 -6.23935e-20)
(0.498192 0.0297038 -6.7188e-20)
(0.425263 0.0335556 0)
(0.35008 0.0327697 0)
(0.277775 0.0273569 -9.23825e-20)
(0.212053 0.018997 0)
(0.152458 0.0110555 0)
(0.0946564 0.00777807 1.36691e-19)
(0.0309906 0.00866699 0)
(-0.0408188 0.011727 1.4831e-19)
(-0.11511 0.0161366 2.42608e-19)
(-0.194211 0.0195594 0)
(-0.276662 0.0210806 0)
(-0.360877 0.0205696 0)
(-0.44551 0.0185398 0)
(-0.528433 0.0157876 0)
(-0.608941 0.0128044 1.15159e-19)
(-0.687436 0.00945451 1.07014e-19)
(-0.763315 0.00556008 1.00301e-19)
(-0.835826 0.00121982 0)
(-0.904963 -0.0034934 -8.98905e-20)
(-0.970613 -0.00851789 0)
(-1.03274 -0.0137097 8.23066e-20)
(-1.09148 -0.0189442 7.92552e-20)
(-1.14702 -0.0241306 0)
(-1.19961 -0.0292039 0)
(-1.24952 -0.0341359 0)
(-1.29705 -0.038914 7.01884e-20)
(-1.34246 -0.0435497 0)
(-1.38601 -0.0480594 0)
(-1.42793 -0.0524724 0)
(-1.46843 -0.0568152 0)
(-1.50766 -0.0611206 0)
(-1.54579 -0.065415 0)
(-1.58292 -0.0697282 0)
(-1.61916 -0.0740816 0)
(-1.65458 -0.0784987 -5.84705e-20)
(-1.68924 -0.0829945 0)
(-1.7232 -0.0875861 0)
(-1.75647 -0.0922829 5.57414e-20)
(-1.7891 -0.0970964 5.49055e-20)
(-1.82109 -0.102031 0)
(-1.85245 -0.107095 -5.33243e-20)
(-1.88318 -0.112287 5.25738e-20)
(-1.91327 -0.117613 0)
(-1.94271 -0.123066 -5.11417e-20)
(-1.97149 -0.128648 0)
(-1.99958 -0.13435 0)
(-2.02696 -0.140167 4.91397e-20)
(-2.05358 -0.146086 0)
(-2.07943 -0.152097 -4.78854e-20)
(-2.10445 -0.158186 0)
(-2.12863 -0.164336 4.66837e-20)
(-2.1519 -0.170529 4.60999e-20)
(-2.17424 -0.176747 4.5526e-20)
(-2.19559 -0.182969 8.99224e-20)
(-2.21591 -0.189173 -8.88089e-20)
(-2.23513 -0.195337 0)
(-2.25321 -0.201439 0)
(-2.27009 -0.207455 0)
(-2.28569 -0.213361 -8.44853e-20)
(-2.29997 -0.219131 -8.34303e-20)
(-2.31285 -0.224731 8.23834e-20)
(-2.32426 -0.230123 0)
(-2.33413 -0.23526 -8.03091e-20)
(-2.34239 -0.240081 -7.928e-20)
(-2.34899 -0.244495 -7.82556e-20)
(-2.35386 -0.248373 0)
(-2.35699 -0.251571 0)
(-2.35841 -0.254025 0)
(-2.35888 -0.256096 -7.40603e-20)
(-2.35824 -0.257895 0)
(-2.35653 -0.259467 0)
(-2.35368 -0.260902 7.06262e-20)
(-2.34967 -0.262304 0)
(-2.34449 -0.263758 0)
(-2.33811 -0.265305 6.686e-20)
(-2.3305 -0.266957 0)
(-2.32159 -0.268724 0)
(-2.31133 -0.270609 -6.27074e-20)
(-2.29965 -0.272616 -6.12313e-20)
(-2.28647 -0.274741 0)
(-2.27171 -0.276972 5.81411e-20)
(-2.25529 -0.279293 0)
(-2.23711 -0.281688 -5.4817e-20)
(-2.21709 -0.284136 0)
(-2.19515 -0.286606 -5.12169e-20)
(-2.17125 -0.289054 -4.93013e-20)
(-2.14532 -0.291447 0)
(-2.11736 -0.293789 0)
(-2.0873 -0.296194 0)
(-2.05509 -0.29885 0)
(-2.02064 -0.301724 0)
(-1.98361 -0.304695 0)
(-1.94425 -0.307994 0)
(-1.90243 -0.311439 -3.02963e-20)
(-1.85771 -0.315053 2.7344e-20)
(-1.81028 -0.318889 0)
(-1.75986 -0.32295 0)
(-1.7064 -0.327238 0)
(-1.64977 -0.331763 0)
(-1.58989 -0.336532 1.96556e-20)
(-1.52668 -0.341551 0)
(-1.46005 -0.346829 -2.38945e-21)
(-1.38997 -0.352372 -7.13246e-21)
(-1.3164 -0.358187 0)
(-1.23934 -0.364281 0)
(-1.15883 -0.370665 0)
(-1.07492 -0.377345 5.27795e-20)
(-0.987742 -0.384335 6.65429e-20)
(-0.897432 -0.391643 0)
(-0.804159 -0.399289 9.77838e-20)
(-0.708139 -0.4073 1.15618e-19)
(-0.609634 -0.415717 -1.35225e-19)
(-0.508931 -0.424596 0)
(-0.406413 -0.434015 0)
(-0.302406 -0.443977 -2.07902e-19)
(-0.197263 -0.454154 0)
(-0.0925143 -0.463812 0)
(0.0129116 -0.464036 0)
(0.119868 -0.453356 0)
(0.225804 -0.441614 2.67604e-19)
(0.328117 -0.430962 2.56634e-19)
(0.424586 -0.421596 0)
(0.512725 -0.413199 2.40242e-19)
(0.591484 -0.405673 0)
(0.658137 -0.39819 0)
(0.709488 -0.389788 2.28115e-19)
(0.744388 -0.380832 0)
(0.763393 -0.371407 2.2858e-19)
(0.767049 -0.360072 0)
(0.759076 -0.350547 0)
(0.74372 -0.346398 2.37509e-19)
(0.725208 -0.347951 0)
(0.707647 -0.354241 2.48341e-19)
(0.695892 -0.363118 0)
(0.693119 -0.370011 0)
(0.702554 -0.374365 0)
(0.727988 -0.378448 -2.65561e-19)
(0.772522 -0.382035 0)
(0.838306 -0.38435 2.59565e-19)
(0.927399 -0.385675 0)
(1.03848 -0.385615 0)
(1.16348 -0.3836 0)
(1.27572 -0.376074 0)
(1.32943 -0.331429 0)
(1.25204 -0.24308 0)
(1.05298 -0.160395 0)
(0.717079 -0.107151 -5.54678e-19)
(0.432754 -0.120951 0)
(0.0208868 -0.253111 0)
(-0.0766617 -0.186884 5.35471e-19)
(0.115711 -0.174485 -2.49887e-19)
(0.111175 -0.173339 0)
(0.146662 -0.127632 7.9451e-20)
(0.164225 -0.113435 0)
(0.193052 -0.0881469 3.05002e-20)
(0.216626 -0.0769986 -5.70305e-20)
(0.244477 -0.0624132 -5.37982e-20)
(0.269121 -0.0533936 0)
(0.293488 -0.0428596 -4.90846e-20)
(0.315174 -0.034889 -2.34535e-20)
(0.335463 -0.0268662 0)
(0.354012 -0.0204021 0)
(0.371445 -0.0141156 0)
(0.387593 -0.00855694 0)
(0.402589 -0.00312092 -2.06446e-20)
(0.416403 0.00162912 0)
(0.429428 0.00577027 4.03979e-20)
(0.442026 0.00933763 0)
(0.454408 0.012573 0)
(0.466667 0.016242 -3.99057e-20)
(0.478615 0.0214655 0)
(0.489862 0.0292859 4.02337e-20)
(0.500149 0.0410065 -2.01529e-20)
(0.508849 0.0570434 2.01903e-20)
(0.511599 0.0769186 -2.01322e-20)
(0.503562 0.0999734 -2.0075e-20)
(0.481488 0.124621 0)
(0.444045 0.148426 0)
(0.391615 0.168857 2.01227e-20)
(0.326219 0.184279 -2.05418e-20)
(0.250574 0.193531 0)
(0.167428 0.194503 0)
(0.079193 0.186176 2.18171e-20)
(-0.0135189 0.175108 0)
(-0.111651 0.172024 0)
(-0.213913 0.177392 -2.06235e-20)
(-0.317938 0.186929 0)
(-0.421902 0.196996 1.91106e-20)
(-0.524186 0.205727 -3.61985e-20)
(-0.623168 0.211872 0)
(-0.717045 0.214742 0)
(-0.804709 0.214226 -6.71665e-20)
(-0.885291 0.210749 -6.62086e-20)
(-0.95829 0.205287 -6.55804e-20)
(-1.02338 0.198519 3.28417e-20)
(-1.08049 0.190851 -3.21327e-20)
(-1.1299 0.182661 -9.63554e-20)
(-1.17228 0.174374 6.39862e-20)
(-1.20847 0.166337 3.15451e-20)
(-1.23934 0.158802 0)
(-1.26578 0.151945 -3.10845e-20)
(-1.28861 0.145882 3.12214e-20)
(-1.30852 0.140657 0)
(-1.32611 0.136273 0)
(-1.34186 0.132693 0)
(-1.35615 0.129861 -2.99857e-20)
(-1.36928 0.127704 0)
(-1.38147 0.126152 5.95365e-20)
(-1.39288 0.125128 0)
(-1.40364 0.124567 5.89042e-20)
(-1.41383 0.124408 0)
(-1.42351 0.124601 -5.83624e-20)
(-1.43272 0.125099 0)
(-1.44148 0.125871 5.7889e-20)
(-1.44982 0.126884 -2.89719e-20)
(-1.45774 0.128119 0)
(-1.46525 0.129554 -5.72574e-20)
(-1.47237 0.131176 -2.83881e-20)
(-1.4791 0.132969 -2.82868e-20)
(-1.48545 0.134922 0)
(-1.49143 0.137021 -2.83749e-20)
(-1.49706 0.139257 -2.79745e-20)
(-1.50234 0.141615 0)
(-1.5073 0.144086 2.77506e-20)
(-1.51194 0.146657 -5.55809e-20)
(-1.51628 0.149319 0)
(-1.52035 0.152057 -2.73753e-20)
(-1.52416 0.154861 0)
(-1.52774 0.157712 8.1621e-20)
(-1.53113 0.160598 0)
(-1.53435 0.163499 -8.0685e-20)
(-1.53744 0.166397 -2.66001e-20)
(-1.54046 0.169269 2.68016e-20)
(-1.54344 0.172093 5.32354e-20)
(-1.54645 0.174843 -5.28456e-20)
(-1.54954 0.177495 0)
(-1.55278 0.18002 0)
(-1.55623 0.182393 0)
(-1.55997 0.184581 1.51349e-19)
(-1.56409 0.186556 4.96154e-20)
(-1.56868 0.188286 -4.90539e-20)
(-1.57382 0.189737 0)
(-1.5796 0.190871 -4.88482e-20)
(-1.58608 0.191649 4.72217e-20)
(-1.59331 0.192039 4.65684e-20)
(-1.60128 0.192035 0)
(-1.60993 0.191673 0)
(-1.61918 0.191021 0)
(-1.62802 0.190205 4.3791e-20)
(-1.63649 0.189055 0)
(-1.64442 0.187535 -8.57671e-20)
(-1.65181 0.185619 -1.25628e-19)
(-1.65846 0.183463 8.25039e-20)
(-1.66409 0.181263 0)
(-1.66861 0.179048 4.01907e-20)
(-1.67194 0.176828 0)
(-1.67403 0.174601 7.52743e-20)
(-1.67485 0.172365 -3.74302e-20)
(-1.67437 0.170103 -3.6469e-20)
(-1.67254 0.167804 0)
(-1.66934 0.165456 -1.00188e-19)
(-1.66472 0.163051 6.52331e-20)
(-1.65865 0.160581 3.06521e-20)
(-1.6511 0.15804 0)
(-1.642 0.155426 2.82975e-20)
(-1.63132 0.152749 8.30647e-20)
(-1.61896 0.150014 0)
(-1.60483 0.147195 5.08705e-20)
(-1.58879 0.144323 4.81617e-20)
(-1.57076 0.141401 4.53642e-20)
(-1.55049 0.138383 0)
(-1.52783 0.13534 0)
(-1.50279 0.132373 0)
(-1.47499 0.129208 -1.78043e-20)
(-1.44444 0.125984 -1.37729e-20)
(-1.41099 0.122723 0)
(-1.37451 0.119405 -2.31089e-20)
(-1.33488 0.11605 -1.95154e-20)
(-1.29199 0.112664 0)
(-1.24572 0.109259 -9.22511e-21)
(-1.19598 0.105851 -1.61273e-20)
(-1.14268 0.102454 1.10654e-21)
(-1.08577 0.0990903 2.83864e-21)
(-1.02519 0.0957794 0)
(-0.960926 0.0925489 0)
(-0.89299 0.0894193 0)
(-0.821429 0.0864212 -2.11503e-20)
(-0.746334 0.0835852 1.92648e-20)
(-0.667829 0.0809563 5.46985e-20)
(-0.586069 0.07857 -3.56159e-20)
(-0.501255 0.0764486 3.35966e-20)
(-0.413635 0.0746289 4.55248e-20)
(-0.323498 0.0731312 0)
(-0.23127 0.0719688 0)
(-0.137 0.0710266 -5.3188e-20)
(-0.0417156 0.0702683 0)
(0.0549624 0.0699288 0)
(0.151103 0.0718723 1.32336e-19)
(0.243786 0.0772246 0)
(0.332095 0.0847978 6.54289e-20)
(0.416258 0.0940319 -7.22184e-20)
(0.495558 0.104783 0)
(0.568828 0.116737 6.79197e-20)
(0.634812 0.129931 0)
(0.692881 0.144175 0)
(0.742097 0.158583 -7.37088e-20)
(0.781433 0.172037 1.4357e-19)
(0.810725 0.183012 -7.42157e-20)
(0.830662 0.190227 0)
(0.841256 0.194747 0)
(0.843689 0.19828 7.21316e-20)
(0.840403 0.20048 0)
(0.834428 0.200286 7.48812e-20)
(0.829536 0.196165 0)
(0.830593 0.186081 0)
(0.84284 0.171459 0)
(0.869553 0.154615 8.66444e-20)
(0.913219 0.13594 0)
(0.974724 0.116703 -8.86689e-20)
(1.05332 0.0977256 0)
(1.14307 0.0849304 0)
(1.2341 0.0854675 1.68948e-19)
(1.2969 0.112676 -1.6723e-19)
(1.32041 0.152321 0)
(1.27369 0.204109 0)
(1.16667 0.252512 0)
(1.00867 0.275578 4.87336e-19)
(0.911029 0.266876 0)
(0.795597 0.218961 -3.53395e-19)
(-0.178978 -0.305215 3.33998e-22)
(0.107081 -0.231227 2.74795e-19)
(-0.00437153 -0.246966 0)
(0.071787 -0.207486 -1.1395e-19)
(0.0424646 -0.220462 0)
(0.0849257 -0.204929 0)
(0.0887084 -0.207655 -1.37663e-22)
(0.121742 -0.192858 3.34998e-20)
(0.138643 -0.185078 3.15361e-20)
(0.165297 -0.169843 2.98233e-20)
(0.182563 -0.159286 0)
(0.202601 -0.147313 0)
(0.21836 -0.138991 -2.65053e-20)
(0.234766 -0.13005 -5.13356e-20)
(0.247826 -0.122497 4.98506e-20)
(0.258685 -0.114198 0)
(0.265044 -0.10719 4.75267e-20)
(0.268504 -0.100756 -2.32945e-20)
(0.26911 -0.0954118 0)
(0.267285 -0.0897156 4.56731e-20)
(0.262663 -0.083184 2.26677e-20)
(0.255607 -0.0741794 -4.52991e-20)
(0.245649 -0.0622473 -2.26063e-20)
(0.232609 -0.0450514 0)
(0.215974 -0.0170181 4.52977e-20)
(0.194407 0.027337 4.52124e-20)
(0.166002 0.083994 0)
(0.129353 0.145165 4.50592e-20)
(0.0838306 0.203358 0)
(0.0296333 0.253172 4.5186e-20)
(-0.0324344 0.291633 2.22131e-20)
(-0.100823 0.316876 0)
(-0.174378 0.32885 0)
(-0.253867 0.332385 0)
(-0.340543 0.335123 0)
(-0.432019 0.340754 0)
(-0.523766 0.347293 0)
(-0.611843 0.351481 3.9538e-20)
(-0.693732 0.351226 -5.81291e-20)
(-0.767919 0.345639 0)
(-0.833459 0.334459 0)
(-0.890243 0.318103 0)
(-0.938633 0.297567 -4.43549e-22)
(-0.979606 0.274109 3.69002e-20)
(-1.01421 0.24908 7.40426e-20)
(-1.04335 0.223685 -7.3906e-20)
(-1.06812 0.198853 -3.70359e-20)
(-1.0896 0.175332 3.66398e-20)
(-1.10875 0.153666 2.47092e-22)
(-1.12637 0.134143 3.65892e-20)
(-1.14312 0.116844 0)
(-1.15947 0.101709 3.61613e-20)
(-1.17578 0.0885772 1.58632e-22)
(-1.19228 0.0772265 0)
(-1.20912 0.0674143 0)
(-1.22638 0.0588946 -3.52309e-20)
(-1.24408 0.0514387 0)
(-1.26225 0.0448376 0)
(-1.28087 0.0389115 3.47314e-20)
(-1.29992 0.0335044 6.88527e-20)
(-1.31938 0.0284889 -3.41324e-20)
(-1.33922 0.0237576 0)
(-1.35942 0.0192267 3.38135e-20)
(-1.37994 0.0148273 0)
(-1.40076 0.0105085 3.37787e-20)
(-1.42186 0.00622894 3.33847e-20)
(-1.4432 0.00196005 -6.6765e-20)
(-1.46474 -0.00232221 -3.33876e-20)
(-1.48647 -0.00663319 0)
(-1.50834 -0.0109871 6.59832e-20)
(-1.53032 -0.0153922 0)
(-1.55237 -0.0198572 9.80284e-20)
(-1.57446 -0.0243861 6.51759e-20)
(-1.59655 -0.028984 6.48926e-20)
(-1.61859 -0.0336509 -6.45998e-20)
(-1.64055 -0.0383874 9.62817e-20)
(-1.66238 -0.0431879 0)
(-1.68405 -0.048047 0)
(-1.70551 -0.0529527 -6.33079e-20)
(-1.72671 -0.0578933 -9.42471e-20)
(-1.7476 -0.0628509 0)
(-1.76814 -0.0678084 3.09074e-20)
(-1.78828 -0.0727429 0)
(-1.80796 -0.0776323 -9.18372e-20)
(-1.82714 -0.082449 3.94815e-22)
(-1.84575 -0.0871671 -4.02612e-22)
(-1.86375 -0.0917562 5.99696e-20)
(-1.88107 -0.0961875 0)
(-1.89768 -0.100429 -5.89522e-20)
(-1.91351 -0.104449 4.33174e-22)
(-1.92853 -0.108217 0)
(-1.94268 -0.111703 0)
(-1.95592 -0.114885 0)
(-1.96821 -0.117751 5.56178e-20)
(-1.9795 -0.120304 0)
(-1.98976 -0.122569 0)
(-1.99891 -0.124606 0)
(-2.00686 -0.126496 0)
(-2.01356 -0.128322 0)
(-2.01893 -0.130032 5.21499e-20)
(-2.0229 -0.131513 0)
(-2.0254 -0.132708 5.00838e-20)
(-2.02635 -0.133606 4.92432e-20)
(-2.02595 -0.134539 -4.83475e-20)
(-2.02435 -0.135602 0)
(-2.02154 -0.136769 -4.64337e-20)
(-2.01752 -0.13803 0)
(-2.01225 -0.139373 -4.43654e-20)
(-2.00568 -0.140792 4.3275e-20)
(-1.99777 -0.142281 1.27741e-19)
(-1.98847 -0.143841 0)
(-1.97772 -0.145472 1.20664e-19)
(-1.96547 -0.147172 3.98872e-20)
(-1.95167 -0.148936 0)
(-1.93625 -0.150759 7.31488e-20)
(-1.91914 -0.152637 7.03744e-20)
(-1.90027 -0.154572 -1.00518e-19)
(-1.87953 -0.156581 0)
(-1.85683 -0.158707 -2.99656e-20)
(-1.83203 -0.161002 -2.83605e-20)
(-1.80504 -0.163513 -8.16892e-20)
(-1.77576 -0.166233 0)
(-1.74413 -0.169086 0)
(-1.70997 -0.172119 0)
(-1.67317 -0.175352 -2.12007e-20)
(-1.63368 -0.178738 0)
(-1.59134 -0.182282 0)
(-1.54607 -0.185981 1.34705e-20)
(-1.49775 -0.18982 1.1348e-20)
(-1.4463 -0.193786 0)
(-1.39162 -0.19786 0)
(-1.33367 -0.20202 9.29077e-21)
(-1.27238 -0.206239 0)
(-1.20773 -0.210487 1.63982e-22)
(-1.13973 -0.214728 3.01478e-21)
(-1.06841 -0.218921 0)
(-0.99382 -0.223022 0)
(-0.916079 -0.226986 -1.79331e-20)
(-0.835345 -0.230758 -2.11072e-21)
(-0.751822 -0.234277 -2.13041e-21)
(-0.665765 -0.237482 0)
(-0.577498 -0.240328 -7.82689e-20)
(-0.48743 -0.242766 0)
(-0.396061 -0.244752 0)
(-0.303986 -0.246267 0)
(-0.211969 -0.247191 5.90117e-20)
(-0.121171 -0.247576 0)
(-0.0321265 -0.247661 -1.2968e-19)
(0.054523 -0.247574 -6.9845e-20)
(0.137907 -0.24674 0)
(0.217165 -0.244248 -7.34266e-20)
(0.291623 -0.240015 0)
(0.360613 -0.233923 0)
(0.423553 -0.225913 -2.27367e-19)
(0.479687 -0.21572 1.52175e-19)
(0.528739 -0.202971 0)
(0.570822 -0.187884 1.55074e-19)
(0.605987 -0.171268 -7.97442e-20)
(0.63426 -0.154243 0)
(0.655878 -0.138269 0)
(0.671491 -0.124977 0)
(0.682553 -0.116216 -2.48043e-19)
(0.691306 -0.112658 0)
(0.700296 -0.113736 -8.69972e-20)
(0.712155 -0.118405 0)
(0.729029 -0.126117 0)
(0.753166 -0.137907 0)
(0.786023 -0.153076 0)
(0.82827 -0.1708 0)
(0.877532 -0.189012 0)
(0.930237 -0.205761 -1.89646e-19)
(0.977545 -0.213466 0)
(1.01471 -0.202262 -9.45196e-20)
(1.02965 -0.151431 2.78057e-19)
(1.02426 -0.0548789 0)
(0.98891 0.0645587 0)
(0.950237 0.145236 -1.75313e-19)
(0.880359 0.16705 -1.80296e-19)
(0.824563 0.118545 1.83081e-19)
(0.730866 0.0169036 1.95964e-19)
(-0.235307 -0.325266 -8.13228e-19)
(0.110394 -0.222937 -3.71048e-19)
(-0.0517978 -0.238662 -1.35197e-19)
(0.0467179 -0.194097 -4.86265e-20)
(-0.0191964 -0.195771 0)
(0.0262804 -0.182582 6.58993e-20)
(-0.00676476 -0.18564 -2.93022e-20)
(0.0198938 -0.176135 0)
(0.00715152 -0.167196 -2.47827e-20)
(0.0253027 -0.147193 0)
(0.0208019 -0.131197 4.46824e-20)
(0.0323048 -0.115605 0)
(0.0305438 -0.103686 2.05751e-20)
(0.0374372 -0.0898108 3.98466e-20)
(0.0352607 -0.0739672 -3.87255e-20)
(0.0367343 -0.0545642 0)
(0.0316359 -0.0362155 -3.70054e-20)
(0.0269424 -0.0212724 0)
(0.0159577 -0.00843261 0)
(0.002476 0.00397791 -3.55241e-20)
(-0.0171286 0.0161084 0)
(-0.0404879 0.0299387 -8.33776e-23)
(-0.0694589 0.0469849 0)
(-0.103236 0.0687145 0)
(-0.142545 0.0986261 1.07528e-22)
(-0.184501 0.139148 -3.30405e-20)
(-0.226925 0.18946 -3.27424e-20)
(-0.268699 0.245513 -3.21507e-20)
(-0.310128 0.30155 0)
(-0.352021 0.351977 -6.28388e-20)
(-0.395295 0.392754 0)
(-0.440759 0.422234 -3.08877e-20)
(-0.489577 0.441552 0)
(-0.542462 0.453694 0)
(-0.598022 0.461073 2.99371e-20)
(-0.6527 0.464053 0)
(-0.703098 0.461662 -2.92273e-20)
(-0.747204 0.453331 4.09391e-22)
(-0.784275 0.439241 5.67775e-20)
(-0.814494 0.420018 -5.6649e-20)
(-0.838693 0.396732 0)
(-0.858231 0.370778 0)
(-0.874576 0.343639 -2.81074e-20)
(-0.88915 0.316646 0)
(-0.903083 0.290771 -2.72303e-20)
(-0.917219 0.266772 2.71433e-20)
(-0.932125 0.245132 2.70557e-20)
(-0.948114 0.226071 0)
(-0.965282 0.20961 -2.68629e-20)
(-0.983577 0.195625 -2.67532e-20)
(-1.00286 0.183902 5.36497e-20)
(-1.02297 0.174185 -2.65121e-20)
(-1.04373 0.16621 -2.63857e-20)
(-1.06498 0.159723 0)
(-1.08659 0.15449 0)
(-1.10845 0.150308 2.60145e-20)
(-1.13048 0.146998 0)
(-1.15261 0.144409 0)
(-1.17481 0.142414 -5.13765e-20)
(-1.19705 0.140908 -5.1185e-20)
(-1.2193 0.139801 0)
(-1.24154 0.139021 0)
(-1.26375 0.13851 0)
(-1.28594 0.138217 0)
(-1.30806 0.138105 -5.03894e-20)
(-1.33012 0.138141 5.05725e-20)
(-1.35208 0.138302 5.01199e-20)
(-1.37393 0.138567 1.00306e-19)
(-1.39563 0.138919 0)