# vtk DataFile Version 2.0
track0
ASCII
DATASET POLYDATA
POINTS 11911 double
-0.0205 0.001 1e-05
-0.0204991 0.00100536 1e-05
-0.0204976 0.00101063 1e-05
-0.0204947 0.00101518 1e-05
-0.0204905 0.00101864 1e-05
-0.0204746 0.00102682 1e-05
-0.0201831 0.00105562 1e-05
-0.0203616 0.00128794 1e-05
-0.0204488 0.00141936 1e-05
-0.0201625 0.00144439 1e-05
-0.0201518 0.00173162 1e-05
-0.0202218 0.00184007 1e-05
-0.0200495 0.00193025 1e-05
-0.0200808 0.00212221 1e-05
-0.0201294 0.00229098 1e-05
-0.0200087 0.00238763 1e-05
-0.019991 0.00254124 1e-05
-0.020004 0.00269531 1e-05
-0.0199826 0.00277425 1e-05
-0.0198689 0.00287784 1e-05
-0.0198178 0.00302293 1e-05
-0.0198053 0.00317625 1e-05
-0.0197598 0.00329221 1e-05
-0.0196346 0.00340323 1e-05
-0.0195484 0.00354672 1e-05
-0.0194774 0.0036983 1e-05
-0.0193907 0.0038415 1e-05
-0.0193839 0.00384734 1e-05
-0.0193105 0.00390801 1e-05
-0.0192437 0.00397579 1e-05
-0.0191789 0.00404552 1e-05
-0.0191112 0.00411239 1e-05
-0.0190172 0.00419745 1e-05
-0.0189563 0.00424642 1e-05
-0.0188937 0.0042931 1e-05
-0.0188294 0.00433745 1e-05
-0.0187635 0.00437949 1e-05
-0.0186577 0.00444232 1e-05
-0.0184257 0.00456501 1e-05
-0.0181847 0.00466905 1e-05
-0.0179367 0.00475507 1e-05
-0.0176827 0.00482128 1e-05
-0.0174976 0.00485278 1e-05
-0.0172058 0.00488343 1e-05
-0.0169124 0.0048851 1e-05
-0.0166199 0.00486263 1e-05
-0.0163297 0.00481931 1e-05
-0.0160387 0.00475509 1e-05
-0.0158304 0.00469254 1e-05
-0.0156257 0.00461902 1e-05
-0.0154251 0.00453488 1e-05
-0.0152274 0.00444434 1e-05
-0.0152233 0.00444232 1e-05
-0.0151063 0.00438376 1e-05
-0.014992 0.00431988 1e-05
-0.014881 0.00425062 1e-05
-0.0147723 0.00417771 1e-05
-0.0146381 0.00408175 1e-05
-0.0145778 0.00403487 1e-05
-0.0145184 0.00398691 1e-05
-0.0144599 0.00393787 1e-05
-0.0144023 0.00388773 1e-05
-0.0143567 0.00384734 1e-05
-0.0142326 0.00373631 1e-05
-0.014115 0.00361838 1e-05
-0.0140049 0.00349342 1e-05
-0.0139008 0.00336344 1e-05
-0.0138463 0.00329221 1e-05
-0.0137691 0.00318862 1e-05
-0.0136994 0.00307984 1e-05
-0.0136361 0.00296724 1e-05
-0.0135765 0.00285259 1e-05
-0.0135393 0.00277425 1e-05
-0.0134962 0.0026776 1e-05
-0.0134603 0.00257806 1e-05
-0.0134284 0.00247716 1e-05
-0.013401 0.00237493 1e-05
-0.0133829 0.00229098 1e-05
-0.0133679 0.0022008 1e-05
-0.0133588 0.00210981 1e-05
-0.0133551 0.00201845 1e-05
-0.0133573 0.00192704 1e-05
-0.0133658 0.00184007 1e-05
-0.0133805 0.00175593 1e-05
-0.013403 0.00167351 1e-05
-0.0134324 0.00159329 1e-05
-0.0134687 0.00151598 1e-05
-0.0135253 0.00141936 1e-05
-0.0135827 0.00134085 1e-05
-0.013651 0.00127163 1e-05
-0.0137251 0.00120866 1e-05
-0.0138037 0.00115145 1e-05
-0.0139975 0.00102682 1e-05
-0.0141256 0.00095764 1e-05
-0.0142604 0.000902702 1e-05
-0.0143985 0.000856549 1e-05
-0.0145373 0.000812428 1e-05
-0.0146381 0.000782055 1e-05
-0.014722 0.000757757 1e-05
-0.0148064 0.000734809 1e-05
-0.014891 0.000713003 1e-05
-0.0149762 0.000693211 1e-05
-0.0151501 0.000660566 1e-05
-0.0153278 0.000638007 1e-05
-0.0155059 0.000618858 1e-05
-0.0156843 0.000602365 1e-05
-0.0158629 0.000587864 1e-05
-0.0160387 0.000568177 1e-05
-0.0162831 0.00051831 1e-05
-0.0165314 0.000493582 1e-05
-0.0167806 0.000482541 1e-05
-0.01703 0.000475724 1e-05
-0.0174976 0.00040626 1e-05
-0.0174976 0.00040626 1e-05
-0.0174976 0.00040626 1e-05
-0.0174976 0.00040626 1e-05
-0.0174976 0.00040626 1e-05
-0.0174976 0.00040626 1e-05
-0.0174951 0.000388776 1e-05
-0.0174897 0.000371971 1e-05
-0.017482 0.000356084 1e-05
-0.0174726 0.000341142 1e-05
-0.0174557 0.000318841 1e-05
-0.0173838 0.000255072 1e-05
-0.0172967 0.000214404 1e-05
-0.0172046 0.000186613 1e-05
-0.0171105 0.000167073 1e-05
-0.0160387 4.51295e-06 1e-05
-0.0160286 3.61036e-06 1e-05
-0.0160185 3.14909e-06 1e-05
-0.0160085 2.73019e-06 1e-05
-0.0159984 2.31128e-06 1e-05
-0.0159427 0 1e-05
-0.0205 0.00367778 1e-05
-0.0203955 0.00371169 1e-05
-0.0203044 0.00377321 1e-05
-0.020217 0.00383977 1e-05
-0.0201979 0.00384734 1e-05
-0.0199617 0.00393428 1e-05
-0.0197659 0.00409234 1e-05
-0.01962 0.00429736 1e-05
-0.019475 0.00444232 1e-05
-0.0193834 0.0044961 1e-05
-0.0192961 0.00455653 1e-05
-0.0192131 0.0046227 1e-05
-0.0191276 0.00468575 1e-05
-0.0190172 0.00476115 1e-05
-0.0189139 0.00482492 1e-05
-0.018808 0.00488415 1e-05
-0.0186997 0.00493891 1e-05
-0.0185893 0.00498932 1e-05
-0.0183674 0.00508 1e-05
-0.0181935 0.00513484 1e-05
-0.0180174 0.00518274 1e-05
-0.0178397 0.00522384 1e-05
-0.0176605 0.00525803 1e-05
-0.0174976 0.00528096 1e-05
-0.0172058 0.00530879 1e-05
-0.0169127 0.00531357 1e-05
-0.0166201 0.00529651 1e-05
-0.0163294 0.00525926 1e-05
-0.0160387 0.00520418 1e-05
-0.0159413 0.00517934 1e-05
-0.0158445 0.00515255 1e-05
-0.0157482 0.0051239 1e-05
-0.0156523 0.00509404 1e-05
-0.0156091 0.00508 1e-05
-0.0154149 0.00501562 1e-05
-0.0152241 0.00494174 1e-05
-0.0150374 0.00485801 1e-05
-0.0148551 0.00476517 1e-05
-0.0146381 0.00464483 1e-05
-0.0145724 0.00460433 1e-05
-0.0145073 0.00456296 1e-05
-0.0144428 0.00452071 1e-05
-0.0143788 0.00447768 1e-05
-0.0143267 0.00444232 1e-05
-0.0141532 0.00432332 1e-05
-0.0139862 0.00419532 1e-05
-0.0138269 0.00405782 1e-05
-0.0136723 0.00391509 1e-05
-0.0136018 0.00384734 1e-05
-0.0135401 0.0037869 1e-05
-0.0134806 0.00372434 1e-05
-0.0134226 0.00366036 1e-05
-0.0133655 0.00359559 1e-05
-0.0132934 0.00351145 1e-05
-0.0132574 0.0034676 1e-05
-0.0132217 0.0034234 1e-05
-0.0131866 0.00337883 1e-05
-0.0131519 0.00333389 1e-05
-0.0131202 0.00329221 1e-05
-0.0130421 0.00318862 1e-05
-0.012966 0.0030836 1e-05
-0.0128926 0.00297658 1e-05
-0.0128225 0.00286744 1e-05
-0.0127652 0.00277425 1e-05
-0.0127075 0.0026776 1e-05
-0.0126512 0.00258012 1e-05
-0.0125964 0.00248177 1e-05
-0.0125432 0.00238261 1e-05
-0.0124963 0.00229098 1e-05
-0.0124527 0.0022008 1e-05
-0.0124094 0.00211048 1e-05
-0.0123663 0.00202004 1e-05
-0.0123235 0.00192948 1e-05
-0.0122825 0.00184007 1e-05
-0.0122476 0.00175593 1e-05
-0.0122111 0.00167242 1e-05
-0.0121734 0.00158948 1e-05
-0.0121342 0.00150724 1e-05
-0.0120899 0.00141936 1e-05
-0.0120725 0.00138559 1e-05
-0.0120536 0.00135257 1e-05
-0.0120335 0.00132027 1e-05
-0.0120122 0.00128877 1e-05
-0.0120025 0.0012756 1e-05
-0.0119645 0.00122584 1e-05
-0.0119233 0.00117864 1e-05
-0.011879 0.00113434 1e-05
-0.0118318 0.00109324 1e-05
-0.0117436 0.00102682 1e-05
-0.0116284 0.000953567 1e-05
-0.0115053 0.000894558 1e-05
-0.0113776 0.00084631 1e-05
-0.011247 0.000806499 1e-05
-0.0107632 0.000720225 1e-05
-0.0105252 0.000729207 1e-05
-0.0102871 0.000725477 1e-05
-0.010049 0.000723478 1e-05
-0.00981086 0.000722536 1e-05
-0.00957337 0.000722263 1e-05
-0.00934491 0.000731769 1e-05
-0.00911628 0.000728308 1e-05
-0.00888764 0.000725939 1e-05
-0.00865899 0.00072432 1e-05
-0.00843108 0.000723227 1e-05
-0.00821175 0.00073228 1e-05
-0.00799227 0.00072826 1e-05
-0.00777277 0.000725249 1e-05
-0.00755327 0.000722963 1e-05
-0.00733443 0.000721211 1e-05
-0.00712387 0.000729622 1e-05
-0.00691317 0.000725481 1e-05
-0.00670246 0.000722256 1e-05
-0.00649174 0.00071971 1e-05
-0.0062816 0.000717676 1e-05
-0.00607944 0.000725383 1e-05
-0.00587718 0.000721503 1e-05
-0.0056749 0.00071841 1e-05
-0.00547262 0.000715915 1e-05
-0.00527083 0.000713879 1e-05
-0.00507675 0.00072089 1e-05
-0.00488258 0.000717411 1e-05
-0.0046884 0.000714591 1e-05
-0.00449421 0.000712283 1e-05
-0.00430044 0.000710377 1e-05
-0.00411412 0.000716753 1e-05
-0.00392771 0.00071371 1e-05
-0.0037413 0.000711209 1e-05
-0.00355488 0.000709133 1e-05
-0.00336883 0.000707398 1e-05
-0.00318995 0.000713211 1e-05
-0.00301099 0.000710554 1e-05
-0.00283204 0.000708357 1e-05
-0.00265307 0.000706528 1e-05
-0.00247443 0.000704997 1e-05
-0.0023027 0.00071038 1e-05
-0.0021309 0.000708162 1e-05
-0.00195909 0.000706355 1e-05
-0.00178728 0.00070488 1e-05
-0.00161577 0.00070368 1e-05
-0.0014509 0.000708911 1e-05
-0.00128596 0.000707326 1e-05
-0.00112101 0.000706109 1e-05
-0.000956055 0.000705197 1e-05
-0.000791418 0.00070454 1e-05
-0.000633135 0.000710028 1e-05
-0.00047476 0.000708927 1e-05
-0.000316383 0.000708187 1e-05
-0.000158005 0.000707751 1e-05
0 0.00070757 1e-05
0.000105677 0.000711764 1e-05
0.000211438 0.00071142 1e-05
0.000317198 0.000711159 1e-05
0.000422958 0.000710973 1e-05
0.000528387 0.000710854 1e-05
0.000634886 0.000714918 1e-05
0.000741462 0.000714468 1e-05
0.000848037 0.000713881 1e-05
0.000954611 0.00071317 1e-05
0.00106088 0.000712349 1e-05
0.00116821 0.000715282 1e-05
0.00127557 0.000714348 1e-05
0.00138293 0.000713235 1e-05
0.00149029 0.000711959 1e-05
0.00159752 0.000710535 1e-05
0.00170568 0.000712028 1e-05
0.00181384 0.000710719 1e-05
0.001922 0.000709235 1e-05
0.00203016 0.000707586 1e-05
0.00213833 0.000705786 1e-05
0.00224733 0.000705805 1e-05
0.00235632 0.000704096 1e-05
0.0024653 0.000702214 1e-05
0.00257429 0.000700166 1e-05
0.00268334 0.000697959 1e-05
0.00279319 0.00069649 1e-05
0.00290302 0.000694182 1e-05
0.00301285 0.000691697 1e-05
0.00312268 0.000689041 1e-05
0.00323259 0.000686219 1e-05
0.00323599 0.000686127 1e-05
0.00323939 0.000686035 1e-05
0.00324279 0.000685943 1e-05
0.00324619 0.00068585 1e-05
0.00324948 0.00068576 1e-05
0.00335681 0.000682827 1e-05
0.00346413 0.000679715 1e-05
0.00357144 0.000676429 1e-05
0.00367875 0.000672973 1e-05
0.00378611 0.000669347 1e-05
0.00389767 0.000664684 1e-05
0.00400925 0.000660302 1e-05
0.00412081 0.00065569 1e-05
0.00423237 0.000650852 1e-05
0.00434393 0.000645789 1e-05
0.00445636 0.000639266 1e-05
0.00456882 0.000633251 1e-05
0.00468127 0.000626936 1e-05
0.00479369 0.000620324 1e-05
0.00490609 0.000613319 1e-05
0.0050194 0.000604629 1e-05
0.00513272 0.000596228 1e-05
0.00524604 0.00058769 1e-05
0.00535933 0.000578766 1e-05
0.00547262 0.000568871 1e-05
0.00558681 0.000557621 1e-05
0.00570099 0.000546289 1e-05
0.00581516 0.000534868 1e-05
0.00592927 0.000522864 1e-05
0.00604356 0.000509746 1e-05
0.00615863 0.00049547 1e-05
0.00627366 0.000480855 1e-05
0.00638865 0.000465844 1e-05
0.00650352 0.000450069 1e-05
0.00661893 0.000433325 1e-05
0.00673132 0.000416076 1e-05
0.00684365 0.000398356 1e-05
0.00695585 0.000379884 1e-05
[...]
POINT_DATA 11911
 FIELD attributes 1
U 3 11911 float
1.13289 	6.39879 	0 1.5918 	5.9792 	0 3.06065 	4.65984 	0 4.29076 	3.52869 	0 5.18165 	2.68 	0 7.15427 	0.707026 	0 -4.22425 	5.50063 	0 -5.1869 	7.81014 	0 7.56595 	0.661507 	0 0.173719 	4.6639 	0 -9.05307 	14.0259 	0 5.9324 	3.10453 	0 -2.52893 	15.5146 	0 -6.42288 	22.2973 	0 7.16771 	5.74047 	0 1.97839 	17.2188 	0 -2.25001 	26.6763 	0 4.29518 	15.8451 	0 9.07793 	8.26891 	0 6.22541 	17.6627 	0 2.39181 	29.3708 	0 7.49148 	19.109 	0 11.9527 	10.5949 	0 10.9797 	18.2818 	0 10.8677 	23.205 	0 12.867 	21.2608 	0 16.0856 	13.7007 	0 16.2339 	13.429 	0 16.3945 	16.6231 	0 16.8114 	18.094 	0 17.5803 	17.3545 	0 18.3616 	16.6132 	0 19.4172 	15.6255 	0 20.1844 	15.0409 	0 20.9601 	14.4588 	0 21.7432 	13.8802 	0 22.0894 	13.1153 	0 22.0739 	11.6728 	0 24.2728 	10.4798 	0 26.352 	9.14136 	0 27.0755 	7.05772 	0 27.2298 	4.63259 	0 27.3566 	2.87364 	0 28.0761 	0.159928 	0 28.3402 	-2.17774 	0 28.2687 	-4.22012 	0 27.2034 	-6.00235 	0 25.8093 	-7.75056 	0 25.2033 	-9.05231 	0 24.5677 	-10.3062 	0 23.3662 	-10.6974 	0 22.1547 	-11.0647 	0 22.1293 	-11.0719 	0 21.4984 	-12.0214 	0 20.8707 	-13.0174 	0 20.0283 	-13.4349 	0 19.1142 	-13.6673 	0 17.9602 	-13.9735 	0 17.5277 	-14.1492 	0 17.0941 	-14.3279 	0 16.6592 	-14.5099 	0 16.3302 	-14.4598 	0 16.0834 	-14.3857 	0 14.829 	-14.8717 	0 13.5318 	-15.3595 	0 12.34 	-15.4056 	0 11.4685 	-14.9832 	0 10.9948 	-14.7555 	0 9.66869 	-15.091 	0 8.55396 	-15.2081 	0 7.78084 	-14.9865 	0 6.96742 	-14.6647 	0 6.37581 	-14.2987 	0 5.16155 	-14.297 	0 4.41723 	-13.9601 	0 3.65091 	-13.6333 	0 2.86142 	-13.3185 	0 2.17194 	-12.9765 	0 1.25847 	-12.6184 	0 0.498075 	-12.208 	0 -0.292869 	-11.8117 	0 -1.11476 	-11.4328 	0 -1.93553 	-11.0483 	0 -2.87673 	-10.5509 	0 -3.69012 	-10.0876 	0 -4.53848 	-9.65348 	0 -5.41704 	-9.25344 	0 -6.42631 	-8.79084 	0 -8.01208 	-8.11955 	0 -8.99325 	-7.64036 	0 -9.94409 	-7.23537 	0 -10.7292 	-6.90113 	0 -11.637 	-6.28311 	0 -13.1481 	-5.35686 	0 -14.0346 	-4.69043 	0 -13.1776 	-4.19007 	0 -12.3626 	-3.72544 	0 -11.805 	-3.41631 	0 -12.4059 	-3.37555 	0 -13.0394 	-3.35931 	0 -13.8561 	-3.22111 	0 -15.0432 	-2.82422 	0 -17.5384 	-2.22616 	0 -18.2452 	-1.96137 	0 -19.283 	-1.78275 	0 -20.5778 	-1.67115 	0 -19.9167 	-2.23006 	0 -16.3551 	-3.33663 	0 -24.5273 	-2.44328 	0 -37.161 	-1.64628 	0 -49.5627 	-1.35477 	0 -35.3284 	-5.24804 	0 1.81709 	-13.083 	0 1.81709 	-13.083 	0 1.81709 	-13.083 	0 1.81709 	-13.083 	0 1.81709 	-13.083 	0 1.81709 	-13.083 	0 4.21716 	-13.1204 	0 6.34657 	-13.1069 	0 8.21007 	-13.0525 	0 9.8375 	-12.9665 	0 14.8303 	-13.1445 	0 23.0838 	-10.7766 	0 30.0114 	-9.06238 	0 38.0214 	-7.89218 	0 46.6186 	-7.07056 	0 0.358754 	-0.0322108 	0 1.2044 	-0.0551 	0 1.51274 	-0.0628382 	0 1.31151 	-0.0544792 	0 1.11028 	-0.0461203 	0 0 	0 	0
9.83311 	3.19028 	0 9.65866 	6.52495 	0 10.0789 	7.67347 	0 11.8167 	4.6797 	0 12.0613 	4.44056 	0 12.9633 	10.4644 	0 13.406 	18.8374 	0 15.3407 	15.3352 	0 17.3411 	10.1846 	0 17.8537 	12.3571 	0 18.3306 	14.6013 	0 18.9082 	13.9528 	0 19.5033 	13.314 	0 20.2735 	12.5229 	0 21.1498 	11.8283 	0 22.0499 	11.1508 	0 22.9712 	10.4909 	0 23.0589 	9.42236 	0 23.1876 	7.30968 	0 24.2119 	6.58825 	0 25.2165 	5.83196 	0 26.0675 	4.97409 	0 26.0993 	3.67134 	0 26.1687 	2.49665 	0 26.7792 	0.436555 	0 27.5071 	-1.6035 	0 27.2014 	-3.4854 	0 26.2668 	-4.9769 	0 25.3071 	-6.45644 	0 25.1449 	-6.95666 	0 24.964 	-7.42947 	0 24.5478 	-7.63911 	0 24.1333 	-7.84597 	0 23.9467 	-7.93821 	0 23.3045 	-9.02432 	0 22.7074 	-10.1864 	0 22.0181 	-11.2123 	0 20.8995 	-11.5878 	0 19.5645 	-12.0703 	0 19.2596 	-12.2384 	0 18.9568 	-12.4094 	0 18.6672 	-12.5445 	0 18.4254 	-12.5198 	0 18.229 	-12.5001 	0 17.0712 	-13.0846 	0 15.9058 	-13.7326 	0 14.9725 	-13.8228 	0 14.1208 	-13.5691 	0 13.7255 	-13.4523 	0 13.0611 	-13.7242 	0 12.5272 	-13.817 	0 12.1165 	-13.7408 	0 11.7037 	-13.6686 	0 11.1714 	-13.5811 	0 10.9306 	-13.5612 	0 10.6885 	-13.5428 	0 10.4451 	-13.5261 	0 10.2321 	-13.484 	0 10.0972 	-13.3934 	0 9.61411 	-13.2564 	0 8.94181 	-13.0471 	0 8.25327 	-12.8448 	0 7.70589 	-12.527 	0 7.29347 	-12.2178 	0 6.90806 	-11.9596 	0 6.51658 	-11.705 	0 6.09383 	-11.3438 	0 5.55645 	-10.8742 	0 5.05202 	-10.4474 	0 4.82811 	-10.0612 	0 4.60648 	-9.67403 	0 4.38987 	-9.28514 	0 4.06309 	-8.86597 	0 3.48348 	-8.38479 	0 3.47838 	-7.96671 	0 3.39991 	-7.47523 	0 3.32906 	-6.98295 	0 3.26727 	-6.48987 	0 3.0494 	-5.89006 	0 3.22865 	-5.65224 	0 3.38146 	-5.44382 	0 3.5409 	-5.23726 	0 3.70707 	-5.03297 	0 3.7815 	-4.94619 	0 4.00251 	-4.58833 	0 4.23437 	-4.23676 	0 4.47657 	-3.89337 	0 4.72826 	-3.56005 	0 5.29892 	-3.36974 	0 6.46135 	-3.09751 	0 7.54317 	-2.85012 	0 8.5678 	-2.61232 	0 10.2072 	-1.82009 	0 15.2977 	0.577437 	0 15.3684 	-0.240754 	0 16.1683 	-0.135744 	0 16.9261 	-0.0669496 	0 17.6583 	-0.0202789 	0 18.881 	0.785581 	0 18.7518 	-0.283852 	0 19.2829 	-0.19976 	0 19.7899 	-0.140115 	0 20.2803 	-0.0972526 	0 21.1895 	0.874556 	0 20.9616 	-0.383878 	0 21.3548 	-0.293002 	0 21.727 	-0.226229 	0 22.0842 	-0.17682 	0 22.795 	0.910583 	0 22.5351 	-0.442967 	0 22.8489 	-0.349742 	0 23.1442 	-0.27963 	0 23.426 	-0.226656 	0 24.0114 	0.915383 	0 23.7402 	-0.455418 	0 23.9987 	-0.366939 	0 24.2415 	-0.299066 	0 24.4726 	-0.246823 	0 24.9779 	0.902266 	0 24.698 	-0.442585 	0 24.9144 	-0.361697 	0 25.1178 	-0.298535 	0 25.311 	-0.249087 	0 25.7649 	0.881722 	0 25.4784 	-0.415867 	0 25.6595 	-0.344347 	0 25.8299 	-0.287565 	0 25.9916 	-0.242396 	0 26.4078 	0.858188 	0 26.1138 	-0.387736 	0 26.2653 	-0.322499 	0 26.4074 	-0.269918 	0 26.542 	-0.227471 	0 26.9303 	0.844188 	0 26.6338 	-0.343784 	0 26.7575 	-0.281525 	0 26.8729 	-0.23058 	0 26.9815 	-0.188837 	0 27.346 	0.867687 	0 27.0444 	-0.259915 	0 27.119 	-0.200118 	0 27.1862 	-0.150308 	0 27.2474 	-0.10878 	0 27.5717 	0.95595 	0 27.2632 	-0.189512 	2.70053e-21 27.3108 	-0.127522 	1.1146e-20 27.3516 	-0.0753269 	1.95505e-20 27.3865 	-0.0313538 	2.79207e-20 27.7035 	1.09942 	3.48606e-20 27.4885 	-0.0893917 	7.31322e-20 27.5316 	-0.0678437 	6.46361e-20 27.5733 	-0.0485435 	5.62047e-20 27.6138 	-0.0312512 	4.78311e-20 27.8722 	1.06351 	8.47363e-21 27.738 	-0.116884 	1.53487e-20 27.7521 	-0.152923 	1.37684e-20 27.7681 	-0.185388 	1.21519e-20 27.7859 	-0.21464 	1.0503e-20 27.9317 	0.763367 	3.94467e-21 27.9005 	-0.242657 	2.73366e-21 27.8766 	-0.288952 	1.51712e-20 27.8546 	-0.33116 	2.76354e-20 27.8343 	-0.369636 	4.0124e-20 27.8348 	0.38414 	5.23794e-20 27.8766 	-0.337283 	4.13821e-20 27.8197 	-0.381806 	3.1619e-20 27.764 	-0.423083 	2.1887e-20 27.7093 	-0.461336 	1.21842e-20 27.6018 	0.00475969 	1.23329e-20 27.6622 	-0.433591 	1.54091e-20 27.5827 	-0.476428 	9.25334e-21 27.5037 	-0.516839 	3.0174e-21 27.4254 	-0.554945 	-3.29473e-21 27.281 	-0.364895 	-1.52522e-20 27.2947 	-0.573606 	-1.53051e-20 27.2 	-0.615362 	-1.46712e-20 27.1056 	-0.655374 	-1.40514e-20 27.0113 	-0.693701 	-1.34453e-20 26.9137 	-0.72454 	-1.28934e-20 26.915 	-0.729882 	-1.29419e-20 26.9117 	-0.731255 	-1.29126e-20 26.9085 	-0.732626 	-1.28833e-20 26.9052 	-0.733996 	-1.28539e-20 26.9021 	-0.735322 	-1.28255e-20 26.8 	-0.777006 	-1.24679e-20 26.6976 	-0.817442 	-1.21157e-20 26.5952 	-0.856654 	-1.17686e-20 26.4925 	-0.894668 	-1.14267e-20 26.7943 	-1.11995 	-9.67642e-21 26.2492 	-1.03101 	-6.23926e-21 26.1333 	-1.08018 	-3.39596e-21 26.017 	-1.1283 	-5.37534e-22 25.9002 	-1.17541 	2.33586e-21 26.6278 	-1.54492 	2.18171e-21 25.6351 	-1.37125 	5.47356e-22 25.5075 	-1.43238 	-4.4954e-22 25.3792 	-1.49271 	-1.44894e-21 25.3296 	-1.57862 	-2.21857e-21 26.3559 	-2.02124 	1.58514e-22 25.3169 	-1.87683 	1.05812e-20 24.8508 	-1.87231 	1.54026e-20 24.7075 	-1.94635 	1.71129e-20 25.1314 	-2.19499 	1.17696e-20 25.9113 	-2.55288 	2.10046e-21 25.1157 	-2.49277 	1.03572e-21 24.3209 	-2.43285 	-2.62458e-23 24.2176 	-2.54763 	-1.16465e-21 24.7203 	-2.83744 	-2.7717e-21 25.2304 	-3.12996 	-4.35841e-21 24.6552 	-3.13246 	-1.56985e-20 24.1238 	-3.14944 	-2.56178e-20 23.9679 	-3.29124 	-2.28365e-20 24.043 	-3.48823 	-1.47864e-20 24.2936 	-3.72842 	-2.72179e-21 23.9242 	-3.77434 	-5.19479e-22 23.7315 	-3.90692 	4.39571e-21 23.5434 	-4.04164 	9.34498e-21 23.3602 	-4.17853 	1.43289e-20 23.2381 	-4.27378 	1.77658e-20 23.2214 	-4.28788 	1.80399e-20 23.2047 	-4.302 	1.83135e-20 23.1881 	-4.31615 	1.85866e-20 23.1789 	-4.33155 	1.87503e-20 23.1992 	-4.3519 	1.84787e-20 22.8611 	-4.47322 	1.60071e-20 22.6119 	-4.61034 	1.33839e-20 22.3647 	-4.7497 	1.06564e-20 22.3155 	-4.92768 	5.09991e-21 22.6118 	-5.17467 	-5.43829e-21 21.9434 	-5.24555 	-5.18612e-21 21.2853 	-5.3206 	-5.16373e-21 21.0647 	-5.48315 	-1.11343e-20 21.2536 	-5.72018 	-2.33811e-20 21.5172 	-5.9768 	-3.70816e-20 21.2408 	-6.012 	-4.90552e-20 21.0549 	-6.06618 	-5.23267e-20 20.9998 	-6.14751 	-4.29547e-20 20.947 	-6.22975 	-3.35131e-20 20.9044 	-6.29987 	-2.5492e-20 20.813 	-6.40912 	-1.7281e-20 20.7256 	-6.51998 	-9.03488e-21 20.6421 	-6.63248 	-7.53672e-22 20.6842 	-6.77169 	2.65585e-21 20.8118 	-6.93169 	2.8946e-21 20.3301 	-7.06587 	1.67115e-21 19.8698 	-7.20742 	4.34994e-22 19.7969 	-7.42232 	0 20.1351 	-7.71375 	1.89383e-21 20.5153 	-8.02459 	3.98454e-21 20.3675 	-8.06094 	1.86763e-21 20.2446 	-8.10151 	0 20.293 	-8.16936 	0 20.3426 	-8.23756 	0 20.389 	-8.30035 	0 20.4701 	-8.47878 	0 20.5594 	-8.6598 	0 20.6568 	-8.84337 	0 20.7474 	-9.0145 	2.53371e-20 20.8446 	-9.18898 	5.68178e-20 20.9139 	-9.37918 	4.77212e-20 21.0115 	-9.57393 	3.73427e-20 21.2812 	-9.78285 	1.25158e-20 21.557 	-9.99356 	-1.21937e-20 21.8057 	-10.1811 	-3.39078e-20 21.8332 	-10.2069 	-3.89767e-20 21.8608 	-10.2327 	-4.40457e-20 21.8886 	-10.2585 	-4.91148e-20 21.8636 	-10.2701 	-3.36202e-20 21.83 	-10.2795 	-1.47181e-20 22.2555 	-10.4916 	-3.25619e-20 22.5574 	-10.6827 	-1.07835e-20 22.8298 	-10.8672 	2.98233e-20 22.7236 	-10.9648 	2.88878e-19 22.6257 	-11.0659 	5.50528e-19 22.86 	-11.1423 	6.61253e-19 23.0814 	-11.2163 	7.58926e-19 23.1651 	-11.2665 	7.05169e-19 23.2491 	-11.3169 	6.51408e-19 23.3347 	-11.3682 	5.96746e-19 23.3896 	-11.4178 	6.00029e-19 23.4449 	-11.4677 	6.03389e-19 23.5007 	-11.5177 	6.06826e-19 23.3472 	-11.5074 	4.60293e-19 23.142 	-11.4824 	2.75893e-19 23.5152 	-11.5747 	1.53925e-19 23.8866 	-11.6659 	3.22822e-20 23.9302 	-11.6768 	-9.12434e-22 23.6357 	-11.6155 	0 23.3322 	-11.5533 	0 23.4442 	-11.5574 	0 23.5346 	-11.5571 	-7.24467e-21 23.5233 	-11.5374 	-4.94281e-20 23.5118 	-11.5176 	-9.16025e-20 23.4999 	-11.4973 	-1.34923e-19 23.4568 	-11.4578 	-1.66931e-19 23.4133 	-11.4182 	-1.99005e-19 23.3697 	-11.3784 	-2.31144e-19 23.1054 	-11.2751 	-3.43675e-19 22.7479 	-11.1453 	-4.90188e-19 22.91 	-11.0736 	-1.05138e-18 23.0717 	-11.0003 	-1.61393e-18 22.8465 	-10.8443 	-1.26197e-18 22.5303 	-10.6699 	-7.32676e-19 22.0955 	-10.4754 	-8.6869e-21 22.1374 	-10.4398 	3.922e-19 22.1458 	-10.3999 	6.14298e-19 22.0847 	-10.3514 	4.65025e-19 22.0236 	-10.3028 	3.16042e-19 21.9605 	-10.2526 	1.62355e-19 21.7892 	-10.1173 	-2.8327e-19 21.6179 	-9.98147 	-7.26426e-19 21.4467 	-9.84512 	-1.16704e-18 21.1513 	-9.68416 	-7.54846e-19 20.7567 	-9.50469 	3.53587e-19 20.6635 	-9.32496 	2.00853e-19 20.572 	-9.14364 	4.84558e-20 20.268 	-8.94434 	4.14998e-21 19.7364 	-8.71011 	6.01482e-20 19.2154 	-8.48054 	1.15031e-19 19.143 	-8.3646 	3.82622e-20 18.9916 	-8.25381 	1.56563e-20 18.7612 	-8.14846 	4.68902e-20 18.531 	-8.04307 	7.81212e-20 18.289 	-7.93225 	1.10941e-19 18.1213 	-7.84619 	1.21662e-19 17.9537 	-7.76005 	1.32398e-19 17.7861 	-7.6738 	1.43148e-19 17.59 	-7.5901 	1.65488e-19 17.3473 	-7.51091 	2.0677e-19 17.0184 	-7.35974 	4.42129e-19 16.6295 	-7.19643 	5.77364e-19 16.2084 	-7.02684 	6.59381e-19 15.635 	-6.8864 	3.56978e-19 15.0558 	-6.74823 	4.85241e-20 14.6568 	-6.63546 	-1.2561e-19 14.2145 	-6.52977 	-2.08772e-19 13.7055 	-6.43492 	-1.50886e-19 13.1929 	-6.34325 	-9.19095e-20 12.6404 	-6.24925 	-7.13892e-21 12.6001 	-6.24372 	-8.23237e-21 12.5581 	-6.23623 	-1.0875e-20 12.5142 	-6.22647 	-1.53123e-20 12.4702 	-6.21674 	-1.97482e-20 12.427 	-6.20721 	-2.41037e-20 11.9758 	-6.11355 	-3.32306e-20 11.5221 	-6.02316 	-4.15012e-20 11.0658 	-5.93636 	-4.8826e-20 10.6292 	-5.80242 	-7.87272e-20 10.198 	-5.60046 	-1.39063e-19 9.74431 	-5.47578 	-4.77119e-19 9.28779 	-5.35448 	-8.12733e-19 8.91236 	-5.04641 	-5.55825e-19 8.54464 	-4.69864 	-1.6681e-19 8.16367 	-4.30749 	3.61252e-19 8.0393 	-4.2025 	3.67941e-19 7.9384 	-4.05534 	3.84513e-19 7.86304 	-3.86244 	4.11378e-19 7.78888 	-3.66793 	4.37367e-19 7.70149 	-3.43268 	4.67425e-19 7.55301 	-3.11667 	5.86109e-19 7.40995 	-2.79345 	6.96937e-19 7.27301 	-2.46257 	7.98989e-19 7.15637 	-2.08916 	7.58997e-19 7.10764 	-1.63248 	2.55523e-19 7.08732 	-0.967386 	2.66665e-19 7.07199 	-0.253526 	1.71791e-19 7.08201 	0.471972 	7.65832e-20 7.12909 	1.2244 	1.65929e-20 7.23758 	2.01355 	7.92282e-20 7.38389 	2.61839 	4.61583e-19 7.51038 	3.17068 	2.60913e-19 7.64421 	3.70438 	3.71651e-20 7.76223 	4.13945 	-1.68214e-19 7.82691 	4.40005 	-2.80939e-19 7.8925 	4.65695 	-3.97056e-19 7.95892 	4.91026 	-5.16318e-19 8.02523 	5.1492 	-4.62822e-19 8.09986 	5.40657 	-2.85529e-19 8.30244 	5.98902 	-6.22819e-19 8.50818 	6.55291 	-9.52214e-19 8.7038 	7.04251 	-9.3912e-19 8.88945 	7.45254 	-5.35006e-19 9.11967 	7.9485 	-3.96605e-20 9.15716 	8.01517 	-7.80585e-20 9.19466 	8.08166 	-1.16322e-19 9.22615 	8.13044 	-7.7679e-20 9.2563 	8.17517 	-2.17246e-20 9.28584 	8.21891 	3.31671e-20 9.45054 	8.55647 	3.46952e-19 9.61561 	8.89041 	6.6467e-19 9.77919 	9.18574 	7.93227e-19 9.93916 	9.40366 	5.15013e-19 10.1134 	9.63962 	2.13454e-19 10.1658 	9.70783 	2.10833e-19 10.2181 	9.77594 	2.08239e-19 10.2682 	9.82466 	2.05175e-19 10.3166 	9.85956 	2.01757e-19 10.3647 	9.8943 	1.98344e-19 10.511 	10.0866 	1.15335e-19 10.6573 	10.2783 	3.23357e-20 10.7997 	10.4217 	-4.31705e-20 10.9386 	10.5236 	-1.12186e-19 11.0798 	10.6274 	-1.82337e-19 11.1249 	10.6583 	-2.66664e-19 11.17 	10.6892 	-3.51027e-19 11.2134 	10.7097 	-3.74636e-19 11.2546 	10.7175 	-3.24713e-19 11.2962 	10.7254 	-2.7451e-19 11.4471 	10.8371 	-1.90499e-19 11.5978 	10.949 	-1.06696e-19 11.7315 	11.0123 	-6.89428e-20 11.8557 	11.0494 	-5.64962e-20 11.9776 	11.0863 	-4.47529e-20 12.0013 	11.0918 	-5.93838e-20 12.0251 	11.0973 	-7.40426e-20 12.047 	11.0992 	-7.46616e-20 12.066 	11.0951 	-5.21353e-20 12.085 	11.091 	-2.94629e-20 12.2242 	11.14 	2.87139e-19 12.3632 	11.1893 	6.02136e-19 12.4797 	11.1989 	6.08891e-19 12.5826 	11.1851 	4.31375e-19 12.6874 	11.1667 	2.07775e-19 12.6902 	11.1682 	2.05675e-19 12.693 	11.1697 	2.03575e-19 12.6954 	11.1699 	2.04518e-19 12.6976 	11.1697 	2.06347e-19 12.6997 	11.1695 	2.08174e-19 12.7947 	11.1602 	3.626e-19 12.8896 	11.1512 	5.17578e-19 12.9788 	11.1322 	5.94279e-19 13.0479 	11.0771 	3.92862e-19 13.1204 	11.0197 	1.82824e-19 13.1418 	11.0206 	1.60465e-19 13.1631 	11.0215 	1.38124e-19 13.179 	11.0121 	1.32429e-19 13.1938 	11.0005 	1.30328e-19 13.2084 	10.989 	1.2826e-19 13.2595 	10.9563 	8.26822e-20 13.3107 	10.9238 	3.71524e-20 13.3584 	10.8867 	0 13.3907 	10.8296 	0 13.4245 	10.7702 	0 13.4549 	10.7524 	0 13.4854 	10.7346 	0 13.5059 	10.6994 	0 13.5249 	10.6616 	0 13.5435 	10.6243 	0 13.5627 	10.5953 	0 13.5818 	10.5663 	0 13.5999 	10.5356 	0 13.6115 	10.4953 	0 13.6234 	10.454 	0 13.6555 	10.4027 	0 13.6877 	10.3514 	0 13.7139 	10.2788 	0 13.7391 	10.2023 	0 13.7636 	10.1278 	0 13.7678 	10.1165 	0 13.7719 	10.1051 	0 13.7759 	10.0932 	0 13.7795 	10.0791 	0 13.7831 	10.0648 	0 13.8208 	9.9781 	0 13.8587 	9.89114 	0 13.8955 	9.79008 	0 13.931 	9.67621 	2.67331e-21 13.9692 	9.55199 	6.85046e-21 13.9713 	9.54784 	4.02259e-21 13.9733 	9.54369 	1.19506e-21 13.9754 	9.53887 	-3.24496e-21 13.9774 	9.53356 	-8.86514e-21 13.9794 	9.52826 	-1.44737e-20 14.0247 	9.41435 	-1.84456e-20 14.0702 	9.30028 	-2.14293e-20 14.1151 	9.17829 	-7.65674e-20 14.1591 	9.04556 	-2.03084e-19 14.2083 	8.89741 	-3.4242e-19 14.2121 	8.88911 	-3.68118e-19 14.216 	8.8808 	-3.93793e-19 14.2198 	8.87194 	-3.90941e-19 14.2236 	8.86227 	-3.45529e-19 14.2274 	8.85263 	-3.00268e-19 14.2819 	8.71561 	-1.73984e-19 14.3365 	8.57834 	-4.9505e-20 14.3911 	8.43307 	6.92529e-20 14.445 	8.27955 	1.95265e-19 14.4957 	8.13351 	3.16216e-19 14.4991 	8.12374 	3.4075e-19 14.5025 	8.11396 	3.65289e-19 14.5058 	8.10375 	3.49229e-19 14.5091 	8.09339 	3.18713e-19 14.5125 	8.0829 	2.87871e-19 14.5646 	7.94784 	-1.53921e-19 14.6165 	7.81236 	-5.90787e-19 14.6678 	7.67489 	-8.74086e-19 14.7173 	7.5298 	-4.8002e-19 14.7642 	7.39113 	-1.0311e-19 14.7863 	7.32703 	-2.27716e-19 14.8083 	7.26286 	-3.52699e-19 14.8307 	7.19627 	-2.21226e-19 14.8531 	7.12948 	-7.52677e-20 14.8774 	7.05663 	8.26251e-20 14.9075 	6.97484 	3.63866e-19 14.9376 	6.89293 	6.42273e-19 14.9675 	6.8109 	9.17832e-19 14.9941 	6.72453 	6.12614e-19 15.0197 	6.6398 	2.63415e-19 15.0743 	6.49231 	-9.78939e-20 15.1286 	6.34455 	-4.60912e-19 15.1804 	6.18832 	-4.36731e-19 15.2307 	6.03027 	-3.48517e-19 15.2745 	5.87487 	-1.37599e-19 15.2853 	5.84151 	-1.3815e-19 15.2965 	5.80754 	-1.37348e-19 15.3085 	5.77232 	-1.33778e-19 15.3205 	5.73709 	-1.30179e-19 15.3332 	5.69965 	-1.26323e-19 15.3744 	5.57791 	-8.94553e-20 15.4152 	5.45598 	-5.27791e-20 15.4557 	5.33388 	-1.62974e-20 15.4969 	5.20563 	-1.88247e-20 15.5374 	5.07626 	-5.11148e-20 15.598 	4.9182 	-1.69447e-20 15.6581 	4.76003 	1.77916e-20 15.7208 	4.58879 	3.41218e-20 15.7813 	4.40533 	2.04595e-20 15.839 	4.22773 	7.16341e-21 15.896 	4.07484 	5.98883e-21 15.9586 	3.90944 	4.73999e-21 16.0223 	3.74066 	3.44747e-21 16.0852 	3.57202 	2.12357e-21 16.1801 	3.31447 	5.2001e-23 16.1804 	3.31354 	3.92317e-23 16.1807 	3.31262 	2.6463e-23 16.1811 	3.31169 	1.3695e-23 16.1814 	3.31076 	9.27581e-25 16.1818 	3.30975 	0 16.2502 	3.1069 	-8.14031e-21 16.3174 	2.90385 	-1.65443e-20 16.3834 	2.70073 	-2.51481e-20 16.4482 	2.49757 	-3.39493e-20 16.5083 	2.28413 	6.81975e-20 16.5727 	2.07052 	8.8106e-19 16.6301 	1.84879 	1.0895e-18 16.6852 	1.62583 	1.18368e-18 16.7359 	1.40204 	9.58844e-19 16.7806 	1.18067 	3.21755e-19 16.8333 	0.956943 	1.22685e-18 16.88 	0.731177 	1.79946e-18 16.9182 	0.502031 	1.84872e-18 16.9433 	0.279053 	1.02618e-18 16.9607 	0.06092 	-2.46619e-19 16.9894 	-0.163872 	-1.41203e-18 17.0101 	-0.388605 	-2.06169e-18 17.0199 	-0.613331 	-1.97608e-18 17.0176 	-0.829323 	-1.43469e-18 17.0016 	-1.03572 	-3.70365e-19 17 	-1.25186 	-4.42781e-20 16.9813 	-1.46341 	-8.95279e-20 16.9575 	-1.6737 	-2.23573e-19 16.9324 	-1.88375 	-3.59167e-19 16.8875 	-2.07854 	-4.93689e-19 16.8633 	-2.20254 	-4.54197e-19 16.8273 	-2.32101 	-4.87633e-19 16.7909 	-2.43948 	-5.22413e-19 16.7541 	-2.55794 	-5.58539e-19 16.7321 	-2.62782 	-5.80647e-19 16.7097 	-2.71157 	-6.52704e-19 16.6872 	-2.79541 	-7.26687e-19 16.6647 	-2.87933 	-8.026e-19 16.6418 	-2.96323 	-8.75876e-19 16.6093 	-3.04326 	-7.14527e-19 16.5428 	-3.23579 	-1.76198e-18 16.4603 	-3.41009 	-1.99021e-18 16.3774 	-3.58517 	-2.24543e-18 16.2809 	-3.75129 	-1.58091e-18 16.1716 	-3.9146 	-2.08776e-19 16.0779 	-4.08704 	-2.36945e-19 15.9837 	-4.26002 	-2.7362e-19 15.8683 	-4.41459 	-9.88118e-20 15.7422 	-4.55691 	1.16522e-19 15.6049 	-4.69467 	3.52315e-19 15.5562 	-4.75346 	8.4945e-19 15.5035 	-4.80799 	9.60795e-19 15.4462 	-4.8576 	6.28655e-19 15.3889 	-4.90731 	2.92522e-19 15.3385 	-4.95103 	-6.10164e-21 15.2573 	-5.03988 	-5.52653e-19 15.1762 	-5.12923 	-1.11004e-18 15.095 	-5.21908 	-1.67834e-18 15.0056 	-5.29828 	-1.05027e-18 14.9101 	-5.37416 	1.91349e-19 14.7639 	-5.50624 	1.8632e-18 14.6175 	-5.63939 	3.53026e-18 14.4582 	-5.75098 	3.7213e-18 14.2933 	-5.85371 	3.2884e-18 14.1174 	-5.95389 	2.36824e-18 14.0905 	-5.97132 	2.47928e-18 14.0635 	-5.98852 	2.58272e-18 14.0348 	-6.00138 	2.55901e-18 14.006 	-6.01426 	2.53537e-18 13.9783 	-6.02669 	2.51269e-18 13.8353 	-6.1157 	2.32625e-18 13.6923 	-6.20599 	2.14089e-18 13.5492 	-6.29665 	1.94636e-18 13.3978 	-6.36202 	1.45327e-18 13.2402 	-6.43115 	9.39176e-19 13.1436 	-6.47844 	1.09263e-18 13.0471 	-6.52618 	1.24453e-18 12.9481 	-6.56042 	1.03687e-18 12.8488 	-6.59257 	7.64239e-19 12.76 	-6.62162 	5.18274e-19 12.6719 	-6.66585 	9.89703e-20 12.5838 	-6.71056 	-3.24601e-19 12.4949 	-6.75093 	-5.41025e-19 12