# vtk DataFile Version 2.0
track0
ASCII
DATASET POLYDATA
POINTS 11911 double
-0.0205 0.001 1e-05
-0.0204991 0.00100536 1e-05
-0.0204976 0.00101063 1e-05
-0.0204947 0.00101518 1e-05
-0.0204905 0.00101864 1e-05
-0.0204746 0.00102682 1e-05
-0.0201831 0.00105562 1e-05
-0.0203616 0.00128794 1e-05
-0.0204488 0.00141936 1e-05
-0.0201625 0.00144439 1e-05
-0.0201518 0.00173162 1e-05
-0.0202218 0.00184007 1e-05
-0.0200495 0.00193025 1e-05
-0.0200808 0.00212221 1e-05
-0.0201294 0.00229098 1e-05
-0.0200087 0.00238763 1e-05
-0.019991 0.00254124 1e-05
-0.020004 0.00269531 1e-05
-0.0199826 0.00277425 1e-05
-0.0198689 0.00287784 1e-05
-0.0198178 0.00302293 1e-05
-0.0198053 0.00317625 1e-05
-0.0197598 0.00329221 1e-05
-0.0196346 0.00340323 1e-05
-0.0195484 0.00354672 1e-05
-0.0194774 0.0036983 1e-05
-0.0193907 0.0038415 1e-05
-0.0193839 0.00384734 1e-05
-0.0193105 0.00390801 1e-05
-0.0192437 0.00397579 1e-05
-0.0191789 0.00404552 1e-05
-0.0191112 0.00411239 1e-05
-0.0190172 0.00419745 1e-05
-0.0189563 0.00424642 1e-05
-0.0188937 0.0042931 1e-05
-0.0188294 0.00433745 1e-05
-0.0187635 0.00437949 1e-05
-0.0186577 0.00444232 1e-05
-0.0184257 0.00456501 1e-05
-0.0181847 0.00466905 1e-05
-0.0179367 0.00475507 1e-05
-0.0176827 0.00482128 1e-05
-0.0174976 0.00485278 1e-05
-0.0172058 0.00488343 1e-05
-0.0169124 0.0048851 1e-05
-0.0166199 0.00486263 1e-05
-0.0163297 0.00481931 1e-05
-0.0160387 0.00475509 1e-05
-0.0158304 0.00469254 1e-05
-0.0156257 0.00461902 1e-05
-0.0154251 0.00453488 1e-05
-0.0152274 0.00444434 1e-05
-0.0152233 0.00444232 1e-05
-0.0151063 0.00438376 1e-05
-0.014992 0.00431988 1e-05
-0.014881 0.00425062 1e-05
-0.0147723 0.00417771 1e-05
-0.0146381 0.00408175 1e-05
-0.0145778 0.00403487 1e-05
-0.0145184 0.00398691 1e-05
-0.0144599 0.00393787 1e-05
-0.0144023 0.00388773 1e-05
-0.0143567 0.00384734 1e-05
-0.0142326 0.00373631 1e-05
-0.014115 0.00361838 1e-05
-0.0140049 0.00349342 1e-05
-0.0139008 0.00336344 1e-05
-0.0138463 0.00329221 1e-05
-0.0137691 0.00318862 1e-05
-0.0136994 0.00307984 1e-05
-0.0136361 0.00296724 1e-05
-0.0135765 0.00285259 1e-05
-0.0135393 0.00277425 1e-05
-0.0134962 0.0026776 1e-05
-0.0134603 0.00257806 1e-05
-0.0134284 0.00247716 1e-05
-0.013401 0.00237493 1e-05
-0.0133829 0.00229098 1e-05
-0.0133679 0.0022008 1e-05
-0.0133588 0.00210981 1e-05
-0.0133551 0.00201845 1e-05
-0.0133573 0.00192704 1e-05
-0.0133658 0.00184007 1e-05
-0.0133805 0.00175593 1e-05
-0.013403 0.00167351 1e-05
-0.0134324 0.00159329 1e-05
-0.0134687 0.00151598 1e-05
-0.0135253 0.00141936 1e-05
-0.0135827 0.00134085 1e-05
-0.013651 0.00127163 1e-05
-0.0137251 0.00120866 1e-05
-0.0138037 0.00115145 1e-05
-0.0139975 0.00102682 1e-05
-0.0141256 0.00095764 1e-05
-0.0142604 0.000902702 1e-05
-0.0143985 0.000856549 1e-05
-0.0145373 0.000812428 1e-05
-0.0146381 0.000782055 1e-05
-0.014722 0.000757757 1e-05
-0.0148064 0.000734809 1e-05
-0.014891 0.000713003 1e-05
-0.0149762 0.000693211 1e-05
-0.0151501 0.000660566 1e-05
-0.0153278 0.000638007 1e-05
-0.0155059 0.000618858 1e-05
-0.0156843 0.000602365 1e-05
-0.0158629 0.000587864 1e-05
-0.0160387 0.000568177 1e-05
-0.0162831 0.00051831 1e-05
-0.0165314 0.000493582 1e-05
-0.0167806 0.000482541 1e-05
-0.01703 0.000475724 1e-05
-0.0174976 0.00040626 1e-05
-0.0174976 0.00040626 1e-05
-0.0174976 0.00040626 1e-05
-0.0174976 0.00040626 1e-05
-0.0174976 0.00040626 1e-05
-0.0174976 0.00040626 1e-05
-0.0174951 0.000388776 1e-05
-0.0174897 0.000371971 1e-05
-0.017482 0.000356084 1e-05
-0.0174726 0.000341142 1e-05
-0.0174557 0.000318841 1e-05
-0.0173838 0.000255072 1e-05
-0.0172967 0.000214404 1e-05
-0.0172046 0.000186613 1e-05
-0.0171105 0.000167073 1e-05
-0.0160387 4.51295e-06 1e-05
-0.0160286 3.61036e-06 1e-05
-0.0160185 3.14909e-06 1e-05
-0.0160085 2.73019e-06 1e-05
-0.0159984 2.31128e-06 1e-05
-0.0159427 0 1e-05
-0.0205 0.00367778 1e-05
-0.0203955 0.00371169 1e-05
-0.0203044 0.00377321 1e-05
-0.020217 0.00383977 1e-05
-0.0201979 0.00384734 1e-05
-0.0199617 0.00393428 1e-05
-0.0197659 0.00409234 1e-05
-0.01962 0.00429736 1e-05
-0.019475 0.00444232 1e-05
-0.0193834 0.0044961 1e-05
-0.0192961 0.00455653 1e-05
-0.0192131 0.0046227 1e-05
-0.0191276 0.00468575 1e-05
-0.0190172 0.00476115 1e-05
-0.0189139 0.00482492 1e-05
-0.018808 0.00488415 1e-05
-0.0186997 0.00493891 1e-05
-0.0185893 0.00498932 1e-05
-0.0183674 0.00508 1e-05
-0.0181935 0.00513484 1e-05
-0.0180174 0.00518274 1e-05
-0.0178397 0.00522384 1e-05
-0.0176605 0.00525803 1e-05
-0.0174976 0.00528096 1e-05
-0.0172058 0.00530879 1e-05
-0.0169127 0.00531357 1e-05
-0.0166201 0.00529651 1e-05
-0.0163294 0.00525926 1e-05
-0.0160387 0.00520418 1e-05
-0.0159413 0.00517934 1e-05
-0.0158445 0.00515255 1e-05
-0.0157482 0.0051239 1e-05
-0.0156523 0.00509404 1e-05
-0.0156091 0.00508 1e-05
-0.0154149 0.00501562 1e-05
-0.0152241 0.00494174 1e-05
-0.0150374 0.00485801 1e-05
-0.0148551 0.00476517 1e-05
-0.0146381 0.00464483 1e-05
-0.0145724 0.00460433 1e-05
-0.0145073 0.00456296 1e-05
-0.0144428 0.00452071 1e-05
-0.0143788 0.00447768 1e-05
-0.0143267 0.00444232 1e-05
-0.0141532 0.00432332 1e-05
-0.0139862 0.00419532 1e-05
-0.0138269 0.00405782 1e-05
-0.0136723 0.00391509 1e-05
-0.0136018 0.00384734 1e-05
-0.0135401 0.0037869 1e-05
-0.0134806 0.00372434 1e-05
-0.0134226 0.00366036 1e-05
-0.0133655 0.00359559 1e-05
-0.0132934 0.00351145 1e-05
-0.0132574 0.0034676 1e-05
-0.0132217 0.0034234 1e-05
-0.0131866 0.00337883 1e-05
-0.0131519 0.00333389 1e-05
-0.0131202 0.00329221 1e-05
-0.0130421 0.00318862 1e-05
-0.012966 0.0030836 1e-05
-0.0128926 0.00297658 1e-05
-0.0128225 0.00286744 1e-05
-0.0127652 0.00277425 1e-05
-0.0127075 0.0026776 1e-05
-0.0126512 0.00258012 1e-05
-0.0125964 0.00248177 1e-05
-0.0125432 0.00238261 1e-05
-0.0124963 0.00229098 1e-05
-0.0124527 0.0022008 1e-05
-0.0124094 0.00211048 1e-05
-0.0123663 0.00202004 1e-05
-0.0123235 0.00192948 1e-05
-0.0122825 0.00184007 1e-05
-0.0122476 0.00175593 1e-05
-0.0122111 0.00167242 1e-05
-0.0121734 0.00158948 1e-05
-0.0121342 0.00150724 1e-05
-0.0120899 0.00141936 1e-05
-0.0120725 0.00138559 1e-05
-0.0120536 0.00135257 1e-05
-0.0120335 0.00132027 1e-05
-0.0120122 0.00128877 1e-05
-0.0120025 0.0012756 1e-05
-0.0119645 0.00122584 1e-05
-0.0119233 0.00117864 1e-05
-0.011879 0.00113434 1e-05
-0.0118318 0.00109324 1e-05
-0.0117436 0.00102682 1e-05
-0.0116284 0.000953567 1e-05
-0.0115053 0.000894558 1e-05
-0.0113776 0.00084631 1e-05
-0.011247 0.000806499 1e-05
-0.0107632 0.000720225 1e-05
-0.0105252 0.000729207 1e-05
-0.0102871 0.000725477 1e-05
-0.010049 0.000723478 1e-05
-0.00981086 0.000722536 1e-05
-0.00957337 0.000722263 1e-05
-0.00934491 0.000731769 1e-05
-0.00911628 0.000728308 1e-05
-0.00888764 0.000725939 1e-05
-0.00865899 0.00072432 1e-05
-0.00843108 0.000723227 1e-05
-0.00821175 0.00073228 1e-05
-0.00799227 0.00072826 1e-05
-0.00777277 0.000725249 1e-05
-0.00755327 0.000722963 1e-05
-0.00733443 0.000721211 1e-05
-0.00712387 0.000729622 1e-05
-0.00691317 0.000725481 1e-05
-0.00670246 0.000722256 1e-05
-0.00649174 0.00071971 1e-05
-0.0062816 0.000717676 1e-05
-0.00607944 0.000725383 1e-05
-0.00587718 0.000721503 1e-05
-0.0056749 0.00071841 1e-05
-0.00547262 0.000715915 1e-05
-0.00527083 0.000713879 1e-05
-0.00507675 0.00072089 1e-05
-0.00488258 0.000717411 1e-05
-0.0046884 0.000714591 1e-05
-0.00449421 0.000712283 1e-05
-0.00430044 0.000710377 1e-05
-0.00411412 0.000716753 1e-05
-0.00392771 0.00071371 1e-05
-0.0037413 0.000711209 1e-05
-0.00355488 0.000709133 1e-05
-0.00336883 0.000707398 1e-05
-0.00318995 0.000713211 1e-05
-0.00301099 0.000710554 1e-05
-0.00283204 0.000708357 1e-05
-0.00265307 0.000706528 1e-05
-0.00247443 0.000704997 1e-05
-0.0023027 0.00071038 1e-05
-0.0021309 0.000708162 1e-05
-0.00195909 0.000706355 1e-05
-0.00178728 0.00070488 1e-05
-0.00161577 0.00070368 1e-05
-0.0014509 0.000708911 1e-05
-0.00128596 0.000707326 1e-05
-0.00112101 0.000706109 1e-05
-0.000956055 0.000705197 1e-05
-0.000791418 0.00070454 1e-05
-0.000633135 0.000710028 1e-05
-0.00047476 0.000708927 1e-05
-0.000316383 0.000708187 1e-05
-0.000158005 0.000707751 1e-05
0 0.00070757 1e-05
0.000105677 0.000711764 1e-05
0.000211438 0.00071142 1e-05
0.000317198 0.000711159 1e-05
0.000422958 0.000710973 1e-05
0.000528387 0.000710854 1e-05
0.000634886 0.000714918 1e-05
0.000741462 0.000714468 1e-05
0.000848037 0.000713881 1e-05
0.000954611 0.00071317 1e-05
0.00106088 0.000712349 1e-05
0.00116821 0.000715282 1e-05
0.00127557 0.000714348 1e-05
0.00138293 0.000713235 1e-05
0.00149029 0.000711959 1e-05
0.00159752 0.000710535 1e-05
0.00170568 0.000712028 1e-05
0.00181384 0.000710719 1e-05
0.001922 0.000709235 1e-05
0.00203016 0.000707586 1e-05
0.00213833 0.000705786 1e-05
0.00224733 0.000705805 1e-05
0.00235632 0.000704096 1e-05
0.0024653 0.000702214 1e-05
0.00257429 0.000700166 1e-05
0.00268334 0.000697959 1e-05
0.00279319 0.00069649 1e-05
0.00290302 0.000694182 1e-05
0.00301285 0.000691697 1e-05
0.00312268 0.000689041 1e-05
0.00323259 0.000686219 1e-05
0.00323599 0.000686127 1e-05
0.00323939 0.000686035 1e-05
0.00324279 0.000685943 1e-05
0.00324619 0.00068585 1e-05
0.00324948 0.00068576 1e-05
0.00335681 0.000682827 1e-05
0.00346413 0.000679715 1e-05
0.00357144 0.000676429 1e-05
0.00367875 0.000672973 1e-05
0.00378611 0.000669347 1e-05
0.00389767 0.000664684 1e-05
0.00400925 0.000660302 1e-05
0.00412081 0.00065569 1e-05
0.00423237 0.000650852 1e-05
0.00434393 0.000645789 1e-05
0.00445636 0.000639266 1e-05
0.00456882 0.000633251 1e-05
0.00468127 0.000626936 1e-05
0.00479369 0.000620324 1e-05
0.00490609 0.000613319 1e-05
0.0050194 0.000604629 1e-05
0.00513272 0.000596228 1e-05
0.00524604 0.00058769 1e-05
0.00535933 0.000578766 1e-05
0.00547262 0.000568871 1e-05
0.00558681 0.000557621 1e-05
0.00570099 0.000546289 1e-05
0.00581516 0.000534868 1e-05
0.00592927 0.000522864 1e-05
0.00604356 0.000509746 1e-05
0.00615863 0.00049547 1e-05
0.00627366 0.000480855 1e-05
0.00638865 0.000465844 1e-05
0.00650352 0.000450069 1e-05
0.00661893 0.000433325 1e-05
0.00673132 0.000416076 1e-05
0.00684365 0.000398356 1e-05
0.00695585 0.000379884 1e-05
[...]
POINT_DATA 11911
 FIELD attributes 2
p 1 11911 float
121.808 137.046 141.394 143.996 144.712 142.576 131.756 769.457 748.107 585.164 654.491 294.042 279.812 256.156 -51.1289 9.6098 102.208 -38.2358 -149.446 -58.4906 113.899 -31.5405 -172.502 -106.111 -47.2505 -72.8057 -214.288 -220.927 -202.824 -197.892 -213.784 -231.427 -257.226 -274.775 -293.472 -313.27 -312.89 -286.522 -332.163 -379.588 -392.65 -394.58 -400.672 -404.266 -407.74 -411.871 -394.366 -372.356 -355.894 -341.357 -320.268 -300.48 -300.096 -287.39 -275.692 -261.146 -246.005 -227.666 -219.925 -212.397 -205.092 -204.45 -204.978 -170.989 -139.355 -129.686 -137.979 -142.911 -107.959 -83.858 -75.5898 -74.7535 -84.5289 -55.1996 -47.8573 -40.7793 -34.0107 -37.3991 -22.4167 -16.7941 -11.5632 -6.79152 -10.0838 0.993295 3.4066 5.25402 6.49276 -17.5637 4.98969 4.39642 1.01033 -12.0388 -90.8869 -87.6402 -99.2055 -139.626 -180.146 -209.509 -231.704 -253.938 -280.19 -314.735 -382.703 -438.31 -494.464 -551.028 -614.692 -684.303 -797.45 -909.605 -1023.08 -1165.36 -1434.46 -1434.46 -1434.46 -1434.46 -1434.46 -1434.46 -1432.92 -1429.67 -1425.11 -1419.57 -1413.03 -1364.08 -1312.26 -1260.37 -1208.97 -706.332 -701.709 -697.676 -694.176 -690.675 -671.362
105.88 105.776 81.0644 2.97871 -8.29549 -16.5879 29.335 -38.2064 -137.816 -134.023 -127.547 -141.398 -156.266 -176.238 -194.033 -213.052 -233.214 -229.7 -222.51 -241.947 -262.097 -280.752 -287.151 -294.7 -301.204 -312.637 -308.944 -299.194 -291.058 -287.344 -283.572 -276.533 -269.655 -266.619 -254.092 -243.043 -231.359 -213.673 -193.238 -187.058 -181.006 -175.975 -174.765 -173.83 -143.701 -113.322 -101.864 -104.593 -106.266 -88.5335 -77.4278 -72.4614 -67.5466 -61.3136 -58.3347 -55.3798 -52.4498 -50.567 -50.8504 -36.6915 -27.983 -19.4246 -17.8647 -19.1743 -3.70142 11.8174 18.1725 15.8673 13.6312 29.102 40.4463 44.5704 46.5164 43.3669 57.3596 59.9775 62.5769 65.1539 64.8188 68.5057 68.6467 68.7756 68.8917 68.9358 69.4299 69.9151 70.3889 70.8486 67.2578 68.2091 68.5626 68.4149 62.85 43.7404 39.5026 33.4016 27.3918 21.4379 14.3015 11.176 6.78372 2.4395 -1.87171 -6.97551 -7.90643 -10.6036 -13.2517 -15.8643 -19.7067 -19.4825 -21.2496 -22.9707 -24.6575 -27.7583 -27.0412 -28.2464 -29.4131 -30.5506 -33.0688 -32.0503 -32.8351 -33.5888 -34.3185 -36.3715 -35.1601 -35.6782 -36.1715 -36.6451 -38.4191 -37.1648 -37.5368 -37.8882 -38.2232 -39.8053 -38.5604 -38.9583 -39.3376 -39.7018 -41.3419 -40.267 -40.8415 -41.3989 -41.9421 -43.7685 -42.6639 -43.5959 -44.5079 -45.4033 -47.8279 -46.0962 -46.5398 -46.9782 -47.412 -49.6693 -47.5145 -47.1474 -46.7881 -46.4358 -47.84 -46.366 -46.1358 -45.9128 -45.6966 -46.623 -46.1918 -46.4948 -46.8028 -47.1153 -47.9309 -48.1904 -48.7778 -49.3688 -49.9633 -50.6887 -51.2053 -51.8274 -52.4528 -53.0814 -53.7149 -53.7309 -53.7489 -53.7669 -53.7849 -53.8024 -54.3786 -54.9586 -55.5423 -56.1296 -56.8611 -57.3345 -57.8925 -58.4559 -59.0246 -59.8789 -60.2503 -60.7468 -61.2512 -61.7848 -62.6167 -62.9118 -63.2901 -63.7239 -64.3066 -65.0038 -65.2544 -65.5075 -65.9142 -66.4825 -67.0854 -67.3056 -67.5487 -67.9153 -68.3774 -68.923 -69.1156 -69.4743 -69.8571 -70.2644 -70.5604 -70.6091 -70.6581 -70.7073 -70.7663 -70.8634 -71.2668 -71.7657 -72.2958 -72.977 -73.9109 -74.2513 -74.635 -75.1957 -75.9822 -76.8566 -77.0659 -77.29 -77.5314 -77.7805 -77.9972 -78.3303 -78.6779 -79.0399 -79.4346 -79.862 -80.2214 -80.6368 -81.0609 -81.6105 -82.2219 -82.3588 -82.4928 -82.5789 -82.667 -82.7495 -82.9084 -83.0824 -83.2713 -83.5132 -83.7832 -83.7275 -83.6852 -83.5865 -83.4989 -83.4309 -83.4064 -83.382 -83.3578 -83.3546 -83.3552 -82.6033 -82.1005 -81.618 -81.3251 -81.0439 -80.5341 -80.0262 -79.5645 -79.1033 -78.6349 -78.1529 -77.6719 -77.1919 -76.6643 -76.125 -74.5886 -73.043 -71.3821 -69.9129 -68.4843 -67.9816 -67.4673 -66.9011 -66.3348 -65.7526 -64.2707 -62.7881 -61.3048 -59.7069 -58.065 -55.4791 -52.8845 -50.1302 -47.4436 -45.0173 -44.3198 -43.6129 -42.8866 -42.1603 -41.4094 -39.209 -37.0078 -34.806 -32.6454 -30.5391 -27.1834 -23.8239 -20.6729 -17.973 -15.3268 -13.5006 -11.7908 -10.1969 -8.60306 -6.92789 -5.61834 -4.30882 -2.99934 -1.78403 -0.726179 2.43988 5.30144 8.0011 9.94299 11.8805 14.6501 17.0703 18.9485 20.8237 22.6005 22.8016 22.9627 23.0774 23.1922 23.3049 24.7367 26.1722 27.6114 28.7166 29.4528 30.8161 32.1785 32.7837 33.1832 33.3555 33.5854 33.6837 33.6406 33.5964 33.542 33.6078 33.6605 33.6986 33.6426 33.3061 33.0384 32.2311 31.311 30.2201 28.7724 27.7508 26.1668 24.5783 23.2388 22.5754 21.9182 21.2672 20.4461 19.4096 17.1733 14.9606 12.4367 9.524 5.96156 5.49496 5.0289 4.50492 3.96817 3.44254 0.887492 -1.64996 -4.25523 -7.02711 -10.0385 -10.8917 -11.7446 -12.6154 -13.4995 -14.3783 -16.7544 -19.1267 -21.4847 -23.8331 -26.2221 -26.9462 -27.6706 -28.3793 -29.0692 -29.765 -32.0392 -34.3155 -36.4956 -38.6266 -40.7243 -41.0741 -41.4241 -41.7625 -42.0818 -42.4041 -44.4845 -46.5706 -48.5506 -50.4709 -52.4948 -52.5431 -52.5913 -52.6363 -52.6804 -52.7244 -54.3137 -55.9084 -57.4722 -58.9136 -60.4322 -60.8051 -61.1784 -61.5176 -61.8498 -62.1801 -63.0994 -64.0222 -64.9251 -65.7281 -66.5685 -67.1619 -67.7567 -68.2651 -68.7619 -69.2526 -69.655 -70.0586 -70.4518 -70.7832 -71.1248 -71.806 -72.4919 -73.0341 -73.5555 -74.0682 -74.1602 -74.2524 -74.3383 -74.3999 -74.4621 -75.0575 -75.6623 -76.1254 -76.4734 -76.8612 -76.8824 -76.9037 -76.9191 -76.9302 -76.9413 -77.2968 -77.6676 -77.9569 -78.1302 -78.3439 -78.366 -78.3882 -78.4053 -78.4149 -78.4245 -78.6348 -78.8662 -78.9932 -79.0334 -79.0924 -79.1026 -79.1129 -79.1128 -79.1091 -79.1054 -79.1736 -79.26 -79.336 -79.2997 -79.2844 -79.3035 -79.3267 -79.2701 -79.2129 -79.1555 -79.165 -79.1808 -79.2029 -79.1423 -79.082 -79.0117 -78.9632 -78.7901 -78.62 -78.4545 -78.4292 -78.3923 -78.3304 -78.2696 -78.2063 -78.0818 -77.9698 -77.8705 -77.7129 -77.5184 -77.3129 -77.1299 -76.8669 -76.5356 -76.2396 -76.0201 -75.7255 -75.4261 -75.1488 -74.7586 -74.7576 -74.7566 -74.7557 -74.7547 -74.7532 -74.4062 -74.0838 -73.7864 -73.5141 -73.2048 -72.9027 -72.5698 -72.2539 -71.9412 -71.6286 -71.3226 -71.0115 -70.6769 -70.3394 -70.0145 -69.6892 -69.3515 -68.9848 -68.6303 -68.2844 -67.9314 -67.5227 -67.1185 -66.7373 -66.3705 -66.119 -65.8256 -65.5403 -65.2633 -65.1048 -64.9429 -64.7855 -64.6325 -64.483 -64.2853 -63.8057 -63.3648 -62.9457 -62.4822 -61.9795 -61.4694 -60.9812 -60.423 -59.8926 -59.3816 -59.1726 -58.9509 -58.7143 -58.4804 -58.2777 -57.9462 -57.6225 -57.3066 -56.9589 -56.5908 -55.9765 -55.3827 -54.7559 -54.1466 -53.5574 -53.4615 -53.3656 -53.2643 -53.1634 -53.0667 -52.5299 -52.0058 -51.4935 -50.9607 -50.4176 -50.0744 -49.7365 -49.402 -49.0719 -48.781 -48.4573 -48.1379 -47.8227 -47.5112 -47.1944 -46.7575 -46.3285 -45.9256 -45.5397 -45.2053 -44.9545 -44.7061 -44.4684 -44.2412 -44.0104 -43.6199 -43.236 -42.8825 -42.5634 -42.2814 -42.0005 -41.7225 -41.4757 -41.2451 -41.0094 -40.7603 -40.5144 -40.286 -40.0995 -39.9285 -39.5544 -39.186 -38.8962 -38.6256 -38.3454 -38.2709 -38.1968 -38.1249 -38.0753 -38.0274 -37.6363 -37.2532 -36.9766 -36.7915 -36.6381 -36.525 -36.4136 -36.3437 -36.2748 -36.2047 -36.0273 -35.8552 -35.6883 -35.6102 -35.5479 -35.2747 -35.0188 -34.8801 -34.7506 -34.6154 -34.6085 -34.6016 -34.5948 -34.5922 -34.5907 -34.4073 -34.2577 -34.1223 -34.1089 -34.1155 -33.9707 -33.8548 -33.814 -33.7814 -33.7527 -33.7462 -33.7402 -33.7347 -33.7396 -33.7515 -33.6417 -33.6127 -33.6012 -33.6908 -33.7912 -33.7118 -33.6812 -33.7176 -33.7694 -33.8862 -33.8782 -33.8805 -33.888 -33.8962 -33.9057 -33.9453 -33.9949 -34.0545 -34.133 -34.2423 -34.1976 -34.1888 -34.2702 -34.3915 -34.5133 -34.4193 -34.335 -34.268 -34.2496 -34.2795 -34.0879 -33.8807 -33.6683 -33.4518 -33.255 -33.2077 -33.1602 -33.1126 -33.0639 -33.0084 -32.5056 -32.0099 -31.5058 -30.9665 -30.3756 -29.5398 -28.6939 -27.8161 -26.954 -26.0666 -25.4393 -24.8061 -24.1679 -23.5277 -22.9514 -22.419 -21.8851 -21.3498 -20.8061 -20.2461 -18.8174 -17.3841 -15.9695 -14.5551 -13.0933 -12.0008 -10.9196 -9.86229 -8.80384 -7.83549 -7.22274 -6.60968 -5.9963 -5.39153 -4.78184 -2.95227 -1.12175 0.643336 2.34238 4.10398 4.90374 5.69328 6.42384 7.15433 7.84505 8.93269 10.0198 11.1065 12.1173 13.1473 14.9868 16.8132 18.4392 20.0607 21.4127 21.532 21.6514 21.7695 21.8752 21.9814 23.6858 25.3524 26.9483 28.3402 29.8539 30.2102 30.5657 30.8662 31.1442 31.4063 32.5236 33.6315 34.6426 35.4703 36.4001 36.7216 37.0411 37.3134 37.5283 37.725 38.5293 39.316 39.9053 40.3714 40.9377 40.9802 41.0225 41.0633 41.0796 41.0954 41.5172 41.8688 42.1332 42.1234 42.0905 42.1947 42.2396 42.1614 42.0752 41.9497 41.9156 41.8798 41.8423 41.7869 41.7128 41.5009 41.2454 40.9734 40.6063 40.2359 39.8791 39.5095 39.0574 38.5671 38.0915 37.6254 37.1003 36.5572 36.0085 35.4646 35.1634 34.8433 34.5219 34.1993 33.7782 33.5272 33.2756 33.0232 32.7701 32.4698 31.8848 31.2649 30.642 30.0163 29.253 28.7136 28.0855 27.4532 26.7728 25.9828 25.4447 24.8673 24.2424 23.5194 22.749 22.2253 21.6976 21.0908 20.3558 19.617 19.1167 18.6176 18.0255 17.3264 16.6242 16.15 15.677 15.1133 14.457 13.7981 13.3565 12.916 12.3909 11.786 11.1791 10.7796 10.381 9.90407 9.35594 8.80616 8.45448 8.10358 7.67814 7.18515 6.69081 6.386 6.08167 5.70441 5.26377 4.82043 4.55878 4.29327 3.96204 3.57124 3.17426 2.95191 2.72328 2.43355 2.0866 1.73156 1.54482 1.35098 1.09852 0.789892 0.472691 0.318175 0.157138 -0.0617875 -0.336868 -0.619634 -0.74477 -0.874549 -1.06288 -1.3083 -1.55929 -1.6574 -1.75707 -1.91712 -2.1361 -2.35739 -2.43051 -2.50302 -2.6372 -2.82993 -3.02323 -3.07286 -3.12191 -3.23098 -3.39681 -3.56314 -3.58987 -3.61602 -3.70059 -3.84074 -3.98134 -3.98604 -3.9902 -4.05052 -4.1654 -4.28066 -4.26343 -4.24571 -4.2822 -4.37318 -4.46449 -4.42661 -4.38828 -4.40163 -4.46913 -4.53691 -4.47858 -4.41986 -4.4112 -4.45717 -4.5034 -4.42642 -4.34911 -4.32096 -4.34501 -4.37043 -4.27538 -4.18909 -4.14343 -4.13808 -4.14475 -4.03382 -3.94142 -3.87918 -3.84473 -3.83326 -3.7073 -3.61041 -3.53328 -3.47157 -3.44453 -3.30652 -3.20799 -3.11811 -3.03075 -2.98952 -2.84399 -2.74412 -2.64427 -2.54446 -2.48204 -2.34197 -2.23526 -2.12857 -2.02191 -1.93791 -1.80661 -1.69621 -1.58585 -1.47551 -1.37313 -1.30713 -1.24846 -1.18981 -1.13116 -1.06854 -1.01611 -0.963676 -0.911252 -0.858835 -0.801452 -0.692961 -0.579848 -0.46676 -0.353698 -0.225142 -0.124728 -0.0098027 0.105098 0.219972 0.361246 0.453963 0.570248 0.686508 0.805892 0.955254 1.04608 1.15515 1.27075 1.39973 1.54596 1.63613 1.73353 1.84572 1.97921 2.11846 2.20516 2.29183 2.39978 2.52931 2.65916 2.74026 2.82134 2.92111 3.03962 3.15843 3.23147 3.30448 3.39545 3.50477 3.6144 3.67977 3.75133 3.83768 3.93398 4.03879 4.09965 4.17638 4.26063 4.34688 4.45152 4.51372 4.59847 4.68319 4.76789 4.86633 4.93857 5.02337 5.10815 5.19291 5.28262 5.33913 5.39979 5.46044 5.52107 5.58128 5.60307 5.62486 5.64665 5.66844 5.68909 5.76732 5.84434 5.92131 5.99826 6.06946 6.14407 6.21307 6.28202 6.35094 6.41036 6.4801 6.54165 6.60316 6.66464 6.71569 6.78153 6.83828 6.895 6.95169 6.99874 7.06245 7.11608 7.16967 7.22304 7.26715 7.32841 7.37945 7.4299 7.4797 7.52035 7.57875 7.62561 7.67151 7.71669 7.75101 7.80401 7.84417 7.88355 7.92263 7.949 7.99422 8.02725 8.06022 8.09316 8.11488 8.15351 8.18243 8.21134 8.24023 8.26047 8.29541 8.32225 8.34908 8.37591 8.39572 8.4282 8.45321 8.47821 8.50321 8.522 8.55088 8.57262 8.59436 8.6161 8.63222 8.65522 8.67253 8.68983 8.70712 8.72025 8.73743 8.75083 8.76422 8.77761 8.78866 8.80163 8.81256 8.82349 8.83441 8.84463 8.85006 8.85483 8.8596 8.86437 8.86887 8.87376 8.87865 8.88353 8.88842 8.89343 8.90192 8.9105 8.91906 8.92762 8.93652 8.94392 8.95146 8.95898 8.96649 8.97465 8.98154 8.98867 8.9958 9.00291 9.01159 9.01883 9.02655 9.03426 9.04197 9.05206 9.05975 9.06897 9.07819 9.08751 9.10071 9.1102 9.12182 9.13372 9.14681 9.16357 9.17627 9.19033 9.20511 9.22168 9.24061 9.2559 9.27189 9.28863 9.30697 9.3266 9.34351 9.36111 9.37969 9.39977 9.42085 9.44049 9.46092 9.48236 9.50501 9.52874 9.55249 9.57721 9.60267 9.62894 9.65665 9.68586 9.71564 9.74558 9.77562 9.80667 9.84081 9.87533 9.90985 9.94437 9.97917 10.0185 10.0575 10.0965 10.1355 10.1743 10.2174 10.2598 10.3021 10.3445 10.3863 10.4308 10.4744 10.5181 10.5618 10.6047 10.6485 10.6914 10.7343 10.7772 10.8191 10.8609 10.9015 10.9422 10.9829 11.0221 11.0611 11.0988 11.1365 11.1742 11.2106 11.2465 11.2814 11.3163 11.3512 11.3851 11.418 11.4505 11.4831 11.5156 11.548 11.5785 11.6095 11.6404 11.6713 11.7029 11.7317 11.7619 11.792 11.8222 11.8537 11.8823 11.9128 11.9433 11.9738 12.0062 12.0362 12.0683 12.1003 12.1324 12.1664 12.1991 12.2334 12.2677 12.3021 12.3374 12.3673 12.398 12.4287 12.4593 12.4828 12.4907 12.4985 12.5064 12.5142 12.5218 12.5626 12.6032 12.6438 12.6844 12.7236 12.7694 12.8145 12.8595 12.9046 12.9469 12.998 13.0481 13.0982 13.1482 13.1939 13.2501 13.3044 13.3587 13.413 13.4603 13.5197 13.5782 13.6366 13.6936 13.7448 13.8078 13.8662 13.9218 13.97 14.0116 14.0632 14.117 14.1784 14.2373 14.2955 14.3665 14.4302 14.4584 14.46 14.4484 14.4421 14.4175 14.382 14.3446 14.2967 14.2548 14.2078 14.1606 14.1133 14.0698 14.034 13.9978 13.9614 13.925 13.8897 13.8581 13.824 13.7897 13.7555 13.7205 13.6871 13.6522 13.6173 13.5824 13.5186 13.5166 13.5147 13.5127 13.5108 13.5088 13.4556 13.4024 13.3491 13.2958 13.2423 13.1798 13.1178 13.0558 12.9937 12.9319 12.8625 12.7938 12.7251 12.6564 12.5881 12.5129 12.4387 12.3645 12.2903 12.2165 12.1364 12.0569 11.9774 11.8978 11.8184 11.7885 11.7587 11.7289 11.6991 11.6752 11.6187 11.5622 11.5057 11.4492 11.3924 11.3017 11.2106 11.1194 11.0283 10.9361 10.8382 10.7389 10.6396 10.5403 10.4387 10.3321 10.223 10.1138 10.0047 9.89204 9.77598 9.6561 9.53622 9.41635 9.29167 9.16562 9.03425 8.90287 8.7715 8.63379 8.49699 8.35308 8.20917 8.0646 7.91319 7.76318 7.60625 7.44762 7.28628 7.11872 6.9519 6.78006 6.60437 6.42385 6.23896 6.05412 5.86503 5.66714 5.45903 5.24749 5.03504 4.82194 4.60173 4.37368 4.14557 3.9161 3.68661 3.42759 3.14019 2.85309 2.56246 2.27181 2.0148 1.78999 1.5654 1.34 1.11458 0.799548 0.399494 0