# vtk DataFile Version 2.0
track0
ASCII
DATASET POLYDATA
POINTS 10735 double
-0.0205 0.001 1e-05
-0.0204991 0.00100536 1e-05
-0.0204976 0.00101063 1e-05
-0.0204947 0.00101518 1e-05
-0.0204905 0.00101864 1e-05
-0.0204746 0.00102682 1e-05
-0.0201831 0.00105563 1e-05
-0.0203616 0.00128794 1e-05
-0.0204488 0.00141936 1e-05
-0.0201625 0.0014444 1e-05
-0.0201519 0.00173163 1e-05
-0.0202218 0.00184007 1e-05
-0.0200495 0.00193025 1e-05
-0.0200808 0.00212221 1e-05
-0.0201294 0.00229098 1e-05
-0.0200087 0.00238763 1e-05
-0.0199911 0.00254123 1e-05
-0.0200041 0.00269529 1e-05
-0.0199827 0.00277425 1e-05
-0.019869 0.00287784 1e-05
-0.0198179 0.00302292 1e-05
-0.0198054 0.00317624 1e-05
-0.0197599 0.00329221 1e-05
-0.0196347 0.00340323 1e-05
-0.0195485 0.00354672 1e-05
-0.0194776 0.0036983 1e-05
-0.019391 0.0038415 1e-05
-0.0193841 0.00384734 1e-05
-0.0193107 0.00390806 1e-05
-0.0192438 0.0039759 1e-05
-0.019179 0.00404569 1e-05
-0.0191112 0.00411262 1e-05
-0.0190172 0.00419777 1e-05
-0.0189564 0.00424668 1e-05
-0.0188939 0.0042933 1e-05
-0.0188297 0.0043376 1e-05
-0.0187639 0.00437959 1e-05
-0.0186583 0.00444232 1e-05
-0.0184262 0.00456521 1e-05
-0.0181851 0.00466942 1e-05
-0.0179369 0.00475558 1e-05
-0.0176828 0.00482189 1e-05
-0.0174976 0.00485343 1e-05
-0.0172058 0.00488413 1e-05
-0.0169124 0.00488585 1e-05
-0.0166199 0.00486347 1e-05
-0.0163297 0.00482024 1e-05
-0.0160387 0.00475613 1e-05
-0.0158294 0.00469337 1e-05
-0.0156238 0.00461954 1e-05
-0.0154224 0.00453501 1e-05
-0.0152237 0.00444403 1e-05
-0.0152203 0.00444232 1e-05
-0.0151039 0.00438401 1e-05
-0.0149902 0.00432044 1e-05
-0.0148797 0.00425153 1e-05
-0.0147715 0.00417901 1e-05
-0.0146381 0.00408367 1e-05
-0.0145773 0.00403641 1e-05
-0.0145173 0.00398805 1e-05
-0.0144582 0.00393858 1e-05
-0.0144001 0.00388799 1e-05
-0.0143542 0.00384734 1e-05
-0.0142301 0.00373631 1e-05
-0.0141125 0.00361838 1e-05
-0.0140024 0.00349339 1e-05
-0.0138983 0.0033634 1e-05
-0.0138439 0.00329221 1e-05
-0.0137667 0.00318862 1e-05
-0.013697 0.00307983 1e-05
-0.0136337 0.00296724 1e-05
-0.0135742 0.0028526 1e-05
-0.013537 0.00277425 1e-05
-0.0134939 0.0026776 1e-05
-0.013458 0.00257807 1e-05
-0.0134261 0.00247718 1e-05
-0.0133987 0.00237496 1e-05
-0.0133807 0.00229098 1e-05
-0.0133656 0.0022008 1e-05
-0.0133566 0.00210982 1e-05
-0.0133528 0.00201846 1e-05
-0.0133551 0.00192706 1e-05
-0.0133636 0.00184007 1e-05
-0.0133784 0.00175593 1e-05
-0.0134008 0.0016735 1e-05
-0.0134302 0.00159327 1e-05
-0.0134665 0.00151597 1e-05
-0.0135231 0.00141936 1e-05
-0.0135805 0.00134085 1e-05
-0.0136489 0.00127164 1e-05
-0.013723 0.00120865 1e-05
-0.0138016 0.00115141 1e-05
-0.0139954 0.00102682 1e-05
-0.014124 0.000957435 1e-05
-0.0142592 0.000902382 1e-05
-0.0143978 0.000856162 1e-05
-0.014537 0.000811975 1e-05
-0.0146381 0.000781574 1e-05
-0.0147219 0.000757372 1e-05
-0.014806 0.000734509 1e-05
-0.0148905 0.000712778 1e-05
-0.0149754 0.000693058 1e-05
-0.0151486 0.000660566 1e-05
-0.0153266 0.000637961 1e-05
-0.015505 0.000618781 1e-05
-0.0156837 0.000602267 1e-05
-0.0158626 0.00058775 1e-05
-0.0160387 0.00056802 1e-05
-0.0162824 0.000518184 1e-05
-0.01653 0.000493422 1e-05
-0.0167786 0.000482342 1e-05
-0.0170273 0.000475559 1e-05
-0.0174976 0.000406488 1e-05
-0.0174976 0.000406488 1e-05
-0.0174976 0.000406488 1e-05
-0.0174976 0.000406488 1e-05
-0.0174976 0.000406488 1e-05
-0.0174976 0.000406488 1e-05
-0.0174952 0.000388958 1e-05
-0.0174898 0.000372106 1e-05
-0.0174821 0.000356175 1e-05
-0.0174727 0.000341194 1e-05
-0.0174557 0.000318841 1e-05
-0.0173838 0.000255072 1e-05
-0.0172967 0.000214399 1e-05
-0.0172047 0.000186604 1e-05
-0.0171105 0.000167062 1e-05
-0.0160387 4.46024e-06 1e-05
-0.0160287 3.5682e-06 1e-05
-0.0160188 3.11212e-06 1e-05
-0.0160088 2.69793e-06 1e-05
-0.0159989 2.28375e-06 1e-05
-0.0159439 0 1e-05
-0.0205 0.00367778 1e-05
-0.0203955 0.00371169 1e-05
-0.0203045 0.0037732 1e-05
-0.0202171 0.00383976 1e-05
-0.0201979 0.00384734 1e-05
-0.0199618 0.0039343 1e-05
-0.019766 0.00409241 1e-05
-0.0196201 0.00429749 1e-05
-0.0194752 0.00444232 1e-05
-0.0193836 0.00449614 1e-05
-0.0192963 0.00455663 1e-05
-0.0192132 0.00462285 1e-05
-0.0191277 0.00468596 1e-05
-0.0190172 0.00476144 1e-05
-0.0189141 0.00482515 1e-05
-0.0188083 0.00488434 1e-05
-0.0187001 0.00493906 1e-05
-0.0185899 0.00498944 1e-05
-0.0183684 0.00508 1e-05
-0.0181943 0.00513499 1e-05
-0.018018 0.00518302 1e-05
-0.0178401 0.00522424 1e-05
-0.0176607 0.00525852 1e-05
-0.0174976 0.00528151 1e-05
-0.0172058 0.00530939 1e-05
-0.0169127 0.00531422 1e-05
-0.0166201 0.0052972 1e-05
-0.0163294 0.00526 1e-05
-0.0160387 0.005205 1e-05
-0.0159406 0.00518 1e-05
-0.015843 0.00515302 1e-05
-0.0157459 0.00512414 1e-05
-0.0156492 0.00509404 1e-05
-0.0156061 0.00508 1e-05
-0.0154125 0.00501578 1e-05
-0.0152223 0.00494212 1e-05
-0.0150362 0.00485865 1e-05
-0.0148544 0.00476614 1e-05
-0.0146381 0.00464631 1e-05
-0.0145719 0.00460551 1e-05
-0.0145062 0.00456383 1e-05
-0.0144411 0.00452126 1e-05
-0.0143766 0.0044779 1e-05
-0.0143242 0.00444232 1e-05
-0.0141506 0.00432332 1e-05
-0.0139836 0.00419531 1e-05
-0.0138243 0.00405779 1e-05
-0.0136697 0.00391504 1e-05
-0.0135992 0.00384734 1e-05
-0.0135381 0.0037874 1e-05
-0.013479 0.00372538 1e-05
-0.0134215 0.00366197 1e-05
-0.0133648 0.00359777 1e-05
-0.0132934 0.00351454 1e-05
-0.0132568 0.00347007 1e-05
-0.0132206 0.00342524 1e-05
-0.0131849 0.00338003 1e-05
-0.0131497 0.00333444 1e-05
-0.0131176 0.00329221 1e-05
-0.0130395 0.00318862 1e-05
-0.0129633 0.0030836 1e-05
-0.0128899 0.00297658 1e-05
-0.0128198 0.00286743 1e-05
-0.0127624 0.00277425 1e-05
-0.0127047 0.0026776 1e-05
-0.0126484 0.00258012 1e-05
-0.0125936 0.00248176 1e-05
-0.0125403 0.00238261 1e-05
-0.0124934 0.00229098 1e-05
-0.0124498 0.0022008 1e-05
-0.0124064 0.00211048 1e-05
-0.0123633 0.00202004 1e-05
-0.0123205 0.00192948 1e-05
-0.0122794 0.00184007 1e-05
-0.0122444 0.00175593 1e-05
-0.0122078 0.00167243 1e-05
-0.01217 0.0015895 1e-05
-0.0121307 0.00150727 1e-05
-0.0120863 0.00141936 1e-05
-0.0120695 0.00138717 1e-05
-0.0120515 0.00135568 1e-05
-0.0120324 0.00132483 1e-05
-0.0120122 0.00129472 1e-05
-0.0120025 0.00128145 1e-05
-0.011964 0.00123053 1e-05
-0.0119222 0.00118223 1e-05
-0.0118772 0.00113694 1e-05
-0.0118291 0.00109496 1e-05
-0.0117386 0.00102682 1e-05
-0.0116229 0.000953567 1e-05
-0.0114992 0.000894592 1e-05
-0.011371 0.00084639 1e-05
-0.01124 0.000806584 1e-05
-0.0107632 0.000722975 1e-05
-0.0105252 0.000731587 1e-05
-0.0102871 0.000727082 1e-05
-0.010049 0.000724595 1e-05
-0.00981092 0.000723334 1e-05
-0.00957337 0.000722846 1e-05
-0.00934491 0.000732314 1e-05
-0.00911628 0.000728707 1e-05
-0.00888764 0.000726236 1e-05
-0.008659 0.000724545 1e-05
-0.00843108 0.000723401 1e-05
-0.00821175 0.000732455 1e-05
-0.00799227 0.000728391 1e-05
-0.00777278 0.000725347 1e-05
-0.00755327 0.000723038 1e-05
-0.00733443 0.000721269 1e-05
-0.00712387 0.000729691 1e-05
-0.00691317 0.000725535 1e-05
-0.00670246 0.0007223 1e-05
-0.00649174 0.000719747 1e-05
-0.0062816 0.000717709 1e-05
-0.00607944 0.000725429 1e-05
-0.00587718 0.000721541 1e-05
-0.0056749 0.000718442 1e-05
-0.00547262 0.000715942 1e-05
-0.00527083 0.000713904 1e-05
-0.00507675 0.000720928 1e-05
-0.00488258 0.000717443 1e-05
-0.0046884 0.000714619 1e-05
-0.0044942 0.000712305 1e-05
-0.00430044 0.000710392 1e-05
-0.00411412 0.000716775 1e-05
-0.00392771 0.000713716 1e-05
-0.0037413 0.000711199 1e-05
-0.00355488 0.000709108 1e-05
-0.00336883 0.000707357 1e-05
-0.00318995 0.000713162 1e-05
-0.003011 0.000710478 1e-05
-0.00283204 0.000708257 1e-05
-0.00265307 0.000706408 1e-05
-0.00247443 0.00070486 1e-05
-0.0023027 0.000710223 1e-05
-0.0021309 0.000707978 1e-05
-0.00195909 0.000706122 1e-05
-0.00178729 0.000704582 1e-05
-0.00161577 0.000703302 1e-05
-0.0014509 0.000708382 1e-05
-0.00128596 0.000706564 1e-05
-0.00112102 0.000705244 1e-05
-0.000956072 0.00070433 1e-05
-0.000791418 0.000703751 1e-05
-0.000633135 0.000709368 1e-05
-0.000474753 0.00070874 1e-05
-0.000316369 0.000708614 1e-05
-0.000157986 0.000708905 1e-05
0 0.000709542 1e-05
0.000105677 0.000714384 1e-05
0.000211464 0.000715052 1e-05
0.00031725 0.000715713 1e-05
0.000423036 0.000716367 1e-05
0.000528387 0.000717012 1e-05
0.000634886 0.000721794 1e-05
0.000741492 0.00072209 1e-05
0.000848099 0.000722171 1e-05
0.000954705 0.000722058 1e-05
0.00106088 0.000721768 1e-05
0.00116821 0.000725509 1e-05
0.0012756 0.000725093 1e-05
0.00138299 0.000724723 1e-05
0.00149038 0.000724395 1e-05
0.00159752 0.000724106 1e-05
0.00170568 0.000727748 1e-05
0.0018139 0.000727816 1e-05
0.00192212 0.000728129 1e-05
0.00203035 0.000728667 1e-05
0.00213833 0.000729412 1e-05
0.00224733 0.000734026 1e-05
0.00235642 0.000735339 1e-05
0.00246551 0.000736906 1e-05
0.00257459 0.000738708 1e-05
0.00268334 0.000740723 1e-05
0.00279319 0.00074671 1e-05
0.00290317 0.000749396 1e-05
0.00301314 0.000752287 1e-05
0.00312311 0.00075537 1e-05
0.00323259 0.000758619 1e-05
0.00334329 0.000766082 1e-05
0.00345417 0.0007703 1e-05
0.00356504 0.000774458 1e-05
0.00367592 0.000778736 1e-05
0.00378611 0.000783746 1e-05
0.00389767 0.000792538 1e-05
0.00400942 0.000798633 1e-05
0.00412121 0.000803727 1e-05
0.004233 0.000808825 1e-05
0.00434393 0.00081537 1e-05
0.00445636 0.000825015 1e-05
0.00456897 0.000832277 1e-05
0.00468169 0.000837675 1e-05
0.00479441 0.000842938 1e-05
0.00490609 0.000850202 1e-05
0.0050194 0.000860006 1e-05
0.00513288 0.000867535 1e-05
0.00524649 0.000872783 1e-05
0.0053601 0.000877897 1e-05
0.00547262 0.00088499 1e-05
0.00558681 0.000894224 1e-05
0.00570116 0.000901149 1e-05
0.00581563 0.000905768 1e-05
0.0059301 0.000910143 1e-05
0.00604356 0.000916268 1e-05
0.00615863 0.000924288 1e-05
0.00627385 0.000929891 1e-05
0.00638916 0.000933093 1e-05
0.00650448 0.000935972 1e-05
0.00661893 0.0009405 1e-05
0.0067349 0.000946789 1e-05
0.00685098 0.000950585 1e-05
0.00696711 0.000951968 1e-05
0.00708325 0.000952972 1e-05
0.00719878 0.0009555 1e-05
0.00731565 0.000959674 1e-05
0.00743258 0.000961432 1e-05
0.00754953 0.000960981 1e-05
[...]
POINT_DATA 10735
 FIELD attributes 1
U 3 10735 float
1.13297 	6.39882 	0 1.59186 	5.97923 	0 3.06067 	4.65986 	0 4.29074 	3.52871 	0 5.18161 	2.68001 	0 7.15415 	0.707036 	0 -4.2245 	5.50111 	0 -5.18666 	7.81098 	0 7.56548 	0.661705 	0 0.172243 	4.6656 	0 -9.05049 	14.0262 	0 5.93243 	3.10457 	0 -2.5285 	15.5162 	0 -6.42116 	22.2981 	0 7.16742 	5.7409 	0 1.97823 	17.2209 	0 -2.24932 	26.6781 	0 4.29369 	15.8491 	0 9.07771 	8.26966 	0 6.22485 	17.6653 	0 2.39095 	29.3753 	0 7.49006 	19.1132 	0 11.9522 	10.5962 	0 10.9786 	18.2849 	0 10.865 	23.2123 	0 12.8648 	21.2649 	0 16.0839 	13.7027 	0 16.2323 	13.4309 	0 16.3927 	16.6283 	0 16.8099 	18.1 	0 17.5793 	17.3599 	0 18.3613 	16.6181 	0 19.418 	15.6294 	0 20.1842 	15.0455 	0 20.9589 	14.4643 	0 21.7409 	13.8864 	0 22.0866 	13.1226 	0 22.0707 	11.6831 	0 24.2725 	10.4898 	0 26.3544 	9.15074 	0 27.0762 	7.06441 	0 27.2309 	4.63756 	0 27.3578 	2.87852 	0 28.0773 	0.16489 	0 28.3356 	-2.16813 	0 28.2635 	-4.20996 	0 27.2058 	-5.99411 	0 25.8119 	-7.7416 	0 25.2032 	-9.04888 	0 24.5637 	-10.3067 	0 23.3566 	-10.6998 	0 22.1393 	-11.0688 	0 22.1179 	-11.0748 	0 21.4898 	-12.0198 	0 20.8648 	-13.0107 	0 20.026 	-13.4256 	0 19.116 	-13.6569 	0 17.9682 	-13.9612 	0 17.5316 	-14.1384 	0 17.0937 	-14.3187 	0 16.6546 	-14.5023 	0 16.3226 	-14.4513 	0 16.0738 	-14.3767 	0 14.8183 	-14.8627 	0 13.5206 	-15.3541 	0 12.331 	-15.3959 	0 11.4586 	-14.9736 	0 10.9847 	-14.7462 	0 9.65748 	-15.0816 	0 8.54597 	-15.1945 	0 7.77212 	-14.9729 	0 6.95881 	-14.6546 	0 6.36684 	-14.2888 	0 5.15667 	-14.2837 	0 4.41199 	-13.9468 	0 3.64527 	-13.62 	0 2.85533 	-13.3053 	0 2.16603 	-12.9659 	0 1.25706 	-12.6062 	0 0.496631 	-12.1959 	0 -0.294391 	-11.7997 	0 -1.1164 	-11.4209 	0 -1.93721 	-11.0379 	0 -2.87309 	-10.5408 	0 -3.68614 	-10.0775 	0 -4.5342 	-9.64347 	0 -5.41252 	-9.24352 	0 -6.4227 	-8.78133 	0 -8.00761 	-8.11006 	0 -8.98065 	-7.63219 	0 -9.93088 	-7.22718 	0 -10.7202 	-6.89277 	0 -11.6273 	-6.27636 	0 -13.1417 	-5.34772 	0 -14.0312 	-4.68046 	0 -13.1703 	-4.1801 	0 -12.3516 	-3.7155 	0 -11.7917 	-3.40659 	0 -12.3918 	-3.36695 	0 -13.0244 	-3.35162 	0 -13.8405 	-3.21329 	0 -15.0241 	-2.8181 	0 -17.5085 	-2.22332 	0 -18.2144 	-1.95807 	0 -19.253 	-1.77938 	0 -20.5498 	-1.66799 	0 -19.8898 	-2.2284 	0 -16.3236 	-3.3373 	0 -24.4555 	-2.4461 	0 -37.0384 	-1.65098 	0 -49.4594 	-1.34906 	0 -35.4566 	-5.20741 	0 1.78481 	-13.0841 	0 1.78481 	-13.0841 	0 1.78481 	-13.0841 	0 1.78481 	-13.0841 	0 1.78481 	-13.0841 	0 1.78481 	-13.0841 	0 4.19377 	-13.1222 	0 6.33107 	-13.1092 	0 8.20104 	-13.055 	0 9.83362 	-12.9689 	0 14.8318 	-13.1466 	0 23.084 	-10.7785 	0 30.011 	-9.06403 	0 38.0206 	-7.89368 	0 46.6175 	-7.07199 	0 0.354677 	-0.0318548 	0 1.19016 	-0.0544889 	0 1.49508 	-0.0621495 	0 1.2961 	-0.0538782 	0 1.09713 	-0.045607 	0 0 	0 	0
9.83289 	3.19111 	0 9.65828 	6.52571 	0 10.0779 	7.67543 	0 11.8159 	4.68079 	0 12.0608 	4.44119 	0 12.9623 	10.4679 	0 13.404 	18.8455 	0 15.34 	15.3337 	0 17.3395 	10.1864 	0 17.8521 	12.3614 	0 18.329 	14.6071 	0 18.9071 	13.9581 	0 19.5027 	13.3187 	0 20.2737 	12.5268 	0 21.1492 	11.8328 	0 22.0484 	11.156 	0 22.9687 	10.4967 	0 23.0565 	9.42928 	0 23.1845 	7.32036 	0 24.2107 	6.59834 	0 25.2171 	5.84137 	0 26.0675 	4.9815 	0 26.0995 	3.67693 	0 26.1691 	2.50098 	0 26.7799 	0.440814 	0 27.5081 	-1.59932 	0 27.2086 	-3.48188 	0 26.2685 	-4.9696 	0 25.3088 	-6.44859 	0 25.1453 	-6.95257 	0 24.9626 	-7.4285 	0 24.5432 	-7.63987 	0 24.1255 	-7.84843 	0 23.939 	-7.94062 	0 23.2989 	-9.02361 	0 22.7036 	-10.182 	0 22.016 	-11.2044 	0 20.9004 	-11.5787 	0 19.5695 	-12.0595 	0 19.2619 	-12.2289 	0 18.9565 	-12.4013 	0 18.6645 	-12.5371 	0 18.4204 	-12.5123 	0 18.2225 	-12.4925 	0 17.0639 	-13.0771 	0 15.8975 	-13.7251 	0 14.9655 	-13.8147 	0 14.1126 	-13.5611 	0 13.7171 	-13.4444 	0 13.0575 	-13.714 	0 12.5276 	-13.8059 	0 12.1199 	-13.7304 	0 11.7102 	-13.6586 	0 11.1828 	-13.5718 	0 10.9381 	-13.5514 	0 10.6921 	-13.5327 	0 10.4448 	-13.5156 	0 10.2285 	-13.4726 	0 10.0914 	-13.3807 	0 9.61015 	-13.2449 	0 8.93709 	-13.0355 	0 8.24773 	-12.8331 	0 7.70139 	-12.5137 	0 7.28841 	-12.2044 	0 6.90234 	-11.946 	0 6.51016 	-11.6913 	0 6.09189 	-11.3305 	0 5.55433 	-10.8609 	0 5.04968 	-10.434 	0 4.82569 	-10.0475 	0 4.60402 	-9.66029 	0 4.38722 	-9.2714 	0 4.06539 	-8.85371 	0 3.48599 	-8.37254 	0 3.48048 	-7.95352 	0 3.40243 	-7.46194 	0 3.33206 	-6.96955 	0 3.27083 	-6.47636 	0 3.06047 	-5.8789 	0 3.23226 	-5.65197 	0 3.37839 	-5.45324 	0 3.53054 	-5.2562 	0 3.68882 	-5.0612 	0 3.76318 	-4.9741 	0 3.98787 	-4.60892 	0 4.22383 	-4.25014 	0 4.47054 	-3.89974 	0 4.72712 	-3.55975 	0 5.31258 	-3.36254 	0 6.47824 	-3.09063 	0 7.56275 	-2.84351 	0 8.58828 	-2.60857 	0 10.2518 	-1.79772 	0 15.2506 	0.55195 	0 15.3088 	-0.28967 	0 16.1278 	-0.168465 	0 16.8976 	-0.0895002 	0 17.6376 	-0.0362015 	0 18.872 	0.782137 	0 18.7381 	-0.295663 	0 19.2727 	-0.208258 	0 19.782 	-0.146314 	0 20.2742 	-0.10183 	0 21.1872 	0.8747 	0 20.9557 	-0.388102 	0 21.3503 	-0.296072 	0 21.7236 	-0.228478 	0 22.0815 	-0.17848 	0 22.7947 	0.911725 	0 22.5313 	-0.444435 	0 22.8458 	-0.350789 	0 23.1417 	-0.280378 	0 23.4239 	-0.227191 	0 24.0114 	0.916924 	0 23.736 	-0.456257 	0 23.9951 	-0.367553 	0 24.2384 	-0.299524 	0 24.4698 	-0.247173 	0 24.9776 	0.903982 	0 24.6921 	-0.443156 	0 24.9093 	-0.362322 	0 25.1132 	-0.299213 	0 25.3069 	-0.249817 	0 25.7643 	0.88264 	0 25.4718 	-0.418027 	0 25.6549 	-0.346475 	0 25.827 	-0.289689 	0 25.9905 	-0.244534 	0 26.4115 	0.857147 	0 26.1102 	-0.391734 	0 26.2695 	-0.325937 	0 26.4191 	-0.272949 	0 26.5611 	-0.230205 	0 26.961 	0.841977 	0 26.6529 	-0.34834 	0 26.7936 	-0.289452 	0 26.926 	-0.241314 	0 27.0517 	-0.201907 	0 27.4396 	0.8455 	0 27.1254 	-0.2989 	0 27.2954 	-0.218536 	0 27.4541 	-0.152083 	0 27.6036 	-0.0970204 	0 28.0371 	0.994852 	0 27.6627 	-0.109644 	-5.9753e-22 27.871 	-0.0221423 	-2.40428e-21 28.0665 	0.0516032 	-4.19878e-21 28.2512 	0.113919 	-5.98309e-21 28.8289 	1.32075 	9.46946e-21 28.3929 	0.179367 	-7.51969e-20 28.5174 	0.178114 	-6.14425e-20 28.6422 	0.17705 	-4.76767e-20 28.7672 	0.176157 	-3.39006e-20 29.3543 	1.31813 	5.70409e-20 28.8755 	0.0800589 	4.83504e-20 28.8856 	0.0221103 	4.47463e-20 28.901 	-0.0307722 	4.11673e-20 28.9214 	-0.0790349 	3.76112e-20 29.3867 	1.02436 	2.365e-20 28.9812 	-0.112181 	2.38506e-20 28.951 	-0.0997699 	6.33072e-21 28.9198 	-0.0883614 	-1.11884e-20 28.8876 	-0.0778754 	-2.87067e-20 29.2051 	0.983387 	-4.06568e-20 28.911 	0.0182222 	-3.13996e-20 28.9065 	0.0834174 	-2.38949e-20 28.8973 	0.143692 	-1.63534e-20 28.8836 	0.199413 	-8.77812e-21 29.1375 	1.2332 	-4.27368e-20 28.9248 	0.348167 	-8.44485e-20 28.9752 	0.416167 	-8.11567e-20 29.021 	0.479489 	-7.82242e-20 29.0626 	0.538466 	-7.56254e-20 29.3353 	1.59898 	-6.13807e-22 29.1387 	0.711427 	9.86058e-21 29.2212 	0.768213 	2.88374e-20 29.3001 	0.8216 	4.77482e-20 29.3755 	0.87181 	6.65973e-20 29.6965 	2.00183 	9.87803e-20 29.4979 	1.12227 	3.16563e-19 29.5605 	1.10856 	3.23515e-19 29.6361 	1.14352 	3.18548e-19 29.752 	1.35255 	2.71108e-19 30.0516 	2.36836 	2.66897e-20 29.9087 	1.63131 	-2.49087e-19 29.8936 	1.36209 	-3.77475e-19 29.9447 	1.36555 	-4.19674e-19 30.0864 	1.77529 	-3.27299e-19 30.2997 	2.59914 	-9.65133e-20 30.2287 	1.94945 	-5.9349e-20 30.1998 	1.44631 	-2.92602e-20 30.2239 	1.41101 	-2.18236e-20 30.3376 	1.97344 	-1.32722e-19 30.4381 	2.63367 	-2.6613e-19 30.4428 	2.0197 	-3.1908e-19 30.4782 	1.40806 	-3.69285e-19 30.4929 	1.37234 	-3.60037e-19 30.5062 	1.92303 	-2.71428e-19 30.4942 	2.46616 	-1.85188e-19 30.5721 	1.85122 	-1.139e-19 30.679 	1.238 	-4.07723e-20 30.7039 	1.17357 	-7.04866e-21 30.6112 	1.65244 	-2.31038e-20 30.4991 	2.12563 	-3.86314e-20 30.648 	1.49031 	-2.04592e-20 30.8246 	0.856112 	-2.78606e-21 30.859 	0.770298 	-2.38468e-21 30.6739 	1.21355 	-1.87668e-20 30.4729 	1.65272 	-3.46688e-20 30.6839 	1.00338 	-1.68672e-20 30.9151 	0.368152 	-2.75278e-21 30.9427 	0.267528 	-1.136e-19 30.685 	0.671273 	-2.24003e-19 30.4065 	1.08614 	-3.35994e-19 30.654 	0.460865 	-5.69602e-19 30.8991 	-0.11921 	-7.78986e-19 30.9078 	-0.243018 	-7.74756e-19 30.6025 	0.0916364 	-6.24973e-19 30.264 	0.458289 	-4.65717e-19 30.4998 	-0.084106 	-9.06433e-19 30.7489 	-0.619205 	-1.33446e-18 30.7283 	-0.750972 	-1.16531e-18 30.3775 	-0.484818 	-5.16449e-19 30.0179 	-0.217788 	1.34292e-19 30.2082 	-0.658931 	9.75747e-20 30.4134 	-1.10134 	5.80063e-20 30.3555 	-1.23977 	5.50863e-20 30.0107 	-1.08737 	1.22732e-19 29.6605 	-0.933954 	1.91068e-19 29.788 	-1.27765 	1.13086e-19 29.927 	-1.6228 	3.38339e-20 29.8388 	-1.77403 	-1.9033e-20 29.5175 	-1.72381 	-5.2288e-20 29.1939 	-1.6732 	-8.56263e-20 29.2574 	-1.93782 	-5.85163e-20 29.3197 	-2.19825 	-3.18192e-20 29.1761 	-2.33926 	-5.4141e-21 28.9153 	-2.38804 	-5.48227e-20 28.6239 	-2.41338 	-1.23999e-19 28.6341 	-2.61834 	-3.29274e-20 28.5323 	-2.77897 	-6.79392e-20 28.3686 	-2.91471 	-1.74596e-19 28.2089 	-3.05101 	-2.81935e-19 27.9532 	-3.12844 	-4.89436e-19 27.8963 	-3.25755 	-1.0586e-18 27.7432 	-3.36314 	-9.04065e-19 27.5928 	-3.4694 	-7.44067e-19 27.4453 	-3.57633 	-5.78541e-19 27.3486 	-3.64829 	-4.64124e-19 27.3152 	-3.67695 	-4.35374e-19 27.2821 	-3.70567 	-4.0638e-19 27.2491 	-3.73444 	-3.77143e-19 27.2164 	-3.76328 	-3.4766e-19 27.1709 	-3.79765 	-4.29734e-19 26.9971 	-3.91811 	-3.27685e-19 26.8206 	-4.03779 	-2.12112e-19 26.6485 	-4.15898 	-9.5828e-20 26.4668 	-4.28306 	0 26.2247 	-4.41598 	0 26.0617 	-4.52678 	0 25.9024 	-4.63911 	0 25.707 	-4.74557 	0 25.4528 	-4.85075 	0 25.2002 	-4.95872 	0 25.0367 	-5.05282 	0 24.8347 	-5.14343 	-2.96072e-20 24.5903 	-5.23013 	-9.1653e-20 24.349 	-5.31846 	-1.54044e-19 24.1007 	-5.4064 	-1.90567e-19 24.0724 	-5.41947 	-2.70134e-19 24.035 	-5.43083 	-2.85548e-19 23.9928 	-5.44133 	-2.67704e-19 23.9507 	-5.45187 	-2.49798e-19 23.9102 	-5.46209 	-2.32436e-19 23.7106 	-5.526 	-2.02205e-19 23.5131 	-5.59128 	-1.71402e-19 23.3176 	-5.65797 	-1.40012e-19 23.105 	-5.72227 	-1.33105e-19 22.8668 	-5.78368 	-1.58777e-19 22.6343 	-5.83374 	-9.04048e-20 22.4041 	-5.88551 	-2.17512e-20 22.1507 	-5.92668 	3.07855e-20 21.8894 	-5.96529 	7.51576e-20 21.6273 	-6.00607 	1.20204e-19 21.5285 	-6.01414 	1.1307e-19 21.4256 	-6.01859 	1.00488e-19 21.3163 	-6.01735 	7.95594e-20 21.2071 	-6.0163 	5.86482e-20 21.1038 	-6.0155 	3.88087e-20 20.9585 	-6.02121 	7.77159e-21 20.8136 	-6.02737 	-2.32663e-20 20.6691 	-6.03398 	-5.43048e-20 20.5245 	-6.03401 	-7.12019e-20 20.3788 	-6.02907 	-7.74318e-20 20.123 	-5.99445 	-4.67758e-20 19.868 	-5.96053 	-1.60687e-20 19.6263 	-5.92031 	-6.23745e-22 19.3969 	-5.87231 	-1.74871e-21 19.1666 	-5.82441 	-2.87538e-21 19.0363 	-5.78343 	-1.11146e-21 18.9088 	-5.73961 	0 18.7862 	-5.69095 	0 18.6636 	-5.64219 	0 18.5397 	-5.59287 	0 18.4304 	-5.55463 	0 18.321 	-5.51635 	0 18.2116 	-5.47803 	0 18.1046 	-5.43651 	1.15609e-20 17.9999 	-5.39208 	3.36768e-20 17.7603 	-5.26501 	1.43432e-20 17.5242 	-5.13983 	0 17.3033 	-5.02134 	9.60153e-21 17.0965 	-4.89969 	5.87176e-20 16.8906 	-4.77803 	1.07277e-19 16.6834 	-4.63914 	8.86922e-20 16.4864 	-4.50125 	6.97952e-20 16.2975 	-4.3639 	5.05847e-20 16.1074 	-4.22505 	3.11014e-20 15.8811 	-4.05908 	7.73898e-21 15.8712 	-4.05193 	5.66883e-21 15.8612 	-4.04477 	3.59914e-21 15.8512 	-4.0376 	1.52992e-21 15.8412 	-4.03046 	0 15.8309 	-4.02338 	0 15.6308 	-3.85813 	0 15.4301 	-3.69314 	0 15.2281 	-3.52625 	0 15.0257 	-3.3595 	3.73621e-22 14.8276 	-3.19875 	1.64579e-21 14.6356 	-3.0115 	9.36416e-22 14.4418 	-2.82163 	2.12087e-22 14.2591 	-2.64876 	4.77649e-22 14.0847 	-2.48617 	1.72799e-21 13.9122 	-2.32466 	2.94401e-21 13.7372 	-2.13871 	2.16507e-21 13.5645 	-1.95421 	1.36828e-21 13.3993 	-1.77596 	5.52375e-22 13.2378 	-1.604 	0 13.0882 	-1.45023 	0 12.9328 	-1.27501 	0 12.7834 	-1.10773 	0 12.6323 	-0.938108 	0 12.4794 	-0.766065 	0 12.3361 	-0.610395 	0 12.198 	-0.44736 	7.3148e-20 12.0653 	-0.283867 	2.30146e-19 11.931 	-0.1184 	3.84463e-19 11.795 	0.04908 	5.35977e-19 11.6679 	0.205805 	6.74247e-19 11.5614 	0.370011 	7.67012e-19 11.464 	0.543455 	7.68987e-19 11.3647 	0.718116 	7.71465e-19 11.2635 	0.89398 	7.74459e-19 11.1795 	1.06015 	6.10992e-19 11.1093 	1.22776 	4.5597e-19 11.0596 	1.42922 	2.79717e-19 11.0076 	1.63046 	9.99207e-20 10.9648 	1.83183 	0 10.9334 	2.03767 	0 10.9228 	2.2427 	0 10.9103 	2.44722 	0 10.9053 	2.64922 	5.05823e-20 10.9079 	2.85007 	1.57766e-19 10.9088 	3.05725 	2.66041e-19 10.9385 	3.22147 	1.22222e-19 10.9606 	3.36112 	1.40746e-19 10.9767 	3.48188 	2.83233e-19 10.9919 	3.60158 	4.27108e-19 11.0012 	3.67908 	5.21954e-19 11.0031 	3.72588 	5.5532e-19 11.0049 	3.7726 	5.88672e-19 11.0064 	3.81921 	6.22009e-19 11.0108 	3.85827 	6.08815e-19 11.0163 	3.89479 	5.77045e-19 11.0563 	4.03506 	3.68284e-19 11.0904 	4.16948 	1.7487e-19 11.1128 	4.28096 	6.45026e-20 11.1262 	4.35209 	1.10171e-19 11.1394 	4.42503 	1.56223e-19 11.1602 	4.46207 	7.43364e-20 11.1808 	4.49837 	0 11.2007 	4.52847 	0 11.2206 	4.55846 	0 11.2394 	4.58687 	0 11.2587 	4.62533 	0 11.2778 	4.66362 	0 11.2967 	4.70121 	0 11.3167 	4.72606 	0 11.3366 	4.75104 	0 11.3868 	4.79238 	0 11.4367 	4.83353 	0 11.508 	4.9005 	0 11.5803 	4.96895 	0 11.6492 	5.03411 	0 11.6563 	5.0396 	0 11.6634 	5.04509 	0 11.6709 	5.05096 	0 11.6805 	5.05935 	0 11.6902 	5.06773 	0 11.7799 	5.12327 	0 11.8694 	5.17856 	0 11.9794 	5.27301 	3.91925e-21 12.1085 	5.40052 	8.46979e-21 12.2376 	5.5276 	1.28624e-20 12.2647 	5.54905 	6.97445e-21 12.2918 	5.57046 	1.08389e-21 12.3226 	5.59771 	2.29603e-22 12.3543 	5.62624 	5.11134e-22 12.3854 	5.65428 	7.88428e-22 12.4942 	5.73943 	9.7143e-22 12.6025 	5.82379 	1.15081e-21 12.7137 	5.91216 	6.70874e-21 12.8463 	6.0283 	4.44679e-20 12.9795 	6.14465 	8.27378e-20 13.0695 	6.2157 	1.80822e-19 13.1592 	6.2864 	2.78869e-19 13.2503 	6.35756 	2.63997e-19 13.3415 	6.42857 	2.24699e-19 13.429 	6.49665 	1.86669e-19 13.5119 	6.55739 	1.69384e-19 13.5945 	6.61785 	1.52016e-19 13.678 	6.67949 	1.38841e-19 13.7682 	6.74929 	1.50159e-19 13.8586 	6.81918 	1.61471e-19 14.0193 	6.9337 	-1.71243e-19 14.1792 	7.04749 	-5.03764e-19 14.3289 	7.14391 	-4.28114e-19 14.4764 	7.23668 	-2.73708e-19 14.6182 	7.3257 	-1.24487e-19 14.6551 	7.35046 	-7.0367e-20 14.6919 	7.37518 	-1.62024e-20 14.7287 	7.39971 	1.94141e-20 14.7651 	7.42315 	-7.32875e-20 14.8016 	7.4466 	-1.66131e-19 15.0093 	7.57237 	-9.98525e-20 15.2164 	7.69761 	-3.36165e-20 15.4053 	7.79923 	4.29111e-22 15.5721 	7.87574 	-7.85003e-21 15.7396 	7.95253 	-1.66944e-20 15.7682 	7.96623 	-7.49823e-21 15.7969 	7.97994 	1.6977e-21 15.8197 	7.98674 	9.82332e-21 15.8417 	7.99248 	1.77804e-20 15.8637 	7.99825 	2.57528e-20 16.0297 	8.07616 	1.97587e-19 16.1959 	8.15417 	3.69341e-19 16.3594 	8.22923 	5.16989e-19 16.4883 	8.26564 	3.58873e-19 16.6174 	8.30246 	2.00949e-19 16.7302 	8.3429 	3.65662e-19 16.8432 	8.38351 	5.3043e-19 16.927 	8.39343 	4.60515e-19 17.0094 	8.4018 	3.7616e-19 17.094 	8.41075 	2.90382e-19 17.1738 	8.4389 	2.68461e-19 17.2538 	8.46713 	2.4658e-19 17.3339 	8.49544 	2.24737e-19 17.3921 	8.50135 	2.34383e-19 17.45 	8.50696 	2.44716e-19 17.6431 	8.55454 	3.16667e-19 17.8372 	8.60298 	3.88948e-19 17.9815 	8.60452 	2.99003e-19 18.1177 	8.59841 	1.79223e-19 18.2271 	8.56956 	3.69276e-21 18.2473 	8.57068 	-5.55701e-22 18.267 	8.57137 	-4.15413e-21 18.2803 	8.56656 	2.50846e-22 18.2936 	8.56177 	4.65467e-21 18.3071 	8.55696 	9.0986e-21 18.4419 	8.55703 	1.90397e-20 18.5775 	8.55776 	2.90854e-20 18.714 	8.55912 	3.9234e-20 18.8033 	8.5214 	4.8383e-20 18.8847 	8.47839 	5.73572e-20 19.0295 	8.4731 	2.56309e-20 19.1651 	8.46081 	5.50422e-23 19.2577 	8.41627 	3.4317e-22 19.3518 	8.37279 	6.3067e-22 19.455 	8.32693 	9.40885e-22 19.4735 	8.32504 	9.54645e-22 19.492 	8.32316 	9.68426e-22 19.5106 	8.3213 	9.82227e-22 19.5235 	8.31522 	-1.63052e-21 19.534 	8.30729 	-5.39943e-21 19.6826 	8.2798 	-1.27912e-19 19.8036 	8.23109 	-2.05406e-19 19.9259 	8.18319 	-2.82056e-19 19.9913 	8.09668 	-1.87547e-19 20.0511 	8.00853 	-7.627e-20 20.1851 	7.96761 	-1.20878e-19 20.2989 	7.91445 	-1.4737e-19 20.3799 	7.84132 	-1.45054e-19 20.4625 	7.76924 	-1.42781e-19 20.5568 	7.68962 	-1.40283e-19 20.5639 	7.68633 	-1.38923e-19 20.571 	7.68305 	-1.37565e-19 20.5781 	7.67977 	-1.36207e-19 20.5833 	7.67535 	-1.35054e-19 20.5866 	7.66975 	-1.34117e-19 20.6911 	7.59615 	-1.63011e-19 20.7857 	7.51562 	-1.78021e-19 20.8816 	7.43575 	-1.92686e-19 20.9432 	7.33749 	-1.29163e-19 20.9781 	7.2272 	-7.46138e-21 21.1069 	7.15859 	6.74106e-21 21.2374 	7.0908 	2.06787e-20 21.3113 	6.99667 	7.27549e-21 21.3575 	6.88564 	0 21.3783 	6.76096 	0 21.4393 	6.71384 	0 21.4793 	6.65848 	0 21.5103 	6.59962 	0 21.5418 	6.54098 	0 21.5772 	6.47639 	0 21.6101 	6.43298 	0 21.6432 	6.38968 	0 21.6766 	6.34648 	0 21.7047 	6.30097 	0 21.7099 	6.24612 	0 21.8233 	6.16626 	0 21.8795 	6.0547 	-5.93325e-20 21.9367 	5.94347 	-1.19394e-19 21.9533 	5.81676 	-1.80279e-19 21.9523 	5.68518 	-2.41041e-19 22.0511 	5.59236 	-1.33675e-19 22.1513 	5.50003 	-2.67127e-20 22.2055 	5.39146 	1.84673e-21 22.1928 	5.2513 	-1.12344e-21 22.1813 	5.11326 	-4.13666e-21 22.2661 	5.00976 	6.16094e-19 22.3131 	4.89539 	6.77361e-19 22.3473 	4.77736 	5.38513e-19 22.383 	4.65975 	4.03615e-19 22.3866 	4.52884 	3.35395e-20 22.4147 	4.47839 	-1.044e-21 22.4244 	4.42359 	-9.55724e-22 22.4342 	4.36884 	-8.67074e-22 22.4443 	4.31414 	-7.78048e-22 22.4562 	4.25113 	-6.74944e-22 22.472 	4.1857 	-5.15847e-22 22.4881 	4.12033 	-3.57132e-22 22.5045 	4.05502 	-1.98802e-22 22.5212 	3.98978 	-4.08562e-23 22.5214 	3.92187 	0 22.565 	3.80739 	0 22.5809 	3.682 	0 22.5976 	3.55672 	0 22.6123 	3.43117 	0 22.5895 	3.30201 	0 22.6432 	3.19117 	0 22.667 	3.07016 	0 22.6719 	2.94266 	0 22.6524 	2.81351 	0 22.6191 	2.68436 	0 22.6605 	2.5706 	0 22.702 	2.4567 	0 22.6929 	2.32929 	0 22.6489 	2.20164 	0 22.6058 	2.0747 	0 22.6356 	1.96068 	0 22.6661 	1.84664 	0 22.6535 	1.72658 	-6.17804e-20 22.6013 	1.60347 	-2.20588e-19 22.55 	1.4808 	-3.77843e-19 22.5693 	1.36932 	-2.323e-19 22.5893 	1.25776 	-8.58236e-20 22.5703 	1.14457 	-1.88418e-19 22.5099 	1.02794 	-5.79406e-19 22.4502 	0.91152 	-9.69846e-19 22.4592 	0.804673 	-5.77382e-19 22.4687 	0.697711 	-1.85313e-19 22.441 	0.590188 	6.12339e-20 22.3727 	0.479622 	-1.2466e-20 22.305 	0.369071 	-9.02572e-20 22.3051 	0.267145 	-1.39271e-18 22.3057 	0.16507 	-2.69922e-18 22.2689 	0.0615227 	-2.68122e-18 22.1937 	-0.0441875 	-1.32964e-18 22.1188 	-0.150044 	1.74161e-20 22.1116 	-0.247701 	-1.39461e-18 22.1048 	-0.345535 	-2.81026e-18 22.0587 	-0.445928 	-2.78477e-18 21.9766 	-0.546327 	-1.45659e-18 21.8948 	-0.647005 	-1.29462e-19 21.8803 	-0.739905 	-1.68164e-18 21.8656 	-0.833051 	-3.21428e-18 21.8074 	-0.930564 	-2.93316e-18 21.7226 	-1.0267 	-1.41369e-18 21.6345 	-1.12302 	2.59705e-19 21.6132 	-1.21187 	9.7225e-20 21.5724 	-1.30251 	6.09449e-21 21.5077 	-1.39531 	2.49465e-21 21.4343 	-1.48782 	0 21.3406 	-1.57957 	0 21.3125 	-1.66431 	0 21.2419 	-1.75204 	-1.30051e-19 21.171 	-1.84006 	-2.62136e-19 21.1001 	-1.92835 	-3.94793e-19 21.0149 	-2.01624 	-5.17674e-19 20.9878 	-2.06172 	-1.44978e-18 20.9446 	-2.10801 	-1.23613e-18 20.9015 	-2.1544 	-1.01849e-18 20.8583 	-2.20087 	-7.96847e-19 20.8225 	-2.23957 	-6.09243e-19 20.7878 	-2.27841 	-4.55365e-19 20.7531 	-2.31733 	-2.99211e-19 20.7184 	-2.35631 	-1.40771e-19 20.6838 	-2.39536 	1.99656e-20 20.636 	-2.43424 	-5.81457e-19 20.5656 	-2.51468 	-4.32373e-19 20.4842 	-2.59353 	-2.85885e-19 20.403 	-2.67273 	-1.38738e-19 20.3154 	-2.75192 	-5.87822e-20 20.1977 	-2.83027 	-2.88459e-19 20.1311 	-2.9064 	-1.63308e-18 20.0615 	-2.9823 	-2.8481e-18 19.9723 	-3.05522 	-3.19925e-18 19.8509 	-3.12577 	-2.13316e-18 19.7287 	-3.19711 	-1.06137e-18 19.6566 	-3.2663 	-7.88399e-19 19.5818 	-3.33553 	-5.58753e-19 19.475 	-3.40146 	-8.5308e-19 19.3587 	-3.46599 	-1.26192e-18 19.2329 	-3.52968 	-1.78142e-18 19.1712 	-3.57917 	-3.67016e-18 19.085 	-3.62519 	-3.36181e-18 18.9964 	-3.67108 	-2.84722e-18 18.9076 	-3.71718 	-2.3256e-18 18.831 	-3.75714 	-1.86935e-18 18.8062 	-3.77095 	-1.81057e-18 18.7815 	-3.78477 	-1.75157e-18 18.7567 	-3.79862 	-1.69235e-18 18.7308 	-3.8122 	-1.65405e-18 18.7 	-3.82453 	-1.70859e-18 18