# vtk DataFile Version 2.0
track0
ASCII
DATASET POLYDATA
POINTS 10735 double
-0.0205 0.001 1e-05
-0.0204991 0.00100536 1e-05
-0.0204976 0.00101063 1e-05
-0.0204947 0.00101518 1e-05
-0.0204905 0.00101864 1e-05
-0.0204746 0.00102682 1e-05
-0.0201831 0.00105563 1e-05
-0.0203616 0.00128794 1e-05
-0.0204488 0.00141936 1e-05
-0.0201625 0.0014444 1e-05
-0.0201519 0.00173163 1e-05
-0.0202218 0.00184007 1e-05
-0.0200495 0.00193025 1e-05
-0.0200808 0.00212221 1e-05
-0.0201294 0.00229098 1e-05
-0.0200087 0.00238763 1e-05
-0.0199911 0.00254123 1e-05
-0.0200041 0.00269529 1e-05
-0.0199827 0.00277425 1e-05
-0.019869 0.00287784 1e-05
-0.0198179 0.00302292 1e-05
-0.0198054 0.00317624 1e-05
-0.0197599 0.00329221 1e-05
-0.0196347 0.00340323 1e-05
-0.0195485 0.00354672 1e-05
-0.0194776 0.0036983 1e-05
-0.019391 0.0038415 1e-05
-0.0193841 0.00384734 1e-05
-0.0193107 0.00390806 1e-05
-0.0192438 0.0039759 1e-05
-0.019179 0.00404569 1e-05
-0.0191112 0.00411262 1e-05
-0.0190172 0.00419777 1e-05
-0.0189564 0.00424668 1e-05
-0.0188939 0.0042933 1e-05
-0.0188297 0.0043376 1e-05
-0.0187639 0.00437959 1e-05
-0.0186583 0.00444232 1e-05
-0.0184262 0.00456521 1e-05
-0.0181851 0.00466942 1e-05
-0.0179369 0.00475558 1e-05
-0.0176828 0.00482189 1e-05
-0.0174976 0.00485343 1e-05
-0.0172058 0.00488413 1e-05
-0.0169124 0.00488585 1e-05
-0.0166199 0.00486347 1e-05
-0.0163297 0.00482024 1e-05
-0.0160387 0.00475613 1e-05
-0.0158294 0.00469337 1e-05
-0.0156238 0.00461954 1e-05
-0.0154224 0.00453501 1e-05
-0.0152237 0.00444403 1e-05
-0.0152203 0.00444232 1e-05
-0.0151039 0.00438401 1e-05
-0.0149902 0.00432044 1e-05
-0.0148797 0.00425153 1e-05
-0.0147715 0.00417901 1e-05
-0.0146381 0.00408367 1e-05
-0.0145773 0.00403641 1e-05
-0.0145173 0.00398805 1e-05
-0.0144582 0.00393858 1e-05
-0.0144001 0.00388799 1e-05
-0.0143542 0.00384734 1e-05
-0.0142301 0.00373631 1e-05
-0.0141125 0.00361838 1e-05
-0.0140024 0.00349339 1e-05
-0.0138983 0.0033634 1e-05
-0.0138439 0.00329221 1e-05
-0.0137667 0.00318862 1e-05
-0.013697 0.00307983 1e-05
-0.0136337 0.00296724 1e-05
-0.0135742 0.0028526 1e-05
-0.013537 0.00277425 1e-05
-0.0134939 0.0026776 1e-05
-0.013458 0.00257807 1e-05
-0.0134261 0.00247718 1e-05
-0.0133987 0.00237496 1e-05
-0.0133807 0.00229098 1e-05
-0.0133656 0.0022008 1e-05
-0.0133566 0.00210982 1e-05
-0.0133528 0.00201846 1e-05
-0.0133551 0.00192706 1e-05
-0.0133636 0.00184007 1e-05
-0.0133784 0.00175593 1e-05
-0.0134008 0.0016735 1e-05
-0.0134302 0.00159327 1e-05
-0.0134665 0.00151597 1e-05
-0.0135231 0.00141936 1e-05
-0.0135805 0.00134085 1e-05
-0.0136489 0.00127164 1e-05
-0.013723 0.00120865 1e-05
-0.0138016 0.00115141 1e-05
-0.0139954 0.00102682 1e-05
-0.014124 0.000957435 1e-05
-0.0142592 0.000902382 1e-05
-0.0143978 0.000856162 1e-05
-0.014537 0.000811975 1e-05
-0.0146381 0.000781574 1e-05
-0.0147219 0.000757372 1e-05
-0.014806 0.000734509 1e-05
-0.0148905 0.000712778 1e-05
-0.0149754 0.000693058 1e-05
-0.0151486 0.000660566 1e-05
-0.0153266 0.000637961 1e-05
-0.015505 0.000618781 1e-05
-0.0156837 0.000602267 1e-05
-0.0158626 0.00058775 1e-05
-0.0160387 0.00056802 1e-05
-0.0162824 0.000518184 1e-05
-0.01653 0.000493422 1e-05
-0.0167786 0.000482342 1e-05
-0.0170273 0.000475559 1e-05
-0.0174976 0.000406488 1e-05
-0.0174976 0.000406488 1e-05
-0.0174976 0.000406488 1e-05
-0.0174976 0.000406488 1e-05
-0.0174976 0.000406488 1e-05
-0.0174976 0.000406488 1e-05
-0.0174952 0.000388958 1e-05
-0.0174898 0.000372106 1e-05
-0.0174821 0.000356175 1e-05
-0.0174727 0.000341194 1e-05
-0.0174557 0.000318841 1e-05
-0.0173838 0.000255072 1e-05
-0.0172967 0.000214399 1e-05
-0.0172047 0.000186604 1e-05
-0.0171105 0.000167062 1e-05
-0.0160387 4.46024e-06 1e-05
-0.0160287 3.5682e-06 1e-05
-0.0160188 3.11212e-06 1e-05
-0.0160088 2.69793e-06 1e-05
-0.0159989 2.28375e-06 1e-05
-0.0159439 0 1e-05
-0.0205 0.00367778 1e-05
-0.0203955 0.00371169 1e-05
-0.0203045 0.0037732 1e-05
-0.0202171 0.00383976 1e-05
-0.0201979 0.00384734 1e-05
-0.0199618 0.0039343 1e-05
-0.019766 0.00409241 1e-05
-0.0196201 0.00429749 1e-05
-0.0194752 0.00444232 1e-05
-0.0193836 0.00449614 1e-05
-0.0192963 0.00455663 1e-05
-0.0192132 0.00462285 1e-05
-0.0191277 0.00468596 1e-05
-0.0190172 0.00476144 1e-05
-0.0189141 0.00482515 1e-05
-0.0188083 0.00488434 1e-05
-0.0187001 0.00493906 1e-05
-0.0185899 0.00498944 1e-05
-0.0183684 0.00508 1e-05
-0.0181943 0.00513499 1e-05
-0.018018 0.00518302 1e-05
-0.0178401 0.00522424 1e-05
-0.0176607 0.00525852 1e-05
-0.0174976 0.00528151 1e-05
-0.0172058 0.00530939 1e-05
-0.0169127 0.00531422 1e-05
-0.0166201 0.0052972 1e-05
-0.0163294 0.00526 1e-05
-0.0160387 0.005205 1e-05
-0.0159406 0.00518 1e-05
-0.015843 0.00515302 1e-05
-0.0157459 0.00512414 1e-05
-0.0156492 0.00509404 1e-05
-0.0156061 0.00508 1e-05
-0.0154125 0.00501578 1e-05
-0.0152223 0.00494212 1e-05
-0.0150362 0.00485865 1e-05
-0.0148544 0.00476614 1e-05
-0.0146381 0.00464631 1e-05
-0.0145719 0.00460551 1e-05
-0.0145062 0.00456383 1e-05
-0.0144411 0.00452126 1e-05
-0.0143766 0.0044779 1e-05
-0.0143242 0.00444232 1e-05
-0.0141506 0.00432332 1e-05
-0.0139836 0.00419531 1e-05
-0.0138243 0.00405779 1e-05
-0.0136697 0.00391504 1e-05
-0.0135992 0.00384734 1e-05
-0.0135381 0.0037874 1e-05
-0.013479 0.00372538 1e-05
-0.0134215 0.00366197 1e-05
-0.0133648 0.00359777 1e-05
-0.0132934 0.00351454 1e-05
-0.0132568 0.00347007 1e-05
-0.0132206 0.00342524 1e-05
-0.0131849 0.00338003 1e-05
-0.0131497 0.00333444 1e-05
-0.0131176 0.00329221 1e-05
-0.0130395 0.00318862 1e-05
-0.0129633 0.0030836 1e-05
-0.0128899 0.00297658 1e-05
-0.0128198 0.00286743 1e-05
-0.0127624 0.00277425 1e-05
-0.0127047 0.0026776 1e-05
-0.0126484 0.00258012 1e-05
-0.0125936 0.00248176 1e-05
-0.0125403 0.00238261 1e-05
-0.0124934 0.00229098 1e-05
-0.0124498 0.0022008 1e-05
-0.0124064 0.00211048 1e-05
-0.0123633 0.00202004 1e-05
-0.0123205 0.00192948 1e-05
-0.0122794 0.00184007 1e-05
-0.0122444 0.00175593 1e-05
-0.0122078 0.00167243 1e-05
-0.01217 0.0015895 1e-05
-0.0121307 0.00150727 1e-05
-0.0120863 0.00141936 1e-05
-0.0120695 0.00138717 1e-05
-0.0120515 0.00135568 1e-05
-0.0120324 0.00132483 1e-05
-0.0120122 0.00129472 1e-05
-0.0120025 0.00128145 1e-05
-0.011964 0.00123053 1e-05
-0.0119222 0.00118223 1e-05
-0.0118772 0.00113694 1e-05
-0.0118291 0.00109496 1e-05
-0.0117386 0.00102682 1e-05
-0.0116229 0.000953567 1e-05
-0.0114992 0.000894592 1e-05
-0.011371 0.00084639 1e-05
-0.01124 0.000806584 1e-05
-0.0107632 0.000722975 1e-05
-0.0105252 0.000731587 1e-05
-0.0102871 0.000727082 1e-05
-0.010049 0.000724595 1e-05
-0.00981092 0.000723334 1e-05
-0.00957337 0.000722846 1e-05
-0.00934491 0.000732314 1e-05
-0.00911628 0.000728707 1e-05
-0.00888764 0.000726236 1e-05
-0.008659 0.000724545 1e-05
-0.00843108 0.000723401 1e-05
-0.00821175 0.000732455 1e-05
-0.00799227 0.000728391 1e-05
-0.00777278 0.000725347 1e-05
-0.00755327 0.000723038 1e-05
-0.00733443 0.000721269 1e-05
-0.00712387 0.000729691 1e-05
-0.00691317 0.000725535 1e-05
-0.00670246 0.0007223 1e-05
-0.00649174 0.000719747 1e-05
-0.0062816 0.000717709 1e-05
-0.00607944 0.000725429 1e-05
-0.00587718 0.000721541 1e-05
-0.0056749 0.000718442 1e-05
-0.00547262 0.000715942 1e-05
-0.00527083 0.000713904 1e-05
-0.00507675 0.000720928 1e-05
-0.00488258 0.000717443 1e-05
-0.0046884 0.000714619 1e-05
-0.0044942 0.000712305 1e-05
-0.00430044 0.000710392 1e-05
-0.00411412 0.000716775 1e-05
-0.00392771 0.000713716 1e-05
-0.0037413 0.000711199 1e-05
-0.00355488 0.000709108 1e-05
-0.00336883 0.000707357 1e-05
-0.00318995 0.000713162 1e-05
-0.003011 0.000710478 1e-05
-0.00283204 0.000708257 1e-05
-0.00265307 0.000706408 1e-05
-0.00247443 0.00070486 1e-05
-0.0023027 0.000710223 1e-05
-0.0021309 0.000707978 1e-05
-0.00195909 0.000706122 1e-05
-0.00178729 0.000704582 1e-05
-0.00161577 0.000703302 1e-05
-0.0014509 0.000708382 1e-05
-0.00128596 0.000706564 1e-05
-0.00112102 0.000705244 1e-05
-0.000956072 0.00070433 1e-05
-0.000791418 0.000703751 1e-05
-0.000633135 0.000709368 1e-05
-0.000474753 0.00070874 1e-05
-0.000316369 0.000708614 1e-05
-0.000157986 0.000708905 1e-05
0 0.000709542 1e-05
0.000105677 0.000714384 1e-05
0.000211464 0.000715052 1e-05
0.00031725 0.000715713 1e-05
0.000423036 0.000716367 1e-05
0.000528387 0.000717012 1e-05
0.000634886 0.000721794 1e-05
0.000741492 0.00072209 1e-05
0.000848099 0.000722171 1e-05
0.000954705 0.000722058 1e-05
0.00106088 0.000721768 1e-05
0.00116821 0.000725509 1e-05
0.0012756 0.000725093 1e-05
0.00138299 0.000724723 1e-05
0.00149038 0.000724395 1e-05
0.00159752 0.000724106 1e-05
0.00170568 0.000727748 1e-05
0.0018139 0.000727816 1e-05
0.00192212 0.000728129 1e-05
0.00203035 0.000728667 1e-05
0.00213833 0.000729412 1e-05
0.00224733 0.000734026 1e-05
0.00235642 0.000735339 1e-05
0.00246551 0.000736906 1e-05
0.00257459 0.000738708 1e-05
0.00268334 0.000740723 1e-05
0.00279319 0.00074671 1e-05
0.00290317 0.000749396 1e-05
0.00301314 0.000752287 1e-05
0.00312311 0.00075537 1e-05
0.00323259 0.000758619 1e-05
0.00334329 0.000766082 1e-05
0.00345417 0.0007703 1e-05
0.00356504 0.000774458 1e-05
0.00367592 0.000778736 1e-05
0.00378611 0.000783746 1e-05
0.00389767 0.000792538 1e-05
0.00400942 0.000798633 1e-05
0.00412121 0.000803727 1e-05
0.004233 0.000808825 1e-05
0.00434393 0.00081537 1e-05
0.00445636 0.000825015 1e-05
0.00456897 0.000832277 1e-05
0.00468169 0.000837675 1e-05
0.00479441 0.000842938 1e-05
0.00490609 0.000850202 1e-05
0.0050194 0.000860006 1e-05
0.00513288 0.000867535 1e-05
0.00524649 0.000872783 1e-05
0.0053601 0.000877897 1e-05
0.00547262 0.00088499 1e-05
0.00558681 0.000894224 1e-05
0.00570116 0.000901149 1e-05
0.00581563 0.000905768 1e-05
0.0059301 0.000910143 1e-05
0.00604356 0.000916268 1e-05
0.00615863 0.000924288 1e-05
0.00627385 0.000929891 1e-05
0.00638916 0.000933093 1e-05
0.00650448 0.000935972 1e-05
0.00661893 0.0009405 1e-05
0.0067349 0.000946789 1e-05
0.00685098 0.000950585 1e-05
0.00696711 0.000951968 1e-05
0.00708325 0.000952972 1e-05
0.00719878 0.0009555 1e-05
0.00731565 0.000959674 1e-05
0.00743258 0.000961432 1e-05
0.00754953 0.000960981 1e-05
[...]
POINT_DATA 10735
 FIELD attributes 2
p 1 10735 float
126.533 141.769 146.116 148.716 149.43 147.29 136.462 774.15 752.75 589.822 659.127 298.669 284.433 260.73 -46.5763 14.1623 106.732 -33.6938 -144.941 -53.9874 118.392 -27.0416 -168.026 -101.631 -42.727 -68.3302 -209.815 -216.456 -198.333 -193.398 -209.295 -226.946 -252.766 -270.29 -288.959 -308.726 -308.338 -281.998 -327.678 -375.146 -388.125 -390.035 -396.116 -399.693 -403.048 -407.135 -389.795 -367.765 -351.211 -336.586 -315.398 -295.523 -295.201 -282.564 -270.927 -256.445 -241.372 -223.128 -215.308 -207.706 -200.33 -199.693 -200.224 -166.237 -134.398 -124.893 -133.19 -138.123 -103.18 -79.2689 -71.0097 -69.9672 -79.7502 -50.6384 -43.3065 -36.2394 -29.4823 -32.66 -17.9164 -12.3039 -7.0836 -2.32302 -5.40217 5.41891 7.82401 9.66312 10.8934 -12.937 9.59541 8.74424 5.35198 -7.48116 -86.3139 -83.074 -94.6771 -135.225 -175.871 -205.307 -227.449 -249.629 -275.848 -310.297 -377.981 -433.667 -489.902 -546.549 -610.301 -680.003 -792.828 -904.667 -1017.76 -1159.4 -1429.99 -1429.99 -1429.99 -1429.99 -1429.99 -1429.99 -1428.47 -1425.23 -1420.67 -1415.13 -1408.57 -1359.63 -1307.82 -1255.94 -1204.55 -702.013 -697.447 -693.463 -690.005 -686.547 -667.482
110.322 110.216 85.5237 7.44303 -3.84739 -12.1312 33.8309 -33.8308 -133.363 -129.562 -123.079 -136.936 -151.811 -171.799 -189.574 -208.572 -228.711 -225.194 -217.986 -237.447 -257.621 -276.265 -282.659 -290.205 -296.696 -308.117 -304.516 -294.679 -286.525 -282.774 -278.962 -271.864 -264.929 -261.895 -249.408 -238.392 -226.735 -209.09 -188.71 -182.473 -176.365 -171.296 -170.073 -169.13 -138.993 -108.607 -97.0792 -99.8068 -101.478 -83.8955 -72.8844 -67.9605 -63.0876 -56.9184 -53.8951 -50.8965 -47.9236 -46.0201 -46.3094 -32.0747 -23.3707 -14.8172 -13.3421 -14.657 0.805419 16.3138 22.6565 20.3471 18.1068 33.5656 44.7879 48.9039 50.9454 47.7946 61.6469 64.258 66.8506 69.4206 69.2096 72.738 72.8708 72.9927 73.1031 73.1475 73.6494 74.1426 74.6243 75.0919 71.4405 72.3834 72.7293 72.5786 66.8779 48.1267 43.9398 37.8201 31.8064 25.8574 18.7212 15.6229 11.2522 6.93136 2.6448 -2.43325 -3.33302 -5.99786 -8.61305 -11.1925 -14.9993 -14.7378 -16.4641 -18.1441 -19.7899 -22.8472 -22.0865 -23.2389 -24.353 -25.4379 -27.8977 -26.8207 -27.5374 -28.2233 -28.8852 -30.8638 -29.5749 -29.9892 -30.3789 -30.7491 -32.4011 -31.0188 -31.2242 -31.4092 -31.5779 -32.9692 -31.5048 -31.5636 -31.6056 -31.6341 -32.8745 -31.327 -31.1458 -30.9447 -30.7275 -31.6891 -29.8778 -29.6068 -29.3148 -29.0053 -30.2051 -28.085 -27.9957 -27.9068 -27.8182 -29.7142 -27.812 -27.3413 -26.8779 -26.4213 -27.5027 -25.7114 -24.8667 -24.021 -23.1744 -23.4955 -22.2421 -21.7358 -21.2264 -20.7142 -21.0574 -20.3696 -20.2795 -20.1875 -20.0938 -20.6534 -20.2616 -20.4072 -20.5517 -20.6953 -21.45 -21.2727 -21.6317 -22.0215 -22.5078 -23.4404 -23.6009 -24.1042 -24.809 -25.7209 -26.8394 -27.3127 -27.909 -28.8999 -30.1251 -31.3724 -32.0355 -32.7087 -33.8272 -35.1665 -36.4756 -37.2281 -38.0017 -39.0346 -40.3524 -41.6345 -42.3762 -43.1513 -44.0494 -45.2889 -46.4891 -47.1644 -47.8858 -48.6739 -49.7921 -50.8796 -51.4822 -52.1374 -52.8346 -53.7585 -54.6639 -55.1352 -55.6587 -56.228 -56.9505 -57.6467 -57.94 -58.2793 -58.708 -59.236 -59.7502 -59.8745 -60.0362 -60.2904 -60.6212 -60.9499 -60.898 -60.8762 -60.8991 -61.029 -61.1907 -60.977 -60.7919 -60.6291 -60.4831 -60.4949 -60.1974 -59.9129 -59.6394 -59.3771 -59.2093 -59.1619 -59.1153 -59.0696 -59.0248 -58.9841 -58.4938 -58.0802 -57.6832 -57.3113 -56.9916 -56.2607 -55.5467 -55.0672 -54.6998 -54.3457 -53.6202 -52.9509 -52.3424 -51.7505 -51.2672 -51.1529 -51.0427 -50.9348 -50.8273 -50.7237 -50.215 -49.7161 -49.2273 -48.7101 -48.1468 -47.3199 -46.505 -45.5328 -44.6379 -43.7473 -43.3229 -42.8545 -42.3182 -41.783 -41.2757 -40.5926 -39.9115 -39.2324 -38.4905 -37.6968 -36.1831 -34.6722 -33.1851 -31.6989 -30.2058 -29.364 -28.4947 -27.5784 -26.6618 -25.7368 -24.9573 -24.1777 -23.3981 -22.5957 -21.7732 -19.9284 -18.1194 -16.4065 -14.6642 -12.9369 -11.3757 -9.79174 -8.18882 -6.58638 -4.69307 -4.61214 -4.53122 -4.4503 -4.36913 -4.28728 -2.65709 -1.04523 0.561208 2.16793 3.75578 5.20728 6.6505 8.01809 9.35129 10.6492 11.7671 12.8799 13.9966 15.0813 16.0978 16.899 17.7212 18.5264 19.314 20.0609 20.5812 21.1131 21.6239 22.1129 22.5849 22.8334 23.0908 23.3219 23.5259 23.7407 23.6983 23.6642 23.5982 23.5189 23.429 23.0683 22.6773 22.2733 21.8566 21.3947 20.8536 20.287 19.6997 19.1004 18.7014 18.5055 18.3083 18.1096 17.9042 17.6929 16.783 15.8431 14.849 13.8086 12.7272 12.2088 11.6865 11.1345 10.5816 10.0556 9.42577 8.79488 8.16092 7.47829 6.78884 5.69201 4.59404 3.41286 2.22391 1.08486 0.910445 0.736012 0.559971 0.373806 0.187462 -1.13898 -2.46612 -3.87617 -5.34553 -6.82866 -7.09376 -7.35887 -7.63984 -7.92442 -8.20457 -9.33633 -10.4677 -11.6099 -12.8186 -14.0406 -14.7534 -15.466 -16.2212 -16.9854 -17.7214 -18.4199 -19.118 -19.8222 -20.5632 -21.3084 -22.4336 -23.558 -24.7391 -25.9308 -27.079 -27.3492 -27.6192 -27.8912 -28.1769 -28.4629 -29.7849 -31.106 -32.4641 -33.916 -35.376 -35.5642 -35.7524 -35.9461 -36.1407 -36.3358 -37.4496 -38.5637 -39.6804 -40.8249 -41.9688 -42.67 -43.3718 -44.0772 -44.784 -45.5068 -46.0196 -46.5328 -47.0464 -47.5714 -48.0958 -49.1978 -50.3033 -51.415 -52.5322 -53.7255 -53.8526 -53.9794 -54.1015 -54.2238 -54.3473 -55.273 -56.2039 -57.1399 -58.0667 -58.9853 -59.8017 -60.6102 -61.3684 -62.1331 -62.9672 -63.0843 -63.2015 -63.3188 -63.4356 -63.5521 -64.3306 -65.1805 -66.0405 -66.881 -67.715 -68.3763 -69.0257 -69.6516 -70.287 -71.0094 -71.0544 -71.0995 -71.1445 -71.1886 -71.2316 -71.8546 -72.5082 -73.1737 -73.8164 -74.4336 -74.9425 -75.4629 -75.917 -76.4138 -76.9489 -77.1899 -77.3984 -77.595 -77.7958 -78.0225 -78.2185 -78.4169 -78.6179 -78.8168 -78.9984 -79.2639 -79.5955 -79.941 -80.2537 -80.5551 -80.7451 -80.9482 -81.1091 -81.2915 -81.4871 -81.5884 -81.6507 -81.7082 -81.7802 -81.869 -81.8686 -81.8494 -81.8331 -81.8197 -81.8078 -81.8212 -81.8386 -81.86 -81.8853 -81.9363 -81.8233 -81.7526 -81.6957 -81.6576 -81.6979 -81.5027 -81.345 -81.2166 -81.155 -81.1385 -80.8971 -80.6683 -80.4806 -80.3857 -80.3039 -80.0112 -79.7304 -79.5072 -79.3587 -79.2226 -78.885 -78.5586 -78.3065 -78.1144 -77.9337 -77.5645 -77.2057 -76.9249 -76.696 -76.4775 -76.0844 -75.7007 -75.3817 -75.1188 -74.8652 -74.4516 -74.0467 -73.6718 -73.3695 -73.0756 -72.638 -72.2082 -71.767 -71.415 -71.0803 -70.6174 -70.1491 -69.673 -69.2303 -68.8531 -68.364 -67.8463 -67.3352 -66.8312 -66.3734 -66.0767 -65.7663 -65.4579 -65.1515 -64.8983 -64.6577 -64.4184 -64.1807 -63.9444 -63.6785 -63.0799 -62.515 -61.9563 -61.3887 -60.7557 -60.1071 -59.4726 -58.8832 -58.2309 -57.58 -56.9235 -56.2661 -55.5435 -54.8505 -54.1811 -53.646 -53.0687 -52.49 -51.9139 -51.4192 -51.2607 -51.1025 -50.9445 -50.7837 -50.6098 -49.8636 -49.1443 -48.4286 -47.6886 -46.9155 -46.1623 -45.4124 -44.6322 -43.8854 -43.1376 -42.652 -42.1542 -41.6501 -41.1471 -40.6854 -40.4175 -40.1499 -39.8825 -39.6115 -39.3348 -38.5531 -37.8039 -37.0641 -36.3137 -35.5576 -34.8224 -34.0877 -33.3534 -32.6207 -31.9587 -31.9401 -31.9215 -31.9029 -31.8844 -31.866 -31.1418 -30.4219 -29.703 -28.9938 -28.2836 -27.5863 -26.8959 -26.2181 -25.5412 -24.9135 -24.9021 -24.8908 -24.8794 -24.8684 -24.8574 -24.1925 -23.5302 -22.8685 -22.2312 -21.5958 -21.091 -20.5922 -20.1152 -19.6385 -19.1836 -19.0491 -18.9146 -18.7801 -18.6523 -18.5255 -17.9224 -17.3281 -16.7535 -16.2087 -15.6606 -15.4091 -15.1597 -14.9264 -14.6931 -14.4644 -14.1646 -13.8648 -13.565 -13.2883 -13.0123 -12.4993 -11.9866 -11.5182 -11.0502 -10.5829 -10.5718 -10.5607 -10.5506 -10.5404 -10.5303 -10.0835 -9.63675 -9.18998 -8.78418 -8.37689 -8.15661 -7.93634 -7.73472 -7.53318 -7.3341 -7.13229 -6.93048 -6.72949 -6.54698 -6.36424 -5.98703 -5.60983 -5.2697 -4.93105 -4.59706 -4.58406 -4.57107 -4.55817 -4.54653 -4.53488 -4.18957 -3.84715 -3.5097 -3.20135 -2.89267 -2.77337 -2.65407 -2.54492 -2.43652 -2.32839 -2.13362 -1.93885 -1.74734 -1.57448 -1.40164 -1.19846 -0.995274 -0.814498 -0.63748 -0.460457 -0.380717 -0.300979 -0.221862 -0.149506 -0.0771974 0.169355 0.415901 0.650659 0.878836 1.10434 1.13015 1.15596 1.1795 1.20287 1.22626 1.42153 1.61675 1.81176 1.98483 2.15726 2.27888 2.4004 2.51189 2.62338 2.73683 2.80919 2.88154 2.95388 3.0222 3.08999 3.26776 3.44547 3.6127 3.77052 3.92713 3.96839 4.00899 4.0451 4.0812 4.11777 4.22768 4.33752 4.44729 4.54913 4.6483 4.78184 4.91495 5.04523 5.17539 5.30324 5.31474 5.32607 5.33697 5.34786 5.35884 5.47128 5.58355 5.69565 5.79863 5.89572 6.00699 6.11673 6.21427 6.31163 6.40458 6.4257 6.44538 6.46341 6.48143 6.49996 6.56767 6.6352 6.70257 6.76518 6.82146 6.89435 6.967 7.03578 7.10069 7.16462 7.22219 7.28002 7.33785 7.39546 7.46254 7.46838 7.47422 7.48006 7.48587 7.49154 7.54805 7.60305 7.65769 7.7077 7.74442 7.77978 7.81486 7.84882 7.88096 7.91252 7.94422 7.9754 8.00569 8.03619 8.06736 8.09883 8.11698 8.13493 8.15269 8.16965 8.17064 8.17155 8.17245 8.17334 8.17428 8.182 8.18951 8.19681 8.20389 8.21182 8.22059 8.22828 8.23567 8.24258 8.24512 8.253 8.25505 8.25511 8.24806 8.23028 8.21403 8.19717 8.17966 8.16028 8.13955 8.10955 8.08381 8.06457 8.05461 8.05148 8.04123 8.03099 8.02074 8.00961 7.99688 7.98917 7.97244 7.9543 7.9359 7.90064 7.86822 7.82873 7.78914 7.74944 7.70866 7.70602 7.70349 7.70096 7.69843 7.69593 7.64841 7.60093 7.55349 7.50607 7.4542 7.40055 7.35639 7.31222 7.27227 7.238 7.19635 7.1547 7.12777 7.11081 7.09381 7.07214 7.05054 7.03088 7.01163 6.99256 6.97427 6.95738 6.94071 6.92404 6.90602 6.8998 6.8945 6.8892 6.8839 6.8783 6.86968 6.86106 6.85244 6.84383 6.83672 6.82852 6.81992 6.81133 6.80336 6.79712 6.79461 6.79211 6.78965 6.78991 6.7902 6.793 6.79579 6.80032 6.80596 6.81158 6.8185 6.82585 6.83467 6.84391 6.85346 6.86342 6.87472 6.88648 6.89822 6.91197 6.92643 6.94264 6.95882 6.97495 6.99289 7.01391 7.03564 7.05735 7.07903 7.10194 7.12897 7.15672 7.18445 7.21215 7.24182 7.27584 7.31071 7.34558 7.38044 7.41881 7.46048 7.5034 7.54635 7.58931 7.63811 7.6872 7.73775 7.78836 7.83998 7.8973 7.95299 8.00931 8.06615 8.1264 8.18854 8.24954 8.31064 8.37361 8.4395 8.5058 8.57127 8.63714 8.70567 8.77438 8.84365 8.9124 8.98223 9.05223 9.1224 9.1932 9.19405 9.19492 9.19578 9.19664 9.1975 9.26725 9.33719 9.40731 9.47777 9.55059 9.62247 9.69457 9.7673 9.84181 9.91745 9.99084 10.0656 10.1414 10.2175 10.2826 10.2851 10.2876 10.2901 10.2927 10.2952 10.3724 10.45 10.5278 10.6066 10.6877 10.7676 10.8478 10.9285 11.0095 11.0929 11.0934 11.0938 11.0942 11.0947 11.0951 11.1764 11.2581 11.3402 11.4211 11.5047 11.556 11.6075 11.6582 11.7091 11.7529 11.7863 11.8198 11.8534 11.8864 11.9201 12.0026 12.0855 12.1681 12.251 12.318 12.3227 12.3275 12.3322 12.3371 12.3419 12.4273 12.5131 12.5995 12.6868 12.7784 12.7901 12.8019 12.8137 12.8256 12.8372 12.9162 12.9955 13.0736 13.1503 13.2304 13.2453 13.2602 13.2748 13.289 13.3029 13.3794 13.456 13.531 13.6048 13.6819 13.6899 13.698 13.7059 13.7136 13.7213 13.8009 13.8807 13.9593 14.0369 14.1073 14.1127 14.1182 14.1238 14.1294 14.135 14.2052 14.2754 14.3461 14.4181 14.4865 14.5121 14.5377 14.5637 14.5898 14.616 14.6684 14.7207 14.7733 14.8267 14.8797 14.931 14.9823 15.0343 15.0865 15.138 15.1699 15.2018 15.2338 15.2664 15.2997 15.3784 15.4569 15.5379 15.6192 15.6952 15.7107 15.7262 15.7419 15.758 15.7746 15.8746 15.9736 16.0808 16.1927 16.2901 16.3086 16.327 16.3473 16.3683 16.3906 16.4896 16.5868 16.6841 16.788 16.8813 16.9514 17.0214 17.0969 17.171 17.2696 17.2975 17.3252 17.3527 17.3831 17.4147 17.5087 17.6024 17.6944 17.7983 17.8981 17.9693 18.0418 18.1198 18.1961 18.2725 18.2927 18.3159 18.3394 18.3626 18.3899 18.4213 18.4522 18.4827 18.5123 18.5317 18.5769 18.6104 18.6426 18.6633 18.6737 18.694 18.7129 18.7158 18.7017 18.6872 18.6823 18.6744 18.6477 18.6143 18.578 18.551 18.5105 18.4647 18.4183 18.3658 18.3176 18.2566 18.1952 18.1333 18.0695 18.0304 17.9874 17.9442 17.9008 17.8436 17.8163 17.789 17.7617 17.7343 17.7042 17.625 17.5445 17.4638 17.3827 17.2945 17.2128 17.128 17.043 16.9577 16.8626 16.7795 16.6928 16.6059 16.5187 16.4209 16.3377 16.2523 16.1666 16.0808 15.9861 15.9059 15.8255 15.7449 15.6641 15.5775 15.5039 15.4316 15.3591 15.2865 15.2105 15.1463 15.0837 15.0209 14.9581 14.893 14.8393 14.7866 14.7338 14.681 14.6266 14.5833 14.5406 14.4978 14.455 14.4115 14.3789 14.3465 14.3139 14.2813 14.2487 14.2476 14.2465 14.2454 14.2444 14.2433 14.2201 14.1968 14.1735 14.15 14.1228 14.1106 14.0956 14.0806 14.0654 14.0421 14.0434 14.026 14.0085 13.9834 13.942 13.9242 13.9113 13.9094 13.9181 13.9281 13.9731 14.0179 14.0024 13.9229 13.8423 13.7868 13.7277 13.6514 13.5663 13.4785 13.4066 13.3327 13.2544 13.1768 13.0995 13.0363 12.9685 12.894 12.8155 12.734 12.6658 12.5928 12.5137 12.4306 12.3444 12.2691 12.1898 12.1052 12.018 11.9289 11.8491 11.7663 11.6781 11.588 11.4968 11.4151 11.3306 11.2384 11.1417 11.0435 10.9557 10.8668 10.7694 10.6666 10.5633 10.471 10.3788 10.2751 10.1636 10.0521 9.95149 9.85094 9.74398 9.63248 9.52101 9.42017 9.31932 9.21524 9.10707 8.99896 8.90115 8.80333 8.7076 8.61044 8.51336 8.42663 8.34023 8.25569 8.17061 8.08544 8.01079 7.93471 7.8571 7.77833 7.69772 7.62763 7.55053 7.4718 7.39306 7.30812 7.2315 7.14429 7.05708 6.96987 6.87743 6.7842 6.68402 6.58385 6.48368 6.38173 6.33485 6.28564 6.23642 6.18721 6.13145 6.0661 6.00076 5.9354 5.87005 5.80359 5.66996 5.53519 5.4004 5.2656 5.12729 4.97376 4.81574 4.65772 4.49968 4.33411 4.15695 3.97532 3.79356 3.61059 3.4235 3.22499 3.01816 2.80515 2.58261 2.35301 2.11045 1.87196 1.65332 1.46096 1.27026 1.06786 0.865478 0.610424 0.305322 0