/*--------------------------------*- C++ -*----------------------------------*\
| =========                 |                                                 |
| \\      /  F ield         | OpenFOAM: The Open Source CFD Toolbox           |
|  \\    /   O peration     | Version:  v1906                                 |
|   \\  /    A nd           | Web:      www.OpenFOAM.com                      |
|    \\/     M anipulation  |                                                 |
\*---------------------------------------------------------------------------*/
FoamFile
{
    version     2.0;
    format      ascii;
    class       volScalarField;
    location    "2000";
    object      epsilon;
}
// * * * * * * * * * * * * * * * * * * * * * * * * * * * * * * * * * * * * * //

dimensions      [0 2 -3 0 0 0 0];


internalField   nonuniform List<scalar> 
12225
(
8534.34
8358.77
8007.02
7625.9
7271.12
6953.64
6673.89
6428.56
6212.08
6023.32
5853.15
5708.69
5594.34
5502.66
5420.35
5361.12
5292.11
5265.81
613.289
1491.95
1695.93
1687.57
1643.43
1583.31
1532.43
1488.75
1451.15
1417.78
1389.73
1364.17
1344.3
1326.52
1311.77
1299.35
1283.59
1273.17
136.16
458.051
618.091
686.298
715.059
720.509
717.992
711.457
701.63
690.861
680.577
670.156
660.685
651.659
643.278
636.105
627.576
623.009
58.5088
195.963
292.242
349.067
383.007
401.933
412.223
417.464
418.782
418.137
416.401
413.431
409.993
406.335
402.507
399.01
394.492
392.504
35.9875
104.727
162.906
203.318
231.127
249.92
262.594
271.186
276.717
280.158
282.2
283.152
283.15
282.83
282.055
281.067
279.406
279.179
26.8395
65.6085
102.206
130.483
151.706
167.451
179.122
187.826
194.258
198.984
202.452
204.952
206.642
207.795
208.5
208.876
208.909
209.338
22.3051
46.1196
70.087
90.0656
106.014
118.578
128.449
136.233
142.367
147.2
151.018
154.032
156.381
158.215
159.634
160.721
161.493
162.469
19.7662
35.2993
51.5664
65.9133
77.9258
87.8118
95.9079
102.545
107.99
112.464
116.15
119.192
121.698
123.767
125.473
126.88
128.026
129.226
18.2255
28.7912
40.1607
50.6308
59.7409
67.5017
74.0637
79.6049
84.2862
88.2463
91.6039
94.457
96.884
98.9518
100.717
102.227
103.525
104.79
17.2358
24.6387
32.7747
40.5289
47.4968
53.6059
58.9087
63.4962
67.4624
70.8942
73.8681
76.4502
78.6957
80.652
82.3599
83.8547
85.1761
86.4213
16.5723
21.8698
27.8005
33.617
38.9907
43.8212
48.1098
51.8972
55.2357
58.1781
60.7736
63.0661
65.0939
66.8904
68.4852
69.905
71.1807
72.3665
16.1505
20.1196
24.6325
29.1585
33.4332
37.3543
40.8996
44.0831
46.9328
49.4812
51.7602
53.7998
55.627
57.2661
58.7388
60.0657
61.27
62.3846
15.8387
18.8324
22.2885
25.8282
29.2426
32.4354
35.373
38.0526
40.4863
42.6918
44.6891
46.4978
48.1365
49.6223
50.9715
52.1991
53.3222
54.3618
15.5804
17.7746
20.3514
23.0514
25.7157
28.2602
30.646
32.8596
34.9014
36.7781
38.4999
40.0781
41.5244
42.85
44.0659
45.1828
46.2123
47.1675
15.375
16.9414
18.8168
20.8317
22.8702
24.8625
26.7698
28.5725
30.263
31.8402
33.307
34.6682
35.9301
37.0991
38.182
39.1858
40.1178
40.9861
15.2206
16.3214
17.6684
19.1558
20.7025
22.2527
23.7704
25.2337
26.6301
27.9534
29.2012
30.3738
31.4731
32.5022
33.4644
34.3639
35.2048
35.9915
15.1157
15.9043
16.8917
18.013
19.2117
20.4438
21.6774
22.89
24.067
25.1988
26.2799
27.3075
28.2809
29.2004
30.0675
30.8839
31.652
32.3736
15.0632
15.6965
16.5025
17.4361
18.4535
19.5177
20.5994
21.677
22.7348
23.7621
24.7517
25.6995
26.6031
27.4618
28.2757
29.0458
29.7737
30.4615
15.0795
15.76
16.6199
17.6079
18.6772
19.7889
20.9136
22.0295
23.1214
24.1791
25.1959
26.168
27.0935
27.9716
28.8028
29.5879
30.328
31.024
15.1994
16.235
17.5044
18.9115
20.3814
21.862
23.3187
24.7299
26.0825
27.3696
28.5881
29.7375
30.8189
31.8343
32.7864
33.6777
34.5104
35.2858
15.4079
17.0691
19.0459
21.1584
23.2873
25.3617
27.3433
29.2137
30.966
32.6001
34.1196
35.5302
36.8383
38.0509
39.1744
40.2146
41.1759
42.0593
15.7678
18.5275
21.7176
25.0025
28.1926
31.197
33.9806
36.537
38.8741
41.0058
42.9485
44.7189
46.3331
47.806
49.1514
50.3805
51.502
52.5153
16.3874
21.0682
26.3238
31.5246
36.3791
40.7892
44.7456
48.2747
51.4159
54.2114
56.7011
58.9216
60.9053
62.6809
64.2741
65.706
66.9936
68.1295
17.4993
25.6609
34.5354
42.9071
50.3684
56.8742
62.5006
67.3524
71.5365
75.1506
78.279
80.9934
83.3543
85.4127
87.2144
88.7955
90.1926
91.3833
19.6479
34.571
50.1041
63.844
75.3994
84.9796
92.8936
99.4232
104.821
109.299
113.021
116.125
118.715
120.88
122.701
124.23
125.551
126.605
24.3004
53.882
82.3903
105.372
123.238
137.066
147.764
156.006
162.382
167.337
171.172
174.137
176.401
178.117
179.431
180.38
181.149
181.594
36.4961
103.238
158.406
197.146
223.878
242.398
255.089
263.527
269.172
272.884
275.107
276.301
276.646
276.492
276.059
275.192
274.358
273.213
81.6392
262.162
371.71
432.676
465.675
483.228
490.743
491.946
490.93
488.364
484.32
479.736
474.969
469.992
465.34
460.443
456.4
451.886
390.39
972.79
1158.16
1204.45
1196.9
1173.34
1136.54
1105.17
1077.98
1054.19
1033.1
1014.23
997.561
982.352
969.253
956.736
946.79
936.094
6457.37
6263.5
6000.49
5747.89
5516.2
5307.95
5121.86
4956.3
4808.76
4676.91
4558.54
4451.89
4355.56
4267.99
4188.66
4115.69
4049.69
3987.76
3.48413
4.20828
7.20989
9.44289
11.3111
12.6467
13.6583
14.4198
15.0247
15.5112
15.9173
16.2629
16.566
16.8368
17.083
17.3081
17.5138
17.6973
17.8635
17.9911
18.1112
18.1607
18.1474
18.0733
17.9047
17.6523
17.314
16.8853
16.3608
15.737
15.0181
14.2219
13.387
12.5703
11.8517
11.2905
10.9928
10.837
10.8501
10.9748
11.2611
11.6296
12.0387
12.439
12.7747
13.0107
13.068
12.9564
12.5057
11.4428
10.0307
8.8369
8.4208
8.98212
10.1869
12.2082
15.1922
19.6294
24.9891
30.4529
36.1441
42.0265
48.1185
54.1786
60.2683
66.3484
72.4277
78.5056
84.5916
90.6963
96.8326
103.015
109.256
115.572
121.974
128.477
135.09
141.826
148.693
155.702
162.86
170.176
177.657
185.311
193.147
201.171
209.394
217.825
226.475
235.356
244.481
253.865
263.523
273.473
283.733
294.326
305.274
316.603
328.341
340.52
353.172
366.331
380.033
394.312
409.201
424.73
440.925
457.81
475.396
493.682
512.648
532.259
552.52
573.583
595.542
618.377
642.004
666.307
691.144
716.491
742.745
769.452
796.164
821.968
844.7
857.997
864.414
868.667
873.885
879.345
885.381
892.039
899.263
906.618
914.056
922.742
934.173
945.226
951.126
955.074
955.068
950.878
943.494
933.422
921.24
907.985
894.733
882.347
871.074
860.847
851.286
841.038
828.383
812.023
789.23
759.25
726.624
681.335
617.717
540.294
450.152
341.833
231.079
125.572
67.0134
70.908
111.683
153.248
150.424
114.088
60.3983
55.0774
98.8039
171.039
231.639
269.302
303.05
320.747
344.211
336.784
10.8664
8.17292
7.34109
6.95115
6.96872
7.07362
7.2126
7.35453
7.48322
7.59615
7.6861
7.75597
7.80579
7.83708
7.85111
7.85028
7.84143
7.82377
7.80142
7.78213
7.77789
7.79542
7.83766
7.90192
7.99636
8.1199
8.27929
8.49062
8.77767
9.16761
9.68265
10.3281
11.0814
11.8887
12.6701
13.4116
14.1498
14.9167
15.7507
16.6931
17.7907
19.0862
20.6222
22.4208
24.4825
26.7712
29.191
31.5644
33.635
35.1499
35.988
36.3073
36.3539
36.2181
36.1077
36.1378
36.4422
37.0626
37.9479
39.0315
40.2975
41.7266
43.2758
44.9331
46.6897
48.5347
50.4596
52.458
54.5248
56.6564
58.8502
61.1046
63.419
65.7931
68.2272
70.7219
73.2782
75.8974
78.5808
81.33
84.1469
87.0333
89.9915
93.0236
96.1322
99.3198
102.589
105.944
109.386
112.919
116.547
120.274
124.104
128.04
132.089
136.255
140.543
144.959
149.507
154.191
159.016
163.984
169.098
174.358
179.764
185.318
191.015
196.858
202.847
208.995
215.331
221.913
228.837
236.169
243.738
251.582
259.781
268.551
278.285
289.853
301.774
313.838
325.868
337.59
348.552
358.346
367.634
376.709
385.647
394.242
402.412
410.037
416.978
423.097
428.521
433.535
437.616
438.293
435.488
431.689
427.22
421.718
415.275
408.108
400.508
392.64
384.701
376.868
369.166
361.583
353.967
345.959
337.089
326.926
314.912
300.873
284.224
268.36
259.944
244.287
238.487
241.515
242.047
239.438
224.586
195.386
173.259
171.53
175.882
171.927
148.323
119.851
112.547
118.178
127.213
136.945
148.361
157.902
165.273
170.617
22.4089
11.9537
9.87239
8.73217
8.22704
7.88543
7.70498
7.61329
7.57212
7.56288
7.56284
7.56424
7.56163
7.55534
7.54745
7.54285
7.54692
7.56786
7.6216
7.7347
7.91275
8.14797
8.43188
8.75822
9.12678
9.54388
10.0225
10.5819
11.2467
12.0401
12.9818
14.0857
15.3592
16.8063
18.4338
20.2242
22.1563
24.2314
26.4609
28.8538
31.3945
34.0211
36.6088
38.9863
40.9504
42.2875
42.8754
42.8415
42.2081
41.1554
39.892
38.6182
37.4937
36.629
36.1559
36.0173
36.1939
36.6919
37.4952
38.5517
39.8166
41.2473
42.8181
44.49
46.2354
48.0344
49.8726
51.7412
53.6349
55.5516
57.4914
59.4559
61.4474
63.4688
65.5231
67.6132
69.7422
71.9126
74.127
76.3877
78.6969
81.0566
83.4686
85.9351
88.4577
91.0384
93.6792
96.382
99.1487
101.982
104.882
107.853
110.896
114.012
117.204
120.474
123.821
127.25
130.76
134.353
138.031
141.796
145.649
149.593
153.629
157.763
162.001
166.349
170.819
175.427
180.19
185.132
190.278
195.649
201.272
207.223
213.584
220.305
227.379
234.757
242.23
249.784
257.404
265.13
272.949
280.779
288.706
296.678
304.621
312.343
319.653
326.346
332.217
337.096
340.901
343.41
344.279
343.209
340.881
337.792
333.908
329.243
324.036
318.685
313.47
308.332
303.225
298.108
292.915
287.575
281.919
275.668
268.487
260.112
250.314
238.949
226.477
214.94
204.303
191.508
178.795
173.796
180.74
199.887
207.413
209.344
218.774
245.111
255.911
238.134
187.03
143.605
122.366
116.794
119.375
125.71
132.967
139.016
143.345
147.881
30.1595
15.9605
12.4771
10.9177
10.0375
9.53554
9.19729
9.00879
8.87749
8.79778
8.73791
8.69648
8.66648
8.65279
8.65781
8.6882
8.754
8.86597
9.03818
9.2909
9.64878
10.1094
10.6687
11.3233
12.0684
12.8981
13.8073
14.7925
15.8549
17.0061
18.2699
19.6803
21.2744
23.0824
25.1186
27.3731
29.8041
32.3322
34.8376
37.1673
39.1531
40.6718
41.6353
42.0345
41.9873
41.5353
40.7322
39.6055
38.2626
36.9171
35.7342
34.8248
34.3087
34.1512
34.3485
34.8995
35.7578
36.8758
38.1995
39.7056
41.3571
43.1162
44.9423
46.8073
48.6934
50.5909
52.4957
54.408
56.3305
58.2676
60.2242
62.2056
64.2167
66.2622
68.3463
70.4728
72.6451
74.8661
77.1385
79.4649
81.8469
84.286
86.7836
89.3413
91.9603
94.6418
97.387
100.197
103.072
106.014
109.022
112.098
115.241
118.451
121.728
125.071
128.479
131.951
135.486
139.08
142.734
146.444
150.209
154.027
157.899
161.824
165.803
169.839
173.938
178.108
182.356
186.694
191.134
195.689
200.379
205.235
210.269
215.475
220.856
226.404
232.112
238.009
244.125
250.488
257.107
263.998
271.044
278.202
285.448
292.553
299.298
305.447
310.767
315.047
318.112
319.768
319.955
318.805
316.513
313.267
309.159
304.402
299.353
294.568
290.368
286.379
282.396
278.274
273.888
269.103
263.75
257.596
250.383
241.913
232.052
220.728
208.369
195.945
184.939
174.29
162.579
152.539
150.437
156.548
174.538
207.709
261.985
310.554
303.463
245.802
182.566
141.398
123.019
119.088
122.916
129.524
135.513
140.203
143.739
147.13
42.2408
20.1849
15.412
13.2335
12.0474
11.3061
10.8242
10.5115
10.2973
10.1703
10.0841
10.0385
10.0207
10.0371
10.0888
10.1868
10.3409
10.567
10.8774
11.2739
11.7659
12.3656
13.0824
13.9181
14.8679
15.9214
17.0653
18.2879
19.5841
20.9604
22.4354
24.0332
25.7701
27.6394
29.5997
31.5701
33.4528
35.1442
36.5491
37.605
38.2707
38.5114
38.3155
37.6617
36.6941
35.54
34.3731
33.3656
32.6264
32.212
32.0917
32.2718
32.7637
33.5326
34.538
35.7606
37.2107
38.85
40.6286
42.4941
44.4103
46.3529
48.3134
50.2865
52.27
54.2651
56.2745
58.3024
60.3535
62.4327
64.5449
66.6945
68.8858
71.1226
73.4081
75.7454
78.137
80.5854
83.0922
85.6591
88.2878
90.9797
93.7363
96.5582
99.4461
102.4
105.421
108.509
111.662
114.881
118.165
121.513
124.923
128.394
131.923
135.509
139.147
142.834
146.568
150.344
154.158
158.005
161.882
165.785
169.711
173.658
177.622
181.606
185.609
189.635
193.691
197.784
201.925
206.126
210.394
214.729
219.143
223.653
228.278
233.043
237.981
243.133
248.543
254.249
260.276
266.631
273.28
280.174
287.205
294.174
300.854
306.985
312.299
316.544
319.505
321.026
321.076
319.887
317.503
314.103
309.879
305.145
300.347
296.018
292.351
289.013
285.714
282.242
278.416
274.049
268.899
262.648
254.988
245.726
234.83
222.297
208.765
195.753
184.326
174.331
164.035
153.502
149.95
155.125
176.897
227.464
304.667
340.987
305.805
232.106
170.585
137.109
125.442
125.602
131.231
138.072
144.034
148.48
151.743
154.253
53.1517
24.8811
18.5175
15.6192
14.1431
13.1821
12.6086
12.1998
11.9293
11.7336
11.6058
11.5326
11.5188
11.562
11.6592
11.8162
12.0415
12.348
12.7364
13.2079
13.7664
14.419
15.1723
16.0282
16.9829
18.0287
19.1554
20.3526
21.6114
22.9241
24.2829
25.679
27.0927
28.491
29.8305
31.0665
32.1064
32.8457
33.1933
33.2259
32.9245
32.3919
31.7626
31.1499
30.6022
30.1745
29.9508
29.9203
30.1253
30.573
31.2588
32.1465
33.2129
34.4919
35.9752
37.6264
39.3914
41.2474
43.1737
45.1521
47.169
49.216
51.2887
53.3854
55.5068
57.6548
59.8324
62.043
64.2907
66.5794
68.9128
71.2948
73.7287
76.2177
78.7647
81.3722
84.0424
86.7773
89.5785
92.4474
95.3852
98.3928
101.471
104.619
107.839
111.128
114.488
117.916
121.412
124.975
128.602
132.29
136.038
139.842
143.698
147.601
151.548
155.533
159.549
163.592
167.654
171.728
175.809
179.89
183.964
188.026
192.072
196.099
200.104
204.089
208.053
212.002
215.941
219.879
223.826
227.798
231.811
235.884
240.047
244.335
248.795
253.478
258.44
263.733
269.399
275.462
281.916
288.71
295.731
302.792
309.653
316.028
321.615
326.131
329.347
331.117
331.409
330.41
328.118
324.724
320.524
315.924
311.504
307.957
305.569
303.614
301.605
299.184
296.048
291.91
286.454
279.326
270.221
259.001
245.706
230.35
213.858
198.748
185.985
175.847
167.329
159.669
158.646
165.861
193.968
260.151
334.212
339.638
285.713
209.233
158.577
136.062
131.359
134.941
141.73
149.014
155.075
159.403
162.402
164.168
65.1721
29.6938
21.6885
18.0355
16.3314
15.2103
14.5241
14.0361
13.7097
13.4754
13.3196
13.2227
13.1837
13.1979
13.2728
13.4116
13.6191
13.899
14.2542
14.6869
15.1988
15.7905
16.4617
17.2098
18.0287
18.909
19.8401
20.8117
21.8125
22.8314
23.8496
24.8316
25.7357
26.5111
27.1203
27.532
27.747
27.8184
27.8044
27.7114
27.5762
27.4506
27.3911
27.4229
27.5745
27.8721
28.3341
28.9691
29.7618
30.7029
31.8025
33.0825
34.5343
36.1235
37.8263
39.6291
41.5168
43.4773
45.4999
47.5764
49.7006
51.8688
54.0787
56.33
58.6233
60.9602
63.3429
65.7742
68.2571
70.7946
73.3899
76.0459
78.7656
81.5516
84.4063
87.332
90.3304
93.4034
96.5521
99.7776
103.081
106.462
109.921
113.458
117.072
120.763
124.529
128.368
132.278
136.258
140.303
144.41
148.576
152.796
157.063
161.374
165.721
170.097
174.494
178.905
183.32
187.732
192.131
196.508
200.856
205.165
209.43
213.644
217.803
221.905
225.948
229.935
233.869
237.757
241.605
245.422
249.231
253.061
256.947
260.935
265.076
269.432
274.072
279.065
284.476
290.352
296.709
303.514
310.667
317.991
325.232
332.081
338.198
343.26
347.003
349.257
349.975
349.281
347.251
344.034
340.029
335.733
331.902
329.086
327.565
326.528
325.356
323.606
320.878
316.8
310.927
302.815
292.093
278.618
262.508
243.946
224.459
206.863
192.737
182.509
176.25
174.194
176.909
189.746
226.967
293.189
338.268
321.245
252.552
187.524
151.601
139.722
140.139
145.94
154.142
161.98
168.14
172.301
174.956
176.067
74.004
33.6954
24.4394
20.2371
18.2508
16.9522
16.1471
15.577
15.1924
14.9187
14.7361
14.619
14.5629
14.5566
14.6027
14.7022
14.857
15.0682
15.3371
15.6644
16.05
16.4926
16.9895
17.5356
18.1261
18.7553
19.4088
20.0654
20.707
21.3133
21.8665
22.3575
22.782
23.1453
23.4471
23.6921
23.8957
24.0799
24.2674
24.4796
24.739
25.0674
25.4841
26.0042
26.6313
27.3702
28.2222
29.1887
30.2882
31.5318
32.9115
34.4067
36.0127
37.7214
39.5251
41.4168
43.3895
45.4372
47.5547
49.7375
51.9825
54.2875
56.6512
59.0734
61.5548
64.0965
66.7003
69.3684
72.1031
74.9069
77.7825
80.7323
83.7587
86.8638
90.0498
93.3183
96.6707
100.108
103.632
107.242
110.938
114.722
118.591
122.545
126.584
130.704
134.905
139.184
143.537
147.962
152.454
157.009
161.621
166.285
170.994
175.741
180.518
185.316
190.125
194.936
199.739
204.522
209.275
213.987
218.646
223.243
227.769
232.214
236.573
240.839
245.01
249.085
253.068
256.965
260.792
264.565
268.3
272.025
275.774
279.594
283.542
287.688
292.112
296.901
302.143
307.912
314.251
321.156
328.548
336.262
344.041
351.55
358.411
364.253
368.762
371.729
373.078
372.862
371.283
368.393
364.71
360.841
357.853
356.29
355.59
355.146
354.476
353.116
350.568
346.404
339.988
330.742
318.256
302.364
283.225
261.168
237.322
215.503
200.168
191.439
189.483
191.898
199.828
219.606
261.672
312.647
327.075
287.561
220.949
172.624
151.388
147.022
150.638
157.982
166.944
175.012
181.133
185.049
187.316
187.789
81.4183
36.7853
26.4434
21.8019
19.5812
18.1356
17.2285
16.5865
16.1489
15.8367
15.6254
15.486
15.4094
15.3835
15.4029
15.466
15.5717
15.7187
15.9061
16.132
16.3944
16.6906
17.0181
17.3736
17.7467
18.1278
18.5107
18.8922
19.2651
19.624
19.9665
20.2931
20.6072
20.9148
21.2236
21.5436
21.8863
22.2637
22.6874
23.1682
23.7167
24.3417
25.0475
25.8372
26.7115
27.6782
28.7538
29.9464
31.2479
32.6507
34.1546
35.7577
37.4583
39.2539
41.1417
43.1189
45.1825
47.3297
49.5581
51.8654
54.2503
56.7117
59.2492
61.8631
64.5541
67.3234
70.1724
73.1028
76.1167
79.2159
82.4024
85.6782
89.0451
92.5047
96.0583
99.7071
103.452
107.293
111.232
115.267
119.399
123.626
127.948
132.363
136.869
141.463
146.144
150.907
155.749
160.666
165.653
170.703
175.812
180.971
186.173
191.41
196.672
201.949
207.231
212.504
217.759
222.981
228.159
233.279
238.33
243.298
248.172
252.942
257.599
262.135
266.545
270.827
274.981
279.01
282.917
286.716
290.428
294.083
297.719
301.385
305.144
309.074
313.27
317.839
322.893
328.537
334.849
341.859
349.521
357.684
366.09
374.379
382.124
388.898
394.327
398.154
400.263
400.7
399.696
397.296
394.004
390.488
387.692
386.368
385.761
385.35
384.689
383.307
380.643
376.116
368.892
358.221
343.641
325.081
302.738
276.97
249.173
225.215
210.204
204.152
205.256
211.481
224.915
250.079
287.155
313.066
301.188
250.934
197.203
166.276
155.619
156.094
161.8
170.427
179.983
188.113
194.057
197.64
199.44
199.301
84.0915
38.3233
27.3792
22.511
20.171
18.6483
17.6879
17.0073
16.5417
16.2092
15.9832
15.8326
15.7451
15.7087
15.7126
15.7519
15.8239
15.9259
16.0559
16.2119
16.3919
16.5937
16.8121
17.0428
17.2859
17.5388
17.7999
18.0683
18.344
18.6281
18.9234
19.2338
19.5645
19.9214
20.3111
20.7407
21.2173
21.7462
22.332
22.9788
23.6899
24.4667
25.3205
26.2604
27.2949
28.4242
29.6435
30.9535
32.3563
33.8533
35.4456
37.1344
38.9199
40.8025
42.7817
44.8573
47.0286
49.2949
51.6557
54.1104
56.6589
59.3013
62.0378
64.8691
67.796
70.8197
73.9415
77.1627
80.4849
83.9093
87.4376
91.0708
94.8102
98.6567
102.611
106.673
110.844
115.123
119.51
124.003
128.602
133.305
138.111
143.016
148.019
153.115
158.302
163.576
168.93
174.362
179.863
185.429
191.052
196.723
202.433
208.173
213.933
219.7
225.462
231.206
236.919
242.587
248.194
253.728
259.172
264.512
269.736
274.829
279.78
284.579
289.218
293.692
298.001
302.15
306.149
310.008
313.743
317.377
320.947
324.5
328.104
331.843
335.829
340.187
345.058
350.579
356.869
363.995
371.95
380.607
389.703
398.85
407.575
415.388
421.853
426.657
429.658
430.903
430.542
428.793
425.907
422.624
419.781
418.111
417.069
416.203
415.092
413.272
410.146
404.898
396.534
384.121
367.095
345.401
319.399
289.934
259.708
235.318
221.877
218.515
221.878
231.883
249.118
273.397
295.625
298.91
269.517
221.082
183.926
166.417
162.687
166.049
173.133
182.572
192.331
200.325
205.973
209.158
210.429
209.679
86.831
38.8237
27.5436
22.539
20.1304
18.5672
17.5807
16.8834
16.4079
16.0708
15.8445
15.6966
15.6147
15.584
15.5937
15.6367
15.7084
15.8045
15.9222
16.0586
16.2115
16.3789
16.5608
16.7562
16.965
17.1875
17.4249
17.6788
17.9521
18.2478
18.5702
18.923
19.3103
19.7362
20.2047
20.7192
21.2819
21.8999
22.5793
23.3257
24.1453
25.0451
26.0242
27.0828
28.2217
29.4446
30.7543
32.1539
33.6462
35.234
36.9199
38.706
40.5945
42.5869
44.685
46.8898
49.2026
51.6243
54.1558
56.798
59.5517
62.4178
65.3972
68.4911
71.7003
75.026
78.4692
82.0309
85.7121
89.5135
93.4359
97.4798
101.645
105.933
110.342
114.872
119.523
124.293
129.181
134.185
139.303
144.532
149.87
155.314
160.859
166.502
172.238
178.063
183.969
189.952
196.004
202.118
208.285
214.496
220.741
227.009
233.287
239.564
245.826
252.058
258.245
264.372
270.423
276.383
282.234
287.962
293.55
298.983
304.247
309.33
314.22
318.91
323.394
327.668
331.734
335.601
339.285
342.812
346.216
349.548
352.88
356.309
359.963
363.995
368.573
373.873
380.053
387.226
395.417
404.524
414.287
424.289
434.005
442.881
450.422
456.265
460.237
462.351
462.794
461.82
459.465
456.352
453.109
450.479
448.59
446.904
444.994
442.361
438.321
431.936
422.053
407.554
387.766
362.72
333.158
300.866
270.184
248.14
236.104
234.157
238.79
250.831
267.925
284.319
290.82
275.244
239.085
201.667
179.077
170.533
171.026
176.139
184.089
194.234
204.005
211.715
216.956
219.674
220.351
218.955
86.447
38.2936
27.0679
22.0594
19.6479
18.0821
17.0966
16.4026
15.934
15.6068
15.3935
15.2618
15.1993
15.1878
15.2189
15.2832
15.3757
15.4917
15.6282
15.7827
15.9537
16.1401
16.3416
16.5587
16.792
17.0433
17.3139
17.6058
17.9216
18.2637
18.6361
19.0436
19.4908
19.9821
20.522
21.1156
21.7688
22.485
23.2662
24.1152
25.0344
26.0261
27.0941
28.2419
29.473
30.7912
32.2001
33.7035
35.3051
37.0085
38.8173
40.7349
42.7644
44.9091
47.1718
49.555
52.0613
54.693
57.4519
60.34
63.359
66.5104
69.7954
73.2154
76.7712
80.4638
84.2937
88.2616
92.3676
96.6119
100.994
105.514
110.17
114.963
119.89
124.95
130.141
135.46
140.906
146.475
152.163
157.968
163.885
169.91
176.038
182.263
188.58
194.982
201.463
208.016
214.631
221.301
228.015
234.763
241.534
248.316
255.096
261.859
268.591
275.277
281.9
288.443
294.89
301.224
307.425
313.477
319.361
325.058
330.553
335.829
340.873
345.673
350.223
354.523
358.572
362.374
365.938
369.281
372.432
375.443
378.389
381.383
384.577
388.152
392.311
397.265
403.213
410.315
418.639
428.108
438.461
449.253
459.908
469.814
478.424
485.334
490.344
493.459
494.888
494.75
493.219
490.479
487.245
483.878
480.945
478.247
475.358
471.675
466.436
458.641
447.014
430.28
407.699
379.58
347.378
314.223
285.466
264.316
252.114
249.875
254.482
265.541
277.577
282.752
274.556
249.225
216.488
192.264
179.642
176.904
179.732
185.918
194.523
205.009
214.573
221.861
226.602
228.789
228.861
226.762
85.1144
37.0907
26.0632
21.1588
18.8096
17.2914
16.3441
15.6836
15.2464
14.9499
14.7685
14.672
14.6449
14.6706
14.7405
14.8462
14.9825
15.1442
15.3281
15.5313
15.7522
15.99
16.2446
16.5158
16.8038
17.1102
17.438
17.7907
18.1721
18.5865
19.0381
19.5304
20.0675
20.6528
21.2898
21.9822
22.733
23.5451
24.4226
25.3696
26.3898
27.4874
28.6663
29.9309
31.2855
32.7346
34.2825
35.934
37.6936
39.5659
41.5554
43.6667
45.904
48.2716
50.7736
53.4135
56.195
59.1213
62.1951
65.4189
68.795
72.3252
76.0108
79.8531
83.8527
88.01
92.3251
96.7976
101.427
106.212
111.151
116.243
121.485
126.876
132.412
138.09
143.907
149.859
155.942
162.152
168.483
174.931
181.49
188.153
194.916
201.77
208.709
215.725
222.81
229.955
237.151
244.387
251.653
258.936
266.225
273.506
280.765
287.986
295.154
302.253
309.266
316.174
322.96
329.605
336.09
342.396
348.501
354.388
360.035
365.425
370.541
375.365
379.882
384.081
387.959
391.515
394.754
397.689
400.346
402.774
405.059
407.334
409.777
412.604
416.052
420.378
425.829
432.613
440.841
450.465
461.22
472.636
484.098
494.939
504.565
512.543
518.649
522.878
525.367
526.354
525.949
524.257
521.668
518.531
515.037
511.214
507.441
502.695
496.222
487.005
473.673
454.881
429.981
399.829
366.615
334.751
306.153
283.263
268.876
264.332
266.876
273.569
277.001
271.988
253.304
226.84
204.226
189.49
183.545
184.048
188.208
195.045
204.376
214.942
224.13
230.868
235.009
236.547
236
233.128
81.8959
35.3042
24.7278
20.0614
17.816
16.3763
15.492
14.8859
14.499
14.2504
14.1186
14.0714
14.0936
14.171
14.296
14.4601
14.6582
14.8851
15.1374
15.4122
15.7067
16.0187
16.3482
16.697
17.0678
17.4634
17.8859
18.3386
18.8252
19.3489
19.9126
20.5188
21.1707
21.8722
22.6277
23.4414
24.3176
25.2605
26.2748
27.365
28.5361
29.7927
31.1401
32.5833
34.1276
35.7784
37.5412
39.4214
41.4248
43.5568
45.823
48.2289
50.7798
53.4808
56.3367
59.3521
62.531
65.8772
69.3939
73.0836
76.9488
80.9909
85.211
89.6098
94.1872
98.9426
103.875
108.983
114.264
119.715
125.334
131.118
137.062
143.162
149.413
155.811
162.35
169.024
175.828
182.755
189.798
196.951
204.205
211.555
218.99
226.504
234.086
241.729
249.421
257.153
264.914
272.693
280.476
288.252
296.005
303.722
311.387
318.984
326.497
333.909
341.201
348.355
355.351
362.169
368.79
375.192
381.354
387.254
392.87
398.181
403.166
407.808
412.091
416.002
419.526
422.653
425.373
427.686
429.608
431.186
432.512
433.745
435.094
436.807
439.157
442.464
447.029
453.122
460.913
470.388
481.265
493.059
505.128
516.767
527.34
536.388
543.676
549.186
553.02
555.367
556.401
556.392
555.483
553.451
550.838
547.49
543.205
537.531
530.144
519.888
505.228
484.919
458.616
427.909
395.048
361.548
329.562
302.671
284.38
275.648
273.72
273.321
269.055
254.483
233.054
213.194
198.607
190.578
188.944
191.108
196.075
203.486
213.481
223.884
232.531
238.601
242.054
242.875
241.647
237.976
77.8524
33.2255
23.2746
18.9408
16.7983
15.4483
14.6415
14.1054
13.7851
13.6029
13.5373
13.5541
13.6443
13.7929
13.9934
14.2374
14.52
14.8348
15.1774
15.5454
15.9388
16.3581
16.8043
17.2776
17.7795
18.312
18.8778
19.4792
20.1184
20.7977
21.5211
22.2922
23.1149
23.9938
24.934
25.9405
27.0182
28.1726
29.409
30.7332
32.151
33.6683
35.2913
37.0264
38.8799
40.8583
42.9682
45.2161
47.6085
50.1518
52.8525
55.7166
58.7501
61.9586
65.3472
68.9205
72.6827
76.6373
80.787
85.1342
89.6802
94.426
99.3714
104.516
109.857
115.394
121.123
127.041
133.144
139.426
145.884
152.51
159.299
166.244
173.339
180.575
187.946
195.442
203.057
210.78
218.604
226.52
234.517
242.587
250.719
258.904
267.13
275.387
283.664
291.949
300.23
308.493
316.725
324.912
333.039
341.09
349.049
356.9
364.625
372.208
379.628
386.866
393.904
400.719
407.293
413.602
419.625
425.34
430.723
435.75
440.395
444.633
448.439
451.793
454.671
457.053
458.914
460.235
461.027
461.319
461.225
460.929
460.664
460.726
461.39
463.109
466.232
471.105
477.981
486.901
497.505
509.342
521.763
534.034
545.483
555.635
564.228
571.264
576.782
580.968
583.999
586.037
587.164
587.58
587.169
585.505
582.514
577.913
570.803
560.138
544.724
523.697
496.906
465.038
429.228
390.967
353.254
320.636
296.848
282.28
273.858
267.138
254.413
236.337
218.789
205.834
197.477
194.062
194.539
197.632
203.205
211.36
221.911
231.944
239.886
245.173
247.872
247.926
245.847
241.417
72.6949
30.8861
21.6947
17.7587
15.7597
14.5291
13.8244
13.3812
13.1518
13.0593
13.0821
13.1919
13.3803
13.632
13.94
14.2945
14.693
15.1333
15.615
16.1365
16.6966
17.295
17.9322
18.6086
19.3255
20.0844
20.887
21.7353
22.6316
23.5787
24.5809
25.6421
26.767
27.9616
29.2321
30.5843
32.0241
33.5574
35.1913
36.9329
38.7891
40.7673
42.8752
45.1206
47.511
50.0539
52.7565
55.626
58.6694
61.8933
65.3045
68.9088
72.712
76.7191
80.9342
85.3612
90.0029
94.8615
99.9382
105.234
110.747
116.478
122.423
128.58
134.944
141.511
148.274
155.229
162.367
169.681
177.163
184.805
192.597
200.53
208.594
216.779
225.075
233.471
241.957
250.521
259.152
267.84
276.572
285.339
294.127
302.926
311.723
320.506
329.263
337.981
346.646
355.244
363.762
372.183
380.492
388.673
396.71
404.587
412.286
419.787
427.073
434.123
440.919
447.44
453.661
459.56
465.111
470.293
475.079
479.444
483.363
486.811
489.758
492.176
494.023
495.268
495.854
495.736
494.941
493.398
491.306
488.861
486.331
484.043
482.398
481.915
482.882
485.83
491.016
498.368
507.921
519.314
531.86
544.774
557.354
569.077
579.476
588.384
595.978
602.513
608.073
612.79
616.733
619.931
622.288
623.803
623.885
621.801
616.533
607.173
592.269
570.684
541.939
506.384
465.084
419.924
374.915
335.338
304.774
283.122
269.224
255.056
238.212
221.551
210.27
202.696
198.74
198.085
199.615
203.438
209.822
219.092
229.717
239.115
246.182
250.575
252.355
251.634
248.56
243.431
67.5943
28.4991
20.14
16.6258
14.8159
13.7421
13.1585
12.8341
12.7245
12.7509
12.9015
13.1428
13.4658
13.8593
14.3241
14.8562
15.4549
16.1158
16.8388
17.6228
18.469
19.378
20.3516
21.3909
22.4977
23.6738
24.9209
26.2404
27.6341
29.1046
30.6532
32.2815
33.9963
35.8078
37.7221
39.7434
41.8771
44.1312
46.5134
49.0321
51.6962
54.5151
57.4991
60.6571
63.9963
67.5232
71.2445
75.1663
79.2946
83.635
88.1921
92.9699
97.9717
103.2
108.656
114.341
120.254
126.395
132.762
139.351
146.16
153.184
160.416
167.85
175.479
183.294
191.286
199.447
207.765
216.23
224.832
233.558
242.398
251.338
260.366
269.471
278.639
287.858
297.116
306.4
315.697
324.996
334.283
343.546
352.773
361.951
371.068
380.112
389.07
397.927
406.672
415.29
423.766
432.086
440.233
448.192
455.949
463.484
470.779
477.815
484.574
491.038
497.186
502.998
508.449
513.517
518.176
522.397
526.148
529.404
532.137
534.311
535.895
536.855
537.117
536.687
535.429
533.256
530.195
526.261
521.59
516.371
510.885
505.501
500.665
496.949
494.891
494.968
497.416
502.9
511.392
522.286
534.808
548.148
561.605
574.704
587.27
598.842
609.465
618.892
627.463
635.425
642.75
649.446
655.416
660.469
664.128
665.805
664.337
657.893
644.476
622.675
591.318
550.455
501.418
447.23
393.355
345.751
307.583
280.241
259.483
240.612
223.42
212.336
205.977
202.47
201.215
201.749
204.074
208.812
216.366
226.629
236.905
245.423
251.473
254.887
255.644
253.954
249.826
244.171
62.1638
26.2317
18.7366
15.6557
14.0692
13.1886
12.7488
12.5731
12.6163
12.7985
13.1108
13.5304
14.0616
14.6927
15.4248
16.253
17.1796
18.2032
19.3283
20.5577
21.8965
23.3476
24.9147
26.601
28.4104
30.3455
32.4087
34.6003
36.921
39.3699
41.9447
44.6441
47.4701
50.4312
53.5268
56.7607
60.1401
63.6724
67.3669
71.2324
75.2775
79.5114
83.9431
88.584
93.4356
98.501
103.784
109.288
115.014
120.965
127.141
133.541
140.163
147.005
154.064
161.337
168.819
176.504
184.387
192.461
200.719
209.151
217.75
226.505
235.406
244.441
253.6
262.87
272.24
281.696
291.226
300.818
310.458
320.133
329.83
339.535
349.235
358.918
368.57
378.18
387.734
397.221
406.628
415.943
425.155
434.251
443.22
452.051
460.73
469.247
477.589
485.743
493.695
501.432