/*--------------------------------*- C++ -*----------------------------------*\
| =========                 |                                                 |
| \\      /  F ield         | OpenFOAM: The Open Source CFD Toolbox           |
|  \\    /   O peration     | Version:  v1906                                 |
|   \\  /    A nd           | Web:      www.OpenFOAM.com                      |
|    \\/     M anipulation  |                                                 |
\*---------------------------------------------------------------------------*/
FoamFile
{
    version     2.0;
    format      ascii;
    class       volScalarField;
    location    "2000";
    object      k;
}
// * * * * * * * * * * * * * * * * * * * * * * * * * * * * * * * * * * * * * //

dimensions      [0 2 -2 0 0 0 0];


internalField   nonuniform List<scalar> 
12225
(
2.2588
2.22771
2.16477
2.09552
2.03001
1.97048
1.91727
1.86999
1.82777
1.79055
1.75667
1.72764
1.7045
1.68582
1.66897
1.65679
1.64254
1.63709
2.25089
2.14399
1.99899
1.88919
1.80208
1.73415
1.67961
1.63402
1.59648
1.56406
1.53789
1.5136
1.49587
1.47709
1.46596
1.45044
1.44371
1.42882
2.25785
2.21948
2.14545
2.07334
2.00638
1.94664
1.89404
1.84725
1.80619
1.76952
1.73751
1.7083
1.68326
1.65969
1.64026
1.62076
1.60615
1.59007
2.2584
2.23556
2.18865
2.13682
2.08598
2.03837
1.99479
1.95495
1.91886
1.886
1.85636
1.82918
1.80481
1.78225
1.76216
1.74319
1.72689
1.70995
2.25893
2.24471
2.21551
2.18075
2.14479
2.10947
2.07575
2.0439
2.01411
1.98633
1.96061
1.93665
1.91455
1.89396
1.87502
1.85729
1.84136
1.82559
2.25905
2.24845
2.22782
2.20229
2.17486
2.1471
2.11991
2.09371
2.06874
2.04509
2.02282
2.00185
1.9822
1.96376
1.94652
1.93033
1.91529
1.9006
2.25919
2.25084
2.23579
2.21686
2.19601
2.17444
2.15285
2.13166
2.11112
2.09137
2.07249
2.05451
2.03745
2.02127
2.00598
1.99153
1.97798
1.96486
2.25923
2.25214
2.24043
2.22562
2.20904
2.1916
2.17388
2.15624
2.13894
2.12211
2.10586
2.09024
2.07528
2.06098
2.04736
2.0344
2.02206
2.01017
2.25928
2.25314
2.24374
2.23193
2.21861
2.20444
2.18987
2.17522
2.16069
2.14642
2.13252
2.11904
2.10603
2.09351
2.0815
2.07
2.05901
2.04841
2.25929
2.25379
2.24591
2.23616
2.22512
2.21328
2.20101
2.18856
2.17611
2.16379
2.1517
2.13989
2.12843
2.11733
2.10662
2.0963
2.08637
2.0768
2.25933
2.25433
2.24758
2.23937
2.2301
2.22012
2.20971
2.19907
2.18837
2.17771
2.16718
2.15685
2.14675
2.13693
2.12741
2.11819
2.10929
2.10066
2.25934
2.25468
2.24867
2.24149
2.23341
2.22469
2.21557
2.20621
2.19674
2.18726
2.17786
2.16859
2.1595
2.15061
2.14196
2.13355
2.1254
2.1175
2.25937
2.255
2.24958
2.24321
2.23609
2.22842
2.22037
2.21208
2.20366
2.1952
2.18677
2.17843
2.17021
2.16216
2.15429
2.14662
2.13916
2.1319
2.25939
2.25526
2.25034
2.24468
2.23839
2.23163
2.22452
2.21718
2.20969
2.20215
2.1946
2.1871
2.17968
2.17239
2.16524
2.15825
2.15143
2.14479
2.25943
2.25554
2.25105
2.24598
2.24042
2.23445
2.22818
2.22168
2.21504
2.20833
2.20158
2.19486
2.18819
2.1816
2.17512
2.16877
2.16255
2.15648
2.25946
2.25574
2.25159
2.24699
2.24199
2.23666
2.23105
2.22524
2.21928
2.21324
2.20716
2.20108
2.19503
2.18903
2.18313
2.17732
2.17162
2.16606
2.25949
2.25593
2.25202
2.24777
2.24318
2.23831
2.23319
2.22789
2.22245
2.21692
2.21134
2.20574
2.20015
2.19461
2.18913
2.18373
2.17842
2.17322
2.25951
2.25604
2.25227
2.2482
2.24384
2.23923
2.23439
2.22938
2.22423
2.21899
2.2137
2.20839
2.20308
2.1978
2.19258
2.18743
2.18236
2.17737
2.2595
2.25599
2.25218
2.24806
2.24364
2.23896
2.23405
2.22896
2.22373
2.21841
2.21303
2.20763
2.20225
2.19689
2.19159
2.18637
2.18124
2.17623
2.2595
2.25587
2.25183
2.24737
2.24254
2.23738
2.23197
2.22636
2.22061
2.21477
2.20889
2.203
2.19713
2.19131
2.18556
2.17989
2.17432
2.16884
2.25943
2.25552
2.25102
2.24593
2.24033
2.23432
2.22799
2.22145
2.21475
2.20798
2.20118
2.19439
2.18766
2.18101
2.17447
2.16806
2.16179
2.15572
2.25942
2.25522
2.25006
2.24406
2.23736
2.23015
2.22257
2.21476
2.20681
2.19881
2.19082
2.18289
2.17506
2.16737
2.15983
2.15247
2.1453
2.13826
2.25935
2.25456
2.24827
2.24068
2.23212
2.22289
2.21323
2.20333
2.19333
2.18334
2.17344
2.16369
2.15413
2.1448
2.13571
2.12688
2.11833
2.11014
2.25936
2.25388
2.24593
2.23608
2.22494
2.21302
2.20067
2.18814
2.17561
2.16321
2.15103
2.13913
2.12756
2.11636
2.10554
2.09512
2.08512
2.07544
2.25926
2.25242
2.24128
2.22724
2.21148
2.19485
2.17788
2.16094
2.14426
2.128
2.11225
2.09707
2.08249
2.06852
2.05514
2.04233
2.03005
2.01846
2.25926
2.25048
2.2342
2.21399
2.19193
2.1692
2.1465
2.12426
2.10273
2.08206
2.06232
2.04354
2.0257
2.0088
1.99282
1.97772
1.96358
1.95031
2.25889
2.24476
2.21641
2.18263
2.14755
2.11294
2.07974
2.0484
2.01905
1.99168
1.96618
1.94247
1.92042
1.89992
1.88079
1.86302
1.84609
1.83044
2.2587
2.2346
2.18652
2.13451
2.08371
2.03554
1.99102
1.95038
1.91334
1.87959
1.84881
1.82076
1.79507
1.77164
1.75007
1.73038
1.71221
1.69658
2.25373
2.17683
2.06325
1.96598
1.88599
1.81867
1.76353
1.7173
1.67773
1.64353
1.61361
1.58758
1.56441
1.54425
1.52594
1.5101
1.49531
1.48158
2.25477
2.20941
2.14712
2.08643
2.02998
1.97856
1.93204
1.89018
1.85248
1.81846
1.78765
1.75966
1.73418
1.71086
1.68959
1.66991
1.65201
1.63513
0.017384
0.0327264
0.0468562
0.0560778
0.0632397
0.0681101
0.0716769
0.0742966
0.0763386
0.077955
0.0792863
0.0804057
0.0813764
0.0822351
0.0830086
0.0837096
0.0843446
0.0849054
0.0854084
0.0857873
0.0861406
0.0862717
0.0862044
0.0859485
0.0853939
0.0845719
0.083473
0.0820774
0.08036
0.0782986
0.0758914
0.0731799
0.0702763
0.0673673
0.0647381
0.0626275
0.0614525
0.0608168
0.060824
0.0612408
0.0622501
0.0635694
0.0650248
0.0664421
0.0676202
0.0684484
0.0686586
0.0682701
0.0667345
0.0629824
0.0577043
0.052945
0.0510584
0.0531654
0.0577022
0.0649888
0.0750673
0.0889022
0.104572
0.119359
0.133836
0.148004
0.161981
0.175295
0.188166
0.200571
0.212583
0.224243
0.235602
0.246709
0.257608
0.268341
0.278947
0.289458
0.299907
0.310318
0.320714
0.331115
0.341539
0.351999
0.362508
0.373077
0.383717
0.394436
0.405244
0.416149
0.427161
0.43829
0.449546
0.460942
0.47249
0.484204
0.496096
0.508183
0.520482
0.533011
0.545789
0.55884
0.572186
0.585854
0.599868
0.614257
0.629045
0.644255
0.659909
0.676023
0.692611
0.709678
0.727219
0.745216
0.763634
0.782429
0.801588
0.82122
0.841421
0.862157
0.883337
0.904838
0.926514
0.948301
0.97061
0.993017
1.01515
1.03622
1.05477
1.0657
1.07049
1.073
1.07649
1.08002
1.08404
1.08853
1.09346
1.09852
1.10354
1.10947
1.11723
1.12592
1.12929
1.13153
1.13061
1.1264
1.11959
1.11064
1.09992
1.08821
1.07635
1.06508
1.05467
1.0451
1.03618
1.02692
1.01594
1.00213
0.983488
0.958377
0.930595
0.89378
0.839813
0.770848
0.687016
0.578322
0.453403
0.310968
0.19369
0.189649
0.247019
0.319841
0.323654
0.284701
0.18993
0.159339
0.218114
0.326781
0.409585
0.458341
0.498178
0.518447
0.544051
0.536286
0.0371154
0.0663396
0.0925762
0.106935
0.117598
0.125318
0.131304
0.135834
0.139374
0.142122
0.144333
0.146176
0.147811
0.149353
0.150897
0.152506
0.154223
0.15606
0.157995
0.159967
0.161885
0.163648
0.165159
0.166374
0.167351
0.168247
0.169306
0.170889
0.173458
0.177532
0.183585
0.191881
0.20233
0.214469
0.227571
0.240897
0.253945
0.266508
0.278631
0.290533
0.302511
0.31483
0.327678
0.341129
0.355081
0.369217
0.382948
0.39539
0.405409
0.411938
0.414854
0.415428
0.414685
0.413227
0.412271
0.41222
0.413488
0.416218
0.420723
0.427632
0.436973
0.448465
0.461713
0.476325
0.491988
0.508442
0.525478
0.542934
0.560687
0.578651
0.596767
0.614999
0.633329
0.651752
0.670268
0.688888
0.70762
0.726479
0.745476
0.764624
0.783934
0.803416
0.823079
0.84293
0.862978
0.883227
0.903685
0.924356
0.945248
0.966368
0.987725
1.00933
1.03119
1.05331
1.07572
1.09842
1.12144
1.14478
1.16848
1.19255
1.21701
1.24187
1.26715
1.29285
1.31898
1.34552
1.37244
1.3997
1.42721
1.45487
1.48257
1.51015
1.53743
1.56447
1.59163
1.61914
1.64712
1.67577
1.70526
1.73568
1.76729
1.80011
1.83394
1.86838
1.90293
1.93728
1.97131
2.00532
2.03854
2.07
2.09874
2.12371
2.14387
2.15796
2.16477
2.16485
2.15853
2.15367
2.15068
2.14119
2.122
2.09502
2.06179
2.02333
1.98058
1.93492
1.88783
1.84063
1.79371
1.74781
1.7028
1.65728
1.60973
1.5584
1.50109
1.43929
1.37386
1.2959
1.20286
1.1105
1.024
0.969894
0.967375
0.976794
0.961547
0.92496
0.945446
1.03152
1.12483
1.14052
1.09026
1.02722
1.02573
1.06559
1.12429
1.17548
1.219
1.24383
1.2602
1.26151
0.0601688
0.09439
0.126197
0.143598
0.157126
0.166506
0.173936
0.179636
0.184343
0.188251
0.191711
0.194883
0.197954
0.201036
0.204237
0.207645
0.211341
0.215395
0.219864
0.224777
0.230121
0.235828
0.241825
0.248101
0.254725
0.261848
0.26969
0.278504
0.288526
0.299909
0.312686
0.326766
0.341969
0.358097
0.374984
0.39253
0.41069
0.429452
0.448818
0.468743
0.489039
0.509276
0.528743
0.546496
0.561493
0.572771
0.579468
0.581681
0.579967
0.575005
0.568173
0.561011
0.554928
0.551648
0.55119
0.554296
0.561145
0.571675
0.585624
0.602602
0.622102
0.643561
0.66644
0.690268
0.714663
0.739332
0.764065
0.788725
0.813232
0.837553
0.861687
0.885653
0.909486
0.933225
0.956913
0.98059
1.00429
1.02806
1.05191
1.07587
1.09997
1.12421
1.14862
1.17319
1.19794
1.22287
1.24799
1.27329
1.29878
1.32447
1.35034
1.37641
1.40266
1.4291
1.45573
1.48253
1.50951
1.53665
1.56396
1.59143
1.61906
1.64683
1.67475
1.7028
1.73099
1.7593
1.78773
1.81628
1.84496
1.87377
1.90274
1.93194
1.96151
1.99161
2.02243
2.05417
2.08698
2.12099
2.15635
2.19318
2.23152
2.27139
2.31273
2.35543
2.3993
2.44416
2.48993
2.53611
2.58172
2.62558
2.66641
2.70283
2.73344
2.75698
2.77232
2.77931
2.77812
2.7692
2.75266
2.72724
2.6928
2.65039
2.60107
2.54576
2.48556
2.42201
2.35679
2.29136
2.22673
2.16344
2.10117
2.03829
1.97338
1.90464
1.83072
1.75184
1.67097
1.58848
1.4989
1.39538
1.28074
1.17272
1.1006
1.08608
1.10106
1.17071
1.36234
1.57995
1.70092
1.68025
1.57183
1.47784
1.44799
1.46763
1.5137
1.56358
1.60837
1.63629
1.65295
1.6535
0.0733425
0.119121
0.157165
0.176786
0.192656
0.203986
0.213438
0.220806
0.227126
0.232502
0.237434
0.242058
0.246613
0.251199
0.255956
0.260978
0.266379
0.272264
0.278747
0.285936
0.29391
0.302681
0.31221
0.322448
0.333333
0.344802
0.356797
0.369278
0.382246
0.395775
0.410036
0.425276
0.441757
0.459668
0.479066
0.499824
0.521604
0.543831
0.565705
0.586263
0.604487
0.619466
0.630537
0.637284
0.639938
0.639289
0.635886
0.630888
0.62557
0.621234
0.619202
0.619768
0.623691
0.631321
0.64273
0.657812
0.676307
0.697803
0.721789
0.747711
0.775029
0.803249
0.831954
0.860821
0.889623
0.918219
0.946536
0.974558
1.0023
1.02981
1.05715
1.08436
1.11152
1.13868
1.16589
1.1932
1.22065
1.24826
1.27606
1.30407
1.33232
1.3608
1.38953
1.41851
1.44773
1.47721
1.50692
1.53687
1.56704
1.59743
1.62803
1.65881
1.68976
1.72087
1.75211
1.78345
1.81488
1.84637
1.87788
1.90939
1.94087
1.97229
2.00361
2.03483
2.0659
2.09683
2.1276
2.15822
2.18872
2.21915
2.24957
2.28009
2.31081
2.34186
2.37337
2.40549
2.43843
2.47235
2.50746
2.54394
2.58194
2.62162
2.6631
2.70648
2.75175
2.79876
2.84719
2.89641
2.94537
2.99277
3.03706
3.07658
3.10963
3.13472
3.15046
3.15651
3.15276
3.13918
3.11539
3.0813
3.03737
2.98467
2.9243
2.85733
2.785
2.70899
2.6311
2.55297
2.4758
2.40014
2.32569
2.25122
2.17515
2.09535
2.01113
1.92329
1.83421
1.74602
1.6584
1.56432
1.45554
1.33448
1.23077
1.20922
1.26624
1.47203
1.79635
2.04745
2.07966
1.95962
1.8031
1.71848
1.70754
1.74277
1.79931
1.85493
1.90022
1.92706
1.93892
1.93547
0.0918053
0.150647
0.192809
0.214492
0.232261
0.2453
0.256569
0.265744
0.273818
0.28074
0.287075
0.292934
0.298664
0.304373
0.310248
0.316357
0.322807
0.329649
0.336961
0.344818
0.35336
0.362742
0.373069
0.384341
0.396485
0.409367
0.422839
0.436776
0.451129
0.465967
0.481472
0.497871
0.515326
0.533816
0.553061
0.572505
0.591376
0.608797
0.623935
0.636144
0.645076
0.650705
0.653408
0.65405
0.653387
0.652257
0.651726
0.652521
0.655339
0.660788
0.669303
0.681102
0.696258
0.714679
0.736127
0.760257
0.786657
0.814884
0.844485
0.875032
0.906152
0.937544
0.968986
1.00033
1.03151
1.06248
1.09326
1.12387
1.15435
1.18477
1.21517
1.24561
1.27614
1.30681
1.33765
1.3687
1.39999
1.43154
1.46337
1.49549
1.5279
1.56062
1.59363
1.62694
1.66054
1.69442
1.72856
1.76295
1.79757
1.8324
1.86742
1.9026
1.93791
1.97332
2.0088
2.04431
2.07981
2.11525
2.1506
2.18581
2.22084
2.25564
2.29017
2.3244
2.35829
2.39182
2.42498
2.45779
2.49024
2.5224
2.55433
2.58612
2.61789
2.64977
2.68189
2.71439
2.74745
2.78126
2.81607
2.85211
2.88965
2.92894
2.97025
3.01376
3.05958
3.10762
3.15757
3.20875
3.26012
3.31023
3.35736
3.39956
3.43487
3.46149
3.47786
3.48312
3.47707
3.45959
3.43053
3.39029
3.33956
3.27941
3.21096
3.13531
3.0538
2.96809
2.88004
2.79134
2.70332
2.61662
2.53107
2.44561
2.3587
2.26877
2.17506
2.07877
1.98362
1.89281
1.80647
1.72015
1.62409
1.51488
1.42753
1.43207
1.54855
1.84387
2.17642
2.35015
2.28558
2.09239
1.94892
1.90186
1.92473
1.98451
2.05525
2.11663
2.16071
2.18427
2.19118
2.18265
0.107007
0.178504
0.2266
0.251305
0.271199
0.286113
0.299018
0.309812
0.319378
0.327726
0.335249
0.342083
0.34855
0.354839
0.361166
0.367657
0.374427
0.38155
0.38909
0.397095
0.405639
0.414829
0.42476
0.435468
0.446932
0.459086
0.471854
0.485165
0.498979
0.513278
0.528042
0.543203
0.55859
0.573898
0.588702
0.602516
0.614878
0.625435
0.634057
0.640843
0.646086
0.650213
0.653774
0.657345
0.661582
0.667129
0.674578
0.68427
0.696457
0.711306
0.728878
0.749131
0.771916
0.797009
0.824145
0.853025
0.883322
0.914709
0.946887
0.979597
1.01263
1.04584
1.07911
1.11238
1.14562
1.17883
1.21202
1.24523
1.27848
1.31183
1.34531
1.37897
1.41285
1.44697
1.48137
1.51607
1.55109
1.58645
1.62216
1.65822
1.69463
1.73139
1.76849
1.80592
1.84367
1.88172
1.92006
1.95865
1.99747
2.03649
2.07569
2.11501
2.15443
2.1939
2.23338
2.2728
2.31214
2.35132
2.39029
2.42899
2.46737
2.50536
2.54291
2.57998
2.61652
2.65249
2.68788
2.72268
2.7569
2.79057
2.82375
2.8565
2.88893
2.92115
2.95333
2.98565
3.0183
3.05151
3.08552
3.12065
3.15723
3.19562
3.23618
3.27921
3.32491
3.37329
3.4241
3.47671
3.53008
3.58268
3.63262
3.67771
3.71572
3.74454
3.76245
3.76824
3.76173
3.74264
3.71068
3.66653
3.61112
3.54558
3.47107
3.38873
3.29984
3.20601
3.10904
3.01065
2.91223
2.81455
2.71759
2.62045
2.5217
2.41999
2.31506
2.20917
2.10702
2.01221
1.92599
1.84669
1.77031
1.70121
1.67382
1.71938
1.88917
2.17989
2.44392
2.49932
2.35405
2.16402
2.06944
2.06877
2.12561
2.20615
2.28541
2.34779
2.38836
2.40707
2.40864
2.39419
0.122604
0.204491
0.258498
0.285852
0.307687
0.324233
0.338544
0.35062
0.361345
0.37076
0.379223
0.386843
0.393866
0.400461
0.406845
0.413177
0.419615
0.426272
0.433249
0.440624
0.44846
0.456809
0.465714
0.47519
0.485226
0.495776
0.506774
0.518138
0.529771
0.541569
0.553409
0.565143
0.576599
0.587591
0.597951
0.607562
0.616396
0.624526
0.632084
0.639315
0.646527
0.654058
0.662415
0.672081
0.683428
0.696581
0.7116
0.728631
0.747745
0.768939
0.792154
0.817288
0.844209
0.872748
0.902706
0.933874
0.966044
0.999021
1.03263
1.06673
1.1012
1.13594
1.17091
1.20605
1.24136
1.27683
1.31248
1.34832
1.38438
1.42069
1.45727
1.49417
1.5314
1.56898
1.60694
1.6453
1.68405
1.72322
1.7628
1.8028
1.8432
1.88401
1.92519
1.96675
2.00866
2.05089
2.09343
2.13623
2.17926
2.22249
2.26588
2.30938
2.35294
2.3965
2.44003
2.48344
2.52668
2.56969
2.61239
2.65472
2.6966
2.73796
2.77874
2.81888
2.85831
2.897
2.93491
2.97201
3.00831
3.04381
3.07857
3.11263
3.14609
3.17906
3.21164
3.24399
3.27634
3.30896
3.34215
3.37629
3.41177
3.44904
3.48856
3.53076
3.57597
3.62436
3.67579
3.72975
3.78522
3.84065
3.89401
3.94288
3.98471
4.01709
4.038
4.04595
4.04056
4.02172
3.98887
3.94295
3.885
3.81627
3.73787
3.65097
3.55681
3.45677
3.35243
3.24538
3.13699
3.02815
2.91905
2.809
2.69677
2.58134
2.46302
2.34532
2.23528
2.13868
2.05728
1.99246
1.94751
1.92906
1.94624
2.02571
2.20591
2.44005
2.58795
2.53495
2.36184
2.2251
2.19105
2.23541
2.32191
2.41777
2.50123
2.56174
2.59743
2.61026
2.60598
2.58525
0.133468
0.22402
0.283783
0.313779
0.337453
0.35542
0.370895
0.383986
0.395611
0.405861
0.415092
0.423403
0.431006
0.438034
0.444657
0.451013
0.457244
0.463464
0.46978
0.476281
0.48304
0.490111
0.497528
0.505298
0.51341
0.521829
0.530504
0.539373
0.548365
0.55741
0.566444
0.575421
0.584315
0.593137
0.601931
0.61072
0.619586
0.628676
0.638236
0.648497
0.659738
0.672247
0.686115
0.701396
0.718096
0.736321
0.756129
0.777546
0.80057
0.825176
0.851317
0.878923
0.907896
0.938129
0.969501
1.00189
1.03517
1.06922
1.10395
1.13925
1.17505
1.21129
1.24792
1.28492
1.32227
1.35997
1.39802
1.43644
1.47523
1.51442
1.55402
1.59405
1.63454
1.67548
1.7169
1.7588
1.80118
1.84404
1.88738
1.9312
1.97547
2.02018
2.06532
2.11085
2.15676
2.20302
2.24958
2.29642
2.34349
2.39074
2.43814
2.48562
2.53313
2.58061
2.62799
2.67521
2.72219
2.76885
2.81511
2.8609
2.90613
2.95072
2.99459
3.03766
3.07987
3.12115
3.16145
3.20074
3.239
3.27621
3.31241
3.34764
3.38197
3.41552
3.44845
3.48095
3.51323
3.54555
3.57823
3.61168
3.64636
3.68279
3.72153
3.76314
3.80812
3.8568
3.90922
3.965
4.02322
4.08235
4.14022
4.1942
4.24145
4.27918
4.305
4.31717
4.31484
4.29838
4.26672
4.22102
4.16251
4.09251
4.01222
3.92264
3.82488
3.72009
3.60955
3.49461
3.37654
3.25628
3.13421
3.00989
2.88233
2.75097
2.61728
2.48657
2.36784
2.26935
2.1969
2.15656
2.14915
2.16672
2.21536
2.31046
2.45936
2.60716
2.63071
2.51702
2.36686
2.2969
2.31973
2.4032
2.51124
2.61472
2.69731
2.75309
2.78284
2.78937
2.77909
2.75196
0.142262
0.238207
0.302338
0.334276
0.359204
0.378122
0.394352
0.408105
0.420317
0.431122
0.440882
0.449705
0.457782
0.465223
0.47217
0.478738
0.485044
0.491185
0.497251
0.503313
0.509436
0.515667
0.522044
0.528588
0.53531
0.542209
0.549279
0.556515
0.563918
0.571499
0.579285
0.587318
0.595659
0.60438
0.613572
0.623391
0.633981
0.645474
0.65798
0.671582
0.686326
0.702223
0.719346
0.737745
0.757449
0.778483
0.800859
0.824587
0.849664
0.876068
0.903767
0.932717
0.962861
0.994137
1.02647
1.05979
1.09401
1.12907
1.16489
1.20141
1.23857
1.27634
1.31468
1.35356
1.39298
1.43292
1.47338
1.51437
1.5559
1.59796
1.64056
1.68373
1.72745
1.77173
1.81658
1.86199
1.90796
1.95447
2.00153
2.04911
2.09719
2.14575
2.19477
2.24421
2.29406
2.34426
2.39478
2.44558
2.4966
2.54781
2.59915
2.65055
2.70195
2.75328
2.80448
2.85546
2.90614
2.95645
3.00627
3.05554
3.10415
3.152
3.19902
3.24511
3.29019
3.33419
3.37703
3.41867
3.45908
3.49822
3.53612
3.57279
3.60831
3.64275
3.67623
3.70892
3.74107
3.77299
3.80503
3.83766
3.87139
3.90684
3.94469
3.98567
4.03044
4.07953
4.1332
4.19126
4.25291
4.31663
4.38017
4.44066
4.49488
4.53965
4.57217
4.59038
4.59297
4.58059
4.5521
4.50851
4.45126
4.38181
4.30145
4.2111
4.11154
4.00367
3.8884
3.76673
3.6397
3.50824
3.37288
3.23353
3.08961
2.94124
2.79126
2.64747
2.52174
2.42443
2.36387
2.34569
2.35819
2.39734
2.4565
2.53761
2.63121
2.67746
2.61906
2.48446
2.38902
2.38477
2.45699
2.57125
2.69286
2.7984
2.87716
2.92669
2.94969
2.9496
2.93276
2.89955
0.145389
0.244352
0.311555
0.344919
0.370802
0.390438
0.407274
0.421567
0.434297
0.445615
0.4559
0.46526
0.47388
0.481854
0.489301
0.496307
0.502971
0.509375
0.515598
0.521705
0.527759
0.533812
0.53991
0.546092
0.552397
0.558863
0.565531
0.572446
0.579661
0.587238
0.595248
0.60377
0.612889
0.622694
0.633277
0.644723
0.657109
0.670498
0.684939
0.700471
0.717124
0.734919
0.753879
0.774025
0.795375
0.817944
0.841744
0.866777
0.89304
0.920523
0.949209
0.979076
1.01009
1.04222
1.07541
1.10961
1.14479
1.18089
1.21787
1.25567
1.29427
1.33363
1.37372
1.41453
1.45603
1.49823
1.5411
1.58465
1.62887
1.67376
1.71931
1.76554
1.81242
1.85996
1.90814
1.95696
2.0064
2.05645
2.10709
2.15829
2.21004
2.26229
2.31503
2.3682
2.42179
2.47574
2.53002
2.58456
2.63933
2.69426
2.74929
2.80436
2.85941
2.91434
2.96909
3.02357
3.07769
3.13136
3.18447
3.23693
3.28863
3.33947
3.38935
3.43817
3.48583
3.53224
3.57732
3.62101
3.66323
3.70397
3.74321
3.78096
3.81728
3.85228
3.88612
3.91896
3.95104
3.98265
4.0142
4.04616
4.07913
4.11384
4.15111
4.19181
4.23684
4.28694
4.34259
4.40379
4.46992
4.5395
4.61014
4.67869
4.74155
4.79507
4.83603
4.86198
4.87144
4.86446
4.84105
4.80119
4.74675
4.6793
4.60019
4.51035
4.41038
4.30085
4.18231
4.0553
3.92047
3.77856
3.63017
3.47563
3.3151
3.14991
2.98464
2.82892
2.69576
2.59788
2.54453
2.5352
2.55439
2.59632
2.64476
2.69165
2.71532
2.67674
2.57364
2.46611
2.4339
2.48719
2.59999
2.73507
2.86238
2.96499
3.03727
3.07935
3.095
3.08829
3.06465
3.0255
0.148564
0.248277
0.315267
0.348583
0.374528
0.394267
0.41126
0.425758
0.438757
0.450408
0.461097
0.470929
0.480089
0.488658
0.496743
0.504413
0.511746
0.518806
0.525659
0.532365
0.538977
0.545547
0.552129
0.558777
0.565548
0.572502
0.579704
0.587225
0.595138
0.60352
0.612451
0.62201
0.632274
0.643317
0.655204
0.667994
0.681733
0.696464
0.712219
0.729029
0.746917
0.765909
0.786027
0.807288
0.829709
0.853303
0.878082
0.904052
0.931218
0.959578
0.989127
1.01985
1.05174
1.08476
1.1189
1.15412
1.1904
1.22769
1.26598
1.30523
1.34542
1.38652
1.4285
1.47135
1.51505
1.55959
1.60495
1.65111
1.69808
1.74583
1.79436
1.84366
1.8937
1.94448
1.99597
2.04816
2.10103
2.15455
2.2087
2.26344
2.31875
2.37459
2.43092
2.48771
2.5449
2.60245
2.66032
2.71844
2.77677
2.83523
2.89377
2.95231
3.01078
3.0691
3.12717
3.18491
3.24223
3.29901
3.35515
3.41055
3.46509
3.51866
3.57114
3.62243
3.67242
3.721
3.76809
3.81358
3.85742
3.89955
3.93994
3.9786
4.01555
4.05086
4.08466
4.11712
4.14852
4.1792
4.2096
4.24028
4.27194
4.30543
4.34177
4.38205
4.42739
4.47877
4.53691
4.60204
4.67361
4.75017
4.8292
4.90722
4.98016
5.04388
5.0947
5.12983
5.14766
5.14746
5.13062
5.09599
5.0458
4.98162
4.90491
4.81671
4.71754
4.60774
4.48744
4.35668
4.21561
4.06457
3.90419
3.73525
3.55891
3.3779
3.19868
3.03226
2.89109
2.7868
2.72745
2.71066
2.72154
2.74792
2.76857
2.76603
2.72121
2.636
2.52841
2.47117
2.49961
2.60241
2.74509
2.8919
3.01897
3.11556
3.17985
3.21369
3.22149
3.20783
3.17722
3.13215
0.148138
0.247242
0.31301
0.345868
0.371647
0.391308
0.408327
0.422921
0.436105
0.448023
0.459068
0.469343
0.479034
0.488214
0.496992
0.505426
0.51358
0.521503
0.529247
0.53686
0.544391
0.551894
0.559424
0.567041
0.574807
0.582787
0.591049
0.599663
0.608704
0.618246
0.628362
0.639122
0.650592
0.662831
0.675895
0.689832
0.704686
0.720498
0.737303
0.755133
0.774017
0.793982
0.815051
0.837246
0.860587
0.885092
0.910777
0.937654
0.965733
0.995019
1.02552
1.05722
1.09012
1.12422
1.1595
1.19594
1.23353
1.27225
1.31207
1.35298
1.39496
1.43797
1.48201
1.52705
1.57307
1.62005
1.66798
1.71683
1.76658
1.81722
1.86873
1.92107
1.97424
2.02821
2.08294
2.13842
2.19461
2.25149
2.30901
2.36714
2.42585
2.48509
2.54482
2.60499
2.66555
2.72646
2.78764
2.84906
2.91063
2.9723
3.034
3.09564
3.15715
3.21843
3.2794
3.33996
3.4
3.45942
3.5181
3.57592
3.63276
3.68851
3.74303
3.79621
3.84792
3.89805
3.94648
3.9931
4.03784
4.08061
4.12137
4.16011
4.19685
4.23168
4.26475
4.29621
4.32635
4.35551
4.38418
4.41298
4.44277
4.47458
4.50965
4.54937
4.59511
4.64813
4.70935
4.7792
4.85726
4.94203
5.03078
5.11963
5.204
5.2792
5.34112
5.38663
5.41391
5.42227
5.41272
5.38516
5.34055
5.28097
5.20785
5.12234
5.02509
4.91626
4.79564
4.66278
4.51722
4.35878
4.18795
4.00599
3.81518
3.61965
3.42694
3.24757
3.09246
2.97247
2.89475
2.85723
2.84682
2.84343
2.8234
2.76907
2.68591
2.57841
2.5017
2.50103
2.58437
2.72644
2.88825
3.03857
3.16042
3.24845
3.3035
3.32858
3.32839
3.30713
3.26989
3.21901
0.146632
0.243228
0.306724
0.33872
0.364071
0.383521
0.400496
0.415162
0.428539
0.440751
0.452202
0.462981
0.473276
0.48315
0.492697
0.50196
0.511003
0.519867
0.528607
0.537274
0.545914
0.554564
0.563271
0.572091
0.58108
0.590301
0.599818
0.609697
0.620005
0.630812
0.642182
0.654179
0.666862
0.680286
0.694504
0.709565
0.725516
0.742398
0.760252
0.779113
0.799016
0.819993
0.842073
0.865283
0.889648
0.915191
0.941932
0.96989
0.999079
1.02951
1.0612
1.09414
1.12835
1.16381
1.20054
1.23852
1.27773
1.31818
1.35984
1.4027
1.44674
1.49194
1.53827
1.58572
1.63426
1.68386
1.73451
1.78617
1.83883
1.89244
1.94698
2.00243
2.05875
2.11591
2.17387
2.23259
2.29205
2.3522
2.413
2.4744
2.53637
2.59885
2.66179
2.72514
2.78885
2.85285
2.91709
2.9815
3.04601
3.11056
3.17505
3.23941
3.30356
3.3674
3.43082
3.49374
3.55602
3.61757
3.67826
3.73796
3.79655
3.85389
3.90986
3.96432
4.01712
4.06816
4.11728
4.16438
4.20935
4.25208
4.29252
4.33062
4.36636
4.3998
4.43105
4.46032
4.48789
4.51415
4.53964
4.56513
4.59161
4.6204
4.65306
4.69128
4.73678
4.79109
4.85543
4.9304
5.01564
5.10954
5.20909
5.30992
5.40684
5.49463
5.56869
5.62563
5.66347
5.68173
5.6805
5.66155
5.62415
5.57085
5.50298
5.42167
5.32761
5.22102
5.10148
4.96812
4.81989
4.65601
4.47662
4.28328
4.07916
3.86943
3.66196
3.46568
3.28932
3.14343
3.03666
2.96819
2.92417
2.88102
2.81939
2.73269
2.62189
2.52901
2.50085
2.5548
2.68576
2.85565
3.02663
3.17392
3.28714
3.36494
3.40986
3.42543
3.41721
3.3879
3.34425
3.28771
0.142928
0.235749
0.296881
0.328109
0.353095
0.372394
0.389383
0.404179
0.417806
0.430363
0.442261
0.453579
0.464509
0.475106
0.485468
0.495636
0.505669
0.515599
0.525463
0.53529
0.545117
0.554993
0.564967
0.575077
0.585378
0.595925
0.606776
0.617997
0.629655
0.64181
0.654519
0.66784
0.681828
0.696538
0.712023
0.728336
0.745524
0.763636
0.782713
0.802799
0.823933
0.84615
0.869487
0.893974
0.919643
0.94652
0.974631
1.004
1.03464
1.06659
1.09984
1.13441
1.17031
1.20755
1.24613
1.28604
1.32728
1.36984
1.4137
1.45886
1.50529
1.55297
1.60188
1.65199
1.70328
1.7557
1.80924
1.86385
1.91951
1.97618
2.03381
2.09238
2.15184
2.21215
2.27327
2.33515
2.39775
2.46102
2.52491
2.58938
2.65437
2.71982
2.78569
2.8519
2.91841
2.98514
3.05203
3.11901
3.186
3.25293
3.31971
3.38626
3.45248
3.51826
3.58352
3.64813
3.71198
3.77494
3.83689
3.8977
3.95723
4.01534
4.07188
4.12671
4.17968
4.23064
4.27944
4.32596
4.37005
4.4116
4.45053
4.48676
4.5203
4.55118
4.57948
4.60537
4.62913
4.65114
4.67202
4.69265
4.71426
4.73848
4.76723
4.80266
4.84684
4.90163
4.96864
5.04873
5.14156
5.24525
5.35659
5.47041
5.58089
5.68226
5.76944
5.83877
5.88824
5.91727
5.92632
5.91686
5.88903
5.84394
5.78345
5.70849
5.61965
5.51701
5.40013
5.26786
5.11871
4.95129
4.76528
4.56216
4.34553
4.12093
3.8953
3.67562
3.46979
3.28971
3.14615
3.03864
2.95307
2.87234
2.77851
2.66381
2.55795
2.50215
2.52419
2.63224
2.80039
2.98661
3.15779
3.29666
3.39847
3.46464
3.4987
3.50443
3.48778
3.45044
3.40058
3.3386
0.13819
0.226661
0.28524
0.315705
0.34034
0.359515
0.376556
0.391534
0.40547
0.418437
0.430852
0.442777
0.454408
0.465791
0.477026
0.488146
0.499208
0.510237
0.521269
0.532328
0.543444
0.554647
0.565971
0.577464
0.589174
0.60116
0.61348
0.626194
0.639359
0.653031
0.667266
0.682117
0.697635
0.713876
0.730897
0.748754
0.767497
0.787177
0.80784
0.829533
0.852297
0.876174
0.901203
0.92742
0.954859
0.983552
1.01353
1.04482
1.07744
1.11142
1.14677
1.18351
1.22165
1.2612
1.30215
1.34452
1.38828
1.43344
1.47997
1.52786
1.5771
1.62764
1.67947
1.73255
1.78685
1.84234
1.89896
1.95669
2.01549
2.07529
2.13607
2.19778
2.26036
2.32377
2.38796
2.45287
2.51845
2.58466
2.65142
2.71869
2.78641
2.85451
2.92294
2.99162
3.0605
3.1295
3.19855
3.26758
3.33651
3.40524
3.47371
3.5418
3.60942
3.67647
3.74283
3.80839
3.87302
3.9366
3.999
4.06007
4.11966
4.17763
4.23382
4.28807
4.34022
4.39012
4.43759
4.48249
4.52466
4.56397
4.60028
4.63349
4.66354
4.69043
4.71422
4.73504
4.75313
4.76891
4.78303
4.79651
4.81087
4.82813
4.85055
4.88055
4.92046
4.97336
5.04167
5.12669
5.22806
5.3431
5.46705
5.59464
5.71944
5.83534
5.93658
6.01929
6.08154
6.1228
6.14369
6.14501
6.12889
6.09421
6.04359
5.97767
5.89678
5.80079
5.68901
5.56006
5.41204
5.24303
5.05206
4.84019
4.61089
4.36948
4.12162
3.8722
3.62985
3.40921
3.22299
3.07086
2.94586
2.83062
2.70774
2.59101
2.51179
2.50436
2.5783
2.7324
2.92533
3.11654
3.28031
3.40664
3.49506
3.54853
3.57106
3.56703
3.54088
3.49623
3.44024
3.37303
0.132021
0.215662
0.271841
0.301649
0.326009
0.345143
0.362321
0.377572
0.39192
0.405407
0.418457
0.431111
0.443572
0.455875
0.468126
0.480349
0.492601
0.504898
0.517273
0.529741
0.542334
0.555066
0.567976
0.581117
0.594545
0.60832
0.622491
0.637109
0.652215
0.667858
0.684096
0.700979
0.718557
0.73689
0.75604
0.776064
0.797014
0.818935
0.841877
0.865887
0.891012
0.917293
0.944774
0.973493
1.00349
1.03479
1.06743
1.10144
1.13685
1.17367
1.21192
1.25161
1.29277
1.33538
1.37944
1.42496
1.47192
1.52031
1.5701
1.62128
1.67381
1.72767
1.78282
1.83923
1.89685
1.95563
2.01554
2.07652
2.13852
2.2015
2.2654
2.33017
2.39574
2.46207
2.5291
2.59677
2.66501
2.73377
2.80299
2.8726
2.94255
3.01276
3.08316
3.15369
3.22428
3.29486
3.36534
3.43565
3.5057
3.57542
3.64469
3.71343
3.78153
3.84889
3.91537
3.98086
4.04524
4.10837
4.17011
4.23031
4.28881
4.34546
4.40008
4.45251
4.50256
4.55005
4.59479
4.6366
4.67532
4.71077
4.74282
4.77134
4.79623
4.81744
4.83496
4.84887
4.8593
4.86671
4.8717
4.87545
4.87957
4.88607
4.89804
4.9187
4.95179
5.00083
5.06862
5.15685
5.26537
5.39217
5.53121
5.67571
5.81805
5.94975
6.06604
6.16327
6.2398
6.29487
6.32915
6.34399
6.34039
6.3194
6.28107
6.22699
6.15717
6.07118
5.96795
5.84567
5.7019
5.53388
5.3396
5.11912
4.87523
4.61278
4.33668
4.05152
3.76815
3.50383
3.27252
3.07456
2.91376
2.76713
2.63537
2.53633
2.49975
2.53784
2.66583
2.85413
3.05812
3.24343
3.39317
3.50356
3.57686
3.61669
3.62705
3.61319
3.57729
3.52563
3.46359
3.39146
0.125778
0.20466
0.258169
0.287267
0.311368
0.330518
0.347913
0.363529
0.378402
0.392536
0.406368
0.419917
0.433393
0.446817
0.460301
0.47386
0.487551
0.501384
0.515393
0.529578
0.543959
0.558615
0.573621
0.589006
0.604811
0.62108
0.637863
0.655193
0.673109
0.691654
0.710859
0.730749
0.751383
0.772852
0.79522
0.818519
0.842783
0.868065
0.894414
0.921878
0.950503
0.98033
1.0114
1.04375
1.07742
1.11244
1.14883
1.18663
1.22585
1.26652
1.30862
1.35219
1.3972
1.44367
1.49157
1.5409
1.59164
1.64377
1.69725
1.75207
1.80818
1.86555
1.92413
1.98389
2.04477
2.10673
2.16971
2.23366
2.29852
2.36425
2.43078
2.49805
2.56601
2.63459
2.70373
2.77337
2.84345
2.9139
2.98466
3.05566
3.12684
3.19813
3.26946
3.34075
3.41194
3.48295
3.55371
3.62412
3.69411
3.76359
3.83245
3.9006
3.96793
4.03433
4.09968
4.16385
4.2267
4.28811
4.3479
4.40592
4.46201
4.51599
4.56769
4.61692
4.66348
4.70717
4.74778
4.7851
4.81891
4.84901
4.87522
4.89739
4.91535
4.92901
4.93828
4.94322
4.94373
4.94048
4.9335
4.92415
4.91484
4.90892
4.9095
4.91947
4.94345
4.98616
5.05157
5.14211
5.2576