/*--------------------------------*- C++ -*----------------------------------*\
| =========                 |                                                 |
| \\      /  F ield         | OpenFOAM: The Open Source CFD Toolbox           |
|  \\    /   O peration     | Version:  v1906                                 |
|   \\  /    A nd           | Web:      www.OpenFOAM.com                      |
|    \\/     M anipulation  |                                                 |
\*---------------------------------------------------------------------------*/
FoamFile
{
    version     2.0;
    format      ascii;
    class       volScalarField;
    location    "2000";
    object      nut;
}
// * * * * * * * * * * * * * * * * * * * * * * * * * * * * * * * * * * * * * //

dimensions      [0 2 -1 0 0 0 0];


internalField   nonuniform List<scalar> 
12225
(
5.38055e-05
5.3434e-05
5.26737e-05
5.18243e-05
5.10078e-05
5.02544e-05
4.95712e-05
4.89562e-05
4.84004e-05
4.79051e-05
4.74496e-05
4.7056e-05
4.67397e-05
4.64829e-05
4.625e-05
4.60809e-05
4.58822e-05
4.5806e-05
0.00074351
0.000277289
0.000212059
0.00019034
0.000177844
0.000170942
0.000165684
0.000161412
0.000158073
0.000155289
0.000153167
0.000151146
0.000149807
0.000148027
0.000147444
0.000145719
0.000146143
0.000144314
0.00336964
0.0009679
0.000670234
0.000563729
0.000506674
0.000473343
0.000449676
0.000431662
0.000418465
0.00040791
0.000399225
0.000391915
0.000385968
0.000380432
0.000376417
0.000371666
0.000369953
0.000365242
0.00784554
0.00229531
0.0014752
0.00117725
0.00102248
0.000930367
0.000868772
0.000823938
0.000791302
0.000765609
0.000744823
0.00072837
0.000715035
0.000703548
0.000694318
0.00068541
0.000680352
0.000670445
0.0127613
0.00433017
0.00271176
0.00210513
0.00179128
0.00160247
0.00147676
0.00138642
0.00131939
0.00126749
0.00122593
0.00119213
0.00116508
0.00114145
0.00112181
0.00110457
0.00109216
0.0010744
0.0171128
0.00693501
0.00437045
0.00334531
0.00280609
0.00247775
0.00225802
0.00210048
0.00198278
0.00189168
0.00181901
0.00175977
0.00171127
0.00167025
0.00163551
0.00160553
0.00158035
0.00155301
0.0205941
0.00988654
0.00641902
0.00491089
0.00409399
0.00358866
0.00324742
0.0030019
0.00281747
0.0026742
0.00255977
0.00246633
0.00238909
0.00232403
0.00226867
0.00222097
0.00218038
0.00213863
0.0232402
0.0129321
0.00876073
0.00676352
0.00563598
0.00492281
0.00443464
0.0040806
0.00381288
0.00360382
0.00343624
0.00329904
0.003185
0.00308878
0.00300664
0.00293576
0.0028743
0.00281423
0.025206
0.0158693
0.011282
0.00885502
0.00741535
0.00647923
0.0058274
0.00534945
0.00498506
0.00469869
0.00446802
0.00427846
0.00412022
0.00398629
0.00387161
0.00377241
0.00368565
0.00360376
0.0266536
0.0185545
0.0138513
0.0111041
0.00938174
0.00822436
0.00740127
0.00678907
0.00631743
0.00594376
0.00564089
0.00539074
0.00518095
0.0050027
0.00484952
0.00471654
0.00459947
0.00449169
0.0277216
0.0209138
0.0163539
0.0134257
0.0114797
0.010123
0.00913436
0.00838644
0.00780304
0.00733641
0.00695536
0.00663876
0.00637188
0.00614413
0.00594766
0.00577649
0.00562539
0.00548806
0.028446
0.0227401
0.0184751
0.0155078
0.0134276
0.0119245
0.0108017
0.00993718
0.00925385
0.00870172
0.00824722
0.00786715
0.00754504
0.00726889
0.00702973
0.0068206
0.00663555
0.00646865
0.0290068
0.0243013
0.0204345
0.0175343
0.0153889
0.013779
0.0125436
0.0115734
0.010795
0.0101589
0.00963051
0.0091854
0.0088059
0.00847891
0.0081945
0.0079449
0.00772361
0.00752458
0.0294881
0.0257536
0.0223947
0.0196723
0.0175354
0.0158603
0.0145325
0.0134642
0.0125911
0.0118672
0.0112588
0.0107417
0.0102974
0.00991213
0.00957527
0.00927836
0.00901444
0.0087775
0.0298831
0.0270267
0.0242363
0.0217938
0.0197529
0.0180734
0.0166916
0.0155474
0.0145914
0.0137846
0.0130972
0.0125062
0.0119937
0.011546
0.011152
0.0108029
0.0104915
0.0102117
0.030187
0.0280585
0.0258239
0.0237216
0.0218518
0.0202329
0.0188462
0.017661
0.0166454
0.0157713
0.0150145
0.0143554
0.0137779
0.0132689
0.0128179
0.012416
0.0120562
0.0117323
0.0303974
0.028799
0.0270218
0.0252441
0.0235725
0.0220557
0.0207057
0.0195157
0.0184708
0.0175535
0.0167467
0.0160349
0.0154047
0.0148446
0.0143446
0.0138965
0.0134935
0.0131299
0.0305039
0.0291831
0.0276651
0.0260894
0.0245556
0.0231213
0.0218125
0.0206353
0.0195845
0.0186496
0.0178187
0.0170792
0.0164199
0.0158304
0.0153017
0.0148261
0.0143966
0.0140073
0.0304706
0.0290643
0.0274676
0.0258315
0.0242571
0.0227989
0.0214783
0.0202975
0.0192483
0.0183183
0.0174939
0.016762
0.0161105
0.015529
0.0150082
0.0145404
0.0141191
0.0137389
0.0302301
0.028211
0.0260714
0.0240362
0.0222068
0.0206078
0.0192271
0.018039
0.0170153
0.01613
0.0153605
0.0146881
0.0140973
0.0135754
0.0131121
0.012699
0.0123294
0.0119977
0.0298192
0.0268242
0.0239441
0.0214561
0.0193975
0.0177155
0.0163387
0.0152029
0.0142563
0.013459
0.0127805
0.0121976
0.0116924
0.0112511
0.0108629
0.0105196
0.0102148
0.00994409
0.0291385
0.024706
0.0209807
0.018127
0.0159801
0.0143482
0.0130835
0.0120827
0.0112749
0.0106114
0.0100579
0.00958992
0.00918956
0.00884354
0.00854177
0.00827667
0.00804253
0.00783573
0.0280348
0.021714
0.0172819
0.0143336
0.0123261
0.0109026
0.00985246
0.00905069
0.0084208
0.00791399
0.00749803
0.00715087
0.00685697
0.00660512
0.0063869
0.00619619
0.00602831
0.00588208
0.0262538
0.017817
0.0131453
0.0104879
0.00884549
0.00774994
0.00697377
0.00639792
0.00595492
0.0056041
0.00531972
0.00508472
0.00488743
0.00471954
0.00457491
0.00444907
0.00433846
0.00424225
0.0233809
0.0132078
0.00902319
0.00699286
0.00583769
0.00510194
0.00459541
0.00422706
0.00394773
0.00372881
0.00355282
0.00340836
0.0032878
0.00318572
0.00309797
0.00302183
0.00295416
0.00289622
0.0189043
0.00845956
0.0054527
0.00418667
0.00350874
0.00308966
0.00280633
0.00260325
0.00245059
0.00233152
0.00223627
0.00215832
0.00209359
0.00203897
0.00199196
0.00195156
0.0019156
0.00188516
0.0125831
0.0043928
0.00279107
0.00217478
0.00185404
0.00165763
0.00152605
0.001433
0.00136304
0.00130828
0.0012647
0.00122905
0.0011998
0.00117498
0.00115325
0.00113511
0.00111798
0.0011037
0.00562422
0.00171425
0.00115756
0.000947711
0.000839141
0.000771704
0.000727006
0.000695928
0.000671134
0.000651069
0.000635176
0.000621934
0.000610579
0.000601039
0.000592355
0.000585263
0.000578111
0.000573273
0.00117097
0.000438402
0.000330808
0.000288808
0.000267465
0.000253703
0.000246277
0.000240163
0.000235003
0.00023061
0.000226829
0.000223654
0.000220803
0.00021848
0.000216213
0.000214516
0.000212546
0.000211045
7.08584e-05
7.01421e-05
6.91462e-05
6.8162e-05
6.72336e-05
6.63766e-05
6.55917e-05
6.48772e-05
6.4227e-05
6.36345e-05
6.30931e-05
6.25972e-05
6.21424e-05
6.17231e-05
6.13383e-05
6.098e-05
6.06523e-05
6.03415e-05
7.80636e-06
2.29052e-05
2.74061e-05
2.99723e-05
3.18214e-05
3.30132e-05
3.38535e-05
3.44525e-05
3.4908e-05
3.52603e-05
3.55443e-05
3.5778e-05
3.59767e-05
3.61491e-05
3.63015e-05
3.64371e-05
3.65574e-05
3.66611e-05
3.67516e-05
3.68155e-05
3.68732e-05
3.68848e-05
3.68542e-05
3.67859e-05
3.66546e-05
3.64665e-05
3.6219e-05
3.59071e-05
3.55237e-05
3.50614e-05
3.45155e-05
3.38896e-05
3.3203e-05
3.24934e-05
3.18261e-05
3.1265e-05
3.0918e-05
3.07171e-05
3.06874e-05
3.0756e-05
3.09701e-05
3.12734e-05
3.16099e-05
3.19407e-05
3.22139e-05
3.24092e-05
3.24656e-05
3.23757e-05
3.20506e-05
3.11995e-05
2.98765e-05
2.85491e-05
2.78628e-05
2.83218e-05
2.9416e-05
3.11363e-05
3.3383e-05
3.62376e-05
3.93842e-05
4.2104e-05
4.46016e-05
4.69099e-05
4.90746e-05
5.10451e-05
5.2873e-05
5.45692e-05
5.61559e-05
5.76472e-05
5.90574e-05
6.0398e-05
6.16793e-05
6.29098e-05
6.40971e-05
6.52474e-05
6.63661e-05
6.74577e-05
6.8526e-05
6.9574e-05
7.06045e-05
7.16196e-05
7.26212e-05
7.3611e-05
7.45902e-05
7.55603e-05
7.65222e-05
7.74771e-05
7.8426e-05
7.93701e-05
8.03103e-05
8.12476e-05
8.21833e-05
8.31182e-05
8.40535e-05
8.49903e-05
8.59298e-05
8.68732e-05
8.78219e-05
8.87774e-05
8.97412e-05
9.07149e-05
9.16999e-05
9.26977e-05
9.37096e-05
9.47367e-05
9.57798e-05
9.68397e-05
9.79166e-05
9.90101e-05
0.000100119
0.000101242
0.000102375
0.000103516
0.000104664
0.000105819
0.000106993
0.000108184
0.000109385
0.000110588
0.000111784
0.00011296
0.000114154
0.000115338
0.000116492
0.000117568
0.000118536
0.000119132
0.000119312
0.000119287
0.000119345
0.000119384
0.000119455
0.000119548
0.000119664
0.000119794
0.000119908
0.000120059
0.000120254
0.000120704
0.000120674
0.000120653
0.000120457
0.000120089
0.00011957
0.000118935
0.000118194
0.000117379
0.000116535
0.00011571
0.000114926
0.000114191
0.00011351
0.000112851
0.000112136
0.000111307
0.0001103
0.000108876
0.000107264
0.000105522
0.000102759
9.89805e-05
9.43663e-05
8.80578e-05
8.00665e-05
6.93076e-05
5.03843e-05
4.56508e-05
4.91716e-05
6.00781e-05
6.26737e-05
6.39412e-05
5.37534e-05
4.14871e-05
4.33345e-05
5.61901e-05
6.51807e-05
7.02069e-05
7.37052e-05
7.54204e-05
7.73923e-05
7.68571e-05
1.14094e-05
4.8463e-05
0.00010507
0.000148057
0.000178604
0.000199816
0.000215132
0.000225791
0.000233624
0.000239315
0.000243933
0.000247945
0.000251905
0.000256162
0.000261019
0.000266644
0.000272988
0.000280162
0.000287977
0.000295941
0.000303245
0.00030919
0.000313226
0.000315267
0.000315214
0.000313751
0.000311599
0.000309551
0.000308496
0.000309415
0.000313274
0.000320837
0.000332483
0.000348208
0.000367874
0.000389427
0.000410176
0.000428537
0.00044361
0.000455091
0.000462946
0.000467386
0.0004686
0.000467119
0.000463492
0.000458287
0.000452141
0.000445755
0.000439782
0.000434492
0.000430403
0.000427798
0.000425725
0.000424321
0.00042365
0.000423194
0.000422244
0.000420675
0.000419804
0.000421665
0.000426456
0.000433796
0.000443345
0.000454447
0.000466584
0.000479372
0.000492501
0.000505736
0.000518906
0.000531896
0.000544633
0.00055708
0.000569223
0.000581067
0.000592628
0.000603928
0.00061499
0.000625837
0.000636492
0.000646975
0.000657299
0.000667479
0.000677523
0.000687437
0.000697225
0.00070689
0.000716431
0.00072585
0.000735146
0.000744321
0.000753377
0.000762314
0.000771136
0.000779844
0.000788443
0.00079694
0.000805343
0.000813663
0.000821914
0.000830112
0.000838278
0.000846432
0.000854594
0.00086278
0.000870997
0.000879241
0.000887489
0.00089569
0.000903747
0.000911497
0.000918685
0.000924915
0.000929629
0.000932725
0.000935412
0.000937844
0.000939903
0.000941117
0.000940446
0.00093541
0.000931489
0.000929258
0.000928904
0.00093064
0.000935024
0.000942597
0.000951347
0.000960738
0.000969817
0.000978182
0.000985115
0.000989943
0.00099203
0.000990577
0.000984221
0.000972915
0.000958219
0.000952438
0.000955915
0.000955834
0.000948596
0.000936692
0.000921294
0.000902821
0.000881491
0.000858169
0.000833764
0.000809069
0.000784376
0.00076037
0.000737237
0.000714508
0.000691835
0.00066858
0.000643974
0.00061966
0.000597681
0.000563205
0.000500949
0.000454338
0.000395708
0.000350547
0.000347962
0.000358638
0.000370511
0.00039409
0.000464322
0.000558285
0.00064743
0.000680933
0.000721262
0.000792369
0.00084135
0.000864734
0.00089426
0.000908091
0.000901427
0.000881817
0.000864807
0.00083946
1.454e-05
6.70801e-05
0.000145183
0.000212528
0.000270081
0.00031643
0.000353385
0.000381469
0.000403902
0.000421726
0.000437372
0.000451881
0.000466399
0.000481431
0.000497409
0.000514457
0.000532649
0.00055175
0.000570825
0.000587899
0.000602321
0.000614305
0.000624196
0.000632534
0.000639836
0.000646572
0.000653125
0.000659692
0.000666169
0.000672345
0.00067784
0.000682241
0.000685248
0.000686706
0.000686518
0.000685674
0.00068513
0.000685005
0.000685138
0.000685343
0.000685607
0.000686122
0.0006873
0.000689453
0.000692904
0.00069822
0.000704845
0.000710801
0.000717223
0.000723034
0.000728313
0.000733489
0.000739193
0.000747723
0.00075625
0.000767741
0.000782991
0.000801622
0.000823197
0.000847735
0.000874784
0.000903706
0.00093355
0.000963864
0.000994191
0.00102416
0.00105351
0.00108207
0.00110975
0.0011365
0.00116235
0.00118734
0.00121152
0.00123497
0.00125775
0.00127993
0.00130157
0.00132273
0.00134345
0.00136377
0.00138371
0.0014033
0.00142255
0.00144148
0.00146008
0.00147835
0.0014963
0.00151391
0.00153119
0.00154811
0.00156469
0.0015809
0.00159673
0.00161219
0.00162727
0.00164194
0.00165622
0.00167008
0.00168353
0.00169657
0.00170919
0.00172138
0.00173314
0.00174446
0.00175532
0.00176569
0.00177554
0.00178479
0.0017934
0.00180127
0.00180831
0.00181447
0.00181984
0.00182462
0.00182896
0.00183263
0.00183532
0.0018378
0.00184047
0.00184405
0.00185019
0.00185892
0.00187015
0.00188331
0.00189814
0.00191486
0.00193269
0.00195116
0.00196925
0.00198638
0.00200179
0.00201467
0.00202414
0.00202934
0.00202909
0.00202443
0.0020176
0.00201091
0.00200053
0.00198171
0.00195445
0.00192019
0.00187911
0.00183027
0.00177376
0.00171228
0.00164861
0.0015851
0.00152347
0.0014648
0.00140943
0.0013564
0.0013054
0.00125519
0.00120503
0.00115591
0.00110957
0.00105655
0.000989721
0.000915035
0.000825673
0.000712187
0.000603185
0.000531109
0.000526049
0.000589231
0.000763511
0.000916577
0.00101747
0.00106701
0.00118889
0.00136876
0.0015421
0.0016598
0.00172747
0.00175031
0.00175093
0.0017334
0.00171547
0.00166394
1.6052e-05
8.00156e-05
0.000178172
0.000257638
0.000332798
0.000392734
0.000445784
0.000487076
0.000522981
0.000552995
0.000580661
0.000606368
0.000631586
0.000656329
0.000681028
0.000705539
0.000729518
0.000752481
0.000773719
0.000791994
0.000805745
0.000815621
0.000822295
0.000826396
0.00082861
0.000829573
0.000829804
0.000829672
0.000829402
0.000828964
0.000828231
0.000827091
0.000825566
0.000823855
0.000822313
0.000821398
0.000821577
0.000823257
0.00082675
0.000832273
0.000839945
0.000849149
0.000859414
0.000869566
0.000877808
0.000885562
0.000893436
0.000904464
0.000920492
0.00094086
0.000965658
0.000992686
0.00102041
0.00105036
0.00108241
0.00111591
0.00115122
0.00118841
0.00122745
0.00126724
0.00130716
0.0013468
0.00138607
0.0014248
0.0014628
0.0014999
0.00153601
0.00157107
0.00160508
0.00163807
0.0016701
0.00170123
0.00173154
0.00176109
0.00178997
0.00181823
0.00184593
0.00187312
0.00189982
0.00192607
0.0019519
0.00197732
0.00200236
0.002027
0.00205126
0.00207512
0.00209857
0.0021216
0.00214419
0.00216634
0.00218802
0.00220921
0.00222991
0.00225008
0.00226972
0.0022888
0.00230731
0.00232523
0.00234253
0.00235921
0.00237525
0.00239063
0.00240534
0.00241935
0.00243266
0.00244526
0.00245714
0.00246829
0.00247872
0.00248847
0.0024976
0.00250619
0.00251439
0.00252231
0.00253
0.00253746
0.002545
0.00255309
0.00256214
0.0025726
0.00258486
0.00259889
0.00261461
0.00263188
0.00265061
0.00267038
0.00269176
0.00271395
0.00273524
0.0027554
0.00277362
0.00278896
0.00280044
0.00280714
0.00280809
0.00280429
0.00279598
0.00278196
0.0027598
0.00272769
0.0026857
0.00263383
0.00257101
0.00249447
0.00240406
0.0023063
0.00220627
0.00210796
0.00201419
0.00192663
0.00184566
0.00177067
0.00170065
0.00163342
0.0015687
0.00150825
0.00145314
0.00140025
0.00133842
0.00126363
0.00117281
0.00105072
0.000906236
0.000840626
0.000826768
0.00093891
0.00110853
0.00121488
0.00128269
0.00140605
0.00160273
0.00187969
0.0021331
0.00229537
0.00237055
0.00239082
0.00239811
0.00238383
0.0023539
0.00229146
1.79575e-05
0.000101189
0.00021709
0.000312887
0.000402996
0.000478987
0.000547336
0.000604648
0.000655306
0.000697456
0.000735525
0.000769331
0.000801146
0.00083071
0.000858656
0.000884218
0.000906924
0.000925534
0.000939453
0.000949179
0.000955108
0.000957688
0.000957487
0.000955204
0.00095158
0.000947302
0.000942928
0.000938848
0.000935278
0.000932298
0.000929931
0.000928248
0.000927449
0.00092789
0.000930038
0.000934383
0.000940886
0.000949146
0.000958615
0.00096852
0.000978584
0.000989514
0.00100285
0.00102227
0.0010471
0.00107737
0.00111213
0.0011485
0.00118469
0.00121997
0.0012563
0.00129373
0.00133165
0.00137087
0.00141205
0.00145465
0.00149674
0.00153831
0.00157977
0.00162167
0.00166403
0.00170667
0.00174908
0.00179094
0.00183205
0.00187226
0.00191151
0.00194978
0.00198709
0.00202347
0.00205899
0.00209371
0.00212769
0.00216101
0.00219373
0.00222589
0.00225754
0.00228873
0.00231947
0.00234981
0.00237976
0.00240929
0.00243843
0.00246716
0.00249547
0.00252337
0.00255083
0.00257785
0.0026044
0.00263047
0.00265605
0.0026811
0.00270561
0.00272956
0.00275292
0.00277567
0.00279779
0.00281925
0.00284003
0.00286011
0.00287947
0.00289808
0.00291594
0.00293303
0.00294934
0.00296487
0.00297963
0.00299365
0.00300696
0.00301962
0.00303171
0.00304333
0.00305461
0.00306568
0.00307675
0.00308815
0.00310009
0.00311281
0.00312655
0.00314152
0.00315785
0.00317556
0.00319467
0.00321515
0.00323691
0.00325978
0.00328352
0.00330739
0.00333056
0.00335239
0.00337195
0.00338821
0.00340011
0.00340671
0.00340713
0.00340126
0.00338892
0.0033674
0.00333593
0.0032934
0.00323914
0.00317196
0.0030895
0.00298873
0.0028709
0.00274335
0.00261281
0.00248455
0.00236234
0.00224852
0.00214418
0.00204947
0.00196367
0.00188526
0.00181314
0.00174953
0.0016963
0.00164721
0.00159338
0.00152756
0.00144719
0.00134549
0.00122312
0.00118984
0.00122004
0.00134522
0.00139927
0.00145779
0.00153741
0.00169763
0.00200396
0.00237427
0.0026579
0.00282197
0.0028969
0.00292031
0.00291723
0.00289191
0.00284767
0.00277958
1.93888e-05
0.000115257
0.000249563
0.000363903
0.00046803
0.000558895
0.000638221
0.000708085
0.00076955
0.000823824
0.000871568
0.000913229
0.000949213
0.000980102
0.0010069
0.00102955
0.00104784
0.00106108
0.00106978
0.00107448
0.00107573
0.0010741
0.00107023
0.00106481
0.00105855
0.00105212
0.00104608
0.00104088
0.00103687
0.00103432
0.00103343
0.00103416
0.00103652
0.00104041
0.00104562
0.00105169
0.00105981
0.00107184
0.00109006
0.00111242
0.00114105
0.00117467
0.0012111
0.00124846
0.00128723
0.00132746
0.00136741
0.00140842
0.0014491
0.00148942
0.00152961
0.00157117
0.00161464
0.00165749
0.00169921
0.0017405
0.00178271
0.00182563
0.00186904
0.00191276
0.00195655
0.00200017
0.00204341
0.00208607
0.00212804
0.00216925
0.00220967
0.00224929
0.00228814
0.00232625
0.00236368
0.00240047
0.00243666
0.00247232
0.00250748
0.00254217
0.00257644
0.00261031
0.00264379
0.00267689
0.00270963
0.002742
0.00277399
0.00280561
0.00283684
0.00286767
0.00289809
0.00292807
0.00295761
0.00298667
0.00301523
0.00304327
0.00307078
0.00309771
0.00312404
0.00314976
0.00317482
0.00319921
0.00322291
0.00324588
0.00326811
0.00328958
0.00331027
0.00333019
0.00334933
0.00336769
0.00338531
0.00340221
0.00341844
0.00343408
0.00344921
0.00346394
0.0034784
0.00349275
0.00350717
0.00352185
0.003537
0.00355281
0.00356947
0.00358713
0.0036059
0.00362588
0.0036471
0.00366958
0.00369323
0.00371781
0.00374296
0.00376806
0.0037924
0.00381518
0.00383537
0.00385188
0.00386359
0.00386943
0.0038684
0.00385957
0.00384285
0.00381545
0.00377676
0.00372597
0.00366156
0.00358126
0.00348101
0.00335603
0.00320714
0.00304684
0.00288441
0.00272663
0.00257829
0.00244238
0.00232035
0.0022125
0.00211793
0.00203502
0.00196313
0.00190684
0.00186833
0.00183352
0.00179504
0.0017454
0.00168566
0.00163131
0.00158939
0.00160414
0.00165597
0.00164395
0.0016084
0.00165527
0.00174559
0.00201435
0.00243057
0.00283093
0.00309561
0.00324615
0.00331672
0.00332915
0.00331055
0.00327132
0.00321512
0.00314249
2.07581e-05
0.000126743
0.000277285
0.000407751
0.000521718
0.000622041
0.000710206
0.000788255
0.000857156
0.000918095
0.000971713
0.00101857
0.00105901
0.0010936
0.00112237
0.00114561
0.00116357
0.00117661
0.00118516
0.00118973
0.00119092
0.00118937
0.00118578
0.00118087
0.00117534
0.00116989
0.001165
0.00116098
0.00115801
0.00115616
0.00115573
0.00115759
0.00116266
0.0011721
0.00118653
0.00120667
0.00123238
0.00126186
0.00129324
0.00132744
0.00136421
0.00140257
0.00144176
0.00148242
0.00152448
0.00156681
0.00160844
0.00164939
0.00169079
0.00173319
0.00177582
0.00181717
0.00185734
0.00189771
0.00193884
0.00198064
0.00202308
0.002066
0.00210923
0.00215259
0.00219589
0.00223898
0.00228172
0.002324
0.00236575
0.00240693
0.00244753
0.00248754
0.00252699
0.00256589
0.00260428
0.0026422
0.00267967
0.00271672
0.00275339
0.0027897
0.00282566
0.00286129
0.0028966
0.0029316
0.00296628
0.00300063
0.00303467
0.00306836
0.00310171
0.00313469
0.00316729
0.00319949
0.00323126
0.00326259
0.00329344
0.00332379
0.00335362
0.00338289
0.00341158
0.00343966
0.00346711
0.00349389
0.00351997
0.00354534
0.00356997
0.00359384
0.00361694
0.00363927
0.00366081
0.00368159
0.00370162
0.00372093
0.00373957
0.00375761
0.00377513
0.00379222
0.00380901
0.00382565
0.00384229
0.00385913
0.00387631
0.00389404
0.00391247
0.00393178
0.00395213
0.00397365
0.00399641
0.00402043
0.00404563
0.00407175
0.0040984
0.00412499
0.00415078
0.00417483
0.00419607
0.00421332
0.00422537
0.004231
0.00422905
0.0042183
0.00419844
0.00416765
0.00412382
0.00406709
0.00399493
0.00390414
0.00378862
0.00364544
0.00347589
0.00329354
0.00310887
0.00292925
0.00276012
0.00260503
0.00246641
0.00234514
0.00224083
0.0021524
0.00207988
0.00202933
0.00200342
0.00198999
0.00197635
0.00195767
0.00193675
0.00192266
0.00192703
0.00194637
0.00192955
0.00182766
0.00178194
0.0018003
0.0019879
0.0023762
0.00285001
0.0032188
0.00346236
0.00360495
0.00365282
0.00364629
0.00361126
0.00355895
0.00349348
0.00341641
2.16642e-05
0.000134043
0.000296568
0.000437867
0.000561551
0.000670656
0.000766745
0.000851902
0.000927155
0.000993721
0.00105232
0.00110365
0.00114805
0.00118631
0.00121859
0.0012452
0.00126651
0.00128296
0.00129506
0.00130334
0.00130838
0.00131082
0.00131128
0.00131044
0.00130878
0.0013067
0.00130503
0.00130489
0.00130697
0.00131202
0.00132062
0.00133288
0.00134879
0.00136801
0.00139075
0.00141685
0.00144586
0.00147721
0.00151071
0.00154616
0.00158345
0.00162252
0.00166252
0.00170265
0.00174267
0.00178278
0.00182323
0.00186415
0.00190444
0.00194351
0.00198188
0.00202069
0.00205996
0.00209981
0.00214025
0.00218124
0.00222269
0.00226447
0.00230645
0.00234852
0.00239054
0.00243241
0.00247404
0.00251537
0.00255636
0.00259697
0.0026372
0.00267703
0.00271648
0.00275557
0.0027943
0.00283271
0.0028708
0.0029086
0.00294612
0.00298338
0.00302038
0.00305714
0.00309365
0.00312991
0.00316592
0.00320167
0.00323716
0.00327236
0.00330727
0.00334186
0.00337612
0.00341001
0.00344353
0.00347663
0.0035093
0.00354151
0.00357322
0.00360441
0.00363504
0.00366509
0.00369452
0.00372331
0.00375142
0.00377882
0.00380549
0.00383141
0.00385656
0.00388092
0.0039045
0.00392729
0.00394931
0.00397059
0.00399116
0.00401107
0.0040304
0.00404923
0.00406767
0.00408584
0.00410389
0.00412199
0.00414032
0.00415911
0.00417855
0.00419888
0.00422031
0.00424301
0.00426713
0.00429271
0.00431968
0.00434781
0.00437668
0.00440568
0.00443397
0.00446052
0.00448414
0.00450354
0.0045174
0.00452439
0.00452318
0.00451248
0.00449131
0.00445968
0.00441292
0.00435279
0.00427567
0.00417741
0.00404864
0.00388683
0.00370277
0.00350705
0.00330798
0.0031126
0.00292693
0.00275488
0.00260036
0.00246522
0.00234938
0.00225259
0.00217676
0.0021307
0.00212623
0.00215076
0.00217005
0.00218642
0.00219386
0.0022018
0.00221041
0.00218773
0.00208032
0.0019567
0.00190433
0.00198283
0.0022819
0.00275059
0.00319906
0.00353541
0.00376775
0.00389479
0.00392221
0.00389777
0.00384788
0.00378413
0.00371085
0.0036296
2.23717e-05
0.000138828
0.000311107
0.000461275
0.000593041
0.000709536
0.000812392
0.000903713
0.000984589
0.00105628
0.00111958
0.00117533
0.00122399
0.00126622
0.00130267
0.00133371
0.00135978
0.00138139
0.00139904
0.00141329
0.00142471
0.00143387
0.00144127
0.00144739
0.00145323
0.00145959
0.00146691
0.00147541
0.00148561
0.00149791
0.0015126
0.00152982
0.0015496
0.00157184
0.00159645
0.00162347
0.00165281
0.00168423
0.00171745
0.00175205
0.00178752
0.00182323
0.00185932
0.00189588
0.00193309
0.00197061
0.00200752
0.00204348
0.0020793
0.00211557
0.00215232
0.00218964
0.00222752
0.00226596
0.00230491
0.00234431
0.00238407
0.00242411
0.00246433
0.00250465
0.00254498
0.00258526
0.00262542
0.00266543
0.00270525
0.00274486
0.00278425
0.00282342
0.00286236
0.00290108
0.0029396
0.00297793
0.00301607
0.00305403
0.00309183
0.00312947
0.00316695
0.00320427
0.00324143
0.00327843
0.00331525
0.00335189
0.00338833
0.00342456
0.00346056
0.0034963
0.00353177
0.00356693
0.00360177
0.00363625
0.00367033
0.003704
0.00373722
0.00376995
0.00380215
0.0038338
0.00386486
0.00389529
0.00392505
0.00395412
0.00398245
0.00401003
0.00403682
0.0040628
0.00408796
0.0041123
0.0041358
0.0041585
0.00418041
0.00420158
0.00422207
0.00424195
0.00426134
0.00428037
0.00429921
0.00431804
0.00433708
0.00435656
0.00437677
0.00439798
0.0044205
0.00444458
0.00447043
0.00449819
0.00452781
0.0045591
0.00459163
0.0046247
0.00465738
0.00468848
0.00471668
0.00474053
0.00475855
0.00476927
0.00477124
0.0047631
0.00474334
0.00471267
0.0046659
0.00460462
0.00452593
0.00442529
0.00429523
0.00413077
0.00394398
0.00374372
0.00353732
0.00333139
0.00313225
0.0029451
0.00277553
0.00262691
0.00250002
0.00239503
0.0023162
0.00227756
0.00229689
0.00234889
0.00239248
0.00242565
0.00243839
0.00244585
0.00241466
0.00231747
0.00216989
0.00206088
0.00204972
0.00221385
0.00260476
0.00307827
0.0034913
0.00381192
0.00403359
0.00413548
0.00413943
0.00409806
0.00403523
0.0039618
0.00388136
0.00379658
2.26232e-05
0.00014022
0.000319074
0.000475645
0.000613478
0.000735711
0.000843996
0.000940457
0.00102621
0.00110255
0.00117035
0.0012305
0.00128361
0.00133025
0.00137135
0.00140738
0.00143884
0.00146627
0.00149015
0.00151099
0.00152927
0.00154552
0.0015605
0.00157482
0.00158874
0.00160271
0.00161711
0.00163228
0.00164853
0.0016661
0.00168515
0.00170576
0.00172797
0.00175175
0.00177703
0.0018037
0.00183159
0.00186061
0.00189069
0.00192175
0.00195374
0.00198676
0.00202011
0.00205329
0.00208596
0.00211837
0.00215116
0.00218447
0.00221832
0.00225274
0.00228773
0.00232327
0.00235934
0.00239591
0.00243292
0.00247032
0.00250804
0.00254602
0.00258418
0.00262248
0.00266086
0.00269927
0.00273768
0.00277605
0.00281437
0.00285261
0.00289078
0.00292887
0.00296688
0.00300481
0.00304267
0.00308046
0.0031182
0.00315589
0.00319352
0.0032311
0.00326864
0.00330612
0.00334354
0.00338089
0.00341817
0.00345535
0.00349242
0.00352936
0.00356614
0.00360276
0.00363916
0.00367534
0.00371126
0.00374688
0.00378217
0.0038171
0.00385162
0.0038857
0.0039193
0.00395237
0.00398488
0.00401678
0.00404803
0.00407858
0.00410839
0.00413743
0.00416566
0.00419305
0.00421956
0.00424519
0.00426993
0.00429377
0.00431673
0.00433885
0.00436019
0.00438081
0.00440082
0.00442036
0.00443958
0.00445873
0.00447807
0.00449791
0.00451863
0.0045406
0.00456423
0.00458991
0.00461799
0.00464867
0.00468204
0.00471793
0.00475589
0.00479514
0.00483458
0.00487284
0.00490837
0.0049395
0.0049645
0.00498171
0.00498953
0.00498642
0.0049709
0.00494235
0.00489899
0.0048383
0.00476125
0.00466283
0.00453703
0.00437897
0.00419745
0.00399987
0.00379255
0.0035814
0.00337273
0.00317357
0.002991
0.00283036
0.00269437
0.00258532
0.00251012
0.0024842
0.00251836
0.00258121
0.0026263
0.00264719
0.00264668
0.00261631
0.00252703
0.00238499
0.00224462
0.00215732
0.00221183
0.0024758
0.0028987
0.00334552
0.00373968
0.00405457
0.0042591
0.00433366
0.00431678
0.00426016
0.00418554
0.00410396
0.00401698
0.003929
2.28769e-05
0.000142896
0.000324773
0.000485201
0.000627131
0.000753489
0.000865842
0.000966292
0.00105594
0.0011361
0.00120767
0.00127159
0.00132847
0.00137902
0.00142415
0.00146443
0.00150044
0.00153275
0.00156188
0.00158838
0.00161272
0.0016354
0.0016567
0.00167704
0.00169679
0.00171626
0.00173575
0.00175549
0.00177568
0.00179645
0.00181789
0.00184012
0.00186322
0.00188725
0.00191224
0.00193827
0.00196545
0.00199341
0.0020219
0.00205067
0.00207948
0.00210802
0.00213668
0.00216574
0.00219538
0.00222558
0.00225635
0.00228768
0.00231958
0.00235202
0.00238499
0.00241846
0.0024524
0.00248677
0.00252152
0.00255662
0.00259201
0.00262765
0.0026635
0.00269952
0.00273568
0.00277194
0.0028083
0.00284473
0.00288122
0.00291776
0.00295436
0.00299102
0.00302773
0.0030645
0.00310134
0.00313825
0.00317524
0.00321231
0.00324945
0.00328667
0.00332396
0.00336132
0.00339874
0.0034362
0.0034737
0.0035112
0.0035487
0.00358617
0.00362358
0.0036609
0.00369811
0.00373517
0.00377204
0.00380869
0.00384508
0.00388117
0.00391691
0.00395225
0.00398715
0.00402157
0.00405544
0.00408872
0.00412135
0.00415329
0.00418447
0.00421484
0.00424437
0.004273
0.00430068
0.00432741
0.00435313
0.00437786
0.00440159
0.00442436
0.0044462
0.00446719
0.00448746
0.00450717
0.00452651
0.00454576
0.00456525
0.00458536
0.00460657
0.0046294
0.00465442
0.00468219
0.00471322
0.00474791
0.00478645
0.00482876
0.00487438
0.00492242
0.00497156
0.00502016
0.00506631
0.00510801
0.00514321
0.00516992
0.00518632
0.00519075
0.0051818
0.00515771
0.0051191
0.00506089
0.00498711
0.00489422
0.0047786
0.00463521
0.00446504
0.00427567
0.00407272
0.00386169
0.00364898
0.00344233
0.0032504
0.00308104
0.00293973
0.00283117
0.00276398
0.00275044
0.00278425
0.00281681
0.00283565
0.00282413
0.00279161
0.00270938
0.00257479
0.00242187
0.00229162
0.00227203
0.00240649
0.0027253
0.00314013
0.00357424
0.00396544
0.0042732
0.00445585
0.0044977
0.00446082
0.00439036
0.00430513
0.00421587
0.00412308
0.00403249
2.28468e-05
0.000143668
0.000325766
0.000488057
0.000632685
0.000762133
0.000877709
0.000981404
0.00107424
0.00115752
0.00123214
0.00129903
0.00135879
0.00141244
0.00146069
0.00150433
0.00154392
0.00158
0.00161306
0.00164355
0.00167187
0.00169843
0.00172357
0.00174762
0.00177086
0.00179353
0.00181591
0.00183823
0.00186071
0.00188355
0.00190681
0.00193046
0.00195447
0.00197883
0.00200346
0.00202827
0.00205305
0.00207786
0.00210285
0.00212813
0.00215381
0.00217999
0.00220667
0.00223385
0.00226156
0.00228978
0.00231852
0.00234776
0.0023775
0.00240771
0.00243838
0.00246948
0.00250098
0.00253286
0.00256508
0.00259761
0.00263043
0.00266351
0.00269683
0.00273037
0.00276411
0.00279804
0.00283216
0.00286646
0.00290095
0.00293563
0.00297049
0.00300556
0.00304082
0.0030763
0.00311199
0.0031479
0.00318404
0.0032204
0.00325698
0.00329377
0.00333078
0.00336798
0.00340538
0.00344294
0.00348065
0.0035185
0.00355645
0.00359447
0.00363255
0.00367063
0.0037087
0.00374671
0.00378461
0.00382237
0.00385994
0.00389727
0.00393432
0.00397101
0.00400731
0.00404315
0.00407848
0.00411321
0.00414731
0.00418069
0.00421329
0.00424505
0.0042759
0.00430579
0.00433465
0.00436245
0.00438915
0.00441471
0.00443915
0.00446246
0.00448471