/*--------------------------------*- C++ -*----------------------------------*\
| =========                 |                                                 |
| \\      /  F ield         | OpenFOAM: The Open Source CFD Toolbox           |
|  \\    /   O peration     | Version:  v1906                                 |
|   \\  /    A nd           | Web:      www.OpenFOAM.com                      |
|    \\/     M anipulation  |                                                 |
\*---------------------------------------------------------------------------*/
FoamFile
{
    version     2.0;
    format      ascii;
    class       volScalarField;
    location    "2000";
    object      p;
}
// * * * * * * * * * * * * * * * * * * * * * * * * * * * * * * * * * * * * * //

dimensions      [0 2 -2 0 0 0 0];


internalField   nonuniform List<scalar> 
12225
(
-5.68064
-6.94436
-6.94936
-6.98652
-7.14262
-7.27429
-7.377
-7.47353
-7.56534
-7.651
-7.73133
-7.80999
-7.89034
-7.97499
-8.06397
-8.16358
-8.2828
-8.43652
-7.61545
-8.1248
-8.22968
-8.2208
-8.2795
-8.32975
-8.37067
-8.4187
-8.47178
-8.526
-8.58112
-8.63814
-8.70005
-8.76684
-8.84015
-8.92238
-9.01256
-9.14702
-6.80639
-7.65157
-7.74386
-7.72831
-7.7808
-7.83229
-7.87666
-7.92543
-7.97678
-8.02825
-8.08024
-8.1335
-8.19055
-8.25095
-8.31714
-8.38649
-8.46101
-8.52019
-7.66634
-8.12263
-8.31192
-8.4002
-8.5017
-8.57694
-8.63223
-8.6842
-8.7356
-8.78603
-8.8366
-8.88864
-8.94378
-9.00258
-9.06528
-9.13249
-9.20168
-9.28552
-7.29748
-7.7924
-7.97845
-8.04227
-8.11142
-8.1646
-8.20776
-8.25158
-8.29604
-8.34036
-8.38501
-8.43079
-8.47845
-8.52885
-8.58
-8.6339
-8.67523
-8.7095
-7.83054
-8.13088
-8.31675
-8.43052
-8.54502
-8.63679
-8.71118
-8.77814
-8.84038
-8.8992
-8.9561
-9.01254
-9.06946
-9.12774
-9.18626
-9.24652
-9.30464
-9.3713
-7.63107
-7.89334
-8.07888
-8.17784
-8.26605
-8.33283
-8.38714
-8.43721
-8.48483
-8.53066
-8.57548
-8.62006
-8.66454
-8.70946
-8.75237
-8.79418
-8.82193
-8.8387
-7.98853
-8.17728
-8.33914
-8.45273
-8.56523
-8.65989
-8.74192
-8.81642
-8.88528
-8.9499
-9.01152
-9.07125
-9.12965
-9.1873
-9.24344
-9.2987
-9.35303
-9.40984
-7.87511
-8.00314
-8.15728
-8.25884
-8.35237
-8.42697
-8.49025
-8.54707
-8.59945
-8.64863
-8.69542
-8.7405
-8.78379
-8.82551
-8.86352
-8.89808
-8.92022
-8.93316
-8.12392
-8.24205
-8.37488
-8.4776
-8.58203
-8.67356
-8.7566
-8.83313
-8.90433
-8.97124
-9.03468
-9.09536
-9.15362
-9.2097
-9.26356
-9.31505
-9.36647
-9.41565
-8.0582
-8.11776
-8.23468
-8.32461
-8.41366
-8.48942
-8.55683
-8.61781
-8.6738
-8.72585
-8.77458
-8.82049
-8.86347
-8.90357
-8.93934
-8.97097
-8.99315
-9.00964
-8.22051
-8.29507
-8.40091
-8.48928
-8.5822
-8.66654
-8.74547
-8.81916
-8.88826
-8.95333
-9.01481
-9.07308
-9.12832
-9.18055
-9.23
-9.27603
-9.32131
-9.36139
-8.18574
-8.21622
-8.30429
-8.38093
-8.46173
-8.53473
-8.6024
-8.66482
-8.72267
-8.77652
-8.82675
-8.87363
-8.91712
-8.95721
-8.99325
-9.02532
-9.05179
-9.07453
-8.32131
-8.37281
-8.45574
-8.53121
-8.61293
-8.69066
-8.76546
-8.83657
-8.90392
-8.96761
-9.02774
-9.08441
-9.13771
-9.18753
-9.23408
-9.2766
-9.31615
-9.34928
-8.29604
-8.31176
-8.37314
-8.43525
-8.50431
-8.57148
-8.6363
-8.69784
-8.75587
-8.81042
-8.86155
-8.90934
-8.95389
-8.99517
-9.03353
-9.06877
-9.10257
-9.13363
-8.40294
-8.4346
-8.49439
-8.55475
-8.62139
-8.68794
-8.75332
-8.81642
-8.87655
-8.93336
-8.9866
-9.03613
-9.08171
-9.12332
-9.16032
-9.19301
-9.21915
-9.2413
-8.40409
-8.4216
-8.46925
-8.52367
-8.58588
-8.6507
-8.71594
-8.78023
-8.8427
-8.90285
-8.96053
-9.01556
-9.06821
-9.1182
-9.16677
-9.21241
-9.25957
-9.30112
-8.40752
-8.41927
-8.45586
-8.49807
-8.54528
-8.59387
-8.6416
-8.68725
-8.72989
-8.769
-8.80416
-8.83531
-8.86197
-8.88474
-8.90219
-8.91703
-8.92404
-8.93349
-8.51066
-8.54529
-8.60738
-8.67578
-8.75251
-8.83371
-8.91671
-9.00017
-9.08302
-9.16451
-9.2443
-9.32191
-9.39741
-9.46996
-9.5404
-9.60609
-9.67072
-9.72557
-8.25213
-8.24716
-8.27338
-8.30525
-8.33956
-8.37294
-8.40328
-8.42993
-8.45251
-8.47099
-8.48534
-8.4959
-8.50258
-8.50645
-8.50682
-8.50705
-8.50347
-8.50731
-8.40852
-8.46721
-8.55119
-8.63412
-8.72328
-8.81346
-8.90222
-8.98885
-9.07279
-9.15385
-9.23221
-9.30804
-9.38199
-9.4539
-9.52526
-9.59375
-9.66402
-9.72464
-8.08135
-8.08589
-8.14208
-8.19068
-8.23597
-8.2746
-8.3061
-8.33187
-8.35274
-8.36929
-8.3818
-8.39053
-8.39514
-8.39594
-8.3913
-8.38341
-8.36619
-8.35265
-8.26024
-8.35599
-8.47542
-8.58
-8.68705
-8.78925
-8.88401
-8.97225
-9.05458
-9.13161
-9.20423
-9.27336
-9.34029
-9.40591
-9.473
-9.5414
-9.61947
-9.69704
-7.83441
-7.90224
-8.01616
-8.08478
-8.13914
-8.18034
-8.21065
-8.23499
-8.25553
-8.27298
-8.28768
-8.29978
-8.30884
-8.31452
-8.31438
-8.308
-8.28482
-8.25189
-8.07418
-8.23895
-8.40632
-8.5319
-8.65327
-8.76085
-8.85139
-8.93036
-9.00092
-9.06458
-9.12288
-9.17718
-9.22876
-9.27865
-9.32968
-9.38365
-9.45335
-9.53858
-7.46588
-7.72627
-7.89367
-7.9528
-7.9971
-8.03147
-8.05584
-8.0778
-8.09953
-8.12019
-8.13947
-8.15743
-8.17378
-8.18829
-8.1993
-8.20553
-8.19456
-8.16068
-7.87191
-8.16361
-8.38159
-8.50542
-8.61951
-8.70921
-8.7725
-8.82416
-8.87029
-8.91194
-8.95036
-8.98662
-9.02133
-9.05477
-9.0882
-9.12272
-9.16994
-9.24081
-6.89713
-7.55917
-7.68356
-7.66805
-7.69445
-7.73071
-7.75887
-7.78803
-7.81946
-7.8502
-7.87951
-7.90767
-7.93456
-7.96005
-7.98366
-8.00525
-8.01675
-8.00647
-7.77143
-8.14876
-8.32935
-8.33721
-8.3789
-8.41421
-8.43675
-8.46252
-8.49314
-8.52484
-8.55657
-8.58831
-8.61971
-8.65043
-8.68034
-8.70978
-8.74425
-8.79602
-5.71746
-6.89744
-6.92256
-6.92641
-7.04968
-7.16586
-7.25339
-7.33221
-7.40672
-7.47474
-7.53667
-7.59379
-7.64672
-7.69563
-7.74071
-7.78164
-7.81702
-7.84492
-8.65456
-8.66782
-8.6803
-8.70164
-8.73014
-8.76193
-8.79503
-8.8293
-8.86409
-8.89912
-8.93402
-8.96852
-9.0022
-9.03476
-9.06587
-9.09529
-9.12278
-9.14816
-9.17124
-9.19184
-9.20985
-9.22525
-9.23759
-9.24691
-9.25402
-9.25931
-9.26248
-9.26327
-9.26154
-9.25736
-9.25104
-9.24322
-9.23488
-9.22709
-9.22086
-9.21696
-9.21574
-9.21697
-9.22027
-9.2252
-9.23145
-9.23861
-9.24608
-9.25333
-9.25982
-9.26508
-9.26878
-9.27065
-9.26993
-9.26578
-9.259
-9.25215
-9.24957
-9.25376
-9.2647
-9.2831
-9.31088
-9.34793
-9.39183
-9.44033
-9.49275
-9.54842
-9.60592
-9.66384
-9.72128
-9.77752
-9.83199
-9.88431
-9.93421
-9.98157
-10.0263
-10.0685
-10.1082
-10.1454
-10.1802
-10.2127
-10.2429
-10.2709
-10.2968
-10.3204
-10.342
-10.3613
-10.3785
-10.3935
-10.4063
-10.4167
-10.4248
-10.4305
-10.4337
-10.4344
-10.4324
-10.4276
-10.42
-10.4094
-10.3957
-10.3787
-10.3582
-10.334
-10.3058
-10.2733
-10.2363
-10.1942
-10.1465
-10.0927
-10.0319
-9.96342
-9.88615
-9.7989
-9.70021
-9.58855
-9.4624
-9.31982
-9.15707
-8.96967
-8.75434
-8.50791
-8.22691
-7.90778
-7.54625
-7.13817
-6.67929
-6.1657
-5.59439
-4.96417
-4.27482
-3.52527
-2.71882
-1.86669
-0.981081
-0.0745578
0.837442
1.73931
2.61551
3.45201
4.23666
4.9589
5.60891
6.20263
6.74782
7.23008
7.6433
7.98676
8.26182
8.46987
8.61074
8.6833
8.68545
8.61466
8.46831
8.24491
7.94591
7.57792
7.15493
6.70013
6.24751
5.83864
5.54183
5.43473
5.52413
5.76984
6.1411
6.57322
6.9945
7.35088
7.58262
7.70921
7.83592
7.97784
8.09331
8.22761
8.34997
8.31865
8.15129
7.99229
7.9534
8.02968
8.23741
8.50126
8.86851
9.18951
-8.70408
-8.74199
-8.76586
-8.80178
-8.83511
-8.86954
-8.90239
-8.93614
-8.96898
-9.00186
-9.03402
-9.06555
-9.09593
-9.12502
-9.15253
-9.17835
-9.20231
-9.22436
-9.24441
-9.26237
-9.27828
-9.29225
-9.30466
-9.31566
-9.32446
-9.33046
-9.33359
-9.33349
-9.32972
-9.32202
-9.3107
-9.29685
-9.28226
-9.26886
-9.25818
-9.25097
-9.24754
-9.24759
-9.25053
-9.25582
-9.26271
-9.27055
-9.27882
-9.28695
-9.29444
-9.30077
-9.30537
-9.30807
-9.30888
-9.30725
-9.30257
-9.29723
-9.29761
-9.30621
-9.32341
-9.34996
-9.38643
-9.43218
-9.48519
-9.54378
-9.60646
-9.67169
-9.73782
-9.80354
-9.86798
-9.93047
-9.9906
-10.0481
-10.103
-10.1551
-10.2046
-10.2515
-10.2959
-10.338
-10.3778
-10.4155
-10.451
-10.4845
-10.516
-10.5454
-10.5728
-10.5982
-10.6215
-10.6428
-10.662
-10.679
-10.6937
-10.7063
-10.7165
-10.7243
-10.7297
-10.7326
-10.7328
-10.7303
-10.725
-10.7167
-10.7053
-10.6906
-10.6723
-10.6502
-10.6241
-10.5935
-10.558
-10.517
-10.4698
-10.4156
-10.3533
-10.2817
-10.1992
-10.1039
-9.99319
-9.86395
-9.71525
-9.54697
-9.35647
-9.14098
-8.89675
-8.61893
-8.30241
-7.94235
-7.53435
-7.07404
-6.55742
-5.98151
-5.34425
-4.64493
-3.89104
-3.09062
-2.25216
-1.38678
-0.50806
0.369732
1.23214
2.06619
2.86047
3.60419
4.29108
4.9011
5.42746
5.89221
6.2965
6.64066
6.92325
7.1439
7.30091
7.39154
7.41234
7.35989
7.23137
7.02573
6.74584
6.40062
6.00727
5.59156
5.18856
4.84278
4.57992
4.44015
4.4846
4.75941
5.2518
5.88433
6.51327
7.03802
7.39101
7.60009
7.74809
7.84406
7.89984
8.02376
8.18315
8.16597
7.96159
7.74531
7.65256
7.68078
7.85019
8.07471
8.40947
8.72981
-8.7215
-8.78138
-8.79284
-8.83107
-8.85204
-8.88479
-8.90982
-8.93933
-8.96676
-8.99689
-9.02623
-9.0562
-9.08497
-9.11289
-9.13914
-9.16384
-9.18662
-9.2075
-9.22616
-9.24238
-9.25556
-9.26558
-9.27327
-9.27965
-9.2853
-9.29052
-9.29527
-9.2992
-9.30162
-9.30163
-9.29854
-9.29238
-9.28409
-9.27518
-9.26724
-9.26139
-9.25824
-9.25787
-9.25996
-9.26399
-9.26947
-9.27609
-9.28355
-9.29138
-9.2992
-9.30666
-9.31349
-9.31957
-9.3247
-9.32909
-9.33347
-9.33924
-9.3489
-9.36388
-9.38514
-9.41306
-9.44785
-9.48896
-9.53512
-9.58497
-9.63723
-9.6908
-9.7447
-9.79816
-9.85065
-9.90181
-9.9514
-9.99926
-10.0453
-10.0895
-10.1317
-10.1721
-10.2106
-10.2472
-10.2819
-10.3148
-10.3458
-10.375
-10.4023
-10.4277
-10.4512
-10.4727
-10.4923
-10.5098
-10.5253
-10.5386
-10.5498
-10.5587
-10.5653
-10.5695
-10.5712
-10.5704
-10.5668
-10.5605
-10.5512
-10.5389
-10.5233
-10.5043
-10.4817
-10.4552
-10.4245
-10.3892
-10.3489
-10.3031
-10.2512
-10.1924
-10.1258
-10.0505
-9.9653
-9.86884
-9.75957
-9.635
-9.49276
-9.33075
-9.14634
-8.93472
-8.6924
-8.41575
-8.10093
-7.74362
-7.33924
-6.88348
-6.37267
-5.80414
-5.17656
-4.48987
-3.74702
-2.9583
-2.13158
-1.27919
-0.414955
0.4464
1.28981
2.10165
2.87134
3.58657
4.24302
4.83596
5.3721
5.8495
6.268
6.62523
6.91969
7.15051
7.31599
7.41373
7.4406
7.39324
7.2688
7.06615
6.78795
6.44296
6.04807
5.62981
5.22256
4.86689
4.61308
4.5067
4.56645
4.78103
5.14195
5.64772
6.2624
6.89606
7.42978
7.76579
7.90557
7.91384
7.88962
7.94051
8.04973
8.05079
7.91819
7.762
7.70091
7.73318
7.89267
8.10575
8.43303
8.73431
-8.7342
-8.8173
-8.82624
-8.87683
-8.89153
-8.9308
-8.95333
-8.989
-9.01647
-9.04953
-9.07915
-9.11073
-9.13956
-9.16793
-9.19398
-9.21868
-9.24137
-9.26243
-9.28153
-9.29849
-9.31257
-9.32386
-9.33291
-9.34052
-9.34723
-9.3533
-9.35865
-9.36286
-9.36513
-9.36451
-9.36029
-9.35259
-9.3425
-9.33164
-9.32156
-9.31337
-9.30771
-9.30482
-9.30464
-9.30692
-9.31122
-9.31698
-9.32376
-9.33124
-9.33908
-9.34693
-9.35471
-9.36268
-9.3712
-9.38108
-9.39281
-9.40701
-9.42537
-9.44904
-9.47806
-9.51226
-9.55156
-9.59547
-9.64326
-9.69414
-9.74736
-9.80216
-9.85784
-9.91375
-9.96937
-10.0243
-10.0781
-10.1307
-10.1817
-10.2311
-10.2789
-10.3248
-10.369
-10.4114
-10.4521
-10.4909
-10.528
-10.5633
-10.5968
-10.6285
-10.6583
-10.6863
-10.7124
-10.7365
-10.7586
-10.7787
-10.7968
-10.8126
-10.8263
-10.8377
-10.8467
-10.8534
-10.8575
-10.859
-10.8578
-10.8538
-10.8468
-10.8367
-10.8232
-10.8062
-10.7852
-10.7601
-10.7303
-10.6953
-10.6545
-10.6071
-10.5521
-10.4885
-10.4149
-10.3297
-10.2312
-10.1175
-9.98678
-9.83702
-9.66521
-9.46829
-9.24247
-8.98326
-8.68615
-8.34636
-7.95913
-7.51977
-7.0241
-6.46888
-5.8525
-5.17571
-4.44246
-3.66019
-2.83764
-1.9872
-1.123
-0.260209
0.585992
1.40149
2.17507
2.89531
3.55782
4.15852
4.6963
5.1745
5.59278
5.95108
6.24894
6.48583
6.66001
6.76859
6.8078
6.77342
6.66158
6.47007
6.20061
5.86161
5.47025
5.05357
4.64851
4.29785
4.0389
3.90413
3.94636
4.19509
4.61517
5.15965
5.84395
6.63104
7.33646
7.73688
7.83738
7.784
7.7251
7.74858
7.79576
7.73675
7.58015
7.418
7.35497
7.38922
7.55633
7.77074
8.09426
8.40645
-8.71225
-8.81472
-8.82343
-8.88149
-8.89077
-8.9325
-8.94943
-8.98462
-9.00832
-9.0425
-9.06999
-9.10147
-9.12865
-9.15669
-9.18143
-9.20552
-9.22704
-9.2473
-9.26532
-9.28151
-9.29464
-9.30495
-9.31301
-9.31994
-9.32634
-9.33268
-9.33897
-9.34494
-9.34994
-9.35317
-9.35395
-9.35208
-9.34799
-9.34254
-9.33672
-9.33144
-9.32741
-9.32495
-9.32427
-9.32547
-9.32841
-9.33321
-9.33997
-9.34826
-9.35783
-9.36901
-9.38157
-9.39512
-9.40976
-9.42582
-9.44357
-9.46327
-9.48553
-9.5109
-9.53956
-9.57166
-9.60721
-9.64602
-9.6877
-9.73175
-9.77761
-9.8247
-9.87251
-9.92054
-9.9684
-10.0158
-10.0624
-10.108
-10.1526
-10.1958
-10.2378
-10.2784
-10.3175
-10.3551
-10.3911
-10.4256
-10.4585
-10.4897
-10.5192
-10.547
-10.573
-10.5972
-10.6196
-10.64
-10.6585
-10.675
-10.6893
-10.7016
-10.7116
-10.7193
-10.7247
-10.7276
-10.7279
-10.7256
-10.7205
-10.7126
-10.7016
-10.6874
-10.6698
-10.6486
-10.6236
-10.5944
-10.5607
-10.5219
-10.4777
-10.4272
-10.3697
-10.3043
-10.2298
-10.1449
-10.0478
-9.93663
-9.80919
-9.66318
-9.49575
-9.30475
-9.08558
-8.83421
-8.54595
-8.21599
-7.83932
-7.41104
-6.92669
-6.38278
-5.77723
-5.1101
-4.38474
-3.60841
-2.79042
-1.9437
-1.08326
-0.225068
0.615122
1.42261
2.18596
2.89617
3.5504
4.14591
4.68342
5.16227
5.5815
5.94073
6.23935
6.47659
6.65076
6.75935
6.79884
6.76496
6.65337
6.46117
6.18933
5.84562
5.44709
5.0215
4.60583
4.24471
3.99227
3.89155
3.94519
4.14997
4.48743
4.93015
5.534
6.32867
7.09791
7.56558
7.70523
7.64721
7.56337
7.55016
7.5589
7.503
7.40116
7.30757
7.29998
7.36791
7.54801
7.77082
8.09733
8.41012
-8.67031
-8.79851
-8.81377
-8.88123
-8.89267
-8.93754
-8.95644
-8.99282
-9.01791
-9.05186
-9.08134
-9.11456
-9.14431
-9.17398
-9.20103
-9.22689
-9.25045
-9.27241
-9.29229
-9.31037
-9.32597
-9.33896
-9.34975
-9.35878
-9.36642
-9.37292
-9.37831
-9.38247
-9.38513
-9.386
-9.38491
-9.38194
-9.37748
-9.37214
-9.36661
-9.36155
-9.35735
-9.35458
-9.35388
-9.35549
-9.35939
-9.36552
-9.37369
-9.38374
-9.39558
-9.40906
-9.42423
-9.441
-9.45939
-9.47955
-9.50164
-9.52586
-9.55259
-9.58213
-9.61469
-9.65034
-9.68904
-9.73062
-9.77477
-9.82113
-9.86926
-9.91872
-9.96908
-10.0199
-10.0709
-10.1217
-10.172
-10.2216
-10.2703
-10.318
-10.3645
-10.4099
-10.4539
-10.4965
-10.5377
-10.5775
-10.6158
-10.6525
-10.6876
-10.7211
-10.7529
-10.783
-10.8113
-10.8377
-10.8623
-10.885
-10.9056
-10.9242
-10.9406
-10.9548
-10.9668
-10.9764
-10.9835
-10.9881
-10.99
-10.9892
-10.9855
-10.9787
-10.9687
-10.9552
-10.938
-10.9168
-10.8911
-10.8606
-10.8245
-10.7824
-10.7333
-10.6762
-10.6101
-10.5336
-10.4452
-10.343
-10.225
-10.0888
-9.93139
-9.74799
-9.53597
-9.29128
-9.00943
-8.68549
-8.31429
-7.89068
-7.40984
-6.86792
-6.26262
-5.59391
-4.8649
-4.0824
-3.25627
-2.40013
-1.5299
-0.662383
0.185521
0.998822
1.76704
2.48165
3.13785
3.73323
4.26843
4.74384
5.15993
5.51739
5.81651
6.05693
6.23706
6.35406
6.40373
6.3807
6.27916
6.09433
5.82552
5.47934
5.0724
4.63266
4.19874
3.81538
3.52969
3.39111
3.45412
3.72207
4.13211
4.60785
5.20218
5.97661
6.73283
7.22088
7.3974
7.37694
7.30909
7.2597
7.20757
7.11212
7.006
6.92834
6.94439
7.03835
7.24517
7.48723
7.83044
8.15736
-8.60958
-8.76424
-8.78347
-8.85915
-8.8703
-8.91735
-8.93555
-8.97144
-8.99506
-9.02751
-9.05489
-9.0861
-9.11485
-9.14447
-9.17146
-9.19723
-9.22072
-9.24248
-9.26197
-9.27961
-9.29535
-9.30925
-9.32139
-9.33205
-9.34143
-9.34974
-9.35701
-9.36318
-9.3681
-9.37156
-9.37343
-9.37375
-9.37274
-9.3708
-9.36849
-9.36637
-9.36526
-9.36592
-9.36852
-9.37302
-9.37955
-9.38812
-9.39879
-9.41145
-9.426
-9.44235
-9.46036
-9.47993
-9.50105
-9.52379
-9.54823
-9.57449
-9.60276
-9.6332
-9.66586
-9.70077
-9.73787
-9.77701
-9.81798
-9.86052
-9.90432
-9.94908
-9.99449
-10.0403
-10.0861
-10.1318
-10.1772
-10.2221
-10.2662
-10.3096
-10.352
-10.3935
-10.4337
-10.4729
-10.5107
-10.5472
-10.5824
-10.6161
-10.6482
-10.6789
-10.7079
-10.7352
-10.7608
-10.7846
-10.8066
-10.8266
-10.8447
-10.8607
-10.8746
-10.8863
-10.8958
-10.9028
-10.9075
-10.9096
-10.9091
-10.9059
-10.8998
-10.8907
-10.8784
-10.8628
-10.8435
-10.8205
-10.7931
-10.7612
-10.7242
-10.6815
-10.6323
-10.5758
-10.5109
-10.4364
-10.3507
-10.252
-10.1384
-10.0075
-9.85718
-9.68494
-9.48603
-9.25592
-8.98973
-8.6822
-8.32779
-7.92087
-7.45607
-6.92885
-6.33615
-5.67728
-4.95496
-4.17583
-3.35042
-2.49315
-1.62107
-0.752769
0.0943027
0.906116
1.67179
2.38308
3.03482
3.62587
4.15729
4.62921
5.04214
5.39685
5.69365
5.93221
6.11126
6.22832
6.27931
6.2585
6.15914
5.97519
5.70457
5.35317
4.93774
4.48776
4.04262
3.65149
3.37476
3.2499
3.29849
3.53058
3.90008
4.33769
4.88678
5.59345
6.2934
6.78164
6.99964
7.02901
6.98478
6.91934
6.85466
6.78476
6.7354
6.72158
6.79198
6.92272
7.15237
7.41122
7.76678
8.10129
-8.55349
-8.72805
-8.75388
-8.83725
-8.85039
-8.90032
-8.91966
-8.95638
-8.98022
-9.0122
-9.03915
-9.0698
-9.0982
-9.12762
-9.1556
-9.18315
-9.2087
-9.23269
-9.25477
-9.27484
-9.29265
-9.30832
-9.32192
-9.33363
-9.34359
-9.35198
-9.3589
-9.36444
-9.36863
-9.37154
-9.37328
-9.37405
-9.37417
-9.37404
-9.37417
-9.3751
-9.37732
-9.38104
-9.38641
-9.39369
-9.40298
-9.41428
-9.42751
-9.4427
-9.45978
-9.47867
-9.49929
-9.52155
-9.54548
-9.57112
-9.59856
-9.62786
-9.65913
-9.69244
-9.72781
-9.76523
-9.80464
-9.84593
-9.88891
-9.93339
-9.97915
-10.0259
-10.0735
-10.1215
-10.1699
-10.2183
-10.2666
-10.3145
-10.362
-10.4089
-10.455
-10.5002
-10.5445
-10.5878
-10.6299
-10.6708
-10.7105
-10.7488
-10.7857
-10.8211
-10.8551
-10.8874
-10.9181
-10.947
-10.9742
-10.9994
-11.0228
-11.0442
-11.0635
-11.0806
-11.0955
-11.1081
-11.1183
-11.126
-11.1312
-11.1336
-11.1333
-11.13
-11.1236
-11.1139
-11.1006
-11.0836
-11.0624
-11.0367
-11.0059
-10.9695
-10.9267
-10.8767
-10.8185
-10.7509
-10.6723
-10.581
-10.4749
-10.3515
-10.2069
-10.0379
-9.84152
-9.61374
-9.34995
-9.04497
-8.69314
-8.28856
-7.82547
-7.29878
-6.70491
-6.04261
-5.31425
-4.52639
-3.6899
-2.82019
-1.93636
-1.05785
-0.201916
0.616317
1.38508
2.09702
2.74683
3.3335
3.85974
4.3263
4.73455
5.08592
5.38134
5.62085
5.80337
5.92633
5.98518
5.97325
5.88219
5.70392
5.43421
5.07751
4.64975
4.18061
3.70909
3.28246
2.96489
2.82493
2.90569
3.18764
3.59069
4.03597
4.55469
5.19052
5.82496
6.29814
6.54891
6.61465
6.57763
6.49203
6.4102
6.34365
6.31585
6.33604
6.44693
6.61806
6.88354
7.16945
7.55014
7.89835
-8.5054
-8.69044
-8.72182
-8.80943
-8.82337
-8.87436
-8.8935
-8.92974
-8.95241
-8.98276
-9.00759
-9.03577
-9.06165
-9.08868
-9.11422
-9.13945
-9.16341
-9.18646
-9.20787
-9.22783
-9.24624
-9.26309
-9.27836
-9.29213
-9.30446
-9.31543
-9.32511
-9.33359
-9.34095
-9.3473
-9.3528
-9.35768
-9.36221
-9.36674
-9.37165
-9.37727
-9.38383
-9.39153
-9.40061
-9.41122
-9.42351
-9.43757
-9.4534
-9.47097
-9.49022
-9.51109
-9.53357
-9.55764
-9.5833
-9.61056
-9.63943
-9.66994
-9.70212
-9.73595
-9.77144
-9.80853
-9.84716
-9.88722
-9.92859
-9.9711
-10.0146
-10.0589
-10.1037
-10.149
-10.1946
-10.2402
-10.2856
-10.3309
-10.3757
-10.42
-10.4637
-10.5066
-10.5487
-10.5898
-10.6299
-10.6689
-10.7067
-10.7432
-10.7783
-10.8121
-10.8444
-10.8751
-10.9042
-10.9316
-10.9572
-10.9811
-11.003
-11.023
-11.0409
-11.0568
-11.0704
-11.0818
-11.0909
-11.0975
-11.1016
-11.1031
-11.1019
-11.0978
-11.0907
-11.0805
-11.0669
-11.0497
-11.0285
-11.0031
-10.9729
-10.9374
-10.896
-10.8479
-10.792
-10.7272
-10.6522
-10.5653
-10.4644
-10.3476
-10.2134
-10.0577
-9.87623
-9.66453
-9.41754
-9.12976
-8.79516
-8.40737
-7.96
-7.44729
-6.86487
-6.21063
-5.48632
-4.69822
-3.85819
-2.98328
-2.09296
-1.20788
-0.3473
0.472878
1.24073
1.9496
2.59493
3.17529
3.69498
4.1554
4.55805
4.90456
5.19598
5.43266
5.61389
5.73738
5.7987
5.79082
5.70448
5.52994
5.2613
4.90172
4.46722
3.98809
3.50336
3.06645
2.74606
2.59231
2.6534
2.91647
3.30595
3.73379
4.21642
4.78341
5.35158
5.80118
6.06509
6.14859
6.11307
6.0348
5.9792
5.9592
5.99051
6.0725
6.23526
6.44378
6.7382
7.04638
7.44633
7.80356
-8.4792
-8.66725
-8.70261
-8.79333
-8.80761
-8.86015
-8.87904
-8.9158
-8.93783
-8.96783
-8.99162
-9.01886
-9.04347
-9.06935
-9.09385
-9.11842
-9.14175
-9.16427
-9.18555
-9.2057
-9.22429
-9.24141
-9.25714
-9.27151
-9.28462
-9.29656
-9.30746
-9.31743
-9.32661
-9.33516
-9.34325
-9.35107
-9.35886
-9.36682
-9.37518
-9.38418
-9.39405
-9.40497
-9.41711
-9.4306
-9.44555
-9.46199
-9.47998
-9.49955
-9.52073
-9.54352
-9.56792
-9.59391
-9.62151
-9.65072
-9.68154
-9.71398
-9.74804
-9.78372
-9.82099
-9.85981
-9.90011
-9.9418
-9.98479
-10.0289
-10.0741
-10.1201
-10.1668
-10.214
-10.2616
-10.3094
-10.3573
-10.405
-10.4525
-10.4996
-10.5462
-10.5922
-10.6375
-10.682
-10.7255
-10.768
-10.8095
-10.8497
-10.8888
-10.9264
-10.9627
-10.9975
-11.0308
-11.0624
-11.0923
-11.1204
-11.1466
-11.171
-11.1933
-11.2135
-11.2316
-11.2474
-11.2609
-11.272
-11.2805
-11.2865
-11.2898
-11.2902
-11.2877
-11.2821
-11.2731
-11.2606
-11.2442
-11.2236
-11.1983
-11.1679
-11.1316
-11.0888
-11.0383
-10.9792
-10.9099
-10.8287
-10.7338
-10.6219
-10.4896
-10.3347
-10.1539
-9.94296
-9.69726
-9.41138
-9.07921
-8.69414
-8.24932
-7.73834
-7.1559
-6.49916
-5.76958
-4.97387
-4.12373
-3.23651
-2.3337
-1.43764
-0.569025
0.255414
1.02377
1.72968
2.37044
2.94401
3.45561
3.90879
4.30516
4.64681
4.93515
5.17082
5.35332
5.48045
5.54773
5.54774
5.47027
5.30384
5.04054
4.68168
4.24246
3.75238
3.24724
2.77943
2.42903
2.27844
2.36628
2.64598
3.03403
3.44311
3.88532
4.38709
4.89324
5.30506
5.55299
5.6322
5.59279
5.52688
5.49372
5.50499
5.57655
5.70653
5.91741
6.17086
6.50296
6.83973
7.2666
7.63601
-8.4629
-8.65509
-8.68785
-8.77976
-8.79261
-8.84562
-8.86321
-8.89967
-8.92021
-8.94915
-8.97106
-8.9966
-9.01902
-9.04287
-9.06521
-9.08786
-9.10948
-9.1308
-9.15112
-9.17086
-9.1897
-9.20759
-9.22446
-9.24049
-9.25567
-9.27002
-9.2836
-9.2965
-9.3088
-9.32063
-9.33212
-9.34342
-9.3547
-9.36613
-9.3779
-9.39018
-9.40313
-9.41691
-9.43168
-9.44758
-9.46473
-9.48322
-9.50312
-9.52447
-9.5473
-9.57161
-9.59743
-9.62474
-9.65356
-9.68388
-9.71569
-9.74899
-9.78374
-9.81994
-9.85753
-9.89647
-9.93668
-9.97809
-10.0206
-10.0641
-10.1085
-10.1536
-10.1993
-10.2454
-10.2919
-10.3385
-10.3852
-10.4318
-10.4782
-10.5243
-10.5698
-10.6149
-10.6592
-10.7028
-10.7455
-10.7872
-10.8279
-10.8674
-10.9057
-10.9428
-10.9784
-11.0126
-11.0452
-11.0763
-11.1057
-11.1333
-11.1591
-11.183
-11.2049
-11.2248
-11.2426
-11.2582
-11.2715
-11.2825
-11.2911
-11.2972
-11.3006
-11.3014
-11.2992
-11.2941
-11.2858
-11.2741
-11.2587
-11.2393
-11.2154
-11.1866
-11.1522
-11.1116
-11.0637
-11.0076
-10.9418
-10.8647
-10.7745
-10.6701
-10.5482
-10.4052
-10.2371
-10.0395
-9.80725
-9.53482
-9.21588
-8.84345
-8.41024
-7.90935
-7.33514
-6.68409
-5.95649
-5.15868
-4.30311
-3.40796
-2.49601
-1.59176
-0.717677
0.108482
0.874992
1.57557
2.20957
2.77571
3.27781
3.72254
4.11164
4.44729
4.7311
4.96388
5.14539
5.27376
5.34481
5.35134
5.28281
5.12688
4.87393
4.52395
4.09163
3.60611
3.10335
2.63901
2.28089
2.11514
2.18425
2.4486
2.80536
3.17802
3.57563
4.0168
4.45765
4.81412
5.02404
5.08446
5.05483
5.0217
5.03478
5.10202
5.23494
5.42453
5.68213
5.9744
6.33799
6.69937
7.14811
7.52664
-8.46552
-8.65927
-8.68716
-8.77978
-8.79056
-8.8445
-8.8608
-8.89779
-8.91736
-8.94637
-8.96737
-8.99253
-9.01398
-9.03712
-9.05841
-9.08021
-9.10092
-9.12152
-9.14125
-9.16053
-9.17886
-9.19664
-9.21375
-9.23012
-9.24576
-9.26091
-9.27557
-9.28977
-9.30358
-9.31712
-9.33046
-9.34374
-9.3571
-9.37068
-9.38461
-9.39906
-9.41416
-9.43006
-9.4469
-9.46478
-9.48382
-9.50409
-9.52567
-9.54862
-9.57299
-9.59879
-9.62606
-9.65482
-9.68506
-9.7168
-9.75002
-9.78473
-9.82089
-9.85849
-9.89749
-9.93784
-9.97947
-10.0223
-10.0663
-10.1113
-10.1572
-10.2039
-10.2513
-10.2992
-10.3475
-10.3961
-10.4448
-10.4935
-10.5422
-10.5905
-10.6386
-10.6861
-10.7331
-10.7794
-10.825
-10.8696
-10.9133
-10.9559
-10.9973
-11.0375
-11.0764
-11.1139
-11.1499
-11.1844
-11.2172
-11.2482
-11.2775
-11.3049
-11.3304
-11.3538
-11.3751
-11.3942
-11.411
-11.4255
-11.4376
-11.4472
-11.4541
-11.4584
-11.4598
-11.4583
-11.4536
-11.4456
-11.4339
-11.4182
-11.3982
-11.3733
-11.343
-11.3065
-11.2629
-11.211
-11.1495
-11.0768
-10.9901
-10.8867
-10.7644
-10.6204
-10.4511
-10.2526
-10.02
-9.74778
-9.42963
-9.05844
-8.62658
-8.12667
-7.55263
-6.9005
-6.16991
-5.36623
-4.5017
-3.59566
-2.67269
-1.75927
-0.879488
-0.0519542
0.711756
1.40618
2.03157
2.58937
3.08144
3.51631
3.89767
4.22734
4.50731
4.73848
4.92073
5.05243
5.12973
5.1458
5.09019
4.95006
4.7143
4.38112
3.96399
3.4899
2.99398
2.53409
2.17886
2.02297
2.08215
2.3194
2.63012
2.95563
3.30512
3.68127
4.04462
4.32893
4.48609
4.52031
4.50307
4.50018
4.5526
4.66605
4.85119
5.09357
5.40072
5.73609
6.13505
6.52421
6.99755
7.38719
-8.47989
-8.66843
-8.69066
-8.78145
-8.78947
-8.84302
-8.85725
-8.89395
-8.91187
-8.9404
-8.95998
-8.98445
-9.00466
-9.02704
-9.04732
-9.06846
-9.08842
-9.10858
-9.12794
-9.14714
-9.16578
-9.18408
-9.20174
-9.21908
-9.23602
-9.25248
-9.26848
-9.28424
-9.29965
-9.31488
-9.32998
-9.3451
-9.36033
-9.37579
-9.39161
-9.40792
-9.42485
-9.44252
-9.46106
-9.48057
-9.50116
-9.52291
-9.5459
-9.57019
-9.59581
-9.62282
-9.65124
-9.68109
-9.71237
-9.7451
-9.77926
-9.81485
-9.85184
-9.89019
-9.92987
-9.97081
-10.013
-10.0563
-10.1006
-10.1459
-10.192
-10.2389
-10.2864
-10.3344
-10.3828
-10.4314
-10.4802
-10.5289
-10.5776
-10.626
-10.6741
-10.7217
-10.7688
-10.8152
-10.8608
-10.9055
-10.9492
-10.9919
-11.0335
-11.0738
-11.1128
-11.1504
-11.1865
-11.2211
-11.254
-11.2852
-11.3146
-11.3422
-11.3679
-11.3915
-11.4131
-11.4326
-11.4498
-11.4647
-11.4773
-11.4875
-11.4951
-11.5002
-11.5024
-11.5018
-11.4982
-11.4912
-11.4808
-11.4664
-11.4478
-11.4244
-11.3957
-11.3609
-11.3191
-11.2693
-11.21
-11.14
-11.0579
-10.961
-10.8462
-10.7101
-10.549
-10.3584
-10.1336
-9.86889
-9.55788
-9.19331
-8.76727
-8.27217
-7.70139
-7.05034
-6.31827
-5.51041
-4.63922
-3.72485
-2.79351
-1.87365
-0.99098
-0.164732
0.593656
1.27989
1.89462
2.4422
2.92437
3.34802
3.72055
4.04342
4.31877
4.54777
4.73046
4.86541
4.94933
4.97608
4.93597
4.81637
4.60546
4.29984
3.91162
3.46571
3.00025
2.56709
2.222
2.05727
2.08243
2.2643
2.51575
2.78639
3.07608
3.37524
3.64968
3.84809
3.94618
3.96135
3.96225
3.99934
4.10456
4.27787
4.5246
4.81945
5.17113
5.54431
5.97394
6.38761
6.88148
7.28054
-8.50545
-8.68447
-8.70229
-8.79064
-8.79669
-8.84993
-8.86261
-8.89945
-8.9162
-8.94483
-8.96352
-8.98793
-9.00738
-9.02952
-9.04914
-9.06994
-9.0894
-9.10931
-9.12839
-9.14752
-9.16597
-9.18424
-9.20209
-9.21967
-9.23677
-9.25373
-9.2705
-9.28698
-9.30315
-9.31933
-9.33543
-9.35164
-9.36805
-9.38474
-9.40184
-9.41946
-9.43772
-9.45673
-9.4766
-9.49744
-9.51933
-9.54237
-9.56662
-9.59215
-9.61902
-9.64726
-9.67692
-9.70801
-9.74056
-9.77456
-9.81003
-9.84693
-9.88526
-9.92497
-9.96603
-10.0084
-10.052
-10.0968
-10.1426
-10.1894
-10.2372
-10.2857
-10.3349
-10.3846
-10.4348
-10.4853
-10.5359
-10.5867
-10.6374
-10.6879
-10.7382
-10.788
-10.8374
-10.8861
-10.934
-10.9812
-11.0274
-11.0726
-11.1168
-11.1597
-11.2013
-11.2415
-11.2803
-11.3176
-11.3532
-11.3872
-11.4193
-11.4497
-11.4781
-11.5044
-11.5288
-11.5509
-11.5709
-11.5885
-11.6038
-11.6166
-11.627
-11.6346
-11.6396
-11.6416
-11.6407
-11.6365
-11.6288
-11.6172
-11.6015
-11.581
-11.5554
-11.5236
-11.4849
-11.4381
-11.3815
-11.313
-11.2308
-11.1326
-11.0157
-10.8769
-10.7129
-10.5193
-10.2913
-10.0234
-9.70925
-9.34146
-8.9118
-8.41259
-7.83724
-7.18101
-6.44285
-5.62779
-4.74848
-3.82584
-2.8874
-1.9632
-1.0802
-0.257905
0.49265
1.16831
1.77086
2.30582
2.7775
3.18998
3.55253
3.86844
4.13929
4.36667
4.55086
4.69073
4.78347
4.8236
4.80231
4.70753
4.52679
4.25506
3.90151
3.48844
3.05823
2.65551
2.33894
2.17258
2.16342
2.28209
2.46532
2.67091
2.88654
3.0964
3.27128
3.37949
3.4166
3.41664
3.43253
3.50538
3.65757
3.88497
4.18675
4.53317
4.9302
5.34221
5.8035
6.24204
6.7563
7.16592
-8.53481
-8.70096
-8.71451
-8.79875
-8.80264
-8.85456
-8.86526
-8.90166
-8.91681
-8.94525
-8.96276
-8.98706
-9.00572
-9.02781
-9.04696
-9.0678
-9.08706
-9.10709
-9.12624
-9.14569
-9.16454
-9.18341
-9.20184
-9.22011
-9.23804
-9.25572
-9.27328
-9.29078
-9.30796
-9.32502
-9.34217
-9.35955
-9.37713
-9.39499
-9.41329
-9.4321
-9.45157
-9.47179
-9.49287
-9.51492
-9.53802
-9.56226
-9.58771
-9.61443
-9.64249
-9.67191
-9.70275
-9.73502
-9.76874
-9.80392
-9.84056
-9.87863
-9.91812
-9.95898
-10.0012
-10.0447
-10.0894
-10.1352
-10.1821
-10.23
-10.2787
-10.3282
-10.3783
-10.429
-10.48
-10.5314
-10.5829
-10.6345
-10.686
-10.7373
-10.7883
-10.8389
-10.8889
-10.9383
-10.9869
-11.0346
-11.0815
-11.1272
-11.1718
-11.2152
-11.2573
-11.2979
-11.3371
-11.3747
-11.4107
-11.445
-11.4775
-11.5081
-11.5368
-11.5635
-11.5882
-11.6107
-11.631
-11.6491
-11.6648
-11.6782
-11.6891
-11.6973
-11.7029
-11.7057
-11.7054
-11.702
-11.695
-11.6842
-11.6691
-11.6494
-11.6242
-11.593
-11.555
-11.5091
-11.4541
-11.3883
-11.3094
-11.2149
-11.1017
-10.9663
-10.805
-10.6132
-10.3862
-10.1182
-9.80272
-9.43223
-8.99869
-8.49436
-7.9128
-7.24963
-6.50423
-5.68191
-4.79556
-3.8666
-2.92386
-1.99889
-1.11946
-0.30489
0.434662
1.09713
1.68581
2.20634
2.66581
3.06782
3.4192
3.72705
3.99282
4.218
4.4034
4.54843
4.6509
4.70632
4.70708
4.64214
4.49868
4.27045
3.96243
3.59479
3.211
2.83883
2.54691
2.36999
2.31839
2.36899
2.47392
2.59857
2.72504
2.834
2.90247
2.92146
2.90427
2.89078
2.92573
3.04126
3.24845
3.53674
3.89265
4.28751
4.72513
5.17174
5.66095
6.1214
6.65263
7.07198
-8.56742
-8.71821
-8.72913
-8.80876
-8.81152
-8.86221
-8.87162
-8.90793
-8.922
-8.9507
-8.96744
-8.99206
-9.01025
-9.03264
-9.05156
-9.0727
-9.09197
-9.11239
-9.13174
-9.15157
-9.17078
-9.19021
-9.20916
-9.22803
-9.24657
-9.26498
-9.28317
-9.30118
-9.31922
-9.33742
-9.35549
-9.37368
-9.39231
-9.41115
-9.43043
-9.45034
-9.47093
-9.49233
-9.51462
-9.5379
-9.56227
-9.5878
-9.61457
-9.64265
-9.67209
-9.70295
-9.73525
-9.76902
-9.80429
-9.84105
-9.87931
-9.91902
-9.96016
-10.0027
-10.0466
-10.0918
-10.1383
-10.1859
-10.2345
-10.2842
-10.3347
-10.386
-10.4379
-10.4904
-10.5433
-10.5966
-10.65
-10.7034
-10.7568
-10.81
-10.8629
-10.9154
-10.9674
-11.0187
-11.0692
-11.1189
-11.1677
-11.2154
-11.2619
-11.3072
-11.3512
-11.3938
-11.4349
-11.4745
-11.5124
-11.5486
-11.583
-11.6155
-11.6461
-11.6747
-11.7013
-11.7257
-11.7479
-11.7678
-11.7854
-11.8006
-11.8132
-11.8233
-11.8307
-11.8352
-11.8368
-11.8351
-11.8299
-11.821
-11.8077
-11.7897
-11.7662
-11.7363
-11.6989
-11.6529
-11.5969
-11.5289
-11.4469
-11.3485
-11.2304
-11.0891
-10.9215
-10.7228