/*--------------------------------*- C++ -*----------------------------------*\
| =========                 |                                                 |
| \\      /  F ield         | OpenFOAM: The Open Source CFD Toolbox           |
|  \\    /   O peration     | Version:  v1906                                 |
|   \\  /    A nd           | Web:      www.OpenFOAM.com                      |
|    \\/     M anipulation  |                                                 |
\*---------------------------------------------------------------------------*/
FoamFile
{
    version     2.0;
    format      ascii;
    class       surfaceScalarField;
    location    "2000";
    object      phi;
}
// * * * * * * * * * * * * * * * * * * * * * * * * * * * * * * * * * * * * * //

dimensions      [0 3 -1 0 0 0 0];
oriented        oriented;


internalField   nonuniform List<scalar> 
24170
(
3.08264e-06
1.05769e-07
2.99009e-06
9.25498e-08
2.92429e-06
6.57948e-08
2.86861e-06
5.56834e-08
2.82041e-06
4.81997e-08
2.77817e-06
4.22383e-08
2.74053e-06
3.76443e-08
2.70668e-06
3.3847e-08
2.6762e-06
3.04827e-08
2.64873e-06
2.74683e-08
2.62386e-06
2.48665e-08
2.6012e-06
2.26566e-08
2.58062e-06
2.05869e-08
2.56213e-06
1.84826e-08
2.5461e-06
1.60344e-08
2.53293e-06
1.31672e-08
2.52378e-06
9.15196e-09
-2.42117e-09
2.5262e-06
3.44175e-06
8.12716e-08
3.44162e-06
9.26713e-08
3.42978e-06
7.76371e-08
3.41578e-06
6.96845e-08
3.4009e-06
6.30769e-08
3.38622e-06
5.69249e-08
3.37204e-06
5.18166e-08
3.35845e-06
4.74446e-08
3.34542e-06
4.35055e-08
3.33299e-06
3.99033e-08
3.32118e-06
3.66736e-08
3.31006e-06
3.37788e-08
3.29957e-06
3.10795e-08
3.28971e-06
2.83406e-08
3.28034e-06
2.53988e-08
3.27157e-06
2.19355e-08
3.26385e-06
1.6879e-08
7.50079e-09
3.25393e-06
3.67699e-06
6.68014e-08
3.67934e-06
9.03168e-08
3.6735e-06
8.3478e-08
3.66574e-06
7.74477e-08
3.65791e-06
7.09011e-08
3.65053e-06
6.43071e-08
3.64363e-06
5.87146e-08
3.63715e-06
5.39264e-08
3.63104e-06
4.96201e-08
3.62525e-06
4.56892e-08
3.6198e-06
4.212e-08
3.61473e-06
3.88562e-08
3.61004e-06
3.57619e-08
3.60576e-06
3.26222e-08
3.60186e-06
2.9296e-08
3.59847e-06
2.53299e-08
3.59434e-06
2.10039e-08
1.4018e-08
3.58783e-06
3.93503e-06
5.71611e-08
3.94207e-06
8.32709e-08
3.94422e-06
8.13296e-08
3.94424e-06
7.74328e-08
3.94285e-06
7.22854e-08
3.94059e-06
6.6574e-08
3.93789e-06
6.1412e-08
3.93503e-06
5.67881e-08
3.93213e-06
5.25148e-08
3.92928e-06
4.85428e-08
3.92654e-06
4.48618e-08
3.92397e-06
4.1421e-08
3.92164e-06
3.8097e-08
3.91955e-06
3.47037e-08
3.91775e-06
3.10963e-08
3.9162e-06
2.68862e-08
3.91526e-06
2.1938e-08
1.43371e-08
3.91494e-06
4.2187e-06
4.55909e-08
4.22808e-06
7.38911e-08
4.23188e-06
7.75273e-08
4.23316e-06
7.61481e-08
4.23326e-06
7.21911e-08
4.23274e-06
6.70955e-08
4.23196e-06
6.21913e-08
4.23108e-06
5.76681e-08
4.23015e-06
5.34389e-08
4.22922e-06
4.94784e-08
4.22831e-06
4.57692e-08
4.22748e-06
4.22525e-08
4.22675e-06
3.88246e-08
4.22614e-06
3.53126e-08
4.22557e-06
3.16632e-08
4.22498e-06
2.74822e-08
4.22349e-06
2.34315e-08
1.82909e-08
4.21953e-06
4.51692e-06
3.77548e-08
4.52527e-06
6.55417e-08
4.53108e-06
7.17181e-08
4.53538e-06
7.18498e-08
4.53853e-06
6.90425e-08
4.54074e-06
6.48852e-08
4.54231e-06
6.06171e-08
4.54348e-06
5.65012e-08
4.54438e-06
5.25409e-08
4.5451e-06
4.87526e-08
4.54574e-06
4.51344e-08
4.54635e-06
4.16421e-08
4.54698e-06
3.8194e-08
4.54764e-06
3.46546e-08
4.54835e-06
3.09491e-08
4.54901e-06
2.68245e-08
4.55014e-06
2.23017e-08
1.68493e-08
4.55158e-06
4.84014e-06
3.03359e-08
4.84855e-06
5.71264e-08
4.85445e-06
6.58188e-08
4.85853e-06
6.77735e-08
4.86141e-06
6.61604e-08
4.8635e-06
6.27938e-08
4.86515e-06
5.89733e-08
4.86654e-06
5.51052e-08
4.86778e-06
5.13002e-08
4.86892e-06
4.76136e-08
4.87e-06
4.40573e-08
4.87105e-06
4.05954e-08
4.87207e-06
3.71718e-08
4.87305e-06
3.36746e-08
4.87389e-06
3.01112e-08
4.87442e-06
2.62914e-08
4.87402e-06
2.2704e-08
1.87779e-08
4.87209e-06
5.18539e-06
2.45317e-08
5.19282e-06
4.96881e-08
5.19924e-06
5.94067e-08
5.20473e-06
6.22794e-08
5.2094e-06
6.14923e-08
5.21332e-06
5.88708e-08
5.21668e-06
5.56147e-08
5.21963e-06
5.21568e-08
5.22227e-06
4.86572e-08
5.22469e-06
4.51954e-08
5.22695e-06
4.17981e-08
5.2291e-06
3.84464e-08
5.23117e-06
3.51012e-08
5.23316e-06
3.16866e-08
5.23509e-06
2.81742e-08
5.23692e-06
2.44637e-08
5.23907e-06
2.05562e-08
1.65317e-08
5.24131e-06
5.55572e-06
2.01496e-08
5.56238e-06
4.30318e-08
5.56853e-06
5.32506e-08
5.57369e-06
5.71238e-08
5.57792e-06
5.72589e-08
5.58142e-06
5.53744e-08
5.58441e-06
5.26197e-08
5.58707e-06
4.94938e-08
5.5895e-06
4.62274e-08
5.59176e-06
4.29371e-08
5.59389e-06
3.96728e-08
5.5959e-06
3.64331e-08
5.59779e-06
3.32078e-08
5.59954e-06
2.9945e-08
5.60102e-06
2.66887e-08
5.60212e-06
2.3367e-08
5.60238e-06
2.02961e-08
1.71161e-08
5.60179e-06
5.95404e-06
1.5888e-08
5.9604e-06
3.6667e-08
5.9667e-06
4.69494e-08
5.97259e-06
5.12333e-08
5.97796e-06
5.18916e-08
5.98278e-06
5.05521e-08
5.98714e-06
4.82594e-08
5.99113e-06
4.5508e-08
5.99481e-06
4.25468e-08
5.99824e-06
3.95047e-08
6.00147e-06
3.64422e-08
6.00453e-06
3.33728e-08
6.00745e-06
3.02947e-08
6.01021e-06
2.71823e-08
6.01286e-06
2.40383e-08
6.01538e-06
2.08471e-08
6.01805e-06
1.76221e-08
1.46298e-08
6.02054e-06
6.37928e-06
1.3416e-08
6.38437e-06
3.15816e-08
6.3901e-06
4.1216e-08
6.39557e-06
4.57644e-08
6.40051e-06
4.69543e-08
6.40489e-06
4.61712e-08
6.40881e-06
4.43362e-08
6.41238e-06
4.19428e-08
6.41566e-06
3.92661e-08
6.41871e-06
3.64569e-08
6.42155e-06
3.35961e-08
6.42421e-06
3.07149e-08
6.42667e-06
2.78364e-08
6.4289e-06
2.49515e-08
6.43082e-06
2.21154e-08
6.43237e-06
1.93022e-08
6.43328e-06
1.67102e-08
1.41804e-08
6.43373e-06
5.74347e-06
1.07776e-08
5.74801e-06
2.70411e-08
5.75301e-06
3.62184e-08
5.75799e-06
4.07858e-08
5.76275e-06
4.21904e-08
5.76721e-06
4.17178e-08
5.77136e-06
4.0187e-08
5.77523e-06
3.80715e-08
5.77885e-06
3.56429e-08
5.78225e-06
3.30545e-08
5.78546e-06
3.03916e-08
5.78848e-06
2.76945e-08
5.79133e-06
2.4988e-08
5.794e-06
2.22803e-08
5.79652e-06
1.95925e-08
5.79887e-06
1.69477e-08
5.80123e-06
1.4358e-08
1.20782e-08
5.80333e-06
6.9996e-06
9.33178e-09
7.0035e-06
2.31376e-08
7.00854e-06
3.11786e-08
7.01382e-06
3.55094e-08
7.01893e-06
3.70861e-08
7.0237e-06
3.69447e-08
7.02812e-06
3.57604e-08
7.03223e-06
3.39655e-08
7.03605e-06
3.18246e-08
7.03961e-06
2.94956e-08
7.04293e-06
2.70736e-08
7.04601e-06
2.46103e-08
7.04885e-06
2.21439e-08
7.05144e-06
1.96923e-08
7.05374e-06
1.72917e-08
7.05574e-06
1.49518e-08
7.05738e-06
1.27197e-08
1.04529e-08
7.059e-06
8.53356e-06
6.61706e-09
8.53869e-06
1.80045e-08
8.54477e-06
2.50991e-08
8.5512e-06
2.90791e-08
8.55764e-06
3.06534e-08
8.56388e-06
3.06976e-08
8.56987e-06
2.9779e-08
8.57555e-06
2.82802e-08
8.58093e-06
2.64421e-08
8.58602e-06
2.44127e-08
8.59081e-06
2.22831e-08
8.59531e-06
2.01081e-08
8.59953e-06
1.79257e-08
8.60346e-06
1.57631e-08
8.6071e-06
1.36517e-08
8.61042e-06
1.16274e-08
8.61342e-06
9.7213e-09
8.14237e-09
8.61573e-06
1.04003e-05
5.53701e-09
1.04042e-05
1.41009e-08
1.04099e-05
1.94434e-08
1.04164e-05
2.2577e-08
1.04231e-05
2.39202e-08
1.04297e-05
2.40561e-08
1.04361e-05
2.33862e-08
1.04422e-05
2.22025e-08
1.04479e-05
2.0702e-08
1.04533e-05
1.90139e-08
1.04584e-05
1.72218e-08
1.04631e-05
1.53805e-08
1.04675e-05
1.35237e-08
1.04716e-05
1.16789e-08
1.04754e-05
9.85264e-09
1.0479e-05
8.06877e-09
1.04824e-05
6.30488e-09
4.52506e-09
1.0486e-05
1.26792e-05
3.08276e-09
1.26846e-05
8.78051e-09
1.26914e-05
1.25851e-08
1.26991e-05
1.48801e-08
1.27072e-05
1.58887e-08
1.27152e-05
1.6004e-08
1.27231e-05
1.55112e-08
1.27307e-05
1.46242e-08
1.27379e-05
1.34932e-08
1.27447e-05
1.22189e-08
1.2751e-05
1.08709e-08
1.27569e-05
9.49592e-09
1.27623e-05
8.13194e-09
1.27672e-05
6.80625e-09
1.27715e-05
5.55541e-09
1.27751e-05
4.39708e-09
1.27781e-05
3.35953e-09
2.51678e-09
1.27801e-05
1.54548e-05
1.44553e-09
1.54597e-05
3.93189e-09
1.54668e-05
5.46411e-09
1.54754e-05
6.29164e-09
1.54848e-05
6.51131e-09
1.54945e-05
6.30147e-09
1.55042e-05
5.78939e-09
1.55137e-05
5.07306e-09
1.5523e-05
4.224e-09
1.55319e-05
3.29364e-09
1.55405e-05
2.31511e-09
1.55487e-05
1.31643e-09
1.55565e-05
3.07324e-10
1.5564e-05
-6.87696e-10
1.55712e-05
-1.68161e-09
1.55782e-05
-2.63325e-09
1.55852e-05
-3.58375e-09
-4.43239e-09
1.55921e-05
1.88389e-05
2.01429e-10
1.88432e-05
-4.3406e-10
1.88498e-05
-1.09816e-09
1.88577e-05
-1.60752e-09
1.88662e-05
-2.01511e-09
1.88749e-05
-2.35851e-09
1.88834e-05
-2.66849e-09
1.88914e-05
-2.96093e-09
1.88989e-05
-3.2416e-09
1.89057e-05
-3.51206e-09
1.89117e-05
-3.76944e-09
1.89171e-05
-4.01227e-09
1.89216e-05
-4.23495e-09
1.89254e-05
-4.44076e-09
1.89283e-05
-4.62772e-09
1.89305e-05
-4.79627e-09
1.89319e-05
-4.98139e-09
-5.16622e-09
1.89326e-05
2.29683e-05
-4.74644e-09
2.29787e-05
-1.08534e-08
2.29925e-05
-1.48952e-08
2.30086e-05
-1.76623e-08
2.3026e-05
-1.94839e-08
2.30443e-05
-2.06074e-08
2.30628e-05
-2.12441e-08
2.30814e-05
-2.15502e-08
2.30998e-05
-2.16342e-08
2.31179e-05
-2.15679e-08
2.31355e-05
-2.13958e-08
2.31526e-05
-2.11387e-08
2.31692e-05
-2.08035e-08
2.31851e-05
-2.03805e-08
2.32004e-05
-1.98571e-08
2.32148e-05
-1.92042e-08
2.32282e-05
-1.84221e-08
-1.71834e-08
2.32402e-05
1.681e-05
-4.05466e-09
1.6812e-05
-1.2819e-08
1.6816e-05
-1.89172e-08
1.68211e-05
-2.27151e-08
1.68264e-05
-2.47856e-08
1.68314e-05
-2.56979e-08
1.68361e-05
-2.58804e-08
1.68401e-05
-2.56141e-08
1.68436e-05
-2.50763e-08
1.68464e-05
-2.43777e-08
1.68486e-05
-2.35838e-08
1.68502e-05
-2.27379e-08
1.68512e-05
-2.18625e-08
1.68519e-05
-2.09885e-08
1.68521e-05
-2.01252e-08
1.68522e-05
-1.93312e-08
1.68524e-05
-1.86026e-08
-1.83676e-08
1.68536e-05
1.46398e-05
-9.33414e-09
1.46492e-05
-2.21992e-08
1.46604e-05
-3.0075e-08
1.46725e-05
-3.4801e-08
1.4685e-05
-3.7277e-08
1.46975e-05
-3.82071e-08
1.47098e-05
-3.81724e-08
1.47217e-05
-3.75632e-08
1.47333e-05
-3.66277e-08
1.47444e-05
-3.55239e-08
1.47552e-05
-3.43526e-08
1.47656e-05
-3.31717e-08
1.47758e-05
-3.20205e-08
1.47857e-05
-3.09065e-08
1.47954e-05
-2.98478e-08
1.48049e-05
-2.87909e-08
1.4814e-05
-2.77631e-08
-2.61704e-08
1.48218e-05
1.27405e-05
-9.71398e-09
1.27443e-05
-2.60374e-08
1.27497e-05
-3.54539e-08
1.27552e-05
-4.03007e-08
1.27602e-05
-4.22401e-08
1.27644e-05
-4.24381e-08
1.27679e-05
-4.16955e-08
1.27708e-05
-4.04641e-08
1.27732e-05
-3.89814e-08
1.27751e-05
-3.73814e-08
1.27764e-05
-3.57361e-08
1.27774e-05
-3.40832e-08
1.27778e-05
-3.24281e-08
1.27776e-05
-3.07799e-08
1.27769e-05
-2.91044e-08
1.27755e-05
-2.74454e-08
1.27735e-05
-2.57239e-08
-2.46532e-08
1.2772e-05
1.10974e-05
-1.62195e-08
1.11078e-05
-3.64495e-08
1.1119e-05
-4.66176e-08
1.11302e-05
-5.1467e-08
1.1141e-05
-5.30266e-08
1.11511e-05
-5.25691e-08
1.11605e-05
-5.10932e-08
1.11692e-05
-4.91587e-08
1.11772e-05
-4.70407e-08
1.11848e-05
-4.48929e-08
1.11918e-05
-4.28046e-08
1.11986e-05
-4.08225e-08
1.12051e-05
-3.89841e-08
1.12116e-05
-3.73094e-08
1.12184e-05
-3.58626e-08
1.12256e-05
-3.46325e-08
1.12337e-05
-3.37844e-08
-3.25033e-08
1.12415e-05
9.65931e-06
-2.03141e-08
9.66691e-06
-4.40525e-08
9.67396e-06
-5.36619e-08
9.67947e-06
-5.69762e-08
9.68355e-06
-5.71128e-08
9.68654e-06
-5.55529e-08
9.68878e-06
-5.33331e-08
9.69053e-06
-5.09158e-08
9.69195e-06
-4.84538e-08
9.69308e-06
-4.60267e-08
9.69395e-06
-4.36796e-08
9.69456e-06
-4.14299e-08
9.69484e-06
-3.92633e-08
9.6947e-06
-3.71645e-08
9.69387e-06
-3.50348e-08
9.69207e-06
-3.28349e-08
9.68848e-06
-3.01986e-08
-2.78167e-08
9.6838e-06
8.41373e-06
-2.86874e-08
8.42535e-06
-5.5675e-08
8.43602e-06
-6.43356e-08
8.44552e-06
-6.64781e-08
8.45375e-06
-6.53431e-08
8.46064e-06
-6.24346e-08
8.46636e-06
-5.90576e-08
8.47118e-06
-5.57331e-08
8.47529e-06
-5.25644e-08
8.47885e-06
-4.95904e-08
8.482e-06
-4.68301e-08
8.48485e-06
-4.42789e-08
8.48752e-06
-4.19351e-08
8.49016e-06
-3.97978e-08
8.49306e-06
-3.79439e-08
8.49665e-06
-3.64189e-08
8.50215e-06
-3.57004e-08
-3.52513e-08
8.50958e-06
7.32838e-06
-3.97791e-08
7.33975e-06
-6.7049e-08
7.34588e-06
-7.04671e-08
7.34876e-06
-6.93588e-08
7.34994e-06
-6.65231e-08
7.3502e-06
-6.26928e-08
7.35003e-06
-5.88923e-08
7.34969e-06
-5.53879e-08
7.34924e-06
-5.21118e-08
7.34869e-06
-4.90438e-08
7.34805e-06
-4.61902e-08
7.34731e-06
-4.35421e-08
7.34645e-06
-4.10752e-08
7.34543e-06
-3.8778e-08
7.34404e-06
-3.65531e-08
7.34198e-06
-3.43514e-08
7.33775e-06
-3.14722e-08
-2.79225e-08
7.33042e-06
6.38075e-06
-5.04649e-08
6.39207e-06
-7.8371e-08
6.39908e-06
-7.74744e-08
6.40346e-06
-7.3738e-08
6.40566e-06
-6.87225e-08
6.40615e-06
-6.31845e-08
6.40557e-06
-5.83119e-08
6.40436e-06
-5.418e-08
6.40279e-06
-5.05405e-08
6.40101e-06
-4.72658e-08
6.39912e-06
-4.4301e-08
6.39718e-06
-4.1601e-08
6.39524e-06
-3.9133e-08
6.39333e-06
-3.68692e-08
6.39163e-06
-3.48534e-08
6.39036e-06
-3.3077e-08
6.39112e-06
-3.22397e-08
-3.24136e-08
6.39562e-06
5.5641e-06
-6.91037e-08
5.57023e-06
-8.44931e-08
5.56586e-06
-7.31065e-08
5.55846e-06
-6.63388e-08
5.5507e-06
-6.09689e-08
5.5433e-06
-5.57757e-08
5.53639e-06
-5.14046e-08
5.52992e-06
-4.77141e-08
5.52381e-06
-4.44282e-08
5.51799e-06
-4.14443e-08
5.51242e-06
-3.87289e-08
5.50706e-06
-3.62489e-08
5.5019e-06
-3.39719e-08
5.49693e-06
-3.18936e-08
5.49204e-06
-2.99637e-08
5.48718e-06
-2.82214e-08
5.48089e-06
-2.5952e-08
-2.24639e-08
5.47094e-06
4.85182e-06
-9.3312e-08
4.85532e-06
-8.79974e-08
4.84524e-06
-6.30315e-08
4.83344e-06
-5.45354e-08
4.82069e-06
-4.82173e-08
4.80822e-06
-4.33025e-08
4.79642e-06
-3.96044e-08
4.78531e-06
-3.66047e-08
4.77481e-06
-3.393e-08
4.76484e-06
-3.14719e-08
4.75532e-06
-2.92123e-08
4.74621e-06
-2.71371e-08
4.73747e-06
-2.52371e-08
4.72909e-06
-2.3508e-08
4.72111e-06
-2.19844e-08
4.71358e-06
-2.069e-08
4.70798e-06
-2.03532e-08
-2.10704e-08
4.70658e-06
4.10936e-06
4.02137e-06
3.95834e-06
3.9038e-06
3.85558e-06
3.81228e-06
3.77268e-06
3.73607e-06
3.70214e-06
3.67067e-06
3.64146e-06
3.61432e-06
3.58908e-06
3.56557e-06
3.54359e-06
3.5229e-06
3.50255e-06
3.48148e-06
4.64241e-08
-4.64289e-08
1.24201e-07
-7.7777e-08
2.15797e-07
-9.16008e-08
3.00046e-07
-8.42511e-08
3.76252e-07
-7.62092e-08
4.43749e-07
-6.75002e-08
5.04528e-07
-6.07821e-08
5.59495e-07
-5.49692e-08
6.09876e-07
-5.03831e-08
6.56195e-07
-4.63227e-08
6.98871e-07
-4.26771e-08
7.38017e-07
-3.91488e-08
7.73717e-07
-3.56998e-08
8.05979e-07
-3.22645e-08
8.34843e-07
-2.88634e-08
8.60332e-07
-2.54913e-08
8.8249e-07
-2.21553e-08
9.01322e-07
-1.88357e-08
9.16851e-07
-1.55254e-08
9.29039e-07
-1.21927e-08
9.37912e-07
-8.86938e-09
9.43565e-07
-5.65946e-09
9.45925e-07
-2.35572e-09
9.44607e-07
1.31105e-09
9.39258e-07
5.35228e-09
9.29485e-07
9.76693e-09
9.14816e-07
1.4672e-08
8.94679e-07
2.01353e-08
8.6862e-07
2.60611e-08
8.36503e-07
3.21209e-08
7.98738e-07
3.77634e-08
7.56394e-07
4.23531e-08
7.1101e-07
4.53802e-08
6.64394e-07
4.66264e-08
6.18201e-07
4.61864e-08
5.73848e-07
4.43603e-08
5.32452e-07
4.13881e-08
4.94705e-07
3.77527e-08
4.60654e-07
3.40441e-08
4.30239e-07
3.04182e-08
4.03313e-07
2.69217e-08
3.79559e-07
2.37565e-08
3.58301e-07
2.12529e-08
3.38515e-07
1.97859e-08
3.1884e-07
1.96667e-08
2.97767e-07
2.10717e-08
2.73453e-07
2.42979e-08
2.43886e-07
2.95742e-08
2.06546e-07
3.73178e-08
1.5835e-07
4.82245e-08
9.66946e-08
6.16267e-08
2.19932e-08
7.47476e-08
-6.32192e-08
8.51881e-08
-1.57765e-07
9.45784e-08
-2.60274e-07
1.02484e-07
-3.68255e-07
1.07991e-07
-4.79529e-07
1.11254e-07
-5.92127e-07
1.12593e-07
-7.04636e-07
1.12494e-07
-8.15717e-07
1.11071e-07
-9.2401e-07
1.08284e-07
-1.0284e-06
1.04385e-07
-1.12821e-06
9.98013e-08
-1.22309e-06
9.48701e-08
-1.3129e-06
8.98151e-08
-1.39776e-06
8.48534e-08
-1.4779e-06
8.01396e-08
-1.55368e-06
7.5768e-08
-1.62547e-06
7.17919e-08
-1.6937e-06
6.82249e-08
-1.75876e-06
6.50593e-08
-1.82103e-06
6.22684e-08
-1.88085e-06
5.98186e-08
-1.93852e-06
5.7671e-08
-1.99431e-06
5.57872e-08
-2.04844e-06
5.41298e-08
-2.10111e-06
5.26654e-08
-2.15247e-06
5.13635e-08
-2.20267e-06
5.01982e-08
-2.25182e-06
4.91471e-08
-2.30002e-06
4.81918e-08
-2.34733e-06
4.73167e-08
-2.39384e-06
4.65097e-08
-2.43961e-06
4.576e-08
-2.48467e-06
4.50605e-08
-2.52908e-06
4.44031e-08
-2.57286e-06
4.37838e-08
-2.61606e-06
4.31946e-08
-2.65868e-06
4.26312e-08
-2.70076e-06
4.20849e-08
-2.74231e-06
4.15474e-08
-2.78331e-06
4.10125e-08
-2.82378e-06
4.04726e-08
-2.8637e-06
3.99209e-08
-2.90304e-06
3.93488e-08
-2.94179e-06
3.87486e-08
-2.97989e-06
3.811e-08
-3.01731e-06
3.74217e-08
-3.05397e-06
3.66678e-08
-3.0898e-06
3.58288e-08
-3.12467e-06
3.48782e-08
-3.15846e-06
3.37848e-08
-3.19097e-06
3.25121e-08
-3.22199e-06
3.10184e-08
-3.25126e-06
2.92595e-08
-3.27845e-06
2.71797e-08
-3.30317e-06
2.47178e-08
-3.32498e-06
2.17964e-08
-3.34333e-06
1.83433e-08
-3.35763e-06
1.42846e-08
-3.3672e-06
9.57038e-09
-3.37149e-06
4.28183e-09
-3.37036e-06
-1.13513e-09
-3.36405e-06
-6.31732e-09
-3.35232e-06
-1.17275e-08
-3.33433e-06
-1.79851e-08
-3.30916e-06
-2.51557e-08
-3.27582e-06
-3.33165e-08
-3.23307e-06
-4.27233e-08
-3.17952e-06
-5.35154e-08
-3.1137e-06
-6.57856e-08
-3.03413e-06
-7.95425e-08
-2.93936e-06
-9.47316e-08
-2.82813e-06
-1.11178e-07
-2.69963e-06
-1.2844e-07
-2.55371e-06
-1.45853e-07
-2.39046e-06
-1.63173e-07
-2.20952e-06
-1.8085e-07
-2.01157e-06
-1.97864e-07
-1.79804e-06
-2.13438e-07
-1.57074e-06
-2.27224e-07
-1.33205e-06
-2.38601e-07
-1.08479e-06
-2.47196e-07
-8.31962e-07
-2.52759e-07
-5.76897e-07
-2.55021e-07
-3.23389e-07
-2.53472e-07
-7.67518e-08
-2.46628e-07
1.7028e-07
-2.4705e-07
4.24231e-07
-2.54047e-07
6.77225e-07
-2.53124e-07
9.23364e-07
-2.463e-07
1.16193e-06
-2.38712e-07
1.39394e-06
-2.3216e-07
1.62101e-06
-2.27191e-07
1.84493e-06
-2.24037e-07
2.06765e-06
-2.22824e-07
2.29114e-06
-2.23572e-07
2.51715e-06
-2.26054e-07
2.74676e-06
-2.29637e-07
2.97992e-06
-2.33144e-07
3.21492e-06
-2.34969e-07
3.44796e-06
-2.32988e-07
3.67309e-06
-2.25064e-07
3.88267e-06
-2.09532e-07
4.06621e-06
-1.83533e-07
4.21381e-06
-1.47619e-07
4.30428e-06
-9.05009e-08
4.28872e-06
1.55629e-08
4.12274e-06
1.66054e-07
3.79041e-06
3.3227e-07
3.30035e-06
4.89887e-07
2.69401e-06
6.06065e-07
2.05112e-06
6.42736e-07
1.46636e-06
5.84643e-07
1.02749e-06
4.38739e-07
8.31157e-07
1.96268e-07
9.0348e-07
-7.22494e-08
1.0895e-06
-1.85852e-07
1.17708e-06
-8.73754e-08
1.05125e-06
1.26193e-07
7.36536e-07
3.15055e-07
3.71684e-07
3.64983e-07
9.3408e-08
2.78182e-07
-7.63881e-08
1.6987e-07
-1.55189e-07
7.90759e-08
-1.80403e-07
2.5441e-08
-1.55078e-07
-2.517e-08
-1.21814e-07
-3.32832e-08
-7.60048e-08
-4.58879e-08
-7.52821e-08
-8.59443e-10
9.2719e-08
-1.39149e-07
1.63453e-07
-1.4851e-07
2.19565e-07
-1.47715e-07
2.62476e-07
-1.27164e-07
3.04422e-07
-1.18157e-07
3.43536e-07
-1.06615e-07
3.83103e-07
-1.0035e-07
4.21727e-07
-9.35935e-08
4.59938e-07
-8.85955e-08
4.96706e-07
-8.30919e-08
5.3166e-07
-7.76324e-08
5.63976e-07
-7.14656e-08
5.9327e-07
-6.49938e-08
6.19178e-07
-5.81742e-08
6.4161e-07
-5.1295e-08
6.60522e-07
-4.44041e-08
6.75982e-07
-3.7614e-08
6.88078e-07
-3.09331e-08
6.96949e-07
-2.43953e-08
7.02813e-07
-1.8058e-08
7.06168e-07
-1.22228e-08
7.07736e-07
-7.22806e-09
7.08323e-07
-2.94235e-09
7.08835e-07
7.98365e-10
7.09683e-07
4.50494e-09
7.10523e-07
8.92574e-09
7.104e-07
1.47953e-08
7.0775e-07
2.27853e-08
7.00533e-07
3.3279e-08
6.86656e-07
4.59989e-08
6.64657e-07
5.97636e-08
6.34289e-07
7.27238e-08
5.96638e-07
8.30324e-08
5.53743e-07
8.95227e-08
5.07972e-07
9.19572e-08
4.61544e-07
9.07894e-08
4.16112e-07
8.68194e-08
3.72682e-07
8.1183e-08
3.31568e-07
7.5157e-08
2.92269e-07
6.97178e-08
2.53507e-07
6.56826e-08
2.13448e-07
6.38147e-08
1.69915e-07
6.47846e-08
1.20617e-07
6.9083e-08
6.3343e-08
7.69386e-08
-3.93943e-09
8.83521e-08
-8.29778e-08
1.03333e-07
-1.74941e-07
1.21536e-07
-2.79711e-07
1.42086e-07
-3.95064e-07
1.63578e-07
-5.1752e-07
1.84082e-07
-6.44475e-07
2.01704e-07
-7.74581e-07
2.15295e-07
-9.04344e-07
2.24343e-07
-1.03023e-06
2.28371e-07
-1.15006e-06
2.27821e-07
-1.26201e-06
2.232e-07
-1.36466e-06
2.15236e-07
-1.45702e-06
2.04854e-07
-1.53875e-06
1.92793e-07
-1.61024e-06
1.79768e-07
-1.67233e-06
1.66477e-07
-1.72605e-06
1.53515e-07
-1.77246e-06
1.41281e-07
-1.81266e-06
1.30007e-07
-1.84763e-06
1.19824e-07
-1.87826e-06
1.10768e-07
-1.9053e-06
1.0281e-07
-1.92939e-06
9.58753e-08
-1.95103e-06
8.98648e-08
-1.97064e-06
8.46695e-08
-1.98855e-06
8.01791e-08
-2.00502e-06
7.62908e-08
-2.02026e-06
7.29105e-08
-2.03443e-06
6.9957e-08
-2.04766e-06
6.73599e-08
-2.06006e-06
6.50608e-08
-2.07171e-06
6.30107e-08
-2.08268e-06
6.11707e-08
-2.09304e-06
5.95083e-08
-2.10285e-06
5.79991e-08
-2.11216e-06
5.66231e-08
-2.12102e-06
5.53656e-08
-2.12947e-06
5.42142e-08
-2.13758e-06
5.31608e-08
-2.14537e-06
5.21968e-08
-2.1529e-06
5.13166e-08
-2.16022e-06
5.05123e-08
-2.16737e-06
4.97778e-08
-2.17438e-06
4.91038e-08
-2.18132e-06
4.84832e-08
-2.18821e-06
4.79101e-08
-2.19512e-06
4.73788e-08
-2.20208e-06
4.6885e-08
-2.20915e-06
4.64244e-08
-2.2164e-06
4.59947e-08
-2.22388e-06
4.5592e-08
-2.23167e-06
4.52119e-08
-2.23985e-06
4.48451e-08
-2.2485e-06
4.44799e-08
-2.25772e-06
4.40977e-08
-2.26761e-06
4.36775e-08
-2.2783e-06
4.3193e-08
-2.2899e-06
4.26164e-08
-2.30256e-06
4.19143e-08
-2.31643e-06
4.10458e-08
-2.33168e-06
3.99558e-08
-2.34846e-06
3.85676e-08
-2.3669e-06
3.6774e-08
-2.38706e-06
3.44445e-08
-2.40895e-06
3.14522e-08
-2.43227e-06
2.75966e-08
-2.45588e-06
2.24651e-08
-2.478e-06
1.5799e-08
-2.4972e-06
7.47489e-09
-2.51223e-06
-2.95351e-09
-2.5214e-06
-1.59797e-08
-2.5231e-06
-3.16109e-08
-2.51592e-06
-4.9882e-08
-2.49852e-06
-7.09028e-08
-2.46957e-06
-9.47143e-08
-2.4278e-06
-1.21301e-07
-2.37194e-06
-1.50569e-07
-2.30081e-06
-1.8229e-07
-2.21333e-06
-2.15876e-07
-2.10862e-06
-2.50526e-07
-1.98595e-06
-2.85802e-07
-1.84483e-06
-3.21919e-07
-1.68596e-06
-3.5669e-07
-1.51039e-06
-3.88957e-07
-1.31989e-06
-4.17684e-07
-1.11653e-06
-4.41913e-07
-9.02664e-07
-4.61028e-07
-6.80548e-07
-4.74846e-07
-4.51874e-07
-4.83671e-07
-2.16692e-07
-4.88639e-07
2.84446e-08
-4.91762e-07
2.77793e-07
-4.96418e-07
5.20115e-07
-4.9641e-07
7.56154e-07
-4.89227e-07
9.88255e-07
-4.78471e-07
1.21736e-06
-4.67892e-07
1.44449e-06
-4.5935e-07
1.67089e-06
-4.53648e-07
1.89799e-06
-4.51198e-07
2.12732e-06
-4.52216e-07
2.36031e-06
-4.56604e-07
2.59785e-06
-4.63633e-07
2.83988e-06
-4.71678e-07
3.08489e-06
-4.78154e-07
3.32956e-06
-4.79611e-07
3.56854e-06
-4.7192e-07
3.7944e-06
-4.50865e-07
3.99811e-06
-4.13199e-07
4.17016e-06
-3.55569e-07
4.2983e-06
-2.75766e-07
4.38776e-06
-1.79953e-07
4.47605e-06
-7.26332e-08
4.57187e-06
7.03168e-08
4.61874e-06
2.85404e-07
4.53059e-06
5.77917e-07
4.24019e-06
8.96328e-07
3.74586e-06
1.13696e-06
3.16225e-06
1.16819e-06
2.66941e-06
9.31505e-07
2.35903e-06
5.0662e-07
2.17252e-06
1.14277e-07
1.98758e-06
-8.46774e-10
1.69255e-06
2.0781e-07
1.27442e-06
5.44558e-07
8.50368e-07
7.39357e-07
5.32986e-07
6.82489e-07
3.26139e-07
4.85083e-07
1.95792e-07
3.00263e-07
1.1874e-07
1.562e-07
8.22112e-08
6.19899e-08
8.00911e-08
-2.30582e-08
1.03012e-07
-5.62651e-08
1.58804e-07
-1.01747e-07
-1.34741e-07
2.18187e-07
6.14323e-08
-2.00583e-07
9.24883e-08
-1.79566e-07
1.2144e-07
-1.76668e-07
1.46918e-07
-1.52642e-07
1.77324e-07
-1.48564e-07
2.0925e-07
-1.38542e-07
2.45295e-07
-1.36396e-07
2.82599e-07
-1.30898e-07
3.21522e-07
-1.27519e-07
3.59488e-07
-1.21059e-07
3.95761e-07
-1.13907e-07
4.2881e-07
-1.04515e-07
4.58373e-07
-9.45563e-08
4.8409e-07
-8.38922e-08
5.06154e-07
-7.33587e-08
5.24581e-07
-6.28318e-08
5.3948e-07
-5.25124e-08
5.50703e-07
-4.21567e-08
5.57799e-07
-3.14907e-08
5.59764e-07
-2.00233e-08
5.55967e-07
-8.4248e-09
5.47109e-07
1.62914e-09
5.34674e-07
9.49409e-09
5.19929e-07
1.55427e-08
5.03672e-07
2.07624e-08
4.86236e-07
2.63607e-08
4.67467e-07
3.35648e-08
4.46763e-07
4.34893e-08
4.23257e-07
5.67849e-08
3.96146e-07
7.31109e-08
3.65075e-07
9.0835e-08
3.30355e-07
1.07446e-07
2.92858e-07
1.2053e-07
2.53652e-07
1.28729e-07
2.13629e-07
1.3198e-07
1.73209e-07
1.3121e-07
1.32116e-07
1.27912e-07
8.93951e-08
1.23904e-07
4.35745e-08
1.20977e-07
-7.26036e-09
1.20552e-07
-6.523e-08
1.23652e-07
-1.32247e-07
1.30831e-07
-2.09627e-07
1.42163e-07
-2.97877e-07
1.57332e-07
-3.96713e-07
1.75774e-07
-5.05007e-07
1.96644e-07
-6.20578e-07
2.18903e-07
-7.40363e-07
2.4132e-07
-8.60858e-07
2.6258e-07
-9.78509e-07
2.81228e-07
-1.09017e-06
2.95739e-07
-1.19339e-06
3.04925e-07
-1.28641e-06
3.08313e-07
-1.36815e-06
3.06084e-07
-1.43864e-06
2.98863e-07
-1.49831e-06
2.87487e-07
-1.54797e-06
2.72864e-07
-1.58889e-06
2.56147e-07
-1.62246e-06
2.3843e-07
-1.65027e-06
2.20599e-07
-1.67387e-06
2.03363e-07
-1.69463e-06
1.87234e-07
-1.71365e-06
1.72533e-07
-1.73176e-06
1.59393e-07
-1.74958e-06
1.4782e-07
-1.7675e-06
1.37742e-07
-1.78577e-06
1.29037e-07
-1.80452e-06
1.21559e-07
-1.8238e-06
1.15156e-07
-1.84361e-06
1.0968e-07
-1.86394e-06
1.04993e-07
-1.88473e-06
1.00972e-07
-1.90595e-06
9.75117e-08
-1.92756e-06
9.45189e-08
-1.94952e-06
9.1917e-08
-1.9718e-06
8.96412e-08
-1.99438e-06
8.76385e-08
-2.01724e-06
8.58651e-08
-2.04035e-06
8.42857e-08
-2.06372e-06
8.28715e-08
-2.08732e-06
8.16003e-08
-2.11115e-06
8.04538e-08
-2.1352e-06
7.94184e-08
-2.15947e-06
7.8483e-08
-2.18395e-06
7.76395e-08
-2.20864e-06
7.68805e-08
-2.23352e-06
7.6201e-08
-2.25861e-06
7.5595e-08
-2.28389e-06
7.50577e-08
-2.30936e-06
7.45824e-08
-2.33504e-06
7.4164e-08
-2.36093e-06
7.37973e-08
-2.38703e-06
7.34773e-08
-2.41334e-06
7.3197e-08
-2.43987e-06
7.29503e-08
-2.4666e-06
7.2728e-08
-2.49353e-06
7.25206e-08
-2.52064e-06
7.23139e-08
-2.54788e-06
7.20913e-08
-2.57524e-06
7.18294e-08
-2.60264e-06
7.14988e-08
-2.63003e-06
7.10615e-08
-2.65731e-06
7.04698e-08
-2.68436e-06
6.96666e-08
-2.71104e-06
6.8581e-08
-2.73713e-06
6.713e-08
-2.76239e-06
6.52084e-08
-2.78651e-06
6.2686e-08
-2.80913e-06
5.93869e-08
-2.82979e-06
5.50949e-08
-2.84789e-06
4.95535e-08
-2.86271e-06
4.2407e-08
-2.87342e-06
3.31668e-08
-2.87914e-06
2.15162e-08
-2.87895e-06
7.28832e-09
-2.87225e-06
-9.65095e-09
-2.85875e-06
-2.94818e-08
-2.83765e-06
-5.27079e-08
-2.80786e-06
-7.96651e-08
-2.76813e-06
-1.10621e-07
-2.7171e-06
-1.45738e-07
-2.65335e-06
-1.85042e-07
-2.5755e-06
-2.28416e-07
-2.48224e-06
-2.75529e-07
-2.37237e-06
-3.25732e-07
-2.24472e-06
-3.78144e-07
-2.09858e-06
-4.31917e-07
-1.93452e-06
-4.85945e-07
-1.75315e-06
-5.38023e-07
-1.55563e-06
-5.8644e-07
-1.3437e-06
-6.29576e-07
-1.11946e-06
-6.66127e-07
-8.85208e-07
-6.95249e-07
-6.4339e-07
-7.16639e-07
-3.96476e-07
-7.30562e-07
-1.46901e-07
-7.382e-07
1.02696e-07
-7.4135e-07
3.48705e-07
-7.42435e-07
5.91352e-07
-7.39081e-07
8.32062e-07
-7.29975e-07
1.07166e-06
-7.18116e-07
1.31029e-06
-7.06556e-07
1.54825e-06
-6.97358e-07
1.78627e-06
-6.91705e-07
2.02536e-06
-6.9032e-07
2.26666e-06
-6.93555e-07
2.51121e-06
-7.0118e-07
2.75953e-06
-7.11966e-07
3.01118e-06
-7.23338e-07
3.26428e-06
-7.31253e-07
3.51498e-06
-7.30297e-07
3.75729e-06
-7.14205e-07
3.98334e-06
-6.76883e-07
4.18402e-06
-6.13861e-07
4.34994e-06
-5.21501e-07
4.47013e-06
-3.95989e-07
4.53113e-06
-2.40976e-07
4.52994e-06
-7.14057e-08
4.4938e-06
1.06526e-07
4.46665e-06
3.12597e-07
4.45194e-06
5.92613e-07
4.37454e-06
9.73725e-07
4.14409e-06
1.36745e-06
3.75873e-06
1.55361e-06
3.29754e-06
1.39272e-06
2.83668e-06
9.67498e-07
2.39761e-06
5.53391e-07
1.93247e-06
4.64335e-07
1.40867e-06
7.3165e-07
9.059e-07
1.04739e-06
5.26082e-07
1.11923e-06
2.70452e-07
9.38076e-07
9.54823e-08
6.59959e-07
-1.70981e-08
4.12784e-07
-7.32776e-08
2.12384e-07
-8.21172e-08
7.08449e-08
-6.17304e-08
-4.34306e-08
-7.20678e-09
-1.10798e-07
7.47499e-08
-1.83722e-07
-2.1519e-07
1.55178e-07
3.34683e-08
-2.34052e-07
3.87393e-08
-1.84838e-07
5.33958e-08
-1.91325e-07
6.99948e-08
-1.69242e-07
8.68147e-08
-1.65384e-07
1.04164e-07
-1.55893e-07
1.22663e-07
-1.54895e-07
1.43453e-07
-1.5169e-07
1.65918e-07
-1.49984e-07
1.89024e-07
-1.44166e-07
2.11438e-07
-1.36321e-07
2.31788e-07
-1.24866e-07
2.49653e-07
-1.12422e-07
2.64799e-07
-9.9038e-08
2.77299e-07
-8.58586e-08
2.8717e-07
-7.27037e-08
2.94498e-07
-5.98401e-08
2.99185e-07
-4.68442e-08
3.00918e-07
-3.32235e-08
2.98874e-07
-1.79801e-08
2.91886e-07
-1.43616e-09
2.79557e-07
1.39587e-08
2.62361e-07
2.66899e-08
2.40681e-07
3.72227e-08
2.14918e-07
4.65259e-08
1.85552e-07
5.57263e-08
1.53212e-07
6.59054e-08
1.18779e-07
7.7922e-08
8.34778e-08
9.20861e-08
4.87047e-08
1.07884e-07
1.55693e-08
1.23971e-07
-1.56009e-08
1.38616e-07
-4.5474e-08
1.50403e-07
-7.55665e-08
1.58822e-07
-1.07944e-07
1.64358e-07
-1.4495e-07
1.68217e-07
-1.88954e-07
1.71916e-07
-2.41962e-07
1.76912e-07
-3.05289e-07
1.84303e-07
-3.79346e-07
1.94609e-07
-4.63596e-07
2.07902e-07
-5.56659e-07
2.23893e-07
-6.56479e-07
2.41983e-07
-7.60453e-07
2.61306e-07
-8.65609e-07
2.80929e-07
-9.68862e-07
2.99896e-07
-1.06712e-06
3.17162e-07
-1.15754e-06
3.31742e-07
-1.23776e-06
3.42794e-07
-1.30613e-06
3.49602e-07
-1.36212e-06
3.51725e-07
-1.40627e-06
3.49074e-07
-1.43983e-06
3.41872e-07
-1.46453e-06
3.30785e-07
-1.48238e-06
3.16716e-07
-1.49544e-06
3.00539e-07
-1.50573e-06
2.83158e-07
-1.51502e-06
2.65438e-07
-1.52466e-06
2.48069e-07
-1.53561e-06
2.31544e-07
-1.54843e-06
2.1618e-07
-1.56334e-06
2.02148e-07
-1.58032e-06
1.8951e-07
-1.59917e-06
1.78242e-07
-1.61962e-06
1.6827e-07
-1.64137e-06
1.59492e-07
-1.66413e-06
1.51794e-07
-1.68763e-06
1.45061e-07
-1.71166e-06
1.39178e-07
-1.73601e-06
1.34039e-07
-1.76057e-06
1.29544e-07
-1.7852e-06
1.25605e-07
-1.80983e-06
1.22143e-07
-1.8344e-06
1.19089e-07
-1.85887e-06
1.16382e-07
-1.8832e-06
1.13971e-07
-1.90737e-06
1.11813e-07
-1.93138e-06
1.09871e-07
-1.95521e-06
1.08118e-07
-1.97887e-06
1.06527e-07
-2.00235e-06
1.0508e-07
-2.02565e-06
1.03761e-07
-2.04879e-06
1.02559e-07
-2.07178e-06
1.01464e-07
-2.09461e-06
1.0047e-07
-2.1173e-06
9.95707e-08
-2.13986e-06
9.87622e-08
-2.16231e-06
9.80408e-08
-2.18465e-06
9.74025e-08
-2.20691e-06
9.68424e-08
-2.2291e-06
9.63563e-08
-2.25125e-06
9.59396e-08
-2.27336e-06
9.55866e-08
-2.29545e-06
9.52896e-08
-2.31754e-06
9.50388e-08
-2.33964e-06
9.48211e-08
-2.36174e-06
9.46202e-08
-2.38384e-06
9.44148e-08
-2.40593e-06
9.41776e-08
-2.42798e-06
9.38733e-08
-2.44994e-06
9.34575e-08
-2.47176e-06
9.28739e-08
-2.49335e-06
9.20532e-08
-2.5146e-06
9.09121e-08
-2.53538e-06
8.93497e-08
-2.5555e-06
8.72457e-08
-2.57475e-06
8.44523e-08
-2.59286e-06
8.07916e-08
-2.60952e-06
7.60439e-08
-2.62439e-06
6.99553e-08
-2.63707e-06
6.22308e-08
-2.64717e-06
5.25004e-08
-2.65431e-06
4.02983e-08
-2.65801e-06
2.5217e-08
-2.65757e-06
6.84677e-09
-2.65195e-06
-1.52704e-08
-2.63996e-06
-4.14774e-08
-2.62047e-06
-7.21934e-08
-2.59227e-06