/*--------------------------------*- C++ -*----------------------------------*\
| =========                 |                                                 |
| \\      /  F ield         | OpenFOAM: The Open Source CFD Toolbox           |
|  \\    /   O peration     | Version:  v1906                                 |
|   \\  /    A nd           | Web:      www.OpenFOAM.com                      |
|    \\/     M anipulation  |                                                 |
\*---------------------------------------------------------------------------*/
FoamFile
{
    version     2.0;
    format      ascii;
    class       volSymmTensorField;
    location    "2000";
    object      R;
}
// * * * * * * * * * * * * * * * * * * * * * * * * * * * * * * * * * * * * * //

dimensions      [0 2 -2 0 0 0 0];


internalField   nonuniform List<symmTensor> 
12225
(
(1.62959 -0.334084 0 1.36039 0 1.52762)
(1.99802 -0.598248 0 0.91452 0 1.54287)
(2.15298 -0.586752 0 0.685965 0 1.49058)
(2.16726 -0.548817 0 0.594973 0 1.4288)
(2.13575 -0.521678 0 0.550028 0 1.37424)
(2.09114 -0.502105 0 0.522021 0 1.3278)
(2.04492 -0.486801 0 0.50154 0 1.28808)
(2.00112 -0.474114 0 0.485203 0 1.25366)
(1.96053 -0.463194 0 0.471535 0 1.22347)
(1.92416 -0.453736 0 0.459932 0 1.19701)
(1.89029 -0.445214 0 0.449742 0 1.17331)
(1.86164 -0.438252 0 0.44097 0 1.15268)
(1.83896 -0.432972 0 0.433912 0 1.13612)
(1.82117 -0.428641 0 0.428104 0 1.12237)
(1.80466 -0.42474 0 0.422989 0 1.11029)
(1.79309 -0.422205 0 0.419392 0 1.10109)
(1.77934 -0.418361 0 0.414696 0 1.09104)
(1.77401 -0.418989 0 0.413871 0 1.0863)
(1.52344 -0.0379096 0 1.46191 0 1.51644)
(1.578 -0.141083 0 1.19699 0 1.51298)
(1.59297 -0.192972 0 0.943717 0 1.4613)
(1.58111 -0.213916 0 0.791863 0 1.4054)
(1.55693 -0.224334 0 0.694776 0 1.35245)
(1.53235 -0.231717 0 0.628741 0 1.3072)
(1.50962 -0.23785 0 0.58088 0 1.26871)
(1.48873 -0.243062 0 0.544263 0 1.23505)
(1.47086 -0.247778 0 0.515599 0 1.20651)
(1.45486 -0.251745 0 0.492284 0 1.18098)
(1.44223 -0.255753 0 0.473477 0 1.16008)
(1.43019 -0.258722 0 0.457117 0 1.1399)
(1.42211 -0.262621 0 0.444489 0 1.12513)
(1.4137 -0.264655 0 0.431987 0 1.10849)
(1.4088 -0.268694 0 0.424192 0 1.09893)
(1.40339 -0.269497 0 0.413172 0 1.08433)
(1.39939 -0.273264 0 0.409366 0 1.07867)
(1.39443 -0.272563 0 0.398848 0 1.06436)
(1.51181 -0.00788079 0 1.49346 0 1.51042)
(1.53549 -0.0360168 0 1.38413 0 1.51934)
(1.54926 -0.0631038 0 1.23405 0 1.50758)
(1.54705 -0.0823855 0 1.1154 0 1.48423)
(1.53465 -0.0968068 0 1.02222 0 1.4559)
(1.51851 -0.108872 0 0.947652 0 1.42712)
(1.50134 -0.119434 0 0.88702 0 1.39971)
(1.48398 -0.128745 0 0.836736 0 1.37378)
(1.46767 -0.137196 0 0.794565 0 1.35014)
(1.45233 -0.144763 0 0.758557 0 1.32816)
(1.43862 -0.151887 0 0.727751 0 1.30865)
(1.42585 -0.158131 0 0.700617 0 1.29012)
(1.41461 -0.164305 0 0.677541 0 1.27438)
(1.40479 -0.169402 0 0.656007 0 1.25859)
(1.39476 -0.174784 0 0.63931 0 1.24645)
(1.38976 -0.178833 0 0.619635 0 1.23213)
(1.37517 -0.183134 0 0.612439 0 1.22468)
(1.38913 -0.185919 0 0.582138 0 1.20888)
(1.5116 -0.00601974 0 1.49403 0 1.51117)
(1.52774 -0.016236 0 1.42122 0 1.52217)
(1.54107 -0.0302021 0 1.31212 0 1.5241)
(1.54455 -0.0430921 0 1.21285 0 1.51625)
(1.54026 -0.0537924 0 1.12923 0 1.50247)
(1.53184 -0.0631224 0 1.05895 0 1.48596)
(1.5213 -0.0715402 0 0.999736 0 1.46855)
(1.5096 -0.0791615 0 0.949357 0 1.45095)
(1.4977 -0.0861998 0 0.906113 0 1.43391)
(1.48592 -0.0926514 0 0.868592 0 1.41749)
(1.47468 -0.0987126 0 0.835899 0 1.40213)
(1.46394 -0.104235 0 0.806987 0 1.38743)
(1.45385 -0.109516 0 0.7817 0 1.37406)
(1.44465 -0.114175 0 0.758736 0 1.3611)
(1.43546 -0.118703 0 0.739111 0 1.34974)
(1.42851 -0.122457 0 0.7197 0 1.33817)
(1.41891 -0.125977 0 0.705789 0 1.32908)
(1.41564 -0.128857 0 0.685919 0 1.31833)
(1.50983 -0.00439407 0 1.49831 0 1.50972)
(1.52115 -0.00870478 0 1.44934 0 1.51894)
(1.53287 -0.0152855 0 1.37317 0 1.52498)
(1.53876 -0.0226517 0 1.29833 0 1.52442)
(1.53913 -0.0295777 0 1.23154 0 1.51892)
(1.5359 -0.0361631 0 1.17261 0 1.51044)
(1.5304 -0.0424975 0 1.12081 0 1.50029)
(1.5234 -0.0485016 0 1.0752 0 1.4892)
(1.5156 -0.0542027 0 1.03484 0 1.47778)
(1.50741 -0.059569 0 0.99897 0 1.46629)
(1.49916 -0.0646598 0 0.966987 0 1.45507)
(1.49096 -0.0694116 0 0.938252 0 1.44409)
(1.48296 -0.0739146 0 0.912481 0 1.43365)
(1.47534 -0.0780135 0 0.889058 0 1.42352)
(1.46784 -0.0818332 0 0.86808 0 1.41411)
(1.46121 -0.0851915 0 0.848447 0 1.40492)
(1.45437 -0.0881053 0 0.831498 0 1.39685)
(1.44944 -0.0908262 0 0.81314 0 1.3886)
(1.50979 -0.00406847 0 1.49851 0 1.5098)
(1.51871 -0.00575562 0 1.46037 0 1.51781)
(1.52878 -0.00863321 0 1.40193 0 1.52492)
(1.53538 -0.0126392 0 1.34143 0 1.52776)
(1.53811 -0.0168512 0 1.28482 0 1.52679)
(1.53791 -0.0211316 0 1.23319 0 1.52311)
(1.53558 -0.0254472 0 1.18664 0 1.5176)
(1.53172 -0.0296883 0 1.14482 0 1.51087)
(1.52686 -0.0338192 0 1.10721 0 1.50341)
(1.52134 -0.0378008 0 1.07331 0 1.49552)
(1.51546 -0.0416313 0 1.04269 0 1.48749)
(1.50938 -0.0452669 0 1.01492 0 1.47941)
(1.50324 -0.0487163 0 0.9897 0 1.47147)
(1.49718 -0.0519033 0 0.966673 0 1.46366)
(1.49119 -0.0548334 0 0.945679 0 1.45616)
(1.48556 -0.057456 0 0.926219 0 1.44889)
(1.47996 -0.059735 0 0.908535 0 1.44208)
(1.47503 -0.0619342 0 0.890819 0 1.43534)
(1.50944 -0.00329009 0 1.49943 0 1.50951)
(1.51647 -0.00423898 0 1.46901 0 1.51619)
(1.5248 -0.00523452 0 1.42385 0 1.52294)
(1.53113 -0.0070393 0 1.37555 0 1.52704)
(1.53478 -0.009255 0 1.32891 0 1.52834)
(1.53617 -0.0117736 0 1.28528 0 1.52742)
(1.53577 -0.014527 0 1.2451 0 1.52484)
(1.53398 -0.0173913 0 1.2083 0 1.52104)
(1.53119 -0.02029 0 1.17465 0 1.5164)
(1.52768 -0.0231662 0 1.14386 0 1.51119)
(1.52368 -0.0259848 0 1.11567 0 1.50563)
(1.51936 -0.0287007 0 1.08981 0 1.49986)
(1.51483 -0.0312885 0 1.06605 0 1.49401)
(1.51024 -0.0337012 0 1.04415 0 1.48815)
(1.50564 -0.0359118 0 1.02392 0 1.4824)
(1.50118 -0.0379124 0 1.0051 0 1.47678)
(1.4969 -0.0396637 0 0.987612 0 1.47144)
(1.49278 -0.0414085 0 0.970744 0 1.46619)
(1.50953 -0.00296003 0 1.4993 0 1.50963)
(1.51546 -0.00354697 0 1.47333 0 1.5155)
(1.5224 -0.00360328 0 1.43683 0 1.52164)
(1.52821 -0.00417849 0 1.39687 0 1.52617)
(1.53219 -0.00517825 0 1.35721 0 1.52868)
(1.53446 -0.00653779 0 1.31929 0 1.52944)
(1.53527 -0.0081855 0 1.28372 0 1.52877)
(1.53486 -0.0100114 0 1.25065 0 1.52697)
(1.53352 -0.0119368 0 1.22002 0 1.52433)
(1.53147 -0.0139038 0 1.19169 0 1.52106)
(1.52888 -0.0158681 0 1.16548 0 1.51735)
(1.52591 -0.0177868 0 1.14123 0 1.51333)
(1.52267 -0.0196247 0 1.11876 0 1.50912)
(1.51927 -0.0213471 0 1.09789 0 1.50481)
(1.51578 -0.0229269 0 1.07846 0 1.50047)
(1.51231 -0.0243657 0 1.0603 0 1.49618)
(1.50882 -0.0256805 0 1.04332 0 1.49198)
(1.50522 -0.026989 0 1.02728 0 1.48784)
(1.50947 -0.00238465 0 1.4995 0 1.50959)
(1.51447 -0.00298005 0 1.47711 0 1.5147)
(1.52022 -0.00264472 0 1.44714 0 1.52011)
(1.52535 -0.00247668 0 1.41397 0 1.52454)
(1.52924 -0.00262579 0 1.38043 0 1.52755)
(1.53185 -0.00311789 0 1.34783 0 1.52919)
(1.53329 -0.00391391 0 1.3168 0 1.52966)
(1.53372 -0.00492875 0 1.28758 0 1.52914)
(1.53333 -0.00608914 0 1.2602 0 1.52785)
(1.53228 -0.0073365 0 1.2346 0 1.52596)
(1.53073 -0.00862234 0 1.21071 0 1.52361)
(1.52878 -0.00990351 0 1.18839 0 1.52092)
(1.52654 -0.0111431 0 1.16754 0 1.51798)
(1.52411 -0.0123125 0 1.14802 0 1.51489)
(1.52156 -0.0133901 0 1.12972 0 1.51172)
(1.51894 -0.0143826 0 1.11253 0 1.50852)
(1.51628 -0.0152954 0 1.09637 0 1.50537)
(1.51329 -0.0162545 0 1.0813 0 1.50222)
(1.50951 -0.00207639 0 1.49943 0 1.50965)
(1.51395 -0.00268001 0 1.47933 0 1.51429)
(1.51881 -0.00218493 0 1.45392 0 1.51909)
(1.52331 -0.00163686 0 1.42573 0 1.52328)
(1.52696 -0.00130232 0 1.39681 0 1.52646)
(1.52968 -0.00126073 0 1.36828 0 1.5286)
(1.53147 -0.00149782 0 1.34076 0 1.52979)
(1.53243 -0.0019517 0 1.31453 0 1.53015)
(1.53269 -0.00256114 0 1.2897 0 1.52981)
(1.53237 -0.00327368 0 1.26628 0 1.52892)
(1.53158 -0.00404411 0 1.24423 0 1.52759)
(1.5304 -0.00483345 0 1.22348 0 1.5259)
(1.52894 -0.00560876 0 1.20396 0 1.52395)
(1.52726 -0.00634747 0 1.18558 0 1.52182)
(1.52542 -0.00703607 0 1.16826 0 1.51956)
(1.52346 -0.00768479 0 1.15193 0 1.51722)
(1.52131 -0.00832592 0 1.13658 0 1.51485)
(1.5188 -0.00899559 0 1.12233 0 1.51247)
(1.50948 -0.00163645 0 1.49956 0 1.50962)
(1.51342 -0.00226791 0 1.48141 0 1.51383)
(1.51754 -0.00177545 0 1.45955 0 1.51807)
(1.52144 -0.00104749 0 1.43541 0 1.52191)
(1.52476 -0.000407222 0 1.41041 0 1.52503)
(1.52738 1.60057e-05 0 1.38548 0 1.52737)
(1.5293 0.000202756 0 1.36117 0 1.52895)
(1.53054 0.00018744 0 1.33777 0 1.52984)
(1.5312 1.57736e-05 0 1.31541 0 1.53013)
(1.53135 -0.000267777 0 1.29414 0 1.52993)
(1.53109 -0.000622782 0 1.27396 0 1.52932)
(1.53048 -0.00101441 0 1.25484 0 1.52838)
(1.5296 -0.00141389 0 1.23674 0 1.52718)
(1.5285 -0.00180247 0 1.21959 0 1.52578)
(1.52723 -0.00216979 0 1.20334 0 1.52424)
(1.5258 -0.00252474 0 1.18797 0 1.5226)
(1.52416 -0.00287994 0 1.1735 0 1.52091)
(1.52208 -0.00331554 0 1.1601 0 1.51915)
(1.50945 -0.00140006 0 1.49965 0 1.5096)
(1.51308 -0.00203128 0 1.48272 0 1.51355)
(1.51672 -0.0015818 0 1.46323 0 1.5174)
(1.52016 -0.000810362 0 1.44189 0 1.52094)
(1.52317 -4.55293e-05 0 1.4197 0 1.52394)
(1.52566 0.000563536 0 1.39739 0 1.52633)
(1.52758 0.000978765 0 1.37545 0 1.52811)
(1.52897 0.001216 0 1.35414 0 1.52931)
(1.52986 0.00130835 0 1.33362 0 1.53)
(1.53031 0.00129192 0 1.31396 0 1.53025)
(1.5304 0.00120088 0 1.29519 0 1.53013)
(1.53017 0.00106463 0 1.2773 0 1.52971)
(1.52969 0.000906799 0 1.26027 0 1.52903)
(1.529 0.000741682 0 1.24407 0 1.52815)
(1.52812 0.000575277 0 1.22867 0 1.52713)
(1.52705 0.000398573 0 1.21407 0 1.52599)
(1.52572 0.000189829 0 1.20033 0 1.52475)
(1.52398 -6.21613e-05 0 1.18758 0 1.52345)
(1.50938 -0.00111348 0 1.49983 0 1.50953)
(1.51274 -0.00170293 0 1.48402 0 1.51324)
(1.51595 -0.00131654 0 1.46646 0 1.51674)
(1.51898 -0.000557012 0 1.44746 0 1.51998)
(1.5217 0.000267758 0 1.42768 0 1.52281)
(1.52401 0.000998831 0 1.40767 0 1.52517)
(1.52587 0.00158189 0 1.38783 0 1.52703)
(1.5273 0.0020153 0 1.36844 0 1.52842)
(1.52832 0.00231941 0 1.34962 0 1.52938)
(1.52898 0.00252151 0 1.33148 0 1.52995)
(1.52931 0.00264923 0 1.31405 0 1.53018)
(1.52937 0.00272693 0 1.29735 0 1.53014)
(1.52919 0.00277387 0 1.28138 0 1.52987)
(1.5288 0.00280234 0 1.26611 0 1.5294)
(1.52823 0.00281718 0 1.25156 0 1.52878)
(1.52746 0.00281558 0 1.23773 0 1.52804)
(1.52643 0.00278974 0 1.22469 0 1.5272)
(1.52497 0.00269456 0 1.21257 0 1.52626)
(1.50929 -0.000915652 0 1.50005 0 1.50945)
(1.51242 -0.00145796 0 1.48516 0 1.51295)
(1.51528 -0.00114357 0 1.46925 0 1.51616)
(1.51795 -0.000444393 0 1.45229 0 1.51912)
(1.52036 0.0003673 0 1.43466 0 1.52176)
(1.52246 0.00113734 0 1.41676 0 1.52404)
(1.52423 0.00180339 0 1.39888 0 1.52593)
(1.52566 0.00235143 0 1.38126 0 1.52743)
(1.52676 0.00279083 0 1.36404 0 1.52858)
(1.52756 0.00314001 0 1.34733 0 1.52941)
(1.52809 0.00341932 0 1.33117 0 1.52994)
(1.52837 0.0036469 0 1.3156 0 1.53022)
(1.52844 0.00383687 0 1.30063 0 1.53029)
(1.52832 0.00399699 0 1.28628 0 1.53018)
(1.52801 0.00412928 0 1.27255 0 1.52992)
(1.5275 0.0042294 0 1.25947 0 1.52953)
(1.52673 0.00428627 0 1.24709 0 1.52903)
(1.52561 0.00432937 0 1.23553 0 1.52845)
(1.50918 -0.000610498 0 1.50035 0 1.50934)
(1.51206 -0.000998608 0 1.48641 0 1.51261)
(1.51459 -0.000726163 0 1.47198 0 1.51553)
(1.51691 -0.000101809 0 1.45685 0 1.51821)
(1.51903 0.000664612 0 1.44117 0 1.52064)
(1.52091 0.00143925 0 1.4252 0 1.52279)
(1.52255 0.00215809 0 1.40917 0 1.52464)
(1.52392 0.00279752 0 1.39325 0 1.52619)
(1.52504 0.00335626 0 1.37759 0 1.52746)
(1.52592 0.00384349 0 1.36228 0 1.52845)
(1.52658 0.00427194 0 1.34738 0 1.52921)
(1.52703 0.00465421 0 1.33295 0 1.52974)
(1.5273 0.00500026 0 1.319 0 1.53008)
(1.52739 0.00531705 0 1.30557 0 1.53025)
(1.52729 0.00560693 0 1.29268 0 1.53028)
(1.527 0.00586808 0 1.28036 0 1.53018)
(1.52645 0.00609432 0 1.26868 0 1.52997)
(1.52558 0.00623487 0 1.25773 0 1.52965)
(1.50903 -0.000451387 0 1.50069 0 1.5092)
(1.51169 -0.000734544 0 1.48754 0 1.51226)
(1.51398 -0.000521438 0 1.47423 0 1.51497)
(1.51603 -1.61652e-05 0 1.46052 0 1.51743)
(1.5179 0.000628 0 1.44642 0 1.51966)
(1.51958 0.00130548 0 1.43205 0 1.52168)
(1.52107 0.00195972 0 1.41756 0 1.52346)
(1.52237 0.00256507 0 1.40309 0 1.52501)
(1.52348 0.00311437 0 1.38876 0 1.52634)
(1.52439 0.00360985 0 1.37466 0 1.52744)
(1.52512 0.00405758 0 1.36086 0 1.52833)
(1.52569 0.00446404 0 1.34742 0 1.52904)
(1.52609 0.00483457 0 1.33438 0 1.52958)
(1.52634 0.00517231 0 1.32176 0 1.52997)
(1.52642 0.00547889 0 1.3096 0 1.53023)
(1.52633 0.0057567 0 1.29794 0 1.53037)
(1.52603 0.00600764 0 1.28681 0 1.5304)
(1.52547 0.00627772 0 1.2763 0 1.53034)
(1.50889 -0.000117953 0 1.50103 0 1.50906)
(1.51135 -0.000110406 0 1.48859 0 1.51192)
(1.51343 0.000169308 0 1.47618 0 1.51444)
(1.51527 0.000635147 0 1.46355 0 1.51671)
(1.51694 0.00120741 0 1.45063 0 1.51879)
(1.51846 0.00182369 0 1.43748 0 1.52068)
(1.51982 0.00244636 0 1.42418 0 1.52239)
(1.52104 0.00305514 0 1.41084 0 1.52391)
(1.5221 0.00364103 0 1.39756 0 1.52524)
(1.52301 0.00420152 0 1.38444 0 1.52639)
(1.52377 0.00473706 0 1.37153 0 1.52736)
(1.52439 0.00524905 0 1.35891 0 1.52817)
(1.52487 0.00573816 0 1.34661 0 1.52883)
(1.5252 0.00620398 0 1.33468 0 1.52935)
(1.52537 0.00664378 0 1.32315 0 1.52973)
(1.52539 0.00705097 0 1.31206 0 1.53)
(1.52522 0.00741596 0 1.30145 0 1.53016)
(1.52485 0.00769309 0 1.29137 0 1.53022)
(1.50878 -3.34818e-05 0 1.50131 0 1.50894)
(1.5111 0.000102223 0 1.4893 0 1.51167)
(1.51308 0.000352464 0 1.47737 0 1.51408)
(1.51483 0.000677519 0 1.4653 0 1.51627)
(1.51641 0.00104994 0 1.45301 0 1.51826)
(1.51785 0.00144855 0 1.44052 0 1.52009)
(1.51915 0.00185928 0 1.42789 0 1.52175)
(1.52033 0.00227296 0 1.41519 0 1.52324)
(1.52137 0.00268391 0 1.40253 0 1.52457)
(1.52229 0.00308871 0 1.38997 0 1.52574)
(1.52308 0.00348523 0 1.37758 0 1.52674)
(1.52374 0.00387214 0 1.36543 0 1.52761)
(1.52428 0.00424873 0 1.35355 0 1.52833)
(1.5247 0.00461542 0 1.34199 0 1.52892)
(1.52499 0.00497343 0 1.33078 0 1.52939)
(1.52514 0.00532876 0 1.31995 0 1.52975)
(1.52516 0.00568751 0 1.30954 0 1.53001)
(1.52499 0.00608888 0 1.29958 0 1.53017)
(1.50878 0.000458236 0 1.50126 0 1.50895)
(1.51112 0.00111482 0 1.48916 0 1.5117)
(1.51312 0.00160957 0 1.47712 0 1.51413)
(1.51489 0.00202311 0 1.46491 0 1.51633)
(1.51648 0.0024119 0 1.45247 0 1.51833)
(1.51793 0.00281044 0 1.43983 0 1.52016)
(1.51924 0.00323665 0 1.42705 0 1.52181)
(1.5204 0.00369672 0 1.41422 0 1.52329)
(1.52143 0.00418957 0 1.40143 0 1.5246)
(1.52232 0.00471 0 1.38876 0 1.52574)
(1.52307 0.0052506 0 1.37629 0 1.52671)
(1.52369 0.00580278 0 1.36406 0 1.52752)
(1.52418 0.00635727 0 1.35212 0 1.5282)
(1.52455 0.00690414 0 1.3405 0 1.52874)
(1.52481 0.00743261 0 1.32922 0 1.52916)
(1.52496 0.00792947 0 1.31831 0 1.52947)
(1.52502 0.00837999 0 1.30778 0 1.52969)
(1.52499 0.00875118 0 1.29762 0 1.52984)
(1.50906 0.000507851 0 1.50075 0 1.50919)
(1.51177 0.00118455 0 1.48773 0 1.51225)
(1.51409 0.00152971 0 1.47463 0 1.51494)
(1.51618 0.00168564 0 1.46119 0 1.51737)
(1.51808 0.00176438 0 1.4474 0 1.51959)
(1.51981 0.00184214 0 1.43337 0 1.52159)
(1.52135 0.00196076 0 1.41922 0 1.52337)
(1.5227 0.00213724 0 1.40509 0 1.52492)
(1.52387 0.0023735 0 1.39109 0 1.52626)
(1.52486 0.00266303 0 1.37731 0 1.52738)
(1.52567 0.00299524 0 1.36381 0 1.5283)
(1.52632 0.00335785 0 1.35065 0 1.52903)
(1.52681 0.00373899 0 1.33786 0 1.52958)
(1.52715 0.00412794 0 1.32549 0 1.52998)
(1.52734 0.00451774 0 1.31355 0 1.53023)
(1.52739 0.00490617 0 1.30205 0 1.53034)
(1.52729 0.00530089 0 1.29103 0 1.53033)
(1.52703 0.00573736 0 1.28048 0 1.53019)
(1.50921 0.000951868 0 1.50029 0 1.50935)
(1.51225 0.00196665 0 1.48608 0 1.51271)
(1.51497 0.00236884 0 1.47132 0 1.51574)
(1.51748 0.00248868 0 1.45587 0 1.51851)
(1.51975 0.00252642 0 1.4399 0 1.521)
(1.52178 0.00259525 0 1.42366 0 1.52319)
(1.52354 0.00274722 0 1.40737 0 1.52507)
(1.52503 0.00299638 0 1.39122 0 1.52664)
(1.52625 0.00333775 0 1.37535 0 1.52791)
(1.52722 0.00375845 0 1.35984 0 1.5289)
(1.52795 0.00424343 0 1.34478 0 1.52963)
(1.52846 0.00477856 0 1.3302 0 1.53013)
(1.52878 0.00535207 0 1.31613 0 1.53042)
(1.52891 0.00595562 0 1.3026 0 1.53052)
(1.52889 0.00658322 0 1.28959 0 1.53047)
(1.52874 0.00723133 0 1.27711 0 1.53028)
(1.52848 0.00789187 0 1.26514 0 1.52998)
(1.52819 0.00853216 0 1.25364 0 1.52962)
(1.50943 0.00112364 0 1.49987 0 1.50954)
(1.51288 0.00219031 0 1.48433 0 1.51323)
(1.51612 0.00248483 0 1.46734 0 1.51667)
(1.51918 0.00247887 0 1.44911 0 1.51983)
(1.52195 0.00241884 0 1.43017 0 1.52261)
(1.52434 0.0024346 0 1.41101 0 1.52494)
(1.52633 0.00258124 0 1.39199 0 1.52682)
(1.52791 0.0028668 0 1.37334 0 1.52826)
(1.52911 0.00327776 0 1.35521 0 1.5293)
(1.52998 0.00379302 0 1.33767 0 1.52998)
(1.53053 0.00438974 0 1.32077 0 1.53033)
(1.53082 0.00504579 0 1.30454 0 1.53042)
(1.53088 0.00574067 0 1.28898 0 1.53027)
(1.53074 0.00645478 0 1.27408 0 1.52992)
(1.53043 0.00717012 0 1.25984 0 1.5294)
(1.52997 0.0078689 0 1.24625 0 1.52873)
(1.52937 0.00854242 0 1.23329 0 1.52794)
(1.52855 0.00921708 0 1.22099 0 1.52699)
(1.50956 0.00176964 0 1.49946 0 1.50967)
(1.51359 0.00306599 0 1.48167 0 1.51387)
(1.51768 0.00339619 0 1.46089 0 1.51797)
(1.52155 0.00353142 0 1.43813 0 1.52168)
(1.52492 0.00373446 0 1.41455 0 1.52477)
(1.52768 0.00409879 0 1.39092 0 1.52717)
(1.52982 0.00464397 0 1.36774 0 1.5289)
(1.53135 0.00534714 0 1.3453 0 1.53)
(1.53235 0.00617415 0 1.32375 0 1.53055)
(1.53288 0.00709326 0 1.30316 0 1.53064)
(1.53301 0.00807749 0 1.28355 0 1.53033)
(1.53279 0.00910487 0 1.26491 0 1.52969)
(1.53227 0.0101588 0 1.24723 0 1.52877)
(1.53151 0.0112289 0 1.23046 0 1.52762)
(1.53054 0.0123112 0 1.21459 0 1.52629)
(1.5294 0.0134127 0 1.19956 0 1.5248)
(1.52812 0.0145444 0 1.18534 0 1.5232)
(1.52687 0.0156995 0 1.17182 0 1.52159)
(1.50959 0.00202524 0 1.49947 0 1.50966)
(1.51425 0.00341368 0 1.4792 0 1.51433)
(1.51941 0.00393188 0 1.45331 0 1.51914)
(1.52421 0.00442417 0 1.42467 0 1.52328)
(1.5281 0.00507432 0 1.39544 0 1.52635)
(1.53098 0.00593653 0 1.36673 0 1.52833)
(1.5329 0.00701842 0 1.33911 0 1.52933)
(1.53398 0.0082805 0 1.3128 0 1.5295)
(1.53434 0.00967265 0 1.28789 0 1.52898)
(1.53412 0.0111531 0 1.26438 0 1.52791)
(1.53342 0.012689 0 1.24222 0 1.52641)
(1.53234 0.0142544 0 1.22135 0 1.52457)
(1.53097 0.0158299 0 1.20169 0 1.52247)
(1.52938 0.0173987 0 1.18316 0 1.52017)
(1.52764 0.018944 0 1.16569 0 1.51775)
(1.5258 0.0204375 0 1.1492 0 1.51524)
(1.52392 0.0218416 0 1.13362 0 1.5127)
(1.52185 0.0231224 0 1.11897 0 1.51006)
(1.50979 0.00302362 0 1.4989 0 1.50984)
(1.51583 0.00467656 0 1.47339 0 1.51561)
(1.5228 0.00596374 0 1.43823 0 1.52153)
(1.52878 0.00768213 0 1.39971 0 1.52598)
(1.5331 0.00967122 0 1.36127 0 1.52859)
(1.53579 0.0118189 0 1.32436 0 1.52954)
(1.53707 0.014089 0 1.28956 0 1.52913)
(1.53717 0.0164278 0 1.25707 0 1.52763)
(1.53635 0.0187841 0 1.22687 0 1.5253)
(1.5348 0.0211264 0 1.19885 0 1.52235)
(1.53271 0.0234355 0 1.17285 0 1.51895)
(1.53021 0.0256967 0 1.14871 0 1.51522)
(1.52742 0.0278991 0 1.12628 0 1.51129)
(1.52441 0.0300341 0 1.10542 0 1.50721)
(1.52122 0.0320949 0 1.08601 0 1.50304)
(1.51791 0.0340881 0 1.06793 0 1.49882)
(1.51442 0.0360354 0 1.05113 0 1.49455)
(1.51104 0.0380182 0 1.03549 0 1.49039)
(1.50952 0.00321175 0 1.4995 0 1.5095)
(1.51713 0.00615701 0 1.46762 0 1.5162)
(1.5263 0.0095962 0 1.41937 0 1.52273)
(1.53309 0.0135214 0 1.36874 0 1.52616)
(1.53686 0.0175039 0 1.32044 0 1.52656)
(1.53812 0.0214444 0 1.27564 0 1.52463)
(1.53746 0.0253772 0 1.23451 0 1.52104)
(1.53537 0.0292653 0 1.19689 0 1.51626)
(1.53225 0.03305 0 1.16251 0 1.5107)
(1.52842 0.0367019 0 1.13106 0 1.50464)
(1.52411 0.0402133 0 1.10225 0 1.49829)
(1.5195 0.0435816 0 1.07579 0 1.49179)
(1.51472 0.04681 0 1.05143 0 1.48525)
(1.50987 0.049905 0 1.02896 0 1.47877)
(1.50505 0.052875 0 1.00819 0 1.47239)
(1.50032 0.0557262 0 0.988932 0 1.46618)
(1.49592 0.0584443 0 0.970998 0 1.46025)
(1.49167 0.0608582 0 0.954371 0 1.45457)
(1.51082 0.00498952 0 1.49634 0 1.51062)
(1.52253 0.0112698 0 1.44728 0 1.5197)
(1.53508 0.0202888 0 1.37186 0 1.52587)
(1.54209 0.0292152 0 1.2973 0 1.52587)
(1.54385 0.0370317 0 1.23004 0 1.52121)
(1.5418 0.043805 0 1.17057 0 1.5135)
(1.53728 0.0499146 0 1.11824 0 1.50397)
(1.53118 0.0555315 0 1.07217 0 1.49346)
(1.52412 0.0607031 0 1.03149 0 1.4825)
(1.51654 0.0654874 0 0.99538 0 1.47144)
(1.50872 0.0699436 0 0.963152 0 1.46049)
(1.50088 0.0741105 0 0.934242 0 1.44982)
(1.49316 0.0780135 0 0.908187 0 1.43949)
(1.48566 0.081679 0 0.884608 0 1.42957)
(1.47836 0.0851117 0 0.863172 0 1.42005)
(1.4714 0.0883321 0 0.843638 0 1.411)
(1.46431 0.0912969 0 0.825731 0 1.40214)
(1.45746 0.0941168 0 0.809627 0 1.39379)
(1.51 0.00556291 0 1.4981 0 1.5093)
(1.5277 0.0254574 0 1.42338 0 1.51813)
(1.54389 0.0465856 0 1.31196 0 1.51718)
(1.54825 0.0624036 0 1.21466 0 1.50611)
(1.54438 0.0746476 0 1.13333 0 1.48972)
(1.53541 0.0845405 0 1.06495 0 1.47072)
(1.52416 0.0931651 0 1.0068 0 1.45108)
(1.51195 0.10084 0 0.957044 0 1.43176)
(1.49942 0.107679 0 0.914112 0 1.41315)
(1.48703 0.113827 0 0.876705 0 1.39546)
(1.47502 0.119413 0 0.843848 0 1.37875)
(1.46363 0.124538 0 0.814776 0 1.36311)
(1.45283 0.129242 0 0.788876 0 1.34844)
(1.44278 0.133608 0 0.76569 0 1.33481)
(1.43336 0.137667 0 0.744759 0 1.32201)
(1.42464 0.14145 0 0.725929 0 1.3102)
(1.41674 0.145123 0 0.708607 0 1.29908)
(1.41023 0.148323 0 0.693466 0 1.28946)
(1.51865 0.028365 0 1.47424 0 1.51456)
(1.56412 0.112021 0 1.27058 0 1.51896)
(1.58667 0.162388 0 1.05052 0 1.48931)
(1.58149 0.184497 0 0.902887 0 1.44758)
(1.56502 0.196157 0 0.801494 0 1.40547)
(1.54327 0.203374 0 0.728669 0 1.3654)
(1.52258 0.209484 0 0.674165 0 1.33031)
(1.50318 0.214823 0 0.631991 0 1.29944)
(1.48525 0.219612 0 0.598214 0 1.272)
(1.46901 0.223968 0 0.570466 0 1.24759)
(1.45427 0.227904 0 0.547281 0 1.22567)
(1.44131 0.231532 0 0.527643 0 1.20622)
(1.42953 0.234829 0 0.510758 0 1.18853)
(1.41944 0.237894 0 0.496156 0 1.17291)
(1.4101 0.24071 0 0.483355 0 1.15844)
(1.40233 0.243304 0 0.472094 0 1.14577)
(1.39477 0.245761 0 0.462128 0 1.13373)
(1.38748 0.247765 0 0.452994 0 1.1227)
(1.59295 0.292544 0 1.39559 0 1.521)
(1.91798 0.579352 0 0.967325 0 1.53352)
(2.07148 0.586087 0 0.732465 0 1.49029)
(2.10687 0.553476 0 0.628573 0 1.43742)
(2.09686 0.526195 0 0.574443 0 1.38866)
(2.06971 0.506104 0 0.541323 0 1.34609)
(2.03646 0.490699 0 0.518317 0 1.30931)
(2.0023 0.478304 0 0.500732 0 1.27733)
(1.96928 0.467883 0 0.486451 0 1.24923)
(1.93821 0.458857 0 0.47441 0 1.22431)
(1.90929 0.450884 0 0.46401 0 1.202)
(1.88251 0.443755 0 0.454888 0 1.18192)
(1.85782 0.437329 0 0.446792 0 1.16375)
(1.83495 0.431497 0 0.439545 0 1.14722)
(1.814 0.426172 0 0.43301 0 1.13218)
(1.79438 0.421319 0 0.427107 0 1.11834)
(1.7766 0.41678 0 0.421676 0 1.10575)
(1.7595 0.412595 0 0.416834 0 1.09392)
(0.00447574 0.0012868 0 0.0168959 0 0.0133963)
(0.0118335 -6.62169e-05 0 0.0260733 0 0.027546)
(0.0194443 -0.00119612 0 0.0345865 0 0.0396815)
(0.0259824 -0.00389157 0 0.0392468 0 0.0469263)
(0.0321908 -0.0067859 0 0.0420713 0 0.0522174)
(0.0379928 -0.00868405 0 0.0423087 0 0.0559188)
(0.0431538 -0.010002 0 0.0416601 0 0.0585399)
(0.0476444 -0.0110293 0 0.0405989 0 0.0603499)
(0.0516198 -0.0118935 0 0.0394235 0 0.0616339)
(0.055185 -0.0126798 0 0.038186 0 0.0625392)
(0.0584543 -0.0134132 0 0.0369277 0 0.0631906)
(0.0615034 -0.0140968 0 0.0356479 0 0.06366)
(0.0643893 -0.0147172 0 0.0343605 0 0.0640031)
(0.0671401 -0.0152598 0 0.033077 0 0.0642531)
(0.0697685 -0.0157133 0 0.0318155 0 0.0644333)
(0.0722731 -0.0160724 0 0.0305901 0 0.064556)
(0.0746463 -0.0163402 0 0.0294145 0 0.0646283)
(0.0768744 -0.0165165 0 0.0282922 0 0.0646442)
(0.0789476 -0.0166218 0 0.0272446 0 0.0646245)
(0.0808497 -0.0166277 0 0.026228 0 0.0644968)
(0.0824648 -0.0166437 0 0.0253975 0 0.064419)
(0.0843405 -0.0164436 0 0.024246 0 0.0639569)
(0.085052 -0.016326 0 0.0236977 0 0.0636591)
(0.0856585 -0.016132 0 0.0230534 0 0.0631851)
(0.0859844 -0.0158532 0 0.0223403 0 0.0624631)
(0.0859259 -0.0155301 0 0.0216446 0 0.0615734)
(0.0854958 -0.0151459 0 0.020939 0 0.0605111)
(0.0846922 -0.0146836 0 0.0201994 0 0.0592632)
(0.0835011 -0.0141251 0 0.019407 0 0.0578119)
(0.0819039 -0.0134539 0 0.0185514 0 0.0561418)
(0.0798955 -0.0126625 0 0.0176345 0 0.0542527)
(0.0775124 -0.0117595 0 0.0166715 0 0.0521759)
(0.0748682 -0.0107705 0 0.015692 0 0.0499925)
(0.0721634 -0.0097338 0 0.0147355 0 0.0478356)
(0.0697114 -0.00869263 0 0.0138581 0 0.0459066)
(0.0677759 -0.00767275 0 0.0131014 0 0.0443776)
(0.0668249 -0.00676222 0 0.0125538 0 0.0435263)
(0.0662935 -0.00558385 0 0.0121433 0 0.0431968)
(0.0662932 -0.00486627 0 0.0120291 0 0.0433256)
(0.0666859 -0.00422435 0 0.0120315 0 0.0437642)
(0.0676303 -0.00354768 0 0.0121806 0 0.0446893)
(0.0688688 -0.00303618 0 0.0124347 0 0.0458354)
(0.0702589 -0.00266956 0 0.0127394 0 0.0470514)
(0.071639 -0.00238735 0 0.0130432 0 0.0482021)
(0.0728074 -0.00211966 0 0.0132938 0 0.0491391)
(0.0736643 -0.00179831 0 0.0134545 0 0.0497781)
(0.0739621 -0.00126753 0 0.013446 0 0.0499091)
(0.0736466 -0.000772494 0 0.0133072 0 0.0495865)
(0.0720324 -0.000168366 0 0.012974 0 0.0484625)
(0.0677408 0.000384133 0 0.012354 0 0.0458701)
(0.0615989 0.000854279 0 0.0115079 0 0.0423018)
(0.0558174 0.00118037 0 0.0108467 0 0.0392259)
(0.0531227 0.00164239 0 0.0107697 0 0.0382245)
(0.0551257 0.00289129 0 0.0113432 0 0.0398618)
(0.0595389 0.00447463 0 0.0126596 0 0.0432058)
(0.0667071 0.006283 0 0.0147405 0 0.0485299)
(0.0768432 0.00821293 0 0.0174504 0 0.055841)
(0.0911322 0.010336 0 0.0207645 0 0.0659077)
(0.1075 0.0126055 0 0.0242889 0 0.0773552)
(0.122858 0.014898 0 0.0277074 0 0.0881529)
(0.137863 0.0172137 0 0.0311009 0 0.0987077)
(0.152573 0.019563 0 0.034443 0 0.108992)
(0.167187 0.0220536 0 0.0377162 0 0.119058)
(0.181063 0.0244326 0 0.0408741 0 0.128653)
(0.19447 0.0267369 0 0.0439476 0 0.137914)
(0.207383 0.0289518 0 0.0469274 0 0.146832)
(0.219882 0.0310861 0 0.0498257 0 0.155458)
(0.232012 0.0331458 0 0.0526486 0 0.163825)
(0.243828 0.0351402 0 0.0554062 0 0.17197)
(0.25538 0.0370783 0 0.0581079 0 0.17993)
(0.266715 0.0389694 0 0.0607635 0 0.187737)
(0.277876 0.040822 0 0.0633825 0 0.195424)
(0.288902 0.0426437 0 0.0659737 0 0.203018)
(0.299828 0.0444415 0 0.0685451 0 0.210544)
(0.310685 0.0462212 0 0.0711041 0 0.218025)
(0.321498 0.0479882 0 0.0736571 0 0.22548)
(0.332292 0.0497467 0 0.0762097 0 0.232926)
(0.343086 0.0515004 0 0.078767 0 0.240378)
(0.353897 0.0532525 0 0.0813332 0 0.247847)
(0.364739 0.0550057 0 0.0839122 0 0.255346)
(0.375625 0.0567623 0 0.0865073 0 0.262883)
(0.386566 0.0585241 0 0.0891216 0 0.270468)
(0.39757 0.0602929 0 0.0917579 0 0.278106)
(0.408647 0.0620705 0 0.0944189 0 0.285806)
(0.419804 0.0638583 0 0.0971074 0 0.293575)
(0.431051 0.065658 0 0.0998263 0 0.30142)
(0.442394 0.0674714 0 0.102579 0 0.309348)
(0.453843 0.0693002 0 0.105368 0 0.317368)
(0.465406 0.0711464 0 0.108198 0 0.325488)
(0.477094 0.0730118 0 0.111074 0 0.333717)
(0.488915 0.0748983 0 0.113999 0 0.342067)
(0.500881 0.0768081 0 0.116979 0 0.350547)
(0.513002 0.0787433 0 0.120019 0 0.359171)
(0.525291 0.0807057 0 0.123126 0 0.36795)
(0.537759 0.0826975 0 0.126306 0 0.376899)
(0.55042 0.0847205 0 0.129567 0 0.386034)
(0.563289 0.0867772 0 0.132917 0 0.395373)
(0.57638 0.0888696 0 0.136366 0 0.404933)
(0.58971 0.0910004 0 0.139926 0 0.414736)
(0.603293 0.0931718 0 0.14361 0 0.424804)
(0.617145 0.0953862 0 0.147432 0 0.435161)
(0.631277 0.0976451 0 0.151407 0 0.44583)
(0.645698 0.0999492 0 0.155556 0 0.456836)
(0.660414 0.102298 0 0.159896 0 0.468201)
(0.67542 0.10469 0 0.164451 0 0.479947)
(0.690708 0.107121 0 0.169246 0 0.492092)
(0.706258 0.109586 0 0.174311 0 0.504653)
(0.722037 0.112076 0 0.179679 0 0.517639)
(0.737998 0.114575 0 0.185386 0 0.531053)
(0.754074 0.11706 0 0.191474 0 0.544883)
(0.770175 0.11951 0 0.197987 0 0.559105)
(0.786193 0.121909 0 0.204983 0 0.573682)
(0.802035 0.124255 0 0.21255 0 0.588592)
(0.817733 0.126568 0 0.220812 0 0.603894)
(0.833298 0.128885 0 0.2299 0 0.619645)
(0.848591 0.131186 0 0.239929 0 0.635794)
(0.863441 0.133419 0 0.250984 0 0.65225)
(0.877637 0.13557 0 0.263149 0 0.66889)
(0.890934 0.137618 0 0.276519 0 0.685576)
(0.903164 0.139558 0 0.291207 0 0.70223)
(0.914595 0.141216 0 0.307484 0 0.719141)
(0.924684 0.14244 0 0.325399 0 0.735951)
(0.932904 0.143046 0 0.345034 0 0.752353)
(0.938285 0.142738 0 0.366391 0 0.767756)
(0.939035 0.14083 0 0.389392 0 0.781104)
(0.933326 0.135851 0 0.409078 0 0.788997)
(0.914382 0.122535 0 0.43179 0 0.794804)
(0.894626 0.101843 0 0.453203 0 0.798179)
(0.876578 0.0795599 0 0.474491 0 0.801904)
(0.860233 0.0541745 0 0.494706 0 0.805102)
(0.846625 0.0264776 0 0.513258 0 0.808196)
(0.83652 -0.00298358 0 0.529361 0 0.811186)
(0.830386 -0.0334572 0 0.542447 0 0.814095)
(0.828308 -0.0640318 0 0.551998 0 0.816731)
(0.830163 -0.093749 0 0.557946 0 0.818976)
(0.836538 -0.122802 0 0.561059 0 0.821343)
(0.847154 -0.1531 0 0.563051 0 0.824258)
(0.86724 -0.184989 0 0.555077 0 0.829521)
(0.891341 -0.202658 0 0.532003 0 0.835231)
(0.907878 -0.212678 0 0.517352 0 0.837835)
(0.915948 -0.218234 0 0.507873 0 0.837393)
(0.92095 -0.223067 0 0.497815 0 0.834036)
(0.922426 -0.226741 0 0.488127 0 0.828633)
(0.921161 -0.229553 0 0.478501 0 0.821613)
(0.917678 -0.231754 0 0.468915 0 0.813255)
(0.91269 -0.233642 0 0.459671 0 0.804065)
(0.906995 -0.235522 0 0.451102 0 0.794602)
(0.901386 -0.237656 0 0.44341 0 0.785371)
(0.896256 -0.240146 0 0.43653 0 0.776545)
(0.89194 -0.243023 0 0.430121 0 0.768137)
(0.888773 -0.246116 0 0.423513 0 0.760064)
(0.886484 -0.248961 0 0.415633 0 0.751732)
(0.884413 -0.250876 0 0.405232 0 0.742228)
(0.882017 -0.251229 0 0.391389 0 0.730852)
(0.877592 -0.249084 0 0.373243 0 0.716142)
(0.869483 -0.243743 0 0.350406 0 0.696866)
(0.860702 -0.236024 0 0.324964 0 0.675525)
(0.844059 -0.223824 0 0.296034 0 0.647466)
(0.810749 -0.20497 0 0.262364 0 0.606513)
(0.761014 -0.180419 0 0.22614 0 0.554543)
(0.691918 -0.151745 0 0.189502 0 0.492612)
(0.593479 -0.118039 0 0.150367 0 0.412798)