/*--------------------------------*- C++ -*----------------------------------*\
| =========                 |                                                 |
| \\      /  F ield         | OpenFOAM: The Open Source CFD Toolbox           |
|  \\    /   O peration     | Version:  v1906                                 |
|   \\  /    A nd           | Web:      www.OpenFOAM.com                      |
|    \\/     M anipulation  |                                                 |
\*---------------------------------------------------------------------------*/
FoamFile
{
    version     2.0;
    format      ascii;
    class       volVectorField;
    location    "2000";
    object      U;
}
// * * * * * * * * * * * * * * * * * * * * * * * * * * * * * * * * * * * * * //

dimensions      [0 1 -1 0 0 0 0];


internalField   nonuniform List<vector> 
12225
(
(9.79813 -0.0863221 0)
(9.51347 -0.307473 0)
(9.27221 -0.419744 0)
(9.07714 -0.461203 0)
(8.91702 -0.474576 0)
(8.77732 -0.477953 0)
(8.65243 -0.477412 0)
(8.54045 -0.475081 0)
(8.43981 -0.471782 0)
(8.34909 -0.467862 0)
(8.2674 -0.463422 0)
(8.19296 -0.458406 0)
(8.12514 -0.453201 0)
(8.06363 -0.448069 0)
(8.00923 -0.443286 0)
(7.96298 -0.440025 0)
(7.92663 -0.434049 0)
(7.90717 -0.453735 0)
(10.05 0.146799 0)
(10.0863 0.250771 0)
(10.0598 0.305949 0)
(10.017 0.343323 0)
(9.97417 0.365741 0)
(9.93102 0.378655 0)
(9.8885 0.386417 0)
(9.84774 0.391009 0)
(9.80884 0.393333 0)
(9.77155 0.394062 0)
(9.73605 0.393689 0)
(9.70245 0.392533 0)
(9.67086 0.390634 0)
(9.64103 0.388142 0)
(9.61314 0.38457 0)
(9.58615 0.380955 0)
(9.56253 0.372406 0)
(9.53732 0.366835 0)
(10.0185 0.00426386 0)
(10.0533 -0.0206607 0)
(10.0427 -0.0638262 0)
(10.0195 -0.101925 0)
(9.99787 -0.13302 0)
(9.97734 -0.157242 0)
(9.95775 -0.175414 0)
(9.93948 -0.189232 0)
(9.92232 -0.200035 0)
(9.90611 -0.208674 0)
(9.89071 -0.2156 0)
(9.87637 -0.221217 0)
(9.86293 -0.225836 0)
(9.85082 -0.230065 0)
(9.83945 -0.233994 0)
(9.82958 -0.238998 0)
(9.82053 -0.244017 0)
(9.80507 -0.257991 0)
(10.0096 0.0630314 0)
(10.0374 0.104597 0)
(10.0478 0.125956 0)
(10.0488 0.147321 0)
(10.0469 0.166023 0)
(10.0422 0.181121 0)
(10.0355 0.193329 0)
(10.0283 0.203094 0)
(10.0209 0.210831 0)
(10.0136 0.216974 0)
(10.0064 0.221881 0)
(9.99961 0.225792 0)
(9.99331 0.228775 0)
(9.9877 0.230837 0)
(9.9827 0.231885 0)
(9.97847 0.231677 0)
(9.97496 0.229855 0)
(9.97347 0.225444 0)
(10.0105 0.0166207 0)
(10.0426 0.0212345 0)
(10.0569 0.0117842 0)
(10.0612 -0.00146465 0)
(10.0625 -0.0166921 0)
(10.0618 -0.0320205 0)
(10.0601 -0.0458914 0)
(10.058 -0.0580597 0)
(10.0559 -0.0687663 0)
(10.0536 -0.0782308 0)
(10.0514 -0.0866451 0)
(10.0493 -0.0942203 0)
(10.0475 -0.101201 0)
(10.0458 -0.107914 0)
(10.0446 -0.114593 0)
(10.043 -0.121927 0)
(10.042 -0.129443 0)
(10.0345 -0.140315 0)
(10.0059 0.0365544 0)
(10.0279 0.0671782 0)
(10.0435 0.0812212 0)
(10.054 0.0920999 0)
(10.0623 0.101579 0)
(10.0682 0.110015 0)
(10.0722 0.11778 0)
(10.0751 0.124768 0)
(10.0774 0.130902 0)
(10.0791 0.136237 0)
(10.0806 0.140851 0)
(10.0819 0.144794 0)
(10.0833 0.148058 0)
(10.0847 0.150556 0)
(10.0862 0.152242 0)
(10.0878 0.152849 0)
(10.0893 0.152456 0)
(10.0929 0.15125 0)
(10.005 0.0137917 0)
(10.025 0.0242022 0)
(10.0401 0.0248334 0)
(10.0498 0.0212423 0)
(10.0568 0.0148139 0)
(10.0618 0.00680986 0)
(10.0655 -0.00155188 0)
(10.0686 -0.00976141 0)
(10.0713 -0.0176462 0)
(10.0738 -0.025139 0)
(10.076 -0.0322434 0)
(10.0782 -0.0390313 0)
(10.0804 -0.0456183 0)
(10.0824 -0.0521948 0)
(10.0844 -0.0588501 0)
(10.0858 -0.0659746 0)
(10.0868 -0.0730938 0)
(10.0837 -0.0821244 0)
(10.0034 0.0223738 0)
(10.0185 0.0471388 0)
(10.0323 0.0601674 0)
(10.0435 0.0686306 0)
(10.0534 0.0748771 0)
(10.0616 0.0800228 0)
(10.0685 0.0847296 0)
(10.0746 0.0891054 0)
(10.0799 0.0931256 0)
(10.0848 0.0967799 0)
(10.0893 0.10006 0)
(10.0935 0.102937 0)
(10.0976 0.105374 0)
(10.1015 0.107285 0)
(10.1053 0.108641 0)
(10.109 0.109338 0)
(10.1124 0.109407 0)
(10.1174 0.109779 0)
(10.002 0.0101091 0)
(10.0135 0.0208066 0)
(10.0259 0.0247035 0)
(10.0359 0.024846 0)
(10.0444 0.0223628 0)
(10.0513 0.0181989 0)
(10.057 0.0131834 0)
(10.0621 0.0077428 0)
(10.0666 0.00210821 0)
(10.0708 -0.00358872 0)
(10.0748 -0.00928888 0)
(10.0785 -0.0149972 0)
(10.082 -0.0207468 0)
(10.0853 -0.02663 0)
(10.0883 -0.032657 0)
(10.0906 -0.0390178 0)
(10.0923 -0.0453791 0)
(10.0913 -0.0531041 0)
(10.0019 0.013975 0)
(10.0121 0.0335482 0)
(10.0233 0.0454834 0)
(10.0335 0.0532403 0)
(10.043 0.0585477 0)
(10.0516 0.0625288 0)
(10.0592 0.0658813 0)
(10.0662 0.0688734 0)
(10.0727 0.071603 0)
(10.0786 0.0741041 0)
(10.0842 0.076379 0)
(10.0895 0.0784035 0)
(10.0945 0.0801529 0)
(10.0993 0.0815779 0)
(10.1038 0.0826852 0)
(10.1082 0.0834806 0)
(10.1122 0.0839868 0)
(10.1173 0.0852905 0)
(10.0006 0.0070898 0)
(10.007 0.0162708 0)
(10.0164 0.0207623 0)
(10.0252 0.0222437 0)
(10.0335 0.0214844 0)
(10.0407 0.0192019 0)
(10.0472 0.0159695 0)
(10.053 0.0121225 0)
(10.0584 0.0078717 0)
(10.0633 0.00334695 0)
(10.068 -0.00137886 0)
(10.0723 -0.00628067 0)
(10.0763 -0.0113522 0)
(10.08 -0.0166244 0)
(10.0833 -0.022084 0)
(10.086 -0.0278312 0)
(10.0882 -0.0336291 0)
(10.0888 -0.0405181 0)
(10.001 0.00886141 0)
(10.008 0.0233238 0)
(10.0168 0.0330967 0)
(10.0255 0.0397581 0)
(10.0341 0.0442522 0)
(10.0421 0.0474299 0)
(10.0496 0.0498529 0)
(10.0566 0.0518233 0)
(10.0631 0.0535017 0)
(10.0692 0.0549681 0)
(10.075 0.0562595 0)
(10.0804 0.0573814 0)
(10.0855 0.0583405 0)
(10.0903 0.0591226 0)
(10.0948 0.0597727 0)
(10.0991 0.0603269 0)
(10.103 0.0608373 0)
(10.1074 0.0622925 0)
(10.0001 0.00515448 0)
(10.004 0.0125254 0)
(10.011 0.016556 0)
(10.0185 0.0183234 0)
(10.0261 0.0182443 0)
(10.0331 0.0168732 0)
(10.0397 0.0145973 0)
(10.0458 0.011681 0)
(10.0515 0.00829957 0)
(10.0567 0.00456571 0)
(10.0616 0.000549416 0)
(10.0662 -0.00371201 0)
(10.0705 -0.00819968 0)
(10.0743 -0.0129077 0)
(10.0779 -0.017839 0)
(10.0809 -0.0230222 0)
(10.0836 -0.0283792 0)
(10.0856 -0.0347922 0)
(10.0006 0.00595427 0)
(10.0056 0.0170628 0)
(10.0126 0.0254789 0)
(10.02 0.0318576 0)
(10.0276 0.0365791 0)
(10.0351 0.0402214 0)
(10.0422 0.0431757 0)
(10.0491 0.0457048 0)
(10.0556 0.0479699 0)
(10.0617 0.050064 0)
(10.0675 0.052042 0)
(10.073 0.0539302 0)
(10.0781 0.0557576 0)
(10.0829 0.0575365 0)
(10.0873 0.0593248 0)
(10.0914 0.0611879 0)
(10.0951 0.0630928 0)
(10.0985 0.0660313 0)
(9.99991 0.00282132 0)
(10.0022 0.00684537 0)
(10.0072 0.0087332 0)
(10.0132 0.00908708 0)
(10.0197 0.00808474 0)
(10.0261 0.00606525 0)
(10.0324 0.0032559 0)
(10.0384 -0.000167276 0)
(10.0441 -0.00407915 0)
(10.0495 -0.00839202 0)
(10.0545 -0.0130478 0)
(10.0592 -0.0180047 0)
(10.0636 -0.023244 0)
(10.0677 -0.028741 0)
(10.0715 -0.0345044 0)
(10.075 -0.0405361 0)
(10.0783 -0.0467109 0)
(10.0816 -0.0538286 0)
(10.0003 0.00366592 0)
(10.0035 0.0111512 0)
(10.0086 0.0176491 0)
(10.0144 0.0232724 0)
(10.0207 0.0280719 0)
(10.0271 0.0322931 0)
(10.0334 0.03613 0)
(10.0395 0.0397378 0)
(10.0454 0.043227 0)
(10.0509 0.0466693 0)
(10.0561 0.0501137 0)
(10.0609 0.0535883 0)
(10.0654 0.0571204 0)
(10.0694 0.0607213 0)
(10.0731 0.0644145 0)
(10.0762 0.0682399 0)
(10.0789 0.0720267 0)
(10.0808 0.0766572 0)
(10.0001 0.000205284 0)
(10.0021 -0.000198347 0)
(10.0062 -0.00173111 0)
(10.0113 -0.00412887 0)
(10.0172 -0.00733233 0)
(10.0235 -0.0112057 0)
(10.0298 -0.0156522 0)
(10.0361 -0.0205931 0)
(10.0422 -0.0259659 0)
(10.0481 -0.0317195 0)
(10.0537 -0.0378145 0)
(10.0591 -0.0442113 0)
(10.0643 -0.0508826 0)
(10.0693 -0.0577812 0)
(10.074 -0.0648696 0)
(10.0787 -0.0721145 0)
(10.0831 -0.0792954 0)
(10.0878 -0.0870897 0)
(9.99998 0.00196706 0)
(10.0014 0.00626004 0)
(10.0045 0.0107811 0)
(10.0084 0.0154784 0)
(10.0128 0.0203109 0)
(10.0174 0.0252953 0)
(10.022 0.0304445 0)
(10.0264 0.0357715 0)
(10.0306 0.0412835 0)
(10.0344 0.0469799 0)
(10.0378 0.052853 0)
(10.0408 0.0588893 0)
(10.0435 0.065067 0)
(10.0456 0.0713606 0)
(10.0475 0.077709 0)
(10.0487 0.0841219 0)
(10.0498 0.0903103 0)
(10.0501 0.0970126 0)
(10.0004 -0.00315262 0)
(10.0038 -0.00984855 0)
(10.0094 -0.0166785 0)
(10.0159 -0.0235766 0)
(10.0233 -0.0305862 0)
(10.0311 -0.0377611 0)
(10.0392 -0.0451518 0)
(10.0473 -0.0527899 0)
(10.0554 -0.0606861 0)
(10.0633 -0.0688344 0)
(10.0711 -0.0772158 0)
(10.0787 -0.0858015 0)
(10.086 -0.0945544 0)
(10.0931 -0.103431 0)
(10.0999 -0.112373 0)
(10.1064 -0.121336 0)
(10.1124 -0.130147 0)
(10.1183 -0.139102 0)
(9.9996 -0.00139662 0)
(9.9997 -0.00283539 0)
(10.0017 -0.00271304 0)
(10.0045 -0.00138856 0)
(10.0077 0.000969925 0)
(10.0108 0.00418363 0)
(10.0138 0.00808265 0)
(10.0164 0.0125252 0)
(10.0186 0.0173958 0)
(10.0205 0.0226031 0)
(10.022 0.0280808 0)
(10.0231 0.0337829 0)
(10.0239 0.0396885 0)
(10.0243 0.0457843 0)
(10.0246 0.0520888 0)
(10.0246 0.0586059 0)
(10.0249 0.0653106 0)
(10.0247 0.072525 0)
(10.0008 -0.00556684 0)
(10.0062 -0.0164923 0)
(10.0136 -0.025743 0)
(10.0216 -0.0336649 0)
(10.03 -0.0406315 0)
(10.0386 -0.0470041 0)
(10.0471 -0.053062 0)
(10.0554 -0.0589709 0)
(10.0635 -0.0648157 0)
(10.0712 -0.0706355 0)
(10.0787 -0.0764455 0)
(10.086 -0.0822529 0)
(10.093 -0.0880714 0)
(10.0999 -0.0939232 0)
(10.1065 -0.0998655 0)
(10.1132 -0.105962 0)
(10.1194 -0.112298 0)
(10.1259 -0.119245 0)
(9.99962 -0.00388543 0)
(10.0011 -0.00912379 0)
(10.0053 -0.0113617 0)
(10.0097 -0.0113819 0)
(10.0139 -0.00957436 0)
(10.0175 -0.00634969 0)
(10.0206 -0.00213184 0)
(10.0231 0.00274152 0)
(10.0251 0.0080183 0)
(10.0268 0.0135118 0)
(10.028 0.0190903 0)
(10.0289 0.0246703 0)
(10.0295 0.0302111 0)
(10.0296 0.03571 0)
(10.0293 0.0412263 0)
(10.0284 0.0468601 0)
(10.0273 0.0527936 0)
(10.025 0.0595524 0)
(10.0015 -0.0108106 0)
(10.01 -0.0287558 0)
(10.0202 -0.0415321 0)
(10.0303 -0.0513645 0)
(10.0403 -0.0595417 0)
(10.0498 -0.066815 0)
(10.0586 -0.0736399 0)
(10.0667 -0.0801953 0)
(10.0743 -0.0865149 0)
(10.0813 -0.092591 0)
(10.0878 -0.0984063 0)
(10.094 -0.103946 0)
(10.1 -0.109205 0)
(10.1059 -0.114199 0)
(10.1117 -0.118984 0)
(10.1181 -0.123678 0)
(10.1245 -0.128533 0)
(10.1328 -0.134203 0)
(10.0008 -0.00657205 0)
(10.0076 -0.0140601 0)
(10.0162 -0.0159028 0)
(10.0226 -0.0140843 0)
(10.0275 -0.00953563 0)
(10.0311 -0.00311908 0)
(10.0337 0.00425141 0)
(10.0358 0.0119576 0)
(10.0374 0.0196387 0)
(10.0387 0.02707 0)
(10.0397 0.0341166 0)
(10.0405 0.0407072 0)
(10.041 0.0468056 0)
(10.0411 0.0524004 0)
(10.0407 0.0575166 0)
(10.0393 0.0622358 0)
(10.0372 0.066829 0)
(10.0316 0.0720977 0)
(10.0028 -0.0223537 0)
(10.0166 -0.049531 0)
(10.0305 -0.0655861 0)
(10.0424 -0.078079 0)
(10.053 -0.0892183 0)
(10.062 -0.0995023 0)
(10.0694 -0.109187 0)
(10.0756 -0.118249 0)
(10.0809 -0.126581 0)
(10.0854 -0.134146 0)
(10.0894 -0.140962 0)
(10.0929 -0.14706 0)
(10.0962 -0.152467 0)
(10.0993 -0.157208 0)
(10.1024 -0.161286 0)
(10.1063 -0.164731 0)
(10.1108 -0.16767 0)
(10.1198 -0.170776 0)
(10.005 -0.00896083 0)
(10.0242 -0.0144808 0)
(10.0367 -0.00927419 0)
(10.0418 0.00108208 0)
(10.0442 0.0143708 0)
(10.045 0.0287471 0)
(10.045 0.0425851 0)
(10.0446 0.0552061 0)
(10.044 0.0664838 0)
(10.0433 0.0764494 0)
(10.0425 0.0851892 0)
(10.0416 0.0928125 0)
(10.0405 0.099417 0)
(10.0392 0.105075 0)
(10.0377 0.10981 0)
(10.0353 0.113615 0)
(10.0322 0.116535 0)
(10.0232 0.119121 0)
(10.0055 -0.0480241 0)
(10.0268 -0.0880805 0)
(10.0417 -0.110818 0)
(10.0498 -0.1325 0)
(10.0548 -0.152497 0)
(10.0569 -0.169605 0)
(10.0566 -0.184067 0)
(10.055 -0.19616 0)
(10.0527 -0.206113 0)
(10.0501 -0.214249 0)
(10.0472 -0.220882 0)
(10.0441 -0.22626 0)
(10.0411 -0.230565 0)
(10.0381 -0.233945 0)
(10.0351 -0.236456 0)
(10.0329 -0.238117 0)
(10.0311 -0.23876 0)
(10.0362 -0.238316 0)
(10.0144 -0.000910577 0)
(10.0466 0.0157792 0)
(10.0451 0.050727 0)
(10.0306 0.0850751 0)
(10.0162 0.115063 0)
(10.0027 0.139585 0)
(9.98982 0.158674 0)
(9.97772 0.173361 0)
(9.96642 0.184772 0)
(9.95569 0.193693 0)
(9.94543 0.200653 0)
(9.93558 0.20604 0)
(9.92612 0.210136 0)
(9.91695 0.213154 0)
(9.90817 0.215192 0)
(9.89918 0.216327 0)
(9.89057 0.216351 0)
(9.87517 0.215403 0)
(10.0327 -0.124097 0)
(10.0632 -0.217273 0)
(10.0515 -0.267653 0)
(10.0252 -0.303977 0)
(9.99885 -0.327337 0)
(9.9729 -0.341614 0)
(9.94757 -0.350634 0)
(9.92374 -0.356296 0)
(9.90141 -0.359558 0)
(9.88026 -0.361056 0)
(9.86009 -0.361232 0)
(9.84081 -0.360393 0)
(9.82233 -0.358749 0)
(9.80461 -0.356479 0)
(9.78758 -0.353674 0)
(9.77164 -0.35055 0)
(9.75652 -0.346797 0)
(9.74989 -0.342164 0)
(9.86209 0.0595902 0)
(9.66861 0.235286 0)
(9.49446 0.33669 0)
(9.34897 0.379495 0)
(9.22842 0.395476 0)
(9.12144 0.400447 0)
(9.02315 0.400524 0)
(8.93247 0.398282 0)
(8.84866 0.394876 0)
(8.77094 0.390795 0)
(8.6988 0.386249 0)
(8.6318 0.381351 0)
(8.56955 0.376168 0)
(8.51162 0.370754 0)
(8.45758 0.365071 0)
(8.40689 0.359247 0)
(8.35905 0.352257 0)
(8.30924 0.344724 0)
(-0.0165355 -0.0601493 -3.46703e-19)
(0.0752111 -0.117325 1.98376e-19)
(0.152109 -0.153657 0)
(0.228841 -0.156244 0)
(0.301574 -0.149676 0)
(0.365761 -0.140838 -8.23821e-20)
(0.422595 -0.132348 0)
(0.473964 -0.124281 0)
(0.52086 -0.11702 0)
(0.564002 -0.110395 0)
(0.603806 -0.104372 6.01824e-20)
(0.640492 -0.0988209 0)
(0.674125 -0.0936976 0)
(0.704727 -0.0889411 0)
(0.732309 -0.0845194 0)
(0.756897 -0.0803867 5.21514e-20)
(0.778516 -0.0765018 0)
(0.797198 -0.0727962 0)
(0.812917 -0.0692303 0)
(0.82576 -0.0656575 0)
(0.835529 -0.06211 0)
(0.842372 -0.0583452 0)
(0.846589 -0.0541381 0)
(0.847626 -0.0489902 4.88563e-20)
(0.845006 -0.0425474 -4.89935e-20)
(0.838733 -0.0350555 4.9307e-20)
(0.828352 -0.0268075 4.98107e-20)
(0.813304 -0.0180971 0)
(0.793089 -0.00931704 0)
(0.767389 -0.00100811 -5.272e-20)
(0.736269 0.00617391 -5.42663e-20)
(0.700364 0.0116036 0)
(0.660897 0.0148868 0)
(0.619403 0.0160022 -6.08404e-20)
(0.577592 0.0152344 0)
(0.536706 0.0130914 0)
(0.498074 0.00964967 6.94082e-20)
(0.46255 0.0054929 0)
(0.430444 0.00136968 7.54429e-20)
(0.401614 -0.00271105 1.56821e-19)
(0.375911 -0.0065378 0)
(0.353322 -0.00985397 0)
(0.333353 -0.0126622 0)
(0.315262 -0.0150279 0)
(0.297896 -0.0170413 0)
(0.280022 -0.0189256 1.90591e-19)
(0.260032 -0.0206403 1.97775e-19)
(0.235963 -0.0223617 2.06878e-19)
(0.206504 -0.023385 0)
(0.169097 -0.0208937 -2.3728e-19)
(0.120111 -0.0137904 0)
(0.05873 -0.00744419 3.10493e-19)
(-0.0169882 -0.0044284 3.18525e-19)
(-0.0994445 0.00297142 0)
(-0.189097 0.0106997 0)
(-0.286121 0.0154833 0)
(-0.387348 0.0181601 1.52252e-19)
(-0.490468 0.0195153 0)
(-0.59359 0.0199784 0)
(-0.696522 0.0191889 0)
(-0.797822 0.0167711 0)
(-0.896113 0.0129173 0)
(-0.9904 0.00807718 0)
(-1.08047 0.00253103 0)
(-1.16606 -0.00353001 0)
(-1.24712 -0.00984107 -7.0631e-20)
(-1.32384 -0.0162217 0)
(-1.39649 -0.0225428 0)
(-1.4654 -0.0287223 6.27732e-20)
(-1.53095 -0.0347186 6.07722e-20)
(-1.59352 -0.0405163 0)
(-1.65344 -0.0461214 -5.73778e-20)
(-1.71106 -0.0515508 5.59154e-20)
(-1.76666 -0.0568294 0)
(-1.8205 -0.061985 -5.33383e-20)
(-1.87281 -0.0670459 0)
(-1.92378 -0.0720393 0)
(-1.97356 -0.0769906 5.01049e-20)
(-2.02229 -0.0819225 0)
(-2.0701 -0.086855 -4.82478e-20)
(-2.11706 -0.0918053 0)
(-2.16327 -0.0967881 4.65661e-20)
(-2.2088 -0.101816 4.5779e-20)
(-2.25369 -0.106899 4.50228e-20)
(-2.29799 -0.112047 8.85886e-20)
(-2.34176 -0.117267 -8.71815e-20)
(-2.38502 -0.122565 0)
(-2.42781 -0.127951 0)
(-2.47016 -0.133431 0)
(-2.51207 -0.139017 -8.19636e-20)
(-2.55357 -0.144719 -8.07434e-20)
(-2.59466 -0.150549 7.95508e-20)
(-2.63535 -0.156521 0)
(-2.67561 -0.162648 -7.72395e-20)
(-2.71545 -0.16895 -7.61165e-20)
(-2.75482 -0.175441 -7.50127e-20)
(-2.79372 -0.182143 0)
(-2.83208 -0.189072 0)
(-2.86986 -0.19625 0)
(-2.90699 -0.203698 -7.07538e-20)
(-2.94337 -0.211442 0)
(-2.97889 -0.219505 0)
(-3.01339 -0.227913 6.768e-20)
(-3.04669 -0.236686 0)
(-3.07854 -0.245837 0)
(-3.10868 -0.255368 6.46666e-20)
(-3.13675 -0.265263 0)
(-3.16236 -0.275482 0)
(-3.18502 -0.28593 -6.16705e-20)
(-3.20417 -0.296426 -6.06655e-20)
(-3.21923 -0.306635 0)
(-3.22955 -0.316067 5.86236e-20)
(-3.23455 -0.324298 0)
(-3.2344 -0.331485 -5.63682e-20)
(-3.22957 -0.338338 0)
(-3.21909 -0.345372 -5.37596e-20)
(-3.2022 -0.353127 -5.22926e-20)
(-3.17792 -0.361989 0)
(-3.14517 -0.372189 0)
(-3.10263 -0.383847 0)
(-3.04885 -0.396999 0)
(-2.98232 -0.411633 0)
(-2.90157 -0.427603 0)
(-2.80528 -0.444558 0)
(-2.6923 -0.462016 -3.3101e-20)
(-2.56156 -0.479956 2.90781e-20)
(-2.41383 -0.500382 0)
(-2.24902 -0.52225 0)
(-2.06603 -0.545814 0)
(-1.8669 -0.570502 0)
(-1.65259 -0.59648 -2.2445e-21)
(-1.42539 -0.623717 0)
(-1.18769 -0.652445 4.11639e-20)
(-0.94241 -0.683066 -6.62282e-20)
(-0.692363 -0.716383 0)
(-0.441013 -0.752914 0)
(-0.19699 -0.789053 0)
(0.045167 -0.788479 2.18962e-19)
(0.293842 -0.747766 2.08129e-19)
(0.547591 -0.706428 0)
(0.796769 -0.672041 1.78873e-19)
(1.03886 -0.642259 1.68243e-19)
(1.27457 -0.616316 -1.58878e-19)
(1.5051 -0.593303 0)
(1.73219 -0.57257 0)
(1.95775 -0.553726 -1.33995e-19)
(2.18378 -0.536567 0)
(2.41224 -0.521 0)
(2.64468 -0.506957 0)
(2.88176 -0.494253 0)
(3.12274 -0.482584 9.16414e-20)
(3.36502 -0.471423 8.30293e-20)
(3.60357 -0.460214 0)
(3.83136 -0.448782 6.71574e-20)
(4.04012 -0.43591 0)
(4.21582 -0.422739 0)
(4.35261 -0.412023 5.14431e-20)
(4.41702 -0.386205 0)
(4.33784 -0.318023 5.15949e-20)
(4.09091 -0.216163 0)
(3.6725 -0.107464 0)
(3.0998 -0.0173641 8.42834e-20)
(2.43825 0.0253194 0)
(1.78858 0.0278045 1.48801e-19)
(1.23682 0.00634769 0)
(0.870696 -0.0576501 0)
(0.844162 -0.15728 0)
(1.03699 -0.212547 -2.16518e-19)
(1.2212 -0.194797 0)
(1.22797 -0.121782 2.03819e-19)
(0.981319 -0.0360919 0)
(0.561004 -0.0120832 0)
(0.195175 -0.0956189 0)
(-0.0235449 -0.205617 0)
(-0.136475 -0.288012 0)
(-0.19235 -0.339476 0)
(-0.174937 -0.371171 0)
(-0.160496 -0.396867 -6.19949e-19)
(-0.0710213 -0.418225 0)
(-0.120117 -0.434136 0)
(-0.0100197 -0.170784 5.8812e-19)
(0.130515 -0.218025 -3.01251e-19)
(0.17038 -0.224486 0)
(0.214783 -0.190089 1.00741e-19)
(0.252056 -0.162884 0)
(0.288049 -0.135638 3.90776e-20)
(0.322765 -0.116381 -7.3513e-20)
(0.357862 -0.10055 -6.99997e-20)
(0.39221 -0.0887468 0)
(0.425894 -0.0784542 -6.54351e-20)
(0.458143 -0.0693314 -3.17622e-20)
(0.48844 -0.0603726 0)
(0.516195 -0.0515156 0)
(0.541085 -0.0425669 0)
(0.562905 -0.0336471 0)
(0.581611 -0.0247753 -2.90879e-20)
(0.597207 -0.0160328 0)
(0.609778 -0.00742505 5.65546e-20)
(0.619397 0.00100476 0)
(0.626245 0.00918445 0)
(0.630508 0.016976 -5.43386e-20)
(0.632901 0.0237507 0)
(0.633924 0.0298249 5.37544e-20)
(0.634483 0.0355809 -2.68174e-20)
(0.635517 0.0410938 2.68349e-20)
(0.636734 0.0468335 -2.69055e-20)
(0.637656 0.0534009 -2.69939e-20)
(0.63717 0.0612995 0)
(0.633593 0.0706643 0)
(0.624935 0.0810524 2.71014e-20)
(0.609406 0.0914227 -2.71695e-20)
(0.586103 0.100398 0)
(0.555409 0.106714 0)
(0.518872 0.109634 2.64534e-20)
(0.478623 0.109134 0)
(0.436874 0.105691 0)
(0.395336 0.100006 -2.55946e-20)
(0.355343 0.0929717 0)
(0.317368 0.0855993 2.55621e-20)
(0.281442 0.0783168 -5.11416e-20)
(0.246695 0.0711742 0)
(0.211656 0.0645536 0)
(0.174455 0.0593439 -1.07304e-19)
(0.133041 0.0565834 -1.10208e-19)
(0.0852796 0.0571247 -1.13886e-19)
(0.0292828 0.0615904 5.91356e-20)
(-0.0367071 0.0708252 -5.89965e-20)
(-0.114216 0.0854369 -1.71349e-19)
(-0.203977 0.105151 1.09774e-19)
(-0.304919 0.128455 5.22265e-20)
(-0.413829 0.152654 0)
(-0.527859 0.175346 -4.71501e-20)
(-0.64614 0.195642 4.53275e-20)
(-0.766012 0.212736 0)
(-0.883686 0.22492 0)
(-0.996849 0.232506 0)
(-1.10387 0.235926 -3.81014e-20)
(-1.20293 0.235565 0)
(-1.29309 0.232258 7.29513e-20)
(-1.37361 0.226622 0)
(-1.44456 0.219255 6.99605e-20)
(-1.50656 0.210856 0)
(-1.56047 0.202115 -6.74066e-20)
(-1.60727 0.193549 0)
(-1.64795 0.185501 6.5228e-20)
(-1.68347 0.178208 -3.2336e-20)
(-1.71468 0.171812 0)
(-1.74234 0.166363 -6.25697e-20)
(-1.76706 0.161857 -3.0737e-20)
(-1.78936 0.158244 -3.03946e-20)
(-1.80967 0.155453 0)
(-1.82832 0.153399 -3.00778e-20)
(-1.84557 0.151998 -2.94902e-20)
(-1.86163 0.151167 0)
(-1.87668 0.150832 2.89645e-20)
(-1.89084 0.150927 -5.77219e-20)
(-1.90421 0.151396 0)
(-1.91689 0.152191 -2.82529e-20)
(-1.92894 0.153273 0)
(-1.94043 0.15461 8.37254e-20)
(-1.95141 0.156176 0)
(-1.96193 0.157951 -8.24658e-20)
(-1.97204 0.159919 -2.71856e-20)
(-1.98178 0.162065 2.72801e-20)
(-1.9912 0.164382 5.41649e-20)
(-2.00034 0.16686 -5.37728e-20)
(-2.00924 0.169491 0)
(-2.01795 0.172268 0)
(-2.02651 0.175184 0)
(-2.03496 0.17823 1.55335e-19)
(-2.04333 0.181398 5.1156e-20)
(-2.05168 0.184685 -5.07499e-20)
(-2.06005 0.188086 0)
(-2.06848 0.1916 -5.06376e-20)
(-2.07701 0.195226 4.95038e-20)
(-2.08571 0.198962 4.90754e-20)
(-2.09463 0.202806 0)
(-2.10384 0.206753 0)
(-2.11341 0.210792 0)
(-2.12342 0.214906 4.72587e-20)
(-2.13396 0.219072 0)
(-2.14513 0.223256 -9.33903e-20)
(-2.15702 0.227422 -1.38093e-19)
(-2.16977 0.231523 9.12826e-20)
(-2.1835 0.2355 0)
(-2.19835 0.239276 4.49776e-20)
(-2.21449 0.242748 0)
(-2.23206 0.245776 8.64047e-20)
(-2.25122 0.248185 -4.3063e-20)
(-2.2721 0.249751 -4.23553e-20)
(-2.29469 0.250232 0)
(-2.31889 0.249458 -1.19892e-19)
(-2.34439 0.247413 7.863e-20)
(-2.36943 0.244183 3.76635e-20)
(-2.39216 0.239518 0)
(-2.41172 0.232889 3.55082e-20)
(-2.42657 0.224738 1.04634e-19)
(-2.43492 0.215471 0)
(-2.4354 0.205045 6.51926e-20)
(-2.42667 0.193404 6.23452e-20)
(-2.4074 0.180534 5.9172e-20)
(-2.37627 0.166435 0)
(-2.33201 0.151109 0)
(-2.2734 0.134607 0)
(-2.19922 0.117269 -2.29697e-20)
(-2.10827 0.0998555 -1.65668e-20)
(-2.00039 0.0835949 0)
(-1.87394 0.0669502 -2.50056e-20)
(-1.72943 0.0516635 -1.84444e-20)
(-1.56756 0.0381078 0)
(-1.38969 0.0266436 1.03013e-21)
(-1.19769 0.0176244 6.42729e-21)
(-0.993723 0.0111148 -1.69886e-20)
(-0.780036 0.0068646 -1.28267e-20)
(-0.558684 0.00435416 0)
(-0.331119 0.00221586 0)
(-0.0948313 -0.00252022 0)
(0.152164 -0.0121869 -5.85622e-20)
(0.397317 -0.0135209 4.7201e-20)
(0.634248 -0.00742285 1.12636e-19)
(0.867558 0.0019448 -6.45289e-20)
(1.0979 0.0105448 5.346e-20)
(1.32648 0.0171918 6.63846e-20)
(1.55432 0.021524 0)
(1.78279 0.0234259 0)
(2.0134 0.0229027 -5.55276e-20)
(2.24772 0.0201172 0)
(2.48707 0.0155509 0)
(2.732 0.0101564 1.12198e-19)
(2.98184 0.00538188 0)
(3.23431 0.003038 4.60931e-20)
(3.485 0.00527317 -5.10257e-20)
(3.72759 0.0142533 0)
(3.95336 0.0317955 3.62453e-20)
(4.15248 0.0596597 0)
(4.3163 0.0992542 0)
(4.42663 0.159866 -3.61643e-20)
(4.51185 0.245146 6.49304e-20)
(4.62208 0.331516 -3.61571e-20)
(4.72508 0.411443 0)
(4.73542 0.4873 0)
(4.56259 0.548204 3.89793e-20)
(4.1529 0.568618 0)
(3.55921 0.517381 5.84577e-20)
(2.95962 0.384538 0)
(2.54938 0.196987 0)
(2.33053 0.027083 0)
(2.17324 -0.0348077 8.34102e-20)
(1.94846 0.0384882 0)
(1.57128 0.185073 -8.27874e-20)
(1.09408 0.305053 0)
(0.683484 0.331757 0)
(0.422954 0.295003 1.64524e-19)
(0.252627 0.255648 -1.62445e-19)
(0.157988 0.223234 0)
(0.0904866 0.199788 0)
(0.0871345 0.164402 0)
(0.0794646 0.158777 5.1462e-19)
(0.144867 0.146039 0)
(0.187859 0.124485 -3.65072e-19)
(-0.070212 -0.342648 5.22413e-22)
(0.114103 -0.332669 3.41251e-19)
(0.0775271 -0.316736 0)
(0.127469 -0.27074 -1.63159e-19)
(0.138739 -0.260523 0)
(0.173182 -0.242557 0)
(0.200312 -0.236014 -1.52639e-22)
(0.234901 -0.224542 4.96703e-20)
(0.268222 -0.215927 4.71865e-20)
(0.303413 -0.204454 4.51465e-20)
(0.33659 -0.192401 0)
(0.367945 -0.178098 0)
(0.395997 -0.163049 -4.13457e-20)
(0.420863 -0.147275 -8.06441e-20)
(0.442315 -0.131652 7.86987e-20)
(0.460577 -0.1163 0)
(0.475659 -0.101494 7.50293e-20)
(0.487597 -0.0872301 -3.65889e-20)
(0.496174 -0.0735258 0)
(0.500723 -0.0604405 7.06608e-20)
(0.5002 -0.0487159 3.48703e-20)
(0.494493 -0.0387153 -6.93606e-20)
(0.484848 -0.0302849 -3.44387e-20)
(0.472683 -0.0233263 0)
(0.45889 -0.0165583 6.87214e-20)
(0.443995 -0.0082914 6.87116e-20)
(0.428063 0.0030864 0)
(0.41074 0.0190037 6.87128e-20)
(0.391313 0.0403335 0)
(0.368948 0.0665553 6.86801e-20)
(0.343035 0.09513 3.42782e-20)
(0.313513 0.122034 0)
(0.280956 0.143319 0)
(0.246329 0.156612 0)
(0.210585 0.161551 0)
(0.174401 0.159191 0)
(0.137863 0.151333 0)
(0.100385 0.140446 7.39996e-20)
(0.0608364 0.129195 -1.12767e-19)
(0.0176833 0.119918 0)
(-0.031018 0.114714 0)
(-0.0872114 0.115142 0)
(-0.15243 0.122001 -1.77106e-22)
(-0.227519 0.135408 7.09101e-20)
(-0.312612 0.154909 1.3754e-19)
(-0.407092 0.179631 -1.32693e-19)
(-0.509558 0.208386 -6.39347e-20)
(-0.617508 0.239458 6.1316e-20)
(-0.727857 0.270862 1.96173e-22)
(-0.837363 0.300309 5.70405e-20)
(-0.942808 0.325205 0)
(-1.04166 0.343257 5.35183e-20)
(-1.13213 0.353221 3.52942e-22)
(-1.21262 0.354936 0)
(-1.28276 0.349062 0)
(-1.3429 0.336665 -4.90396e-20)
(-1.3935 0.318739 0)
(-1.43553 0.296832 0)
(-1.47023 0.272494 4.72011e-20)
(-1.49895 0.24703 9.22611e-20)
(-1.52319 0.221582 -4.51194e-20)
(-1.5443 0.197065 0)
(-1.56342 0.174129 4.38433e-20)
(-1.58141 0.153128 0)
(-1.59894 0.13419 4.30591e-20)
(-1.61646 0.117303 4.20336e-20)
(-1.63425 0.102347 -8.33029e-20)
(-1.65249 0.0891424 -4.1264e-20)
(-1.67124 0.0774808 0)
(-1.69053 0.0671469 8.01144e-20)
(-1.71035 0.0579363 0)
(-1.73066 0.0496619 1.17189e-19)
(-1.75142 0.0421603 7.73308e-20)
(-1.77261 0.0352907 7.64753e-20)
(-1.79418 0.0289354 -7.56493e-20)
(-1.81611 0.0229963 1.12138e-19)
(-1.83836 0.017394 0)
(-1.86093 0.0120632 0)
(-1.8838 0.0069522 -7.25718e-20)
(-1.90695 0.00201912 -1.07627e-19)
(-1.93038 -0.00276821 0)
(-1.95408 -0.00743577 3.50687e-20)
(-1.97803 -0.0120029 0)
(-2.00225 -0.0164853 -1.03431e-19)
(-2.02672 -0.0208946 3.10367e-22)
(-2.05144 -0.0252411 -3.16729e-22)
(-2.07641 -0.0295326 6.70524e-20)
(-2.10162 -0.0337773 0)
(-2.12707 -0.0379825 -6.57477e-20)
(-2.15277 -0.0421568 3.44435e-22)
(-2.17872 -0.046307 0)
(-2.20492 -0.0504395 0)
(-2.23138 -0.0545603 0)
(-2.25811 -0.058675 6.21811e-20)
(-2.28511 -0.0627879 0)
(-2.31237 -0.0669026 0)
(-2.3399 -0.0710215 0)
(-2.36767 -0.0751471 0)
(-2.39567 -0.0792816 0)
(-2.42386 -0.0834282 5.87558e-20)
(-2.4522 -0.0875904 0)
(-2.48063 -0.0917722 5.70113e-20)
(-2.5091 -0.0959774 5.63423e-20)
(-2.53748 -0.100208 -5.5663e-20)
(-2.56567 -0.104463 0)
(-2.59349 -0.108739 -5.42647e-20)
(-2.62072 -0.113034 0)
(-2.64711 -0.117349 -5.27966e-20)
(-2.67233 -0.121708 5.20283e-20)
(-2.696 -0.126155 1.54852e-19)
(-2.71762 -0.130758 0)
(-2.73653 -0.135736 1.49876e-19)
(-2.75196 -0.141469 4.99795e-20)
(-2.76313 -0.148032 0)
(-2.76912 -0.155219 9.47614e-20)
(-2.76893 -0.162993 9.2485e-20)
(-2.76247 -0.172518 -1.33937e-19)
(-2.74918 -0.184202 0)
(-2.72807 -0.198116 -4.09174e-20)
(-2.69795 -0.214343 -3.90678e-20)
(-2.65753 -0.232922 -1.1305e-19)
(-2.60539 -0.253789 0)
(-2.54011 -0.276798 0)
(-2.46034 -0.301702 0)
(-2.36481 -0.328071 -2.85417e-20)
(-2.25227 -0.355468 0)
(-2.12153 -0.383767 0)
(-1.97256 -0.412088 1.51032e-20)
(-1.806 -0.439085 1.10477e-20)
(-1.62248 -0.463724 0)
(-1.42344 -0.485084 0)
(-1.21072 -0.502382 -3.72146e-21)
(-0.986496 -0.515082 0)
(-0.753031 -0.522956 2.14576e-20)
(-0.512589 -0.525983 2.66857e-20)
(-0.268055 -0.524694 0)
(-0.0209456 -0.520702 0)
(0.22469 -0.517201 -4.92956e-20)
(0.466544 -0.51423 -3.92965e-21)
(0.706647 -0.507953 -3.78454e-21)
(0.946169 -0.50011 0)
(1.18532 -0.492267 -1.32925e-19)
(1.42429 -0.485536 0)
(1.66359 -0.480475 0)
(1.90409 -0.477376 0)
(2.14696 -0.476398 7.53832e-20)
(2.39338 -0.477458 0)
(2.64426 -0.480037 -1.44631e-19)
(2.89977 -0.483033 -7.39946e-20)
(3.15892 -0.484742 0)
(3.41895 -0.482898 -6.89096e-20)
(3.67488 -0.474904 0)
(3.91958 -0.458316 0)
(4.14427 -0.431508 -1.67245e-19)
(4.33913 -0.392751 1.02399e-19)
(4.49454 -0.342528 0)
(4.59781 -0.293183 9.29195e-20)
(4.6341 -0.24754 -4.94796e-20)
(4.61138 -0.165062 0)
(4.57582 -0.0145352 0)
(4.57104 0.205532 0)
(4.56214 0.457892 -1.92884e-19)
(4.42863 0.670572 0)
(4.10411 0.740258 -8.935e-20)
(3.64884 0.621083 0)
(3.16211 0.367627 0)
(2.7045 0.125485 0)
(2.26122 0.0604864 0)
(1.74658 0.198537 0)
(1.18188 0.387633 0)
(0.710315 0.452991 -2.11557e-19)
(0.388983 0.366189 0)
(0.173198 0.21641 -9.58769e-20)
(0.0228544 0.0858798 2.6842e-19)
(-0.0591295 -0.0137111 0)
(-0.0961206 -0.0761371 0)
(-0.0750238 -0.120987 -1.73974e-19)
(-0.0568715 -0.144147 -1.82337e-19)
(0.0456224 -0.171915 1.86032e-19)
(0.11055 -0.183837 1.98078e-19)
(-0.13194 -0.425144 -7.96892e-19)
(0.107946 -0.348804 -4.73378e-19)
(-0.000590166 -0.346843 -1.93208e-19)
(0.0793139 -0.299411 -7.22749e-20)
(0.054696 -0.289773 0)
(0.094011 -0.267486 1.01155e-19)
(0.094536 -0.262511 -4.5441e-20)
(0.121262 -0.251264 0)
(0.135205 -0.244572 -3.93019e-20)
(0.15916 -0.230067 0)
(0.177764 -0.213994 7.21215e-20)
(0.198351 -0.192795 0)
(0.214761 -0.170826 3.37172e-20)
(0.230043 -0.147677 6.55854e-20)
(0.242187 -0.125378 -6.39081e-20)
(0.252433 -0.103376 0)
(0.260112 -0.0820886 -6.10411e-20)
(0.265706 -0.0606896 0)
(0.268746 -0.0382901 0)
(0.269016 -0.0132424 -5.82961e-20)
(0.265403 0.012938 0)
(0.256793 0.0352093 -1.22439e-22)
(0.243599 0.0515255 0)
(0.22622 0.0631862 0)
(0.204963 0.0722259 1.28221e-22)
(0.180222 0.0808382 -5.87029e-20)
(0.152459 0.0912045 -5.94037e-20)
(0.122326 0.105229 -5.98522e-20)
(0.0907614 0.12384 0)
(0.0590361 0.146281 -1.22097e-19)
(0.0283984 0.169949 0)
(-0.000431779 0.19124 -6.19067e-20)
(-0.0276307 0.206981 0)
(-0.0542361 0.215733 0)
(-0.0819252 0.217984 6.10693e-20)
(-0.112719 0.215715 0)
(-0.148828 0.211684 -6.02079e-20)
(-0.192328 0.208775 2.14944e-22)
(-0.244786 0.209429 1.16929e-19)
(-0.307044 0.215206 -1.14752e-19)
(-0.379033 0.226732 0)
(-0.459869 0.243832 0)
(-0.547988 0.265667 -5.29233e-20)
(-0.641274 0.290984 0)
(-0.737132 0.31848 -4.94259e-20)
(-0.832778 0.346596 4.79652e-20)
(-0.925412 0.373597 4.65813e-20)
(-1.01224 0.397813 0)
(-1.09084 0.417715 -4.39484e-20)
(-1.15937 0.431863 -4.2721e-20)
(-1.21661 0.439157 8.36579e-20)
(-1.26272 0.439122 -4.05795e-20)
(-1.29863 0.431981 -3.97162e-20)
(-1.32559 0.418659 0)
(-1.3454 0.400485 0)
(-1.35993 0.37879 3.76558e-20)
(-1.37107 0.355056 0)
(-1.3806 0.330753 0)
(-1.38995 0.307088 -7.19555e-20)
(-1.40016 0.284918 -7.08825e-20)
(-1.41194 0.264777 0)
(-1.42564 0.246921 0)
(-1.44131 0.231396 0)
(-1.45885 0.218096 0)
(-1.47802 0.206832 -6.59003e-20)
(-1.49857 0.197378 6.53701e-20)
(-1.52021 0.189507 6.41335e-20)
(-1.54269 0.183001 1.26959e-19)
(-1.56579 0.177666 0)
(-1.58931 0.173329 3.23635e-22)
(-1.61312 0.169841 0)
(-1.63709 0.167075 -6.03662e-20)