# vtk DataFile Version 2.0
track0
ASCII
DATASET POLYDATA
POINTS 10755 double
-0.0205 0.001 1e-05
-0.0204991 0.00100536 1e-05
-0.0204976 0.00101063 1e-05
-0.0204947 0.00101518 1e-05
-0.0204905 0.00101864 1e-05
-0.0204746 0.00102682 1e-05
-0.0201831 0.00105563 1e-05
-0.0203616 0.00128793 1e-05
-0.0204488 0.00141936 1e-05
-0.0201625 0.0014444 1e-05
-0.020152 0.00173164 1e-05
-0.0202219 0.00184007 1e-05
-0.0200496 0.00193025 1e-05
-0.0200809 0.00212221 1e-05
-0.0201295 0.00229098 1e-05
-0.0200088 0.00238763 1e-05
-0.0199912 0.00254122 1e-05
-0.0200042 0.00269527 1e-05
-0.0199828 0.00277425 1e-05
-0.0198691 0.00287784 1e-05
-0.019818 0.00302291 1e-05
-0.0198055 0.00317622 1e-05
-0.0197601 0.00329221 1e-05
-0.0196349 0.00340323 1e-05
-0.0195487 0.00354671 1e-05
-0.0194778 0.00369829 1e-05
-0.0193912 0.00384149 1e-05
-0.0193844 0.00384734 1e-05
-0.0193109 0.00390812 1e-05
-0.019244 0.00397602 1e-05
-0.0191792 0.00404588 1e-05
-0.0191113 0.00411288 1e-05
-0.0190172 0.00419813 1e-05
-0.0189565 0.00424697 1e-05
-0.0188941 0.00429352 1e-05
-0.01883 0.00433777 1e-05
-0.0187644 0.00437971 1e-05
-0.0186591 0.00444232 1e-05
-0.0184268 0.00456543 1e-05
-0.0181855 0.00466982 1e-05
-0.0179371 0.00475615 1e-05
-0.0176828 0.00482259 1e-05
-0.0174976 0.00485418 1e-05
-0.0172058 0.00488494 1e-05
-0.0169124 0.00488672 1e-05
-0.0166199 0.00486443 1e-05
-0.0163296 0.0048213 1e-05
-0.0160387 0.00475726 1e-05
-0.0158285 0.00469427 1e-05
-0.015622 0.00462012 1e-05
-0.0154197 0.00453517 1e-05
-0.0152203 0.00444369 1e-05
-0.0152175 0.00444232 1e-05
-0.0151016 0.00438421 1e-05
-0.0149885 0.00432088 1e-05
-0.0148785 0.00425225 1e-05
-0.0147709 0.00418005 1e-05
-0.0146381 0.00408519 1e-05
-0.0145768 0.00403762 1e-05
-0.0145165 0.00398894 1e-05
-0.014457 0.00393914 1e-05
-0.0143986 0.0038882 1e-05
-0.0143525 0.00384734 1e-05
-0.0142284 0.00373631 1e-05
-0.014111 0.00361837 1e-05
-0.014001 0.00349337 1e-05
-0.013897 0.00336339 1e-05
-0.0138426 0.00329221 1e-05
-0.0137655 0.00318862 1e-05
-0.013696 0.00307983 1e-05
-0.0136328 0.00296726 1e-05
-0.0135733 0.00285262 1e-05
-0.0135362 0.00277425 1e-05
-0.0134932 0.0026776 1e-05
-0.0134574 0.00257808 1e-05
-0.0134255 0.0024772 1e-05
-0.0133983 0.00237499 1e-05
-0.0133803 0.00229098 1e-05
-0.0133654 0.0022008 1e-05
-0.0133564 0.00210982 1e-05
-0.0133527 0.00201848 1e-05
-0.0133551 0.00192709 1e-05
-0.0133637 0.00184007 1e-05
-0.0133786 0.00175593 1e-05
-0.0134011 0.00167351 1e-05
-0.0134306 0.0015933 1e-05
-0.013467 0.00151602 1e-05
-0.0135238 0.00141936 1e-05
-0.0135813 0.00134085 1e-05
-0.0136497 0.00127164 1e-05
-0.0137239 0.00120866 1e-05
-0.0138027 0.00115144 1e-05
-0.0139967 0.00102682 1e-05
-0.014125 0.000957643 1e-05
-0.01426 0.000902703 1e-05
-0.0143982 0.000856556 1e-05
-0.0145371 0.000812437 1e-05
-0.0146381 0.000782036 1e-05
-0.0147221 0.000757742 1e-05
-0.0148065 0.000734794 1e-05
-0.0148912 0.000712987 1e-05
-0.0149764 0.000693196 1e-05
-0.0151503 0.000660566 1e-05
-0.015328 0.000638016 1e-05
-0.0155061 0.000618872 1e-05
-0.0156844 0.000602379 1e-05
-0.0158629 0.000587875 1e-05
-0.0160387 0.000568185 1e-05
-0.0162831 0.000518316 1e-05
-0.0165312 0.000493571 1e-05
-0.0167804 0.000482514 1e-05
-0.0170297 0.000475685 1e-05
-0.0174976 0.000406219 1e-05
-0.0174976 0.000406219 1e-05
-0.0174976 0.000406219 1e-05
-0.0174976 0.000406219 1e-05
-0.0174976 0.000406219 1e-05
-0.0174976 0.000406219 1e-05
-0.0174951 0.000388743 1e-05
-0.0174897 0.000371946 1e-05
-0.017482 0.000356066 1e-05
-0.0174726 0.000341131 1e-05
-0.0174557 0.000318841 1e-05
-0.0173838 0.000255072 1e-05
-0.0172967 0.000214399 1e-05
-0.0172047 0.000186605 1e-05
-0.0171106 0.000167063 1e-05
-0.0160387 4.45516e-06 1e-05
-0.0160288 3.56413e-06 1e-05
-0.0160188 3.10869e-06 1e-05
-0.0160089 2.69512e-06 1e-05
-0.0159989 2.28154e-06 1e-05
-0.015944 0 1e-05
-0.0205 0.00367778 1e-05
-0.0203955 0.00371169 1e-05
-0.0203045 0.00377319 1e-05
-0.0202171 0.00383975 1e-05
-0.020198 0.00384734 1e-05
-0.0199618 0.00393433 1e-05
-0.0197661 0.00409248 1e-05
-0.0196202 0.00429761 1e-05
-0.0194754 0.00444232 1e-05
-0.0193838 0.00449618 1e-05
-0.0192964 0.00455672 1e-05
-0.0192133 0.00462299 1e-05
-0.0191278 0.00468615 1e-05
-0.0190172 0.0047617 1e-05
-0.0189142 0.00482536 1e-05
-0.0188085 0.0048845 1e-05
-0.0187005 0.00493919 1e-05
-0.0185904 0.00498955 1e-05
-0.0183694 0.00508 1e-05
-0.018195 0.00513515 1e-05
-0.0180186 0.00518331 1e-05
-0.0178405 0.00522465 1e-05
-0.0176608 0.00525904 1e-05
-0.0174976 0.00528209 1e-05
-0.0172058 0.00531004 1e-05
-0.0169127 0.00531492 1e-05
-0.0166201 0.00529796 1e-05
-0.0163293 0.00526079 1e-05
-0.0160387 0.00520587 1e-05
-0.0159398 0.0051807 1e-05
-0.0158414 0.00515351 1e-05
-0.0157437 0.00512439 1e-05
-0.0156462 0.00509404 1e-05
-0.0156031 0.00508 1e-05
-0.0154101 0.0050159 1e-05
-0.0152205 0.0049424 1e-05
-0.0150349 0.00485914 1e-05
-0.0148537 0.00476688 1e-05
-0.0146381 0.00464742 1e-05
-0.0145715 0.0046064 1e-05
-0.0145055 0.00456449 1e-05
-0.0144401 0.00452167 1e-05
-0.0143752 0.00447805 1e-05
-0.0143226 0.00444232 1e-05
-0.0141491 0.00432332 1e-05
-0.0139822 0.00419531 1e-05
-0.013823 0.00405777 1e-05
-0.0136685 0.00391501 1e-05
-0.0135982 0.00384734 1e-05
-0.0135372 0.00378755 1e-05
-0.0134784 0.00372569 1e-05
-0.013421 0.00366244 1e-05
-0.0133646 0.00359841 1e-05
-0.0132934 0.00351541 1e-05
-0.0132567 0.00347077 1e-05
-0.0132204 0.00342576 1e-05
-0.0131846 0.00338037 1e-05
-0.0131492 0.00333459 1e-05
-0.0131171 0.00329221 1e-05
-0.0130391 0.00318862 1e-05
-0.012963 0.0030836 1e-05
-0.0128897 0.00297658 1e-05
-0.0128197 0.00286742 1e-05
-0.0127625 0.00277425 1e-05
-0.0127049 0.0026776 1e-05
-0.0126487 0.00258012 1e-05
-0.0125941 0.00248175 1e-05
-0.0125409 0.00238259 1e-05
-0.0124942 0.00229098 1e-05
-0.0124508 0.0022008 1e-05
-0.0124076 0.00211048 1e-05
-0.0123647 0.00202003 1e-05
-0.012322 0.00192945 1e-05
-0.0122812 0.00184007 1e-05
-0.0122464 0.00175593 1e-05
-0.0122102 0.00167241 1e-05
-0.0121727 0.00158946 1e-05
-0.0121337 0.00150718 1e-05
-0.0120897 0.00141936 1e-05
-0.0120723 0.00138541 1e-05
-0.0120535 0.00135222 1e-05
-0.0120334 0.00131975 1e-05
-0.0120121 0.00128808 1e-05
-0.0120025 0.00127498 1e-05
-0.0119648 0.00122535 1e-05
-0.0119239 0.00117825 1e-05
-0.0118799 0.00113403 1e-05
-0.011833 0.00109297 1e-05
-0.0117456 0.00102682 1e-05
-0.0116311 0.000953567 1e-05
-0.0115087 0.000894534 1e-05
-0.0113817 0.00084625 1e-05
-0.0112517 0.000806407 1e-05
-0.0107632 0.000718202 1e-05
-0.0105252 0.000727506 1e-05
-0.0102871 0.000724346 1e-05
-0.010049 0.000722709 1e-05
-0.00981081 0.000722006 1e-05
-0.00957337 0.000721895 1e-05
-0.00934491 0.000731462 1e-05
-0.00911628 0.000728091 1e-05
-0.00888763 0.000725786 1e-05
-0.00865898 0.000724214 1e-05
-0.00843108 0.000723155 1e-05
-0.00821175 0.000732238 1e-05
-0.00799227 0.000728226 1e-05
-0.00777277 0.000725222 1e-05
-0.00755327 0.000722942 1e-05
-0.00733443 0.000721196 1e-05
-0.00712387 0.000729635 1e-05
-0.00691317 0.000725486 1e-05
-0.00670246 0.000722257 1e-05
-0.00649174 0.000719709 1e-05
-0.0062816 0.000717674 1e-05
-0.00607944 0.000725408 1e-05
-0.00587718 0.000721515 1e-05
-0.0056749 0.000718414 1e-05
-0.00547262 0.000715913 1e-05
-0.00527083 0.000713874 1e-05
-0.00507675 0.000720911 1e-05
-0.00488258 0.000717413 1e-05
-0.00468839 0.00071458 1e-05
-0.0044942 0.000712259 1e-05
-0.00430044 0.00071034 1e-05
-0.00411412 0.000716733 1e-05
-0.00392771 0.000713659 1e-05
-0.0037413 0.000711127 1e-05
-0.00355488 0.000709021 1e-05
-0.00336883 0.000707254 1e-05
-0.00318995 0.000713049 1e-05
-0.003011 0.000710319 1e-05
-0.00283204 0.000708056 1e-05
-0.00265308 0.000706165 1e-05
-0.00247443 0.000704575 1e-05
-0.0023027 0.000709884 1e-05
-0.0021309 0.000707566 1e-05
-0.0019591 0.000705628 1e-05
-0.00178729 0.000703997 1e-05
-0.00161577 0.000702617 1e-05
-0.0014509 0.000707519 1e-05
-0.00128597 0.000705527 1e-05
-0.00112103 0.000703968 1e-05
-0.000956095 0.000702764 1e-05
-0.000791418 0.000701851 1e-05
-0.000633135 0.000706848 1e-05
-0.000474776 0.000705725 1e-05
-0.000316415 0.000705158 1e-05
-0.000158052 0.000705051 1e-05
0 0.000705321 1e-05
0.000105677 0.000709666 1e-05
0.000211442 0.000710366 1e-05
0.000317204 0.000711399 1e-05
0.000422962 0.000712728 1e-05
0.000528387 0.000714316 1e-05
0.000634886 0.000720082 1e-05
0.000741516 0.000722394 1e-05
0.00084814 0.000724974 1e-05
0.000954758 0.000727798 1e-05
0.00106088 0.000730829 1e-05
0.00116821 0.000738298 1e-05
0.00127571 0.000742553 1e-05
0.0013832 0.000747135 1e-05
0.00149068 0.000752022 1e-05
0.00159752 0.000757477 1e-05
0.00170568 0.000767351 1e-05
0.00181401 0.000775129 1e-05
0.00192237 0.000782581 1e-05
0.0020307 0.000790422 1e-05
0.00213833 0.000800013 1e-05
0.00224733 0.00081298 1e-05
0.00235644 0.000825018 1e-05
0.00246564 0.000836209 1e-05
0.00257477 0.000847977 1e-05
0.00268334 0.000861972 1e-05
0.00279319 0.000878433 1e-05
0.00290306 0.000894766 1e-05
0.00301294 0.000910974 1e-05
0.00312272 0.000927909 1e-05
0.00323259 0.000946428 1e-05
0.00334329 0.000966731 1e-05
0.00345394 0.000987354 1e-05
0.00356445 0.00100869 1e-05
0.00367479 0.00103087 1e-05
0.00378611 0.00105413 1e-05
0.00380164 0.00105752 1e-05
0.00381718 0.00106092 1e-05
0.00383271 0.00106433 1e-05
0.00384824 0.00106776 1e-05
0.0038632 0.00107107 1e-05
0.00395935 0.00109246 1e-05
0.00405537 0.00111442 1e-05
0.00415125 0.00113694 1e-05
0.004247 0.00116005 1e-05
0.00434393 0.00118398 1e-05
0.00445636 0.00121186 1e-05
0.00456857 0.00124062 1e-05
0.00468056 0.00127024 1e-05
0.0047924 0.00130038 1e-05
0.00490609 0.00133122 1e-05
0.0050194 0.00136216 1e-05
0.00513254 0.00139369 1e-05
0.00524557 0.00142563 1e-05
0.00535852 0.00145786 1e-05
0.00547262 0.00149074 1e-05
0.0054805 0.00149303 1e-05
0.00548838 0.00149533 1e-05
0.00549626 0.00149762 1e-05
0.00550415 0.00149992 1e-05
0.00551199 0.0015022 1e-05
0.0056183 0.00153319 1e-05
0.00572456 0.00156437 1e-05
0.00583076 0.00159574 1e-05
0.00593691 0.0016273 1e-05
0.00604356 0.00165916 1e-05
0.00615863 0.00169363 1e-05
0.00627368 0.00172819 1e-05
0.00638869 0.00176284 1e-05
0.0065037 0.00179753 1e-05
[...]
POINT_DATA 10755
 FIELD attributes 1
U 3 10755 float
1.13288 	6.39885 	0 1.59175 	5.97926 	0 3.0605 	4.65989 	0 4.29054 	3.52873 	0 5.1814 	2.68001 	0 7.15377 	0.707097 	0 -4.22611 	5.50192 	0 -5.18486 	7.81049 	0 7.56524 	0.661816 	0 0.170779 	4.6669 	0 -9.04803 	14.026 	0 5.93236 	3.10457 	0 -2.52852 	15.5176 	0 -6.41923 	22.2975 	0 7.16702 	5.74121 	0 1.97774 	17.2224 	0 -2.24857 	26.6781 	0 4.29184 	15.8525 	0 9.07715 	8.27036 	0 6.22399 	17.6672 	0 2.38997 	29.3781 	0 7.48805 	19.1169 	0 11.9512 	10.5974 	0 10.9772 	18.2872 	0 10.8621 	23.2193 	0 12.8625 	21.2681 	0 16.0818 	13.7049 	0 16.2304 	13.4326 	0 16.3908 	16.6335 	0 16.8084 	18.1059 	0 17.5785 	17.3653 	0 18.3611 	16.623 	0 19.419 	15.6333 	0 20.184 	15.0505 	0 20.9575 	14.4702 	0 21.7383 	13.8933 	0 22.0833 	13.1306 	0 22.0669 	11.6943 	0 24.2715 	10.5012 	0 26.356 	9.16206 	0 27.0756 	7.07274 	0 27.2302 	4.64369 	0 27.357 	2.88421 	0 28.0762 	0.170294 	0 28.3272 	-2.15784 	0 28.2539 	-4.19967 	0 27.2041 	-5.987 	0 25.8098 	-7.73489 	0 25.1981 	-9.04843 	0 24.5546 	-10.3113 	0 23.3413 	-10.7062 	0 22.1177 	-11.0769 	0 22.1006 	-11.0817 	0 21.4749 	-12.0234 	0 20.8525 	-13.0106 	0 20.0165 	-13.4229 	0 19.1101 	-13.6534 	0 17.9674 	-13.9566 	0 17.5277 	-14.1351 	0 17.0866 	-14.3168 	0 16.6442 	-14.5018 	0 16.3097 	-14.4502 	0 16.0594 	-14.3753 	0 14.8037 	-14.862 	0 13.5062 	-15.3563 	0 12.3179 	-15.3957 	0 11.445 	-14.9735 	0 10.9709 	-14.7461 	0 9.64344 	-15.0821 	0 8.53364 	-15.1936 	0 7.7596 	-14.9724 	0 6.94635 	-14.6557 	0 6.35389 	-14.2898 	0 5.14506 	-14.284 	0 4.40021 	-13.9474 	0 3.63333 	-13.621 	0 2.84324 	-13.3067 	0 2.15356 	-12.9677 	0 1.24507 	-12.6081 	0 0.484439 	-12.198 	0 -0.306762 	-11.8021 	0 -1.12891 	-11.4236 	0 -1.95033 	-11.0406 	0 -2.8868 	-10.5437 	0 -3.70014 	-10.0806 	0 -4.54843 	-9.64681 	0 -5.42689 	-9.24714 	0 -6.43775 	-8.78483 	0 -8.02277 	-8.11383 	0 -8.99909 	-7.63571 	0 -9.94992 	-7.23094 	0 -10.7376 	-6.89685 	0 -11.646 	-6.28024 	0 -13.1563 	-5.35467 	0 -14.0457 	-4.68867 	0 -13.1871 	-4.18869 	0 -12.3705 	-3.72436 	0 -11.8111 	-3.41512 	0 -12.4125 	-3.37487 	0 -13.0464 	-3.35908 	0 -13.8641 	-3.22063 	0 -15.051 	-2.82399 	0 -17.545 	-2.22666 	0 -18.251 	-1.96216 	0 -19.2875 	-1.7837 	0 -20.5808 	-1.67218 	0 -19.9187 	-2.23128 	0 -16.3575 	-3.33797 	0 -24.5243 	-2.44513 	0 -37.1505 	-1.64862 	0 -49.5481 	-1.35703 	0 -35.3351 	-5.24684 	0 1.82036 	-13.0846 	0 1.82036 	-13.0846 	0 1.82036 	-13.0846 	0 1.82036 	-13.0846 	0 1.82036 	-13.0846 	0 1.82036 	-13.0846 	0 4.2193 	-13.1219 	0 6.34783 	-13.1083 	0 8.2107 	-13.0539 	0 9.83772 	-12.968 	0 14.8287 	-13.1459 	0 23.0796 	-10.7777 	0 30.0059 	-9.06315 	0 38.0147 	-7.89273 	0 46.6108 	-7.07097 	0 0.354196 	-0.0318134 	0 1.18869 	-0.0544102 	0 1.49339 	-0.0620626 	0 1.29471 	-0.0538059 	0 1.09603 	-0.0455492 	0 0 	0 	0
9.83275 	3.19178 	0 9.65802 	6.52633 	0 10.0772 	7.67708 	0 11.8151 	4.68199 	0 12.0604 	4.44206 	0 12.9616 	10.4714 	0 13.4029 	18.8526 	0 15.34 	15.3322 	0 17.3381 	10.1888 	0 17.8511 	12.3658 	0 18.3283 	14.6126 	0 18.9067 	13.9632 	0 19.5025 	13.3236 	0 20.2741 	12.5311 	0 21.1487 	11.838 	0 22.0469 	11.1618 	0 22.9663 	10.5033 	0 23.0539 	9.4368 	0 23.1808 	7.33137 	0 24.2087 	6.60911 	0 25.2167 	5.85176 	0 26.0661 	4.99006 	0 26.0978 	3.68373 	0 26.1672 	2.50654 	0 26.7776 	0.446137 	0 27.5054 	-1.59427 	0 27.212 	-3.47824 	0 26.265 	-4.96275 	0 25.3045 	-6.44219 	0 25.1395 	-6.95033 	0 24.9549 	-7.42986 	0 24.5318 	-7.64298 	0 24.1105 	-7.85322 	0 23.9242 	-7.94531 	0 23.2858 	-9.02623 	0 22.692 	-10.1823 	0 22.0055 	-11.2015 	0 20.8922 	-11.5751 	0 19.5645 	-12.0548 	0 19.255 	-12.2253 	0 18.9476 	-12.3989 	0 18.6537 	-12.5355 	0 18.4078 	-12.5105 	0 18.2089 	-12.4907 	0 17.0499 	-13.0759 	0 15.8833 	-13.7248 	0 14.9521 	-13.8143 	0 14.0984 	-13.5608 	0 13.7028 	-13.4442 	0 13.0449 	-13.7135 	0 12.5164 	-13.805 	0 12.1096 	-13.7299 	0 11.7007 	-13.6585 	0 11.1745 	-13.5722 	0 10.9287 	-13.5519 	0 10.6816 	-13.5332 	0 10.4331 	-13.5163 	0 10.2157 	-13.4733 	0 10.0779 	-13.3811 	0 9.59691 	-13.2461 	0 8.92344 	-13.037 	0 8.23365 	-12.835 	0 7.6869 	-12.5158 	0 7.27353 	-12.2066 	0 6.88732 	-11.949 	0 6.495 	-11.695 	0 6.07561 	-11.3345 	0 5.53735 	-10.865 	0 5.03217 	-10.4383 	0 4.80798 	-10.0527 	0 4.58596 	-9.66611 	0 4.36864 	-9.27772 	0 4.04344 	-8.85971 	0 3.46293 	-8.379 	0 3.45722 	-7.96138 	0 3.37814 	-7.47039 	0 3.30657 	-6.97858 	0 3.24394 	-6.48597 	0 3.02545 	-5.88734 	0 3.20501 	-5.64874 	0 3.35816 	-5.43947 	0 3.51799 	-5.23207 	0 3.68461 	-5.02692 	0 3.75839 	-4.9408 	0 3.97838 	-4.58429 	0 4.20914 	-4.23396 	0 4.45017 	-3.89169 	0 4.70063 	-3.55937 	0 5.26702 	-3.36989 	0 6.42645 	-3.0988 	0 7.50543 	-2.85234 	0 8.5279 	-2.61475 	0 10.1543 	-1.83341 	0 15.3184 	0.598918 	0 15.3926 	-0.20426 	0 16.1783 	-0.111164 	0 16.927 	-0.0499585 	0 17.6529 	-0.00829021 	0 18.8693 	0.790198 	0 18.7372 	-0.276295 	0 19.266 	-0.194193 	0 19.7711 	-0.135977 	0 20.2599 	-0.094153 	0 21.169 	0.87675 	0 20.9358 	-0.382713 	0 21.3286 	-0.291965 	0 21.7004 	-0.225326 	0 22.057 	-0.176047 	0 22.7695 	0.912584 	0 22.5025 	-0.443114 	0 22.8163 	-0.34969 	0 23.1115 	-0.279473 	0 23.3929 	-0.226452 	0 23.9809 	0.917431 	0 23.7004 	-0.456122 	0 23.9591 	-0.367332 	0 24.202 	-0.299267 	0 24.4329 	-0.246911 	0 24.9423 	0.90437 	0 24.6507 	-0.443969 	0 24.8683 	-0.362914 	0 25.0724 	-0.299671 	0 25.2662 	-0.250198 	0 25.7262 	0.882664 	0 25.4248 	-0.419167 	0 25.6089 	-0.34787 	0 25.7819 	-0.291325 	0 25.9462 	-0.246393 	0 26.3723 	0.854413 	0 26.0611 	-0.397559 	0 26.2293 	-0.331735 	0 26.3876 	-0.278804 	0 26.5381 	-0.236168 	0 26.9519 	0.833075 	0 26.6295 	-0.359193 	0 26.7928 	-0.302262 	0 26.9477 	-0.255834 	0 27.0958 	-0.217915 	0 27.5169 	0.818073 	0 27.1813 	-0.328366 	0 27.4022 	-0.258868 	0 27.6123 	-0.20158 	0 27.8138 	-0.154244 	0 28.3167 	0.893989 	0 27.887 	-0.197826 	-2.73924e-21 28.1546 	-0.100715 	-1.02973e-20 28.4056 	-0.0193491 	-1.77989e-20 28.643 	0.0490501 	-2.5254e-20 29.3066 	1.20482 	-2.28674e-20 28.7748 	0.190611 	-1.1868e-19 28.9879 	0.283047 	-1.05721e-19 29.1898 	0.366739 	-9.34091e-20 29.3816 	0.442637 	-8.16757e-20 30.1567 	1.63287 	1.89781e-20 29.5507 	0.64064 	2.04827e-21 29.7128 	0.718955 	2.70887e-21 29.8656 	0.790919 	3.24313e-21 30.0099 	0.857116 	3.66268e-21 30.8744 	2.1486 	9.85764e-21 30.2478 	1.19726 	1.96984e-20 30.349 	1.29385 	3.66514e-21 30.4393 	1.38398 	-1.23533e-20 30.5769 	1.56122 	-2.78309e-20 31.3985 	2.86626 	-3.67372e-20 31.0203 	2.2272 	-2.61108e-20 30.914 	2.12616 	-1.81731e-20 30.9037 	2.23675 	-1.12411e-20 31.1178 	2.773 	-2.20638e-20 31.5377 	3.75164 	-5.20174e-20 31.504 	3.47596 	-6.64402e-20 31.4832 	3.22641 	-7.98632e-20 31.3658 	3.38195 	-7.8975e-20 31.353 	4.04173 	-5.39457e-20 31.2976 	4.68999 	-2.94192e-20 31.5996 	4.69761 	-1.96729e-20 31.9041 	4.7057 	-9.90366e-21 31.981 	4.93365 	-3.58777e-21 31.4722 	5.30499 	-1.73514e-20 30.9374 	5.674 	-3.11432e-20 31.5052 	5.87224 	-1.43588e-19 31.575 	6.09605 	-1.43691e-19 31.4766 	6.32637 	-1.07607e-19 31.3612 	6.55461 	-7.01219e-20 30.9944 	6.76131 	-8.03689e-21 31.099 	6.80245 	2.83867e-20 31.0959 	6.82948 	2.98979e-20 31.0718 	6.85376 	2.46438e-20 31.0475 	6.87801 	1.93499e-20 31.0239 	6.90136 	1.42077e-20 30.9285 	7.07227 	7.54066e-22 30.8263 	7.24247 	-1.37474e-20 30.7173 	7.41196 	-2.93048e-20 30.5854 	7.55174 	-2.741e-20 30.3529 	7.52536 	8.05435e-20 30.677 	7.86359 	1.43602e-19 30.973 	8.19201 	2.05109e-19 30.7438 	8.28602 	2.16862e-19 30.2124 	8.19522 	1.57019e-19 29.6707 	8.10259 	9.604e-20 30.1515 	8.401 	1.58031e-19 30.2931 	8.56046 	1.52724e-19 30.1545 	8.60503 	9.17573e-20 30.0118 	8.64835 	3.02587e-20 29.745 	8.65206 	-4.50695e-20 29.7888 	8.66972 	-4.89442e-20 29.7993 	8.67668 	-5.04737e-20 29.7894 	8.67707 	-5.05606e-20 29.7795 	8.67745 	-5.06478e-20 29.7697 	8.67783 	-5.07346e-20 29.6898 	8.71158 	-5.57878e-20 29.6085 	8.745 	-6.0905e-20 29.5257 	8.77808 	-6.60865e-20 29.3791 	8.77941 	-5.78249e-20 29.1001 	8.71477 	-2.13166e-20 29.3614 	8.81986 	-1.26231e-20 29.6215 	8.92468 	-3.92694e-21 29.5731 	8.92057 	-2.217e-21 29.1561 	8.79099 	-6.04938e-21 28.7383 	8.66117 	-9.88876e-21 29.0343 	8.72095 	-8.49784e-21 29.0851 	8.70736 	-1.12709e-20 29.005 	8.65462 	-1.62696e-20 28.9259 	8.60212 	-2.12606e-20 28.845 	8.54812 	-2.6409e-20 28.8338 	8.54011 	-2.64389e-20 28.8225 	8.5321 	-2.64691e-20 28.8113 	8.5241 	-2.64996e-20 28.7947 	8.51175 	-2.52318e-20 28.7633 	8.48754 	-2.04204e-20 28.7895 	8.44589 	9.46395e-23 28.7318 	8.36772 	4.28135e-21 28.6758 	8.28989 	8.27609e-21 28.5323 	8.1721 	7.12031e-22 28.3092 	8.01805 	-1.75831e-20 28.4699 	7.97725 	-1.24687e-19 28.6338 	7.93718 	-2.32093e-19 28.6149 	7.84015 	-2.668e-19 28.3362 	7.65841 	-2.18373e-19 28.0627 	7.47869 	-1.70482e-19 28.2557 	7.41028 	-3.35688e-19 28.225 	7.29202 	-3.77089e-19 28.1539 	7.16469 	-3.94948e-19 28.0867 	7.03817 	-4.1356e-19 28.0133 	6.89167 	-4.36138e-19 28.0117 	6.88667 	-4.37537e-19 28.0102 	6.88168 	-4.38937e-19 28.0086 	6.87669 	-4.40338e-19 28.007 	6.87165 	-4.41794e-19 28.0021 	6.86515 	-4.44832e-19 27.9454 	6.72095 	-6.50171e-19 27.8858 	6.57357 	-8.06837e-19 27.8307 	6.42675 	-9.5957e-19 27.7737 	6.27858 	-1.05122e-18 27.6193 	6.10098 	-2.09231e-19 27.6625 	5.98112 	-1.41849e-19 27.6753 	5.84696 	-5.33731e-20 27.6139 	5.67989 	8.26907e-20 27.4328 	5.4869 	1.29732e-19 27.2574 	5.2961 	1.75787e-19 27.3025 	5.15618 	7.52253e-19 27.3533 	5.01688 	1.32993e-18 27.2938 	4.86169 	1.44126e-18 27.0947 	4.6604 	9.91988e-19 26.9032 	4.46145 	5.46519e-19 26.9418 	4.30249 	1.3992e-18 26.9064 	4.13976 	1.62088e-18 26.8189 	3.97443 	1.388e-18 26.7326 	3.80805 	1.13151e-18 26.5316 	3.60905 	1.92247e-19 26.5291 	3.43559 	5.1928e-20 26.4286 	3.26728 	-9.30979e-20 26.3344 	3.09912 	-2.3763e-19 26.2467 	2.93111 	-3.81658e-19 26.124 	2.75577 	-4.89825e-19 26.0868 	2.6466 	-4.00082e-19 26.0171 	2.54291 	-2.40857e-19 25.9499 	2.43916 	-8.16589e-20 25.8851 	2.33535 	7.75091e-20 25.7865 	2.1707 	3.29759e-19 25.7607 	2.12138 	4.03879e-19 25.7355 	2.07204 	4.78028e-19 25.7108 	2.0227 	5.52208e-19 25.6866 	1.97335 	6.26417e-19 25.6606 	1.92354 	7.0061e-19 25.5462 	1.7705 	8.32715e-19 25.4322 	1.61317 	8.77345e-19 25.3238 	1.45549 	9.16326e-19 25.221 	1.29746 	9.49578e-19 25.1184 	1.13718 	7.02113e-19 25.0033 	1.0045 	5.75779e-19 24.8761 	0.856042 	5.08561e-19 24.7541 	0.707001 	4.42773e-19 24.6375 	0.55737 	3.78441e-19 24.5217 	0.400889 	3.22297e-19 24.3971 	0.279249 	-1.11611e-19 24.2579 	0.139701 	-9.34042e-20 24.1237 	-0.000596334 	-6.58955e-20 23.9945 	-0.141652 	-2.89275e-20 23.8693 	-0.288482 	3.67456e-19 23.7304 	-0.404051 	-5.03415e-20 23.5832 	-0.531078 	-5.66045e-19 23.4406 	-0.658956 	-1.08388e-18 23.3028 	-0.787696 	-1.60386e-18 23.2152 	-0.873027 	-1.94762e-18 23.2066 	-0.882085 	-1.98e-18 23.198 	-0.891148 	-2.01238e-18 23.1895 	-0.900216 	-2.04473e-18 23.181 	-0.909289 	-2.07708e-18 23.1697 	-0.918418 	-2.10076e-18 23.0219 	-1.03085 	-2.26363e-18 22.8773 	-1.1439 	-2.38633e-18 22.7371 	-1.25804 	-2.51613e-18 22.6015 	-1.37328 	-2.65314e-18 22.4251 	-1.48897 	-1.96128e-18 22.2988 	-1.58566 	-6.42718e-19 22.1594 	-1.67907 	-7.65898e-21 22.0237 	-1.7735 	6.38929e-19 21.8917 	-1.86895 	1.29725e-18 21.6742 	-1.96189 	1.95962e-19 21.5634 	-2.03419 	1.48799e-18 21.4396 	-2.10553 	1.9235e-18 21.3129 	-2.17706 	2.04652e-18 21.14 	-2.2459 	1.3868e-18 20.935 	-2.31338 	1.75371e-19 20.8328 	-2.35493 	3.9452e-20 20.7322 	-2.39703 	-9.43413e-20 20.5971 	-2.44182 	1.32997e-19 20.4038 	-2.48609 	6.28855e-19 20.212 	-2.53118 	1.12795e-18 20.121 	-2.54471 	2.27825e-18 20.0261 	-2.55883 	3.34248e-18 19.8532 	-2.57888 	2.92752e-18 19.6709 	-2.60606 	2.01583e-18 19.4849 	-2.63684 	8.78682e-19 19.3999 	-2.63091 	5.49432e-19 19.2401 	-2.64004 	1.67618e-19 19.0685 	-2.65204 	-2.2297e-19 18.8976 	-2.66446 	-6.135e-19 18.7203 	-2.68481 	-8.73926e-19 18.6835 	-2.68249 	-8.67363e-19 18.6209 	-2.68671 	-7.48526e-19 18.5584 	-2.69099 	-6.29721e-19 18.496 	-2.69532 	-5.10951e-19 18.4354 	-2.69959 	-3.95621e-19 18.3281 	-2.70829 	-3.97263e-19 18.221 	-2.71718 	-4.0062e-19 18.1143 	-2.72628 	-4.05721e-19 18.008 	-2.73557 	-4.12596e-19 17.8666 	-2.74715 	5.77955e-19 17.707 	-2.75177 	1.81977e-18 17.5445 	-2.76652 	2.36324e-18 17.3828 	-2.78175 	2.90905e-18 17.2033 	-2.7954 	2.60614e-18 17.0072 	-2.80772 	1.52681e-18 16.8576 	-2.8133 	9.15311e-19 16.7085 	-2.81927 	3.02877e-19 16.5549 	-2.82264 	5.30446e-20 16.3969 	-2.82381 	1.6259e-19 16.239 	-2.8253 	2.72093e-19 16.108 	-2.82754 	8.79849e-20 15.9809 	-2.81844 	5.15424e-20 15.8572 	-2.79887 	1.50211e-19 15.7336 	-2.77932 	2.48892e-19 15.6151 	-2.76354 	3.47867e-19 15.5681 	-2.75974 	3.22966e-19 15.5306 	-2.74658 	3.70831e-19 15.4934 	-2.73308 	4.21194e-19 15.4561 	-2.71954 	4.71504e-19 15.4185 	-2.70588 	5.22122e-19 15.3654 	-2.68922 	6.19206e-19 15.3123 	-2.67251 	7.16143e-19 15.2592 	-2.65576 	8.1293e-19 15.2074 	-2.63802 	8.83116e-19 15.1768 	-2.60728 	5.87797e-19 15.1031 	-2.56457 	-1.84589e-19 15.0421 	-2.52615 	-4.05217e-19 14.9813 	-2.48774 	-5.95892e-19 14.943 	-2.43787 	-7.07081e-20 14.9162 	-2.38192 	8.31829e-19 14.8664 	-2.33502 	1.58513e-18 14.8158 	-2.28785 	2.33896e-18 14.7892 	-2.23468 	2.38027e-18 14.7837 	-2.1816 	1.65248e-18 14.7771 	-2.12847 	9.27085e-19 14.7453 	-2.08335 	1.72656e-18 14.7304 	-2.03361 	1.80741e-18 14.7263 	-1.98068 	1.40591e-18 14.7209 	-1.92751 	1.00881e-18 14.7251 	-1.87872 	3.79222e-20 14.7163 	-1.85325 	3.05341e-20 14.7226 	-1.82433 	2.59783e-20 14.7283 	-1.79534 	2.14087e-20 14.7336 	-1.7663 	1.68253e-20 14.739 	-1.73322 	1.16016e-20 14.7411 	-1.71585 	-3.08635e-20 14.7431 	-1.69847 	-7.298e-20 14.7448 	-1.68106 	-1.14748e-19 14.7464 	-1.66364 	-1.56167e-19 14.752 	-1.64496 	-4.19527e-21 14.7729 	-1.60074 	3.17032e-19 14.7934 	-1.55884 	4.72234e-19 14.8126 	-1.51688 	6.25382e-19 14.8318 	-1.47448 	7.3371e-19 14.8635 	-1.42698 	2.54784e-19 14.8964 	-1.3859 	1.75056e-19 14.9283 	-1.34717 	9.5447e-20 14.9595 	-1.31071 	1.5946e-20 15.0016 	-1.2692 	1.11456e-19 15.0461 	-1.22627 	2.5949e-19 15.0918 	-1.19077 	1.20079e-18 15.1363 	-1.15529 	2.14177e-18 15.1859 	-1.11983 	2.08888e-18 15.244 	-1.08189 	1.06648e-18 15.3008 	-1.04409 	4.48264e-20 15.3595 	-1.01417 	8.14514e-20 15.4172 	-0.984301 	1.1719e-19 15.4871 	-0.949108 	-6.37654e-20 15.554 	-0.917078 	-2.55313e-19 15.6196 	-0.885425 	-4.46747e-19 15.6892 	-0.861569 	-1.2441e-18 15.7627 	-0.836174 	-1.62486e-18 15.8415 	-0.808833 	-1.48306e-18 15.9178 	-0.782791 	-1.00395e-18 15.9902 	-0.759098 	1.00004e-19 16.0708 	-0.742552 	-2.77687e-20 16.1544 	-0.724387 	1.99632e-20 16.2378 	-0.706057 	9.20593e-20 16.3205 	-0.687797 	1.64083e-19 16.3954 	-0.671883 	2.27483e-19 16.4827 	-0.662527 	2.06606e-19 16.5678 	-0.654337 	2.76271e-19 16.6526 	-0.646184 	3.45765e-19 16.737 	-0.638069 	4.15089e-19 16.8161 	-0.631424 	4.55337e-19 16.9039 	-0.633023 	7.68412e-19 16.9877 	-0.635988 	7.19804e-19 17.0716 	-0.638953 	6.71206e-19 17.1555 	-0.641918 	6.22619e-19 17.2389 	-0.644981 	5.51535e-19 17.2456 	-0.645897 	5.43742e-19 17.2518 	-0.646954 	5.35836e-19 17.258 	-0.648012 	5.27931e-19 17.2643 	-0.649069 	5.20027e-19 17.2704 	-0.650117 	5.12194e-19 17.3465 	-0.661946 	4.01735e-19 17.4228 	-0.673741 	2.91193e-19 17.4993 	-0.685502 	1.80571e-19 17.5762 	-0.697229 	6.9868e-20 17.6405 	-0.712073 	0 17.7326 	-0.733428 	-5.11481e-20 17.812 	-0.7566 	-1.36341e-19 17.8921 	-0.779697 	-2.21363e-19 17.9728 	-0.802719 	-3.06217e-19 18.0229 	-0.833269 	-3.91236e-19 18.1279 	-0.862969 	-3.10296e-19 18.2038 	-0.896098 	-3.72034e-19 18.2806 	-0.929129 	-4.33055e-19 18.351 	-0.963806 	-5.09883e-19 18.3838 	-1.00758 	-6.72916e-19 18.4898 	-1.0473 	-4.73639e-19 18.577 	-1.08825 	-3.59633e-19 18.6504 	-1.1301 	-3.08502e-19 18.6943 	-1.17826 	-3.85739e-19 18.7221 	-1.22999 	-5.35247e-19 18.8247 	-1.27797 	-3.46037e-19 18.9284 	-1.32587 	-1.56258e-19 18.9927 	-1.37664 	-1.2175e-20 19.0143 	-1.43521 	-5.86548e-20 19.0374 	-1.49378 	-1.05345e-19 19.1361 	-1.54882 	-3.60703e-19 19.2361 	-1.60379 	-6.16133e-19 19.2933 	-1.66559 	-6.14926e-19 19.3105 	-1.72958 	-2.98295e-19 19.3294 	-1.79365 	1.83382e-20 19.4241 	-1.85457 	-4.08201e-20 19.4953 	-1.91912 	-5.73496e-20 19.5407 	-1.98769 	-2.69046e-20 19.5838 	-2.05619 	-6.22903e-21 19.5992 	-2.12463 	-6.24685e-20 19.6763 	-2.18937 	-3.84762e-21 19.7147 	-2.25923 	-2.23285e-20 19.7546 	-2.32909 	-4.08859e-20 19.7958 	-2.39896 	-5.95191e-20 19.8282 	-2.45206 	-7.3738e-20 19.8323 	-2.45798 	-7.47637e-20 19.8364 	-2.4639 	-7.57888e-20 19.8405 	-2.46981 	-7.68132e-20 19.8446 	-2.47573 	-7.7837e-20 19.8447 	-2.48209 	-7.88317e-20 19.888 	-2.5574 	-1.52092e-19 19.9292 	-2.63253 	-2.20832e-19 19.9721 	-2.70769 	-2.89749e-19 20.0159 	-2.78294 	-3.56913e-19 20.0082 	-2.86317 	-2.86019e-19 20.0756 	-2.94247 	-1.90319e-19 20.1356 	-3.02116 	-1.04308e-19 20.1749 	-3.09852 	-4.52228e-20 20.1643 	-3.1793 	-1.16489e-19 20.1552 	-3.26058 	-1.87963e-19 20.2194 	-3.34124 	-2.21704e-19 20.2787 	-3.42226 	-2.49332e-19 20.2932 	-3.50537 	-2.33423e-19 20.2996 	-3.58775 	-1.9257e-19 20.2901 	-3.66918 	-1.06276e-19 20.3274 	-3.71789 	-1.06039e-19 20.34 	-3.7672 	-9.61534e-20 20.3472 	-3.81669 	-8.40343e-20 20.3548 	-3.86622 	-7.19915e-20 20.362 	-3.91029 	-6.13559e-20 20.3698 	-3.94511 	-4.48639e-20 20.378 	-3.97997 	-2.83418e-20 20.3863 	-4.01485 	-1.17896e-20 20.3893 	-4.04977 	0 20.3787 	-4.08489 	0 20.4145 	-4.17053 	0 20.433 	-4.25382 	0 20.4502 	-4.33692 	0 20.4284 	-4.41949 	0 20.4012 	-4.50277 	0 20.436 	-4.58705 	0 20.4596 	-4.67098 	0 20.4496 	-4.75363 	0 20.4407 	-4.83644 	0 20.4192 	-4.91808 	0 20.4257 	-4.93364 	0 20.4277 	-4.94892 	3.39506e-22 20.4252 	-4.96394 	1.00609e-21 20.4227 	-4.97897 	1.67319e-21 20.4204 	-4.99358 	2.32214e-21 20.4132 	-5.06044 	3.4477e-21 20.4068 	-5.12746 	4.56038e-21 20.401 	-5.19463 	5.66018e-21 20.3798 	-5.26113 	7.24743e-21 20.3446 	-5.3276 	9.27702e-21 20.3483 	-5.409 	1.29697e-19 20.3528 	-5.49061 	2.49988e-19 20.327 	-5.56999 	2.21748e-19 20.2885 	-5.64773 	1.34449e-19 20.2442 	-5.72529 	2.04298e-20 20.2452 	-5.74916 	4.98547e-20 20.2425 	-5.77267 	6.81699e-20 20.232 	-5.79542 	6.35868e-20 20.2216 	-5.81819 	5.89422e-20 20.2117 	-5.84009 	5.4421e-20 20.1884 	-5.89327 	2.51196e-20 20.1655 	-5.94658 	-4.68039e-21 20.1429 	-6.00003 	-3.49794e-20 20.1059 	-6.05214 	1.28919e-20 20.0604 	-6.10395 	1.06538e-19 20.0374 	-6.17727 	4.31177e-19 20.0151 	-6.25084 	7.5524e-19 19.9664 	-6.32141 	7.37688e-19 19.9067 	-6.39041 	5.62295e-19 19.8413 	-6.45932 	3.00843e-19 19.8356 	-6.47667 	3.10574e-19 19.8279 	-6.49374 	3.13637e-19 19.8137 	-6.50991 	2.95702e-19 19.7996 	-6.52609 	2.77757e-19 19.7859 	-6.54183 	2.60302e-19 19.7447 	-6.59145 	1.92184e-19 19.7037 	-6.64124 	1.23831e-19 19.663 	-6.69121 	5.52441e-20 19.6054 	-6.73871 	3.88464e-20 19.5404 	-6.78577 	4.38877e-20 19.496 	-6.84746 	2.16582e-20 19.4509 	-6.90926 	0 19.3751 	-6.96584 	0 19.2995 	-7.0227 	0 19.2169 	-7.07933 	3.89976e-21 19.2128 	-7.08447 	1.76718e-21 19.2082 	-7.08952 	0 19.2011 	-7.09409 	0 19.194 	-7.09865 	0 19.1869 	-7.10318 	0 19.1184 	-7.15049 	0 19.05 	-7.19806 	0 18.9819 	-7.2459 	0 18.8923 	-7.28935 	-8.07572e-20 18.795 	-7.33216 	-1.88077e-19 18.7383 	-7.37258 	-1.59949e-19 18.6767 	-7.41207 	-1.32142e-19 18.5933 	-7.44679 	-1.04524e-19 18.5099 	-7.48173 	-7.7299e-20 18.4329 	-7.5142 	-5.25209e-20 18.4196 	-7.52042 	-3.61773e-20 18.4063 	-7.52665 	-1.98281e-20 18.393 	-7.53288 	-3.47322e-21 18.3762 	-7.53824 	1.33316e-20 18.3585 	-7.54338 	3.02999e-20 18.2735 	-7.57967 	1.68334e-21 18.1797 	-7.61454 	1.68656e-20 18.0843 	-7.64929 	2.61223e-20 17.9606 	-7.67686 	-6.08762e-20 17.8351 	-7.70517 	-1.49619e-19 17.7864 	-7.72156 	-4.68129e-19 17.7353 	-7.73738 	-7.07173e-19 17.6693 	-7.74918 	-4.48695e-19 17.6032 	-7.76108 	-1.89456e-19 17.5399 	-7.77256 	5.93836e-20 17.4927 	-7.7829 	1.14287e-19 17.4455 	-7.7933 	1.69151e-19 17.3983 	-7.80376 	2.23976e-19 17.341 	-7.81116 	2.46275e-19 17.2808 	-7.81796 	2.6109e-19 17.1803 	-7.83495 	7.07689e-19 17.0795 	-7.85221 	1.15337e-18 16.9605 	-7.86423 	1.11851e-18 16.8215 	-7.87124 	5.98862e-19 16.6804 	-7.87869 	7.22253e-20 16.65