# vtk DataFile Version 2.0
track0
ASCII
DATASET POLYDATA
POINTS 10755 double
-0.0205 0.001 1e-05
-0.0204991 0.00100536 1e-05
-0.0204976 0.00101063 1e-05
-0.0204947 0.00101518 1e-05
-0.0204905 0.00101864 1e-05
-0.0204746 0.00102682 1e-05
-0.0201831 0.00105563 1e-05
-0.0203616 0.00128793 1e-05
-0.0204488 0.00141936 1e-05
-0.0201625 0.0014444 1e-05
-0.020152 0.00173164 1e-05
-0.0202219 0.00184007 1e-05
-0.0200496 0.00193025 1e-05
-0.0200809 0.00212221 1e-05
-0.0201295 0.00229098 1e-05
-0.0200088 0.00238763 1e-05
-0.0199912 0.00254122 1e-05
-0.0200042 0.00269527 1e-05
-0.0199828 0.00277425 1e-05
-0.0198691 0.00287784 1e-05
-0.019818 0.00302291 1e-05
-0.0198055 0.00317622 1e-05
-0.0197601 0.00329221 1e-05
-0.0196349 0.00340323 1e-05
-0.0195487 0.00354671 1e-05
-0.0194778 0.00369829 1e-05
-0.0193912 0.00384149 1e-05
-0.0193844 0.00384734 1e-05
-0.0193109 0.00390812 1e-05
-0.019244 0.00397602 1e-05
-0.0191792 0.00404588 1e-05
-0.0191113 0.00411288 1e-05
-0.0190172 0.00419813 1e-05
-0.0189565 0.00424697 1e-05
-0.0188941 0.00429352 1e-05
-0.01883 0.00433777 1e-05
-0.0187644 0.00437971 1e-05
-0.0186591 0.00444232 1e-05
-0.0184268 0.00456543 1e-05
-0.0181855 0.00466982 1e-05
-0.0179371 0.00475615 1e-05
-0.0176828 0.00482259 1e-05
-0.0174976 0.00485418 1e-05
-0.0172058 0.00488494 1e-05
-0.0169124 0.00488672 1e-05
-0.0166199 0.00486443 1e-05
-0.0163296 0.0048213 1e-05
-0.0160387 0.00475726 1e-05
-0.0158285 0.00469427 1e-05
-0.015622 0.00462012 1e-05
-0.0154197 0.00453517 1e-05
-0.0152203 0.00444369 1e-05
-0.0152175 0.00444232 1e-05
-0.0151016 0.00438421 1e-05
-0.0149885 0.00432088 1e-05
-0.0148785 0.00425225 1e-05
-0.0147709 0.00418005 1e-05
-0.0146381 0.00408519 1e-05
-0.0145768 0.00403762 1e-05
-0.0145165 0.00398894 1e-05
-0.014457 0.00393914 1e-05
-0.0143986 0.0038882 1e-05
-0.0143525 0.00384734 1e-05
-0.0142284 0.00373631 1e-05
-0.014111 0.00361837 1e-05
-0.014001 0.00349337 1e-05
-0.013897 0.00336339 1e-05
-0.0138426 0.00329221 1e-05
-0.0137655 0.00318862 1e-05
-0.013696 0.00307983 1e-05
-0.0136328 0.00296726 1e-05
-0.0135733 0.00285262 1e-05
-0.0135362 0.00277425 1e-05
-0.0134932 0.0026776 1e-05
-0.0134574 0.00257808 1e-05
-0.0134255 0.0024772 1e-05
-0.0133983 0.00237499 1e-05
-0.0133803 0.00229098 1e-05
-0.0133654 0.0022008 1e-05
-0.0133564 0.00210982 1e-05
-0.0133527 0.00201848 1e-05
-0.0133551 0.00192709 1e-05
-0.0133637 0.00184007 1e-05
-0.0133786 0.00175593 1e-05
-0.0134011 0.00167351 1e-05
-0.0134306 0.0015933 1e-05
-0.013467 0.00151602 1e-05
-0.0135238 0.00141936 1e-05
-0.0135813 0.00134085 1e-05
-0.0136497 0.00127164 1e-05
-0.0137239 0.00120866 1e-05
-0.0138027 0.00115144 1e-05
-0.0139967 0.00102682 1e-05
-0.014125 0.000957643 1e-05
-0.01426 0.000902703 1e-05
-0.0143982 0.000856556 1e-05
-0.0145371 0.000812437 1e-05
-0.0146381 0.000782036 1e-05
-0.0147221 0.000757742 1e-05
-0.0148065 0.000734794 1e-05
-0.0148912 0.000712987 1e-05
-0.0149764 0.000693196 1e-05
-0.0151503 0.000660566 1e-05
-0.015328 0.000638016 1e-05
-0.0155061 0.000618872 1e-05
-0.0156844 0.000602379 1e-05
-0.0158629 0.000587875 1e-05
-0.0160387 0.000568185 1e-05
-0.0162831 0.000518316 1e-05
-0.0165312 0.000493571 1e-05
-0.0167804 0.000482514 1e-05
-0.0170297 0.000475685 1e-05
-0.0174976 0.000406219 1e-05
-0.0174976 0.000406219 1e-05
-0.0174976 0.000406219 1e-05
-0.0174976 0.000406219 1e-05
-0.0174976 0.000406219 1e-05
-0.0174976 0.000406219 1e-05
-0.0174951 0.000388743 1e-05
-0.0174897 0.000371946 1e-05
-0.017482 0.000356066 1e-05
-0.0174726 0.000341131 1e-05
-0.0174557 0.000318841 1e-05
-0.0173838 0.000255072 1e-05
-0.0172967 0.000214399 1e-05
-0.0172047 0.000186605 1e-05
-0.0171106 0.000167063 1e-05
-0.0160387 4.45516e-06 1e-05
-0.0160288 3.56413e-06 1e-05
-0.0160188 3.10869e-06 1e-05
-0.0160089 2.69512e-06 1e-05
-0.0159989 2.28154e-06 1e-05
-0.015944 0 1e-05
-0.0205 0.00367778 1e-05
-0.0203955 0.00371169 1e-05
-0.0203045 0.00377319 1e-05
-0.0202171 0.00383975 1e-05
-0.020198 0.00384734 1e-05
-0.0199618 0.00393433 1e-05
-0.0197661 0.00409248 1e-05
-0.0196202 0.00429761 1e-05
-0.0194754 0.00444232 1e-05
-0.0193838 0.00449618 1e-05
-0.0192964 0.00455672 1e-05
-0.0192133 0.00462299 1e-05
-0.0191278 0.00468615 1e-05
-0.0190172 0.0047617 1e-05
-0.0189142 0.00482536 1e-05
-0.0188085 0.0048845 1e-05
-0.0187005 0.00493919 1e-05
-0.0185904 0.00498955 1e-05
-0.0183694 0.00508 1e-05
-0.018195 0.00513515 1e-05
-0.0180186 0.00518331 1e-05
-0.0178405 0.00522465 1e-05
-0.0176608 0.00525904 1e-05
-0.0174976 0.00528209 1e-05
-0.0172058 0.00531004 1e-05
-0.0169127 0.00531492 1e-05
-0.0166201 0.00529796 1e-05
-0.0163293 0.00526079 1e-05
-0.0160387 0.00520587 1e-05
-0.0159398 0.0051807 1e-05
-0.0158414 0.00515351 1e-05
-0.0157437 0.00512439 1e-05
-0.0156462 0.00509404 1e-05
-0.0156031 0.00508 1e-05
-0.0154101 0.0050159 1e-05
-0.0152205 0.0049424 1e-05
-0.0150349 0.00485914 1e-05
-0.0148537 0.00476688 1e-05
-0.0146381 0.00464742 1e-05
-0.0145715 0.0046064 1e-05
-0.0145055 0.00456449 1e-05
-0.0144401 0.00452167 1e-05
-0.0143752 0.00447805 1e-05
-0.0143226 0.00444232 1e-05
-0.0141491 0.00432332 1e-05
-0.0139822 0.00419531 1e-05
-0.013823 0.00405777 1e-05
-0.0136685 0.00391501 1e-05
-0.0135982 0.00384734 1e-05
-0.0135372 0.00378755 1e-05
-0.0134784 0.00372569 1e-05
-0.013421 0.00366244 1e-05
-0.0133646 0.00359841 1e-05
-0.0132934 0.00351541 1e-05
-0.0132567 0.00347077 1e-05
-0.0132204 0.00342576 1e-05
-0.0131846 0.00338037 1e-05
-0.0131492 0.00333459 1e-05
-0.0131171 0.00329221 1e-05
-0.0130391 0.00318862 1e-05
-0.012963 0.0030836 1e-05
-0.0128897 0.00297658 1e-05
-0.0128197 0.00286742 1e-05
-0.0127625 0.00277425 1e-05
-0.0127049 0.0026776 1e-05
-0.0126487 0.00258012 1e-05
-0.0125941 0.00248175 1e-05
-0.0125409 0.00238259 1e-05
-0.0124942 0.00229098 1e-05
-0.0124508 0.0022008 1e-05
-0.0124076 0.00211048 1e-05
-0.0123647 0.00202003 1e-05
-0.012322 0.00192945 1e-05
-0.0122812 0.00184007 1e-05
-0.0122464 0.00175593 1e-05
-0.0122102 0.00167241 1e-05
-0.0121727 0.00158946 1e-05
-0.0121337 0.00150718 1e-05
-0.0120897 0.00141936 1e-05
-0.0120723 0.00138541 1e-05
-0.0120535 0.00135222 1e-05
-0.0120334 0.00131975 1e-05
-0.0120121 0.00128808 1e-05
-0.0120025 0.00127498 1e-05
-0.0119648 0.00122535 1e-05
-0.0119239 0.00117825 1e-05
-0.0118799 0.00113403 1e-05
-0.011833 0.00109297 1e-05
-0.0117456 0.00102682 1e-05
-0.0116311 0.000953567 1e-05
-0.0115087 0.000894534 1e-05
-0.0113817 0.00084625 1e-05
-0.0112517 0.000806407 1e-05
-0.0107632 0.000718202 1e-05
-0.0105252 0.000727506 1e-05
-0.0102871 0.000724346 1e-05
-0.010049 0.000722709 1e-05
-0.00981081 0.000722006 1e-05
-0.00957337 0.000721895 1e-05
-0.00934491 0.000731462 1e-05
-0.00911628 0.000728091 1e-05
-0.00888763 0.000725786 1e-05
-0.00865898 0.000724214 1e-05
-0.00843108 0.000723155 1e-05
-0.00821175 0.000732238 1e-05
-0.00799227 0.000728226 1e-05
-0.00777277 0.000725222 1e-05
-0.00755327 0.000722942 1e-05
-0.00733443 0.000721196 1e-05
-0.00712387 0.000729635 1e-05
-0.00691317 0.000725486 1e-05
-0.00670246 0.000722257 1e-05
-0.00649174 0.000719709 1e-05
-0.0062816 0.000717674 1e-05
-0.00607944 0.000725408 1e-05
-0.00587718 0.000721515 1e-05
-0.0056749 0.000718414 1e-05
-0.00547262 0.000715913 1e-05
-0.00527083 0.000713874 1e-05
-0.00507675 0.000720911 1e-05
-0.00488258 0.000717413 1e-05
-0.00468839 0.00071458 1e-05
-0.0044942 0.000712259 1e-05
-0.00430044 0.00071034 1e-05
-0.00411412 0.000716733 1e-05
-0.00392771 0.000713659 1e-05
-0.0037413 0.000711127 1e-05
-0.00355488 0.000709021 1e-05
-0.00336883 0.000707254 1e-05
-0.00318995 0.000713049 1e-05
-0.003011 0.000710319 1e-05
-0.00283204 0.000708056 1e-05
-0.00265308 0.000706165 1e-05
-0.00247443 0.000704575 1e-05
-0.0023027 0.000709884 1e-05
-0.0021309 0.000707566 1e-05
-0.0019591 0.000705628 1e-05
-0.00178729 0.000703997 1e-05
-0.00161577 0.000702617 1e-05
-0.0014509 0.000707519 1e-05
-0.00128597 0.000705527 1e-05
-0.00112103 0.000703968 1e-05
-0.000956095 0.000702764 1e-05
-0.000791418 0.000701851 1e-05
-0.000633135 0.000706848 1e-05
-0.000474776 0.000705725 1e-05
-0.000316415 0.000705158 1e-05
-0.000158052 0.000705051 1e-05
0 0.000705321 1e-05
0.000105677 0.000709666 1e-05
0.000211442 0.000710366 1e-05
0.000317204 0.000711399 1e-05
0.000422962 0.000712728 1e-05
0.000528387 0.000714316 1e-05
0.000634886 0.000720082 1e-05
0.000741516 0.000722394 1e-05
0.00084814 0.000724974 1e-05
0.000954758 0.000727798 1e-05
0.00106088 0.000730829 1e-05
0.00116821 0.000738298 1e-05
0.00127571 0.000742553 1e-05
0.0013832 0.000747135 1e-05
0.00149068 0.000752022 1e-05
0.00159752 0.000757477 1e-05
0.00170568 0.000767351 1e-05
0.00181401 0.000775129 1e-05
0.00192237 0.000782581 1e-05
0.0020307 0.000790422 1e-05
0.00213833 0.000800013 1e-05
0.00224733 0.00081298 1e-05
0.00235644 0.000825018 1e-05
0.00246564 0.000836209 1e-05
0.00257477 0.000847977 1e-05
0.00268334 0.000861972 1e-05
0.00279319 0.000878433 1e-05
0.00290306 0.000894766 1e-05
0.00301294 0.000910974 1e-05
0.00312272 0.000927909 1e-05
0.00323259 0.000946428 1e-05
0.00334329 0.000966731 1e-05
0.00345394 0.000987354 1e-05
0.00356445 0.00100869 1e-05
0.00367479 0.00103087 1e-05
0.00378611 0.00105413 1e-05
0.00380164 0.00105752 1e-05
0.00381718 0.00106092 1e-05
0.00383271 0.00106433 1e-05
0.00384824 0.00106776 1e-05
0.0038632 0.00107107 1e-05
0.00395935 0.00109246 1e-05
0.00405537 0.00111442 1e-05
0.00415125 0.00113694 1e-05
0.004247 0.00116005 1e-05
0.00434393 0.00118398 1e-05
0.00445636 0.00121186 1e-05
0.00456857 0.00124062 1e-05
0.00468056 0.00127024 1e-05
0.0047924 0.00130038 1e-05
0.00490609 0.00133122 1e-05
0.0050194 0.00136216 1e-05
0.00513254 0.00139369 1e-05
0.00524557 0.00142563 1e-05
0.00535852 0.00145786 1e-05
0.00547262 0.00149074 1e-05
0.0054805 0.00149303 1e-05
0.00548838 0.00149533 1e-05
0.00549626 0.00149762 1e-05
0.00550415 0.00149992 1e-05
0.00551199 0.0015022 1e-05
0.0056183 0.00153319 1e-05
0.00572456 0.00156437 1e-05
0.00583076 0.00159574 1e-05
0.00593691 0.0016273 1e-05
0.00604356 0.00165916 1e-05
0.00615863 0.00169363 1e-05
0.00627368 0.00172819 1e-05
0.00638869 0.00176284 1e-05
0.0065037 0.00179753 1e-05
[...]
POINT_DATA 10755
 FIELD attributes 2
p 1 10755 float
112.434 127.67 132.015 134.613 135.326 133.184 122.369 759.969 738.587 575.659 644.918 284.458 270.213 246.447 -60.8729 -0.130767 92.4038 -47.9919 -159.276 -68.3081 104.083 -41.3505 -182.375 -115.96 -56.9899 -82.6577 -224.164 -230.817 -212.669 -207.73 -223.639 -241.303 -267.153 -284.654 -303.295 -323.031 -322.631 -296.313 -342.043 -389.563 -402.442 -404.318 -410.378 -413.926 -417.134 -421.167 -404.011 -381.957 -365.312 -350.605 -329.322 -309.367 -309.109 -296.538 -284.96 -270.536 -255.527 -237.368 -229.491 -221.835 -214.409 -213.775 -214.312 -180.332 -148.375 -138.981 -147.293 -152.234 -117.308 -93.4931 -85.2432 -84.1269 -93.9244 -64.8952 -57.5733 -50.5171 -43.772 -46.921 -32.2251 -26.6232 -21.4144 -16.6665 -19.7642 -8.94381 -6.54993 -4.72279 -3.50487 -27.4127 -4.91171 -5.68726 -9.09231 -22.0401 -100.925 -97.7304 -109.284 -149.743 -190.301 -219.716 -241.927 -264.177 -290.458 -325.008 -392.952 -448.535 -504.663 -561.199 -624.822 -694.38 -807.463 -919.554 -1032.96 -1175.13 -1444.26 -1444.26 -1444.26 -1444.26 -1444.26 -1444.26 -1442.72 -1439.47 -1434.91 -1429.38 -1422.84 -1373.91 -1322.11 -1270.25 -1218.87 -716.4 -711.84 -707.861 -704.408 -700.954 -681.903
95.9684 95.8618 71.1822 -6.90801 -18.2123 -26.486 19.5199 -48.2728 -147.755 -143.947 -137.46 -151.325 -166.209 -186.213 -203.974 -222.954 -243.074 -239.549 -232.31 -251.794 -271.993 -290.62 -297.001 -304.538 -311.005 -322.403 -318.893 -308.954 -300.775 -296.987 -293.135 -285.977 -278.985 -275.954 -263.505 -252.522 -240.886 -223.282 -202.951 -196.675 -190.529 -185.43 -184.2 -183.253 -153.116 -122.729 -111.176 -113.917 -115.595 -98.0616 -87.0953 -82.1866 -77.3286 -71.1793 -68.1452 -65.1361 -62.1531 -60.2421 -60.5353 -46.2902 -37.5942 -29.0497 -27.5882 -28.9111 -13.454 2.04883 8.38412 6.06511 3.8158 19.2664 30.524 34.6389 36.6247 33.4645 47.3909 50.0031 52.5974 55.1698 54.8358 58.5137 58.6555 58.7855 58.9027 58.9469 59.439 59.9229 60.3961 60.856 57.3048 58.273 58.6462 58.5162 53.0724 33.8179 29.591 23.5626 17.6144 11.7155 4.64466 1.56053 -2.77436 -7.06251 -11.3185 -16.36 -17.238 -19.8678 -22.4486 -24.9943 -28.7603 -28.4672 -30.1493 -31.7854 -33.3874 -36.3919 -35.5861 -36.6787 -37.7331 -38.7583 -41.1477 -40.0087 -40.642 -41.2445 -41.8232 -43.7035 -42.3277 -42.6215 -42.891 -43.1414 -44.6496 -43.1257 -43.1111 -43.0768 -43.0267 -44.1498 -42.408 -42.0391 -41.6551 -41.2589 -42.0043 -39.9252 -38.7995 -37.6608 -36.5114 -36.3818 -33.7807 -32.1027 -30.4114 -28.709 -28.2901 -26.0816 -25.237 -24.3846 -23.5251 -24.2402 -22.9687 -22.5312 -22.0915 -21.6498 -22.3067 -21.3131 -20.5537 -19.7962 -19.093 -19.0415 -18.3073 -17.4346 -16.5147 -15.708 -15.053 -14.3058 -13.5216 -12.4353 -11.4331 -10.4929 -9.56638 -8.6364 -7.9366 -7.15086 -6.41074 -5.46309 -5.02193 -4.76329 -4.53764 -4.39844 -4.30588 -4.33378 -4.38544 -4.43774 -4.48878 -4.64553 -4.82331 -5.02229 -5.18051 -5.00102 -6.04557 -7.11072 -7.92879 -8.46426 -9.0147 -10.5103 -11.8496 -13.0575 -14.2733 -15.517 -15.6473 -15.7659 -15.8774 -15.9888 -16.0997 -17.4054 -18.7143 -20.0262 -21.1632 -21.9359 -23.6225 -25.3101 -26.6866 -27.8461 -29.0077 -30.4324 -31.6082 -32.6507 -33.6931 -34.7698 -35.011 -35.2522 -35.4934 -35.7191 -35.9021 -37.152 -38.4796 -39.8088 -40.989 -42.0252 -43.1997 -44.3772 -45.3606 -46.4632 -47.5626 -48.5875 -49.4331 -50.2488 -51.0708 -52.0361 -52.0733 -52.1105 -52.1476 -52.185 -52.228 -53.0249 -53.8599 -54.7054 -55.5717 -56.6039 -56.9653 -57.4593 -58.2393 -59.2473 -60.2617 -60.5416 -60.8341 -61.3422 -62.2855 -63.2363 -63.4221 -63.77 -64.2384 -64.7355 -65.5877 -65.7187 -66.0946 -66.4859 -66.8929 -67.4284 -67.5163 -67.6966 -67.8834 -68.0766 -68.3933 -68.4986 -68.6051 -68.713 -68.8222 -68.9605 -69.1347 -69.3529 -69.5856 -69.833 -70.1921 -70.2158 -70.3399 -70.4781 -70.6305 -70.915 -70.8476 -70.8802 -70.9263 -70.986 -71.1428 -71.0286 -70.9793 -70.9424 -70.918 -70.9103 -70.9112 -70.9122 -70.9133 -70.9144 -70.9203 -70.8064 -70.7139 -70.6335 -70.5653 -70.5815 -70.2716 -70.1465 -70.031 -69.9254 -69.9731 -69.5416 -69.33 -69.2046 -69.1527 -69.155 -68.77 -68.3901 -68.235 -68.1899 -68.1501 -67.8198 -67.4937 -67.207 -67.0713 -67.0056 -66.7355 -66.4752 -66.2187 -65.9649 -65.7962 -65.719 -65.6392 -65.5596 -65.4803 -65.4037 -65.2621 -65.1216 -64.9819 -64.8433 -64.6877 -64.3946 -64.219 -64.0454 -63.8579 -63.6575 -63.4429 -63.2298 -63.043 -62.8857 -62.729 -62.591 -62.4315 -62.2521 -62.0728 -61.9387 -61.9065 -61.8539 -61.8006 -61.7471 -61.6932 -61.6129 -61.5325 -61.452 -61.3687 -61.2473 -61.1422 -61.05 -60.9579 -60.828 -60.6781 -60.6326 -60.5865 -60.5129 -60.4254 -60.3378 -60.3479 -60.3397 -60.3191 -60.2981 -60.2692 -60.3056 -60.3291 -60.3525 -60.3758 -60.4022 -60.4119 -60.4217 -60.4314 -60.4411 -60.4437 -60.5381 -60.6173 -60.6965 -60.7745 -60.838 -60.9972 -61.1391 -61.264 -61.3901 -61.516 -61.7179 -61.9196 -62.1021 -62.2781 -62.4533 -62.6855 -62.9174 -63.1745 -63.3987 -63.6195 -63.8772 -64.149 -64.4388 -64.715 -64.9664 -65.2347 -65.5389 -65.8477 -66.1558 -66.4338 -66.7176 -67.0408 -67.3637 -67.6861 -67.9977 -68.3081 -68.6407 -68.9734 -69.306 -69.6381 -69.6621 -69.6877 -69.7133 -69.7389 -69.7642 -70.0739 -70.3839 -70.6944 -71.0052 -71.337 -71.6698 -71.9954 -72.3221 -72.6499 -73.0228 -73.3518 -73.6579 -73.9658 -74.2824 -74.6375 -74.9283 -75.2125 -75.4925 -75.8053 -76.1387 -76.392 -76.6482 -76.9102 -77.2112 -77.5169 -77.7373 -77.9612 -78.2224 -78.5008 -78.7845 -78.9797 -79.1982 -79.4424 -79.6927 -79.9583 -80.1364 -80.3511 -80.5708 -80.7955 -80.97 -80.9912 -81.0125 -81.0339 -81.0553 -81.0788 -81.2966 -81.521 -81.7514 -81.9881 -82.2479 -82.442 -82.6403 -82.84 -83.0386 -83.2454 -83.3941 -83.5451 -83.6743 -83.8048 -83.9331 -83.9798 -84.0063 -84.0298 -84.0558 -84.0811 -84.1244 -84.1691 -84.2151 -84.2556 -84.2806 -84.292 -84.3007 -84.3157 -84.2845 -84.2527 -84.1783 -84.0961 -83.9781 -83.868 -83.7646 -83.7373 -83.7045 -83.6663 -83.6284 -83.5918 -83.4659 -83.3455 -83.2305 -83.1019 -82.9609 -82.7194 -82.4858 -82.2186 -81.9592 -81.7124 -81.6183 -81.5201 -81.4124 -81.3056 -81.2036 -80.9694 -80.739 -80.5125 -80.2748 -80.0306 -79.5967 -79.1704 -78.7262 -78.2977 -77.8867 -77.7629 -77.638 -77.508 -77.3785 -77.2531 -76.8706 -76.4922 -76.118 -75.726 -75.3255 -74.727 -74.1343 -73.5104 -72.8939 -72.2973 -72.2373 -72.1769 -72.1139 -72.051 -71.9887 -71.3594 -70.7354 -70.1166 -69.4735 -68.8184 -68.1479 -67.4767 -66.7877 -66.1034 -65.4759 -65.3619 -65.2479 -65.1341 -65.0151 -64.8946 -64.0032 -63.1574 -62.3149 -61.4482 -60.5744 -60.052 -59.5299 -59.0017 -58.4751 -57.9728 -57.5675 -57.1631 -56.7595 -56.3491 -55.9351 -54.9358 -53.9405 -52.9487 -52.002 -51.0457 -50.781 -50.5166 -50.252 -49.9877 -49.728 -48.9744 -48.2225 -47.4723 -46.7211 -45.9627 -44.9515 -43.9427 -42.9352 -41.9305 -40.9855 -40.9409 -40.8964 -40.8518 -40.8073 -40.7627 -39.6917 -38.6348 -37.5799 -36.5324 -35.4725 -34.7919 -34.1129 -33.4414 -32.7708 -32.1223 -31.7336 -31.3451 -30.9569 -30.5724 -30.187 -29.1132 -28.0407 -26.9998 -25.9847 -24.9573 -24.6035 -24.2508 -23.905 -23.5593 -23.2189 -22.5377 -21.8568 -21.1762 -20.5075 -19.8358 -18.8289 -17.8228 -16.844 -15.866 -14.893 -14.8205 -14.7482 -14.6779 -14.6075 -14.5374 -13.6496 -12.762 -11.8748 -11.0113 -10.1442 -9.37772 -8.61558 -7.87276 -7.1302 -6.40916 -6.25511 -6.10106 -5.94702 -5.7993 -5.65338 -4.7759 -3.92271 -3.07231 -2.26799 -1.45498 -0.939768 -0.431138 0.0510284 0.533172 1.00738 1.30382 1.60028 1.89674 2.16901 2.43859 3.19736 3.95618 4.66856 5.33315 6.00392 6.19835 6.39079 6.5629 6.735 6.90616 7.38091 7.85571 8.33056 8.75493 9.17586 9.70862 10.2368 10.7043 11.1717 11.6375 11.7076 11.7776 11.8477 11.9089 11.9694 12.4912 13.0002 13.4954 13.929 14.3601 14.5717 14.7813 14.9609 15.1405 15.3216 15.547 15.7722 15.9974 16.1867 16.3716 16.744 17.116 17.4215 17.7231 18.0115 18.0369 18.0616 18.0817 18.1017 18.1218 18.3727 18.6228 18.8721 19.0668 19.2487 19.427 19.5972 19.7288 19.8596 19.9992 20.0358 20.0722 20.1087 20.1364 20.1612 20.3131 20.4561 20.5902 20.6804 20.7658 20.8474 20.9182 20.9674 21.016 21.0693 21.0881 21.1069 21.1255 21.1369 21.1431 21.2028 21.251 21.2967 21.3005 21.3016 21.3359 21.3532 21.3488 21.3435 21.3331 21.3348 21.334 21.3317 21.3294 21.327 21.3125 21.2971 21.2808 21.2579 21.2233 21.1965 21.1688 21.129 21.0759 21.0229 20.9812 20.9303 20.8714 20.8116 20.7479 20.724 20.6942 20.6642 20.634 20.5987 20.5611 20.5233 20.4852 20.4469 20.3949 20.3297 20.2525 20.1744 20.0878 19.9829 19.9142 19.8416 19.7567 19.6478 19.5384 19.465 19.3913 19.2983 19.1863 19.0745 18.9984 18.922 18.8237 18.7098 18.5954 18.5157 18.4296 18.3283 18.2176 18.101 18.0178 17.9248 17.8233 17.7167 17.6019 17.5189 17.4253 17.327 17.2258 17.1165 17.0376 16.9458 16.8503 16.7524 16.6455 16.5678 16.475 16.3785 16.2792 16.1695 16.0865 15.9919 15.8939 15.793 15.6836 15.5986 15.5056 15.4088 15.308 15.2012 15.1166 15.0272 14.9325 14.8317 14.7271 14.6427 14.5571 14.461 14.3523 14.243 14.1512 14.0592 13.9573 13.8454 13.7323 13.6336 13.5322 13.4236 13.3137 13.1996 13.1157 13.0262 12.9366 12.8469 12.7925 12.7639 12.7354 12.7068 12.6782 12.6493 12.534 12.4201 12.306 12.1909 12.0714 11.9482 11.8247 11.7003 11.576 11.4494 11.4184 11.3876 11.3574 11.3271 11.2985 11.198 11.0974 10.9967 10.8944 10.7888 10.6506 10.5124 10.3764 10.2403 10.1026 10.095 10.0876 10.0804 10.0733 10.0661 9.93382 9.80147 9.66908 9.5427 9.41652 9.31261 9.20957 9.11273 9.01592 8.91756 8.8806 8.84364 8.80667 8.77237 8.73856 8.60264 8.46705 8.34123 8.2251 8.11088 8.0523 7.99575 7.94769 7.89966 7.84845 7.78793 7.72746 7.66704 7.61606 7.56875 7.46495 7.36126 7.27547 7.20707 7.14071 7.10151 7.06782 7.04229 7.01678 6.98823 6.95355 6.91894 6.88441 6.85676 6.83591 6.77987 6.72495 6.68649 6.66658 6.64734 6.61031 6.58559 6.57065 6.55569 6.54679 6.54139 6.54085 6.54076 6.54066 6.54055 6.53785 6.53528 6.53283 6.5305 6.54107 6.54079 6.55172 6.56357 6.58433 6.6147 6.62723 6.64298 6.67244 6.71943 6.7683 6.79695 6.82745 6.87493 6.93636 7.00108 7.04525 7.09965 7.16241 7.22536 7.30171 7.32789 7.36069 7.39455 7.42838 7.44749 7.4894 7.53112 7.57262 7.61895 7.67466 7.74688 7.81893 7.903 8.00053 8.11214 8.12193 8.1317 8.14295 8.155 8.16586 8.25583 8.34431 8.43866 8.5394 8.6501 8.65795 8.6659 8.67462 8.68334 8.69246 8.76751 8.84217 8.91636 8.99375 9.05195 9.12937 9.20658 9.28505 9.36477 9.44415 9.47045 9.49633 9.52181 9.5473 9.57091 9.62711 9.68328 9.73942 9.79379 9.853 9.93599 10.0185 10.097 10.1741 10.2791 10.2806 10.2821 10.2835 10.2849 10.2864 10.374 10.4586 10.5359 10.6039 10.6638 10.6842 10.7039 10.7212 10.7384 10.7618 10.7924 10.8225 10.8521 10.8813 10.909 10.9448 10.9808 11.0209 11.0617 11.1005 11.131 11.1608 11.1913 11.2282 11.2643 11.292 11.32 11.3486 11.3797 11.4144 11.4408 11.4684 11.4962 11.5248 11.5588 11.585 11.6133 11.6416 11.6701 11.7048 11.7321 11.7624 11.7927 11.823 11.8597 11.8893 11.9229 11.9565 11.9903 12.0303 12.0635 12.1013 12.1393 12.1779 12.2223 12.26 12.3026 12.3458 12.3901 12.4396 12.4826 12.5303 12.5791 12.6294 12.684 12.7322 12.7846 12.8388 12.8946 12.9539 13.0069 13.0633 13.1216 13.1818 13.2444 13.3008 13.3596 13.4205 13.4831 13.5475 13.6054 13.665 13.7266 13.7898 13.8541 13.9119 13.9706 14.0312 14.0932 14.1557 14.2118 14.2682 14.3261 14.3849 14.4439 14.4964 14.549 14.6025 14.6566 14.7108 14.7585 14.8063 14.8545 14.903 14.9515 14.9937 15.0359 15.0783 15.1207 15.1632 15.1995 15.2357 15.2719 15.3079 15.3439 15.3737 15.4034 15.4332 15.4628 15.4924 15.5157 15.5391 15.5628 15.5863 15.6099 15.6271 15.6449 15.6628 15.6807 15.6989 15.711 15.7238 15.7366 15.7494 15.7623 15.7648 15.7675 15.7702 15.7729 15.7755 15.7814 15.7874 15.7934 15.7994 15.8044 15.8104 15.8154 15.8204 15.8254 15.8281 15.8317 15.8341 15.836 15.8368 15.8368 15.8377 15.8385 15.8379 15.8359 15.834 15.8328 15.8317 15.8293 15.8261 15.8227 15.8201 15.8167 15.8131 15.8094 15.8051 15.8023 15.7991 15.7959 15.7926 15.7894 15.7881 15.7869 15.7856 15.7843 15.7834 15.7779 15.7729 15.7679 15.7628 15.7596 15.7528 15.7468 15.7413 15.7373 15.7338 15.7266 15.7195 15.7139 15.7099 15.7059 15.6985 15.6913 15.6852 15.6799 15.6753 15.6673 15.6601 15.653 15.6459 15.6395 15.6349 15.6306 15.6262 15.6218 15.6173 15.6133 15.6093 15.6052 15.6012 15.597 15.5861 15.5747 15.5634 15.552 15.5379 15.5222 15.5075 15.4935 15.4804 15.4676 15.4541 15.4397 15.4203 15.3961 15.371 15.3436 15.3152 15.2839 15.2504 15.2158 15.1791 15.1419 15.104 15.066 15.0278 14.9876 14.947 14.906 14.8651 14.8241 14.781 14.7368 14.6924 14.648 14.6029 14.5555 14.5072 14.4589 14.4106 14.3619 14.3107 14.2595 14.2083 14.1571 14.1059 14.0509 13.9951 13.9393 13.8835 13.8277 13.8266 13.8256 13.8245 13.8235 13.8224 13.7611 13.6998 13.6385 13.5771 13.5153 13.4457 13.3756 13.3054 13.2352 13.1636 13.0864 13.0088 12.9312 12.8536 12.7753 12.692 12.607 12.5213 12.4346 12.3463 12.2526 12.1585 12.0634 11.9671 11.8705 11.768 11.6656 11.5619 11.4569 11.3518 11.2407 11.1295 11.0167 10.9021 10.7876 10.6665 10.5454 10.4218 10.2961 10.1702 10.0374 9.90309 9.76652 9.62849 9.48862 9.34122 9.19034 9.03847 8.8866 8.73087 8.56572 8.39549 8.22527 8.05505 7.88222 7.70524 7.5257 7.34617 7.16664 6.96357 6.95697 6.95038 6.94379 6.93719 6.93048 6.71473 6.49875 6.28276 6.06675 5.84434 5.60537 5.36449 5.12361 4.88272 4.63819 4.38575 4.10063 3.81243 3.50949 3.17862 2.8371 2.51546 2.23049 1.99952 1.78108 1.55637 1.33166 0.973066 0.486418 0