# vtk DataFile Version 2.0
track0
ASCII
DATASET POLYDATA
POINTS 10880 double
-0.0205 0.001 1e-05
-0.0202034 0.00100003 1e-05
-0.0199069 0.00100026 1e-05
-0.0196103 0.00100071 1e-05
-0.0193137 0.00100137 1e-05
-0.0190172 0.00100225 1e-05
-0.0187132 0.00100354 1e-05
-0.0184093 0.0010045 1e-05
-0.0181054 0.00100547 1e-05
-0.0178015 0.00100644 1e-05
-0.0174976 0.00100741 1e-05
-0.0172058 0.00100863 1e-05
-0.016914 0.00100939 1e-05
-0.0166222 0.00101011 1e-05
-0.0163305 0.00101076 1e-05
-0.0160387 0.00101136 1e-05
-0.0157586 0.0010122 1e-05
-0.0154784 0.00101261 1e-05
-0.0151983 0.00101297 1e-05
-0.0149182 0.00101329 1e-05
-0.0146381 0.00101356 1e-05
-0.0143692 0.00101412 1e-05
-0.0141002 0.00101426 1e-05
-0.0138313 0.00101437 1e-05
-0.0135624 0.00101444 1e-05
-0.0132934 0.00101448 1e-05
-0.0130353 0.00101483 1e-05
-0.0127771 0.00101477 1e-05
-0.0125189 0.00101468 1e-05
-0.0122607 0.00101457 1e-05
-0.0120025 0.00101443 1e-05
-0.0117547 0.00101464 1e-05
-0.0115068 0.00101443 1e-05
-0.0112589 0.0010142 1e-05
-0.0110111 0.00101395 1e-05
-0.0107632 0.00101368 1e-05
-0.0105252 0.0010138 1e-05
-0.0102873 0.00101348 1e-05
-0.0100493 0.00101314 1e-05
-0.00981133 0.00101277 1e-05
-0.00957337 0.00101239 1e-05
-0.00934491 0.00101246 1e-05
-0.00911645 0.00101205 1e-05
-0.008888 0.00101161 1e-05
-0.00865954 0.00101116 1e-05
-0.00843108 0.00101068 1e-05
-0.00821175 0.00101072 1e-05
-0.00799242 0.00101022 1e-05
-0.00777309 0.0010097 1e-05
-0.00755376 0.00100916 1e-05
-0.00733443 0.0010086 1e-05
-0.00712387 0.00100862 1e-05
-0.0069133 0.00100804 1e-05
-0.00670273 0.00100744 1e-05
-0.00649217 0.00100683 1e-05
-0.0062816 0.00100619 1e-05
-0.00607944 0.00100619 1e-05
-0.00587729 0.00100554 1e-05
-0.00567514 0.00100487 1e-05
-0.00547299 0.00100417 1e-05
-0.00527083 0.00100345 1e-05
-0.00507675 0.00100345 1e-05
-0.00488268 0.00100273 1e-05
-0.0046886 0.00100198 1e-05
-0.00449452 0.00100121 1e-05
-0.00430044 0.00100041 1e-05
-0.00411412 0.0010004 1e-05
-0.0039278 0.0009996 1e-05
-0.00374148 0.000998771 1e-05
-0.00355516 0.000997917 1e-05
-0.00336883 0.000997036 1e-05
-0.00318995 0.000997022 1e-05
-0.00301107 0.000996133 1e-05
-0.0028322 0.000995216 1e-05
-0.00265332 0.000994269 1e-05
-0.00247443 0.000993293 1e-05
-0.0023027 0.00099326 1e-05
-0.00213097 0.00099227 1e-05
-0.00195924 0.000991247 1e-05
-0.00178751 0.000990191 1e-05
-0.00161577 0.000989099 1e-05
-0.0014509 0.000989035 1e-05
-0.00128603 0.000987925 1e-05
-0.00112117 0.00098677 1e-05
-0.000956301 0.000985568 1e-05
-0.000791418 0.000984318 1e-05
-0.000633135 0.000984175 1e-05
-0.000474856 0.000982872 1e-05
-0.000316578 0.000981516 1e-05
-0.000158301 0.000980108 1e-05
0 0.000978645 1e-05
0.000105677 0.000978482 1e-05
0.00021135 0.000977444 1e-05
0.000317022 0.000976372 1e-05
0.000422694 0.000975266 1e-05
0.000528387 0.000974124 1e-05
0.000634886 0.00097396 1e-05
0.000741379 0.000972789 1e-05
0.000847872 0.000971591 1e-05
0.000954364 0.000970367 1e-05
0.00106088 0.000969117 1e-05
0.00116821 0.000968984 1e-05
0.00127553 0.000967734 1e-05
0.00138285 0.000966461 1e-05
0.00149017 0.000965163 1e-05
0.00159752 0.000963909 1e-05
0.00170568 0.000963809 1e-05
0.00181383 0.000962636 1e-05
0.00192199 0.000961328 1e-05
0.00203014 0.000959998 1e-05
0.00213833 0.000958862 1e-05
0.00224733 0.000958794 1e-05
0.00235633 0.00095775 1e-05
0.00246532 0.000956441 1e-05
0.00257431 0.000955111 1e-05
0.00268334 0.000954092 1e-05
0.00279319 0.00095405 1e-05
0.00290303 0.000953119 1e-05
0.00301288 0.000951823 1e-05
0.00312272 0.000950504 1e-05
0.00323259 0.000949587 1e-05
0.00334329 0.000949555 1e-05
0.00345399 0.000948718 1e-05
0.00356469 0.000947439 1e-05
0.00367538 0.000946138 1e-05
0.00378611 0.000945303 1e-05
0.00389767 0.000945271 1e-05
0.00400923 0.000944507 1e-05
0.00412079 0.000943248 1e-05
0.00423235 0.000941965 1e-05
0.00434393 0.000941195 1e-05
0.00445636 0.000941152 1e-05
0.00456879 0.000940444 1e-05
0.00468122 0.000939201 1e-05
0.00479364 0.000937933 1e-05
0.00490609 0.000937212 1e-05
0.0050194 0.000937149 1e-05
0.0051327 0.000936479 1e-05
0.005246 0.000935246 1e-05
0.0053593 0.000933989 1e-05
0.00547262 0.000933301 1e-05
0.00558681 0.000933207 1e-05
0.00570099 0.00093256 1e-05
0.00581517 0.000931365 1e-05
0.00592936 0.00093016 1e-05
0.00604356 0.00092949 1e-05
0.00615863 0.00092936 1e-05
0.0062737 0.000928724 1e-05
0.00638877 0.000927586 1e-05
0.00650384 0.000926438 1e-05
0.00661893 0.000925775 1e-05
0.0067349 0.000925603 1e-05
0.00685087 0.000924968 1e-05
0.00696683 0.000923874 1e-05
0.0070828 0.000922768 1e-05
0.00719878 0.000922104 1e-05
0.00731565 0.000921885 1e-05
0.00743252 0.000921243 1e-05
0.00754939 0.000920179 1e-05
0.00766625 0.000919103 1e-05
0.00778313 0.000918429 1e-05
0.00790091 0.000918161 1e-05
0.00801869 0.000917503 1e-05
0.00813647 0.000916459 1e-05
0.00825424 0.000915402 1e-05
0.00837203 0.000914712 1e-05
0.00849073 0.00091439 1e-05
0.00860942 0.000913711 1e-05
0.00872811 0.000912678 1e-05
0.00884681 0.000911631 1e-05
0.00896551 0.000910918 1e-05
0.00908513 0.000910541 1e-05
0.00920475 0.000909835 1e-05
0.00932436 0.000908804 1e-05
0.00944398 0.00090776 1e-05
0.0095636 0.000907019 1e-05
0.00968415 0.000906584 1e-05
0.0098047 0.000905847 1e-05
0.00992524 0.00090481 1e-05
0.0100458 0.000903761 1e-05
0.0101663 0.000902988 1e-05
0.0102878 0.000902493 1e-05
0.0104093 0.00090172 1e-05
0.0105308 0.000900677 1e-05
0.0106523 0.000899628 1e-05
0.0107738 0.000898819 1e-05
0.0108962 0.000898262 1e-05
0.0110186 0.00089745 1e-05
0.0111411 0.000896418 1e-05
0.0112635 0.00089538 1e-05
0.0113859 0.000894531 1e-05
0.0115093 0.000893911 1e-05
0.0116327 0.000893056 1e-05
0.0117561 0.000892025 1e-05
0.0118794 0.000890988 1e-05
0.0120028 0.000890096 1e-05
0.0121272 0.000889411 1e-05
0.0122515 0.00088851 1e-05
0.0123759 0.000887472 1e-05
0.0125002 0.000886427 1e-05
0.0126245 0.000885489 1e-05
0.0127498 0.000884738 1e-05
0.0128752 0.000883789 1e-05
0.0130005 0.000882736 1e-05
0.0131258 0.000881675 1e-05
0.0132511 0.000880688 1e-05
0.0133774 0.00087987 1e-05
0.0135036 0.000878869 1e-05
0.0136299 0.000877794 1e-05
0.0137562 0.000876711 1e-05
0.0138825 0.000875673 1e-05
0.0140098 0.000874788 1e-05
0.014137 0.000873733 1e-05
0.0142643 0.00087263 1e-05
0.0143915 0.000871518 1e-05
0.0145188 0.000870427 1e-05
0.0146471 0.000869473 1e-05
0.0147753 0.000868363 1e-05
0.0149036 0.000867226 1e-05
0.0150318 0.00086608 1e-05
0.0151601 0.000864934 1e-05
0.0152893 0.00086391 1e-05
0.0154186 0.000862743 1e-05
0.0155478 0.000861567 1e-05
0.0156771 0.000860383 1e-05
0.0158063 0.000859189 1e-05
0.0159366 0.000858096 1e-05
0.0160668 0.000856886 1e-05
0.0161971 0.000855667 1e-05
0.0163273 0.000854439 1e-05
0.0164576 0.000853202 1e-05
0.0165889 0.000852039 1e-05
0.0167201 0.000850782 1e-05
0.0168514 0.000849516 1e-05
0.0169827 0.000848241 1e-05
0.0171139 0.000846957 1e-05
0.0172462 0.000845723 1e-05
0.0173785 0.000844416 1e-05
0.0175108 0.0008431 1e-05
0.0176431 0.000841775 1e-05
0.0177754 0.00084044 1e-05
0.0179087 0.000839135 1e-05
0.018042 0.000837775 1e-05
0.0181753 0.000836406 1e-05
0.0183087 0.000835028 1e-05
0.018442 0.00083364 1e-05
0.0185763 0.000832263 1e-05
0.0187107 0.000830848 1e-05
0.018845 0.000829423 1e-05
0.0189794 0.000827989 1e-05
0.0191137 0.000826545 1e-05
0.0192491 0.000825098 1e-05
0.0193845 0.000823625 1e-05
0.0195199 0.000822142 1e-05
0.0196553 0.00082065 1e-05
0.0197907 0.000819148 1e-05
0.0198451 0.000818542 1e-05
0.0198995 0.000817934 1e-05
0.0199539 0.000817324 1e-05
0.0200083 0.000816712 1e-05
0.0200615 0.000816112 1e-05
0.0201438 0.000815182 1e-05
0.0202261 0.000814248 1e-05
0.0203084 0.000813311 1e-05
0.0203907 0.00081237 1e-05
0.020473 0.000811425 1e-05
0.0206105 0.000809836 1e-05
0.020748 0.000808242 1e-05
0.0208855 0.000806637 1e-05
0.021023 0.000805023 1e-05
0.0211606 0.000803399 1e-05
0.0212991 0.00080174 1e-05
0.0214377 0.000800083 1e-05
0.0215763 0.000798415 1e-05
0.0217149 0.000796738 1e-05
0.0218535 0.00079505 1e-05
0.0219931 0.000793322 1e-05
0.0221328 0.0007916 1e-05
0.0222724 0.000789868 1e-05
0.0224121 0.000788125 1e-05
0.0225517 0.000786373 1e-05
0.0226925 0.000784575 1e-05
0.0228332 0.000782787 1e-05
0.022974 0.000780988 1e-05
0.0231147 0.000779179 1e-05
0.0232555 0.000777359 1e-05
0.0233973 0.000775491 1e-05
0.0235391 0.000773633 1e-05
0.023681 0.000771765 1e-05
0.0238228 0.000769886 1e-05
0.0239647 0.000767996 1e-05
0.0241076 0.000766056 1e-05
0.0242505 0.000764129 1e-05
0.0243935 0.000762191 1e-05
0.0245364 0.000760243 1e-05
0.0246794 0.000758284 1e-05
0.0248234 0.000756276 1e-05
0.0249675 0.000754279 1e-05
0.0251115 0.000752273 1e-05
0.0252556 0.000750258 1e-05
0.0253996 0.000748227 1e-05
0.0255448 0.000746148 1e-05
0.02569 0.000744076 1e-05
0.0258351 0.000741999 1e-05
0.0259803 0.00073991 1e-05
0.0261255 0.000737803 1e-05
0.0262718 0.00073565 1e-05
0.0264181 0.000733501 1e-05
0.0265644 0.000731348 1e-05
0.0267107 0.000729183 1e-05
0.026857 0.000726998 1e-05
0.0270044 0.000724771 1e-05
0.0271519 0.000722544 1e-05
0.0272993 0.000720314 1e-05
0.0274468 0.000718072 1e-05
0.0275942 0.00071581 1e-05
0.0277428 0.000713509 1e-05
0.0278914 0.000711205 1e-05
0.0280399 0.000708899 1e-05
0.0281885 0.00070658 1e-05
0.0283371 0.000704243 1e-05
0.0284869 0.000701868 1e-05
0.0286366 0.00069949 1e-05
0.0287863 0.000697107 1e-05
0.0289361 0.000694712 1e-05
0.0290858 0.000692301 1e-05
0.0292367 0.000689854 1e-05
0.0293876 0.000687402 1e-05
0.0295385 0.000684942 1e-05
0.0296894 0.000682472 1e-05
0.0298403 0.000679987 1e-05
0.0299924 0.000677469 1e-05
0.0301445 0.000674943 1e-05
0.0302966 0.000672408 1e-05
0.0304486 0.000669863 1e-05
0.0306007 0.000667306 1e-05
0.030754 0.000664716 1e-05
0.0309072 0.000662117 1e-05
0.0310605 0.000659507 1e-05
0.0312138 0.000656887 1e-05
0.031367 0.000654257 1e-05
0.0315215 0.000651596 1e-05
0.0316759 0.000648922 1e-05
0.0318304 0.000646237 1e-05
0.0319848 0.000643543 1e-05
0.0321393 0.000640839 1e-05
0.0322949 0.000638105 1e-05
0.0324506 0.000635358 1e-05
0.0326062 0.000632597 1e-05
0.0327619 0.000629827 1e-05
0.0329175 0.000627049 1e-05
[...]
POINT_DATA 10880
 FIELD attributes 1
U 3 10880 float
10.0021 	0.000980349 	0 10.0076 	0.00792841 	0 10.013 	0.015118 	0 10.0184 	0.0223209 	0 10.0239 	0.0295369 	0 10.0305 	0.0425875 	0 10.0339 	0.031921 	0 10.0371 	0.0319408 	0 10.0403 	0.0319606 	0 10.0434 	0.0319806 	0 10.0462 	0.0419967 	0 10.0441 	0.0264454 	0 10.0432 	0.024491 	0 10.0422 	0.0225105 	0 10.0412 	0.0205035 	0 10.0402 	0.0301769 	0 10.0367 	0.0146385 	0 10.0344 	0.0130544 	0 10.0321 	0.0114428 	0 10.0298 	0.00980317 	0 10.0279 	0.0206539 	0 10.0245 	0.00527118 	0 10.0222 	0.00399841 	0 10.0198 	0.00269949 	0 10.0175 	0.00137387 	0 10.0155 	0.0135665 	0 10.0123 	-0.00219543 	0 10.0098 	-0.00326594 	0 10.0074 	-0.00436099 	0 10.0049 	-0.00548117 	0 10.0027 	0.00848485 	0 9.99962 	-0.00833989 	0 9.99711 	-0.00924666 	0 9.99459 	-0.0101757 	0 9.99206 	-0.0111275 	0 9.98957 	0.0051701 	0 9.98675 	-0.0134919 	0 9.98425 	-0.0143218 	0 9.98175 	-0.015173 	0 9.97924 	-0.0160459 	0 9.97655 	0.00306906 	0 9.97404 	-0.0181434 	0 9.97159 	-0.0189773 	0 9.96914 	-0.0198328 	0 9.96668 	-0.0207107 	0 9.96373 	0.00168659 	0 9.9616 	-0.0226937 	0 9.95919 	-0.0235684 	0 9.95678 	-0.0244661 	0 9.95437 	-0.0253872 	0 9.95109 	0.000789429 	0 9.94941 	-0.0273134 	0 9.94708 	-0.0282443 	0 9.94473 	-0.0291994 	0 9.94239 	-0.0301795 	0 9.93871 	0.000268779 	0 9.93761 	-0.0320929 	0 9.93536 	-0.0331033 	0 9.93311 	-0.0341397 	0 9.93085 	-0.0352029 	0 9.92669 	-1.74382e-05 	0 9.92627 	-0.0371681 	0 9.92414 	-0.0383051 	0 9.922 	-0.0394709 	0 9.91985 	-0.0406663 	0 9.91515 	-0.000310509 	0 9.91554 	-0.0428043 	0 9.91352 	-0.0441098 	0 9.91148 	-0.0454478 	0 9.90944 	-0.0468189 	0 9.90404 	-0.000794374 	0 9.90532 	-0.0492166 	0 9.9034 	-0.0507891 	0 9.90148 	-0.0523997 	0 9.89955 	-0.0540493 	0 9.89335 	-0.00188976 	0 9.89573 	-0.0570256 	0 9.89393 	-0.058928 	0 9.89211 	-0.0608754 	0 9.89028 	-0.0628687 	0 9.88307 	-0.00384421 	0 9.88647 	-0.0665438 	0 9.88441 	-0.0692669 	0 9.88232 	-0.0720521 	0 9.88022 	-0.074901 	0 9.87119 	-0.00886528 	0 9.8745 	-0.0813461 	1.05654e-21 9.87215 	-0.0845492 	3.53989e-21 9.86978 	-0.0878249 	6.02144e-21 9.86739 	-0.0911751 	8.50117e-21 9.85752 	-0.0152103 	9.97922e-21 9.86156 	-0.0968616 	-1.37778e-20 9.85925 	-0.100003 	-1.79389e-20 9.85692 	-0.103193 	-2.21159e-20 9.85458 	-0.106432 	-2.63092e-20 9.84306 	-0.0151495 	5.98003e-22 9.85077 	-0.108391 	-1.82745e-21 9.84876 	-0.110754 	-4.14129e-21 9.84673 	-0.113152 	-6.45361e-21 9.84469 	-0.115586 	-8.76441e-21 9.82906 	-0.0121443 	-9.88403e-21 9.84262 	-0.114652 	-9.20916e-21 9.84068 	-0.116765 	-6.08051e-21 9.83872 	-0.118909 	-2.95092e-21 9.83563 	-0.114894 	-3.19359e-22 9.8141 	-0.00915311 	-5.88361e-21 9.83252 	-0.106594 	-5.78247e-22 9.83258 	-0.118936 	-8.77477e-21 9.8304 	-0.120874 	-1.86222e-20 9.8233 	-0.103157 	-2.82299e-20 9.79652 	-0.00609496 	-3.69154e-20 9.81893 	-0.0940696 	-5.91356e-20 9.82282 	-0.11798 	-6.06299e-20 9.82039 	-0.119855 	-5.50049e-20 9.80801 	-0.091625 	-4.06688e-20 9.7762 	-0.00376834 	-9.11273e-21 9.80252 	-0.0830406 	-8.88804e-21 9.81128 	-0.115801 	-3.42097e-21 9.80859 	-0.117734 	5.49751e-21 9.78976 	-0.0817786 	1.5201e-20 9.75297 	-0.00275122 	2.57955e-20 9.78277 	-0.0739869 	7.93714e-20 9.79715 	-0.113168 	1.06735e-19 9.79408 	-0.115138 	1.03671e-19 9.7678 	-0.0736602 	6.74537e-20 9.7263 	-0.00280494 	8.7964e-21 9.75915 	-0.0667856 	-6.10927e-20 9.77977 	-0.110452 	-1.10285e-19 9.77627 	-0.112433 	-1.17115e-19 9.74186 	-0.067173 	-7.79476e-20 9.69608 	-0.00372435 	-2.11093e-20 9.73161 	-0.0612656 	-1.32298e-20 9.75897 	-0.107953 	-9.05798e-21 9.75503 	-0.109947 	-2.01769e-20 9.71202 	-0.0622611 	-3.95426e-20 9.66246 	-0.00545052 	-6.05085e-20 9.70028 	-0.0573213 	-7.19478e-20 9.73475 	-0.105935 	-8.21461e-20 9.73035 	-0.107937 	-7.60399e-20 9.67847 	-0.0588202 	-5.55591e-20 9.62559 	-0.00788961 	-3.46416e-20 9.66534 	-0.054737 	-2.2345e-20 9.70447 	-0.101618 	-9.98585e-21 9.6979 	-0.102284 	-2.50391e-22 9.64152 	-0.0565857 	-3.15926e-21 9.58577 	-0.0108437 	-6.04925e-21 9.62709 	-0.0532061 	-3.2738e-21 9.6678 	-0.0956017 	-5.16759e-22 9.6602 	-0.096383 	-5.92487e-22 9.60146 	-0.0552895 	-3.50071e-21 9.54332 	-0.0141552 	-6.39186e-21 9.58584 	-0.0524981 	-3.61655e-21 9.62777 	-0.090873 	-8.58014e-22 9.61923 	-0.091729 	-6.82839e-21 9.5586 	-0.0547514 	-1.62078e-20 9.49854 	-0.0177364 	-2.5655e-20 9.54192 	-0.0524752 	-4.97682e-20 9.58474 	-0.0872444 	-7.38172e-20 9.57537 	-0.0881484 	-7.82976e-20 9.51328 	-0.0548571 	-6.39362e-20 9.45174 	-0.0215316 	-4.96e-20 9.49567 	-0.0530306 	-9.63823e-20 9.53907 	-0.084558 	-1.43138e-19 9.52896 	-0.0854868 	-1.34683e-19 9.46582 	-0.0554964 	-6.88261e-20 9.4032 	-0.0254749 	-2.91281e-21 9.44739 	-0.0540481 	-2.42851e-21 9.49108 	-0.0826479 	-1.99083e-21 9.48035 	-0.0835836 	2.07218e-21 9.41652 	-0.0565605 	8.52162e-21 9.35317 	-0.0295091 	1.49994e-20 9.39735 	-0.0554393 	8.25489e-21 9.44105 	-0.081394 	1.48331e-21 9.42981 	-0.0823263 	-2.26173e-21 9.36562 	-0.0579749 	-5.15993e-21 9.30189 	-0.0335979 	-8.04778e-21 9.34581 	-0.0571427 	-5.28755e-21 9.38927 	-0.0807099 	-2.53794e-21 9.37763 	-0.081632 	-4.9881e-22 9.3134 	-0.0596868 	-7.00645e-21 9.24959 	-0.0377184 	-1.35377e-20 9.29304 	-0.0591092 	-6.72201e-21 9.3351 	-0.0801621 	-1.298e-22 9.32175 	-0.0804868 	-7.77149e-21 9.26013 	-0.0616494 	-2.72558e-20 9.19652 	-0.0418522 	-4.73386e-20 9.2393 	-0.0612941 	-1.29182e-19 9.27418 	-0.0781631 	-1.99634e-19 9.26099 	-0.0785299 	-1.97578e-19 9.2061 	-0.0638153 	-1.2361e-19 9.14292 	-0.045977 	-3.48102e-20 9.18488 	-0.0636545 	-2.1386e-20 9.21261 	-0.076937 	-9.51478e-21 9.19959 	-0.0773378 	-2.17207e-21 9.15152 	-0.0661483 	0 9.08897 	-0.0500777 	0 9.12997 	-0.0661605 	0 9.15063 	-0.0763751 	0 9.13777 	-0.0768029 	0 9.09655 	-0.0686199 	0 9.0348 	-0.0541426 	0 9.07473 	-0.0687815 	0 9.08845 	-0.0763754 	3.82797e-21 9.07576 	-0.0768237 	1.15347e-20 9.04134 	-0.0711987 	2.18208e-20 8.98053 	-0.0581585 	3.52523e-20 9.0193 	-0.0714898 	1.23725e-19 9.02626 	-0.0768504 	1.561e-19 9.01374 	-0.077314 	1.54028e-19 8.98602 	-0.0738584 	1.24185e-19 8.92626 	-0.0621144 	3.5643e-20 8.9638 	-0.0742601 	2.23167e-20 8.96421 	-0.0777239 	1.97197e-20 8.95186 	-0.0781993 	2.08148e-20 8.9307 	-0.0765768 	2.35829e-20 8.8721 	-0.0660038 	3.34815e-20 8.90835 	-0.0770763 	9.0617e-20 8.90246 	-0.0789361 	9.19603e-20 8.89027 	-0.0794206 	8.49736e-20 8.87551 	-0.0793392 	7.47584e-20 8.81814 	-0.0698229 	1.07572e-20 8.85306 	-0.0799249 	-5.82764e-20 8.84114 	-0.0804339 	-7.55173e-20 8.82911 	-0.0809243 	-9.26542e-20 8.81706 	-0.0814144 	-1.09786e-19 8.76448 	-0.0735651 	-7.1074e-20 8.79228 	-0.0816735 	-1.38165e-19 8.78042 	-0.0821673 	-1.30621e-19 8.76855 	-0.0826608 	-1.2307e-19 8.75665 	-0.083154 	-1.1551e-19 8.71123 	-0.0772219 	-4.74771e-20 8.73211 	-0.0835952 	-3.33144e-20 8.72041 	-0.0840895 	-2.3388e-20 8.70869 	-0.0845836 	-1.34627e-20 8.69694 	-0.0850775 	-3.53855e-21 8.65844 	-0.0807876 	0 8.67273 	-0.0856673 	1.01904e-21 8.66117 	-0.0861602 	3.61966e-21 8.64959 	-0.086653 	6.22054e-21 8.638 	-0.0871456 	8.82169e-21 8.60617 	-0.0842583 	1.14279e-20 8.61417 	-0.0878553 	1.03403e-20 8.60276 	-0.0883454 	1.0482e-20 8.59133 	-0.0888354 	1.06242e-20 8.57987 	-0.0893253 	1.0767e-20 8.55447 	-0.0876324 	1.17919e-20 8.55651 	-0.0901306 	1.43953e-20 8.54523 	-0.0906169 	1.95643e-20 8.53394 	-0.0911031 	2.47343e-20 8.52262 	-0.0915893 	2.99054e-20 8.50336 	-0.0909101 	3.66904e-20 8.49976 	-0.0924692 	5.16779e-20 8.48863 	-0.0929508 	4.93568e-20 8.47747 	-0.0934323 	4.70266e-20 8.46629 	-0.0939139 	4.46872e-20 8.45289 	-0.0940913 	3.73396e-20 8.45058 	-0.0945632 	3.49844e-20 8.4462 	-0.0947528 	3.30786e-20 8.44182 	-0.0949424 	3.1173e-20 8.43743 	-0.0951321 	2.92675e-20 8.43313 	-0.0953177 	2.74028e-20 8.42632 	-0.0956053 	2.41585e-20 8.41951 	-0.0958929 	2.09138e-20 8.41268 	-0.0961805 	1.76687e-20 8.40585 	-0.0964681 	1.44231e-20 8.3979 	-0.0970602 	1.18553e-20 8.38812 	-0.0972565 	6.56722e-21 8.37698 	-0.0977272 	-1.11399e-21 8.36582 	-0.098198 	-8.79252e-21 8.35464 	-0.0986688 	-1.64684e-20 8.34071 	-0.0998461 	-2.96304e-20 8.33307 	-0.0996736 	-3.94394e-20 8.32206 	-0.100138 	-4.36122e-20 8.31103 	-0.100603 	-4.77875e-20 8.29997 	-0.101068 	-5.19653e-20 8.2848 	-0.102528 	-4.90579e-20 8.27908 	-0.102091 	-6.64924e-20 8.2682 	-0.102552 	-6.00671e-20 8.25729 	-0.103013 	-5.36491e-20 8.24637 	-0.103474 	-4.72386e-20 8.23017 	-0.105121 	-9.59451e-21 8.22618 	-0.104513 	-5.17852e-21 8.21542 	-0.104989 	-8.62611e-21 8.20463 	-0.105465 	-1.2073e-20 8.19383 	-0.105942 	-1.55192e-20 8.17678 	-0.107729 	-1.93538e-20 8.17438 	-0.107062 	-4.5947e-20 8.16369 	-0.107532 	-5.33933e-20 8.15298 	-0.108001 	-6.08421e-20 8.14225 	-0.108471 	-6.82935e-20 8.12442 	-0.110265 	-3.81425e-20 8.1234 	-0.109539 	3.13208e-20 8.11275 	-0.109971 	4.62743e-20 8.10207 	-0.110403 	6.12372e-20 8.09108 	-0.110886 	7.32336e-20 8.07283 	-0.112578 	1.2478e-20 8.07191 	-0.111906 	3.16728e-21 8.06239 	-0.112225 	1.5199e-21 8.05177 	-0.112668 	8.30906e-22 8.0397 	-0.113337 	3.04389e-22 8.02204 	-0.114885 	4.10165e-22 8.02069 	-0.114454 	2.97399e-22 8.01283 	-0.114669 	-5.00483e-21 8.0023 	-0.115148 	-1.24214e-20 7.98931 	-0.115951 	-1.98072e-20 7.97218 	-0.117305 	-2.7141e-20 7.97051 	-0.117077 	-1.93114e-20 7.9642 	-0.117226 	-1.14658e-20 7.95375 	-0.117713 	-3.60534e-21 7.93996 	-0.118556 	0 7.92332 	-0.119699 	0 7.92139 	-0.119632 	0 7.91655 	-0.119754 	-1.42465e-21 7.9062 	-0.120232 	-5.55227e-21 7.89172 	-0.121042 	-9.41919e-21 7.87556 	-0.121986 	-1.31805e-20 7.87341 	-0.122054 	-4.33047e-20 7.86998 	-0.122184 	-6.95752e-20 7.85974 	-0.122649 	-7.5341e-20 7.84467 	-0.12338 	-6.03786e-20 7.82894 	-0.124146 	-4.27718e-20 7.82663 	-0.12433 	-1.25417e-19 7.8243 	-0.124514 	-2.08062e-19 7.81411 	-0.124967 	-2.05512e-19 7.79883 	-0.125578 	-1.27859e-19 7.78351 	-0.126191 	-5.02068e-20 7.78106 	-0.126478 	-9.38823e-20 7.7786 	-0.126766 	-1.37558e-19 7.76911 	-0.127182 	-1.32478e-19 7.7542 	-0.127663 	-7.6554e-20 7.73926 	-0.128145 	-2.06306e-20 7.7367 	-0.128526 	-1.21449e-20 7.73412 	-0.128907 	-3.65998e-21 7.72533 	-0.129293 	0 7.71076 	-0.129663 	0 7.69616 	-0.130034 	0 7.69352 	-0.1305 	0 7.69085 	-0.130967 	0 7.68274 	-0.131328 	0 7.66847 	-0.131606 	0 7.65419 	-0.131883 	0 7.65147 	-0.132427 	0 7.64873 	-0.132972 	0 7.64129 	-0.133315 	0 7.6273 	-0.133515 	0 7.61329 	-0.133716 	0 7.61051 	-0.13433 	0 7.60771 	-0.134945 	0 7.60085 	-0.135273 	0 7.58718 	-0.135412 	0 7.57342 	-0.13555 	0 7.57059 	-0.136228 	0 7.5671 	-0.13685 	0 7.56018 	-0.137177 	0 7.54806 	-0.137314 	0 7.53452 	-0.137401 	0 7.53166 	-0.138137 	0 7.52739 	-0.138734 	0 7.52053 	-0.13907 	0 7.5099 	-0.139237 	0 7.49656 	-0.139283 	0 7.49366 	-0.140072 	0 7.48865 	-0.140623 	0 7.48184 	-0.140971 	0 7.47264 	-0.141194 	-2.39925e-21 7.45947 	-0.141208 	-8.79624e-21 7.45654 	-0.142046 	-1.85984e-21 7.4508 	-0.142535 	0 7.44403 	-0.142896 	0 7.43621 	-0.143196 	-1.06987e-21 7.42319 	-0.143186 	-7.50987e-21 7.42023 	-0.14407 	-5.17604e-22 7.41379 	-0.144483 	0 7.40705 	-0.14486 	0 7.40029 	-0.145236 	0 7.38768 	-0.145228 	0 7.38425 	-0.146088 	2.5998e-23 7.37755 	-0.146481 	2.39523e-22 7.37084 	-0.146873 	4.53072e-22 7.3641 	-0.147266 	6.66646e-22 7.3529 	-0.147341 	-1.6944e-21 7.34872 	-0.148128 	-1.85737e-20 7.34204 	-0.148537 	-1.73922e-20 7.33534 	-0.148947 	-1.6207e-20 7.32863 	-0.149357 	-1.50181e-20 7.31878 	-0.14953 	-7.37153e-21 7.31387 	-0.150233 	-3.11666e-21 7.3072 	-0.150661 	-1.06406e-20 7.30052 	-0.151089 	-1.81653e-20 7.29381 	-0.151518 	-2.5691e-20 7.28529 	-0.151802 	-3.60268e-20 7.27965 	-0.152413 	-3.84667e-20 7.27298 	-0.15286 	-3.79581e-20 7.2663 	-0.153307 	-3.74478e-20 7.25959 	-0.153754 	-3.69356e-20 7.25238 	-0.154161 	-3.45598e-20 7.25015 	-0.154382 	-3.22645e-20 7.24764 	-0.154558 	-2.9712e-20 7.24513 	-0.154734 	-2.71596e-20 7.24261 	-0.15491 	-2.46075e-20 7.24013 	-0.155083 	-2.20895e-20 7.23582 	-0.155375 	-1.7475e-20 7.2315 	-0.155667 	-1.28601e-20 7.22717 	-0.155959 	-8.24483e-21 7.22284 	-0.156251 	-3.62913e-21 7.21835 	-0.156414 	0 7.21199 	-0.157022 	0 7.20509 	-0.157509 	0 7.19817 	-0.157997 	0 7.19123 	-0.158485 	0 7.18399 	-0.15865 	0 7.17833 	-0.159462 	0 7.17142 	-0.15997 	0 7.16449 	-0.160479 	0 7.15753 	-0.160987 	0 7.15022 	-0.160991 	0 7.14516 	-0.161998 	-5.18012e-23 7.13823 	-0.162528 	-1.87809e-22 7.13127 	-0.163058 	-3.23792e-22 7.12428 	-0.163588 	-4.59751e-22 7.11699 	-0.163442 	-4.20388e-22 7.11242 	-0.164634 	-2.41751e-20 7.10546 	-0.165186 	-2.54578e-20 7.09847 	-0.165738 	-2.67452e-20 7.09145 	-0.166283 	-2.77572e-20 7.08424 	-0.166005 	3.46553e-21 7.07981 	-0.167298 	-1.63495e-24 7.07308 	-0.167949 	5.067e-21 7.06606 	-0.168523 	1.11451e-20 7.059 	-0.16891 	1.72146e-20 7.05192 	-0.16868 	2.32591e-20 7.04727 	-0.169975 	1.66653e-20 7.04106 	-0.170819 	1.39525e-20 7.034 	-0.171415 	1.33687e-20 7.02697 	-0.171654 	1.24525e-20 7.01999 	-0.171471 	1.11473e-20 7.01513 	-0.172768 	1.12145e-20 7.00937 	-0.173799 	1.0923e-20 7.00225 	-0.174419 	1.00816e-20 6.99529 	-0.174517 	1.1306e-20 6.9884 	-0.17438 	1.34621e-20 6.98334 	-0.175681 	1.04045e-20 6.97795 	-0.176892 	7.68289e-21 6.97078 	-0.177535 	7.09152e-21 6.96393 	-0.177499 	9.18092e-21 6.95711 	-0.177406 	1.14993e-20 6.95186 	-0.178713 	8.26929e-21 6.94655 	-0.180021 	5.03578e-21 6.93963 	-0.180654 	-5.49611e-22 6.93285 	-0.180603 	-4.07193e-21 6.92607 	-0.180553 	-7.59451e-21 6.92064 	-0.181868 	-4.4126e-21 6.91516 	-0.183183 	-1.23196e-21 6.90877 	-0.18384 	0 6.90202 	-0.183831 	0 6.89526 	-0.183822 	0 6.88966 	-0.185145 	0 6.884 	-0.186469 	0 6.87813 	-0.18715 	-2.11806e-21 6.87139 	-0.187182 	-5.45794e-21 6.86463 	-0.187215 	-8.79816e-21 6.85887 	-0.188548 	-5.79429e-21 6.85305 	-0.189881 	-2.79166e-21 6.84768 	-0.190588 	-2.39798e-21 6.84092 	-0.190661 	-3.04581e-22 6.83415 	-0.190733 	1.78834e-21 6.82823 	-0.192078 	-2.48479e-20 6.82236 	-0.193338 	-4.78555e-20 6.81707 	-0.194036 	-4.66614e-20 6.81059 	-0.194267 	-2.14217e-20 6.8038 	-0.19438 	9.89778e-21 6.79772 	-0.195736 	-2.24446e-20 6.7919 	-0.196851 	-4.21277e-20 6.78651 	-0.197575 	-4.14067e-20 6.78037 	-0.198003 	-2.78941e-20 6.77353 	-0.198156 	-2.44459e-21 6.76731 	-0.199526 	-5.52468e-21 6.76156 	-0.2005 	-2.886e-21 6.75605 	-0.201251 	2.98488e-21 6.75021 	-0.201872 	9.3959e-21 6.74332 	-0.202065 	1.76056e-20 6.73696 	-0.203448 	9.14099e-21 6.73129 	-0.204287 	1.11834e-20 6.72567 	-0.205065 	1.44136e-20 6.72002 	-0.205842 	1.76459e-20 6.71314 	-0.206107 	2.83815e-20 6.70678 	-0.20741 	3.69124e-20 6.70107 	-0.208215 	3.32042e-20 6.69533 	-0.209019 	2.94925e-20 6.68956 	-0.209824 	2.57772e-20 6.68297 	-0.210286 	1.21676e-20 6.6767 	-0.211451 	9.53866e-21 6.67087 	-0.212283 	6.93324e-21 6.665 	-0.213115 	4.32857e-21 6.65911 	-0.213947 	1.72467e-21 6.65277 	-0.214603 	0 6.6466 	-0.215634 	2.03729e-21 6.64064 	-0.216494 	4.94642e-21 6.63465 	-0.217354 	7.85631e-21 6.62862 	-0.218214 	1.0767e-20 6.62253 	-0.219059 	1.34213e-20 6.62198 	-0.219149 	1.38159e-20 6.62146 	-0.219226 	1.40921e-20 6.62094 	-0.219303 	1.43683e-20 6.62041 	-0.21938 	1.46446e-20 6.61989 	-0.219456 	1.49196e-20 6.61408 	-0.220264 	1.81763e-20 6.60824 	-0.221073 	2.14367e-20 6.60237 	-0.221881 	2.47005e-20 6.59647 	-0.222689 	2.79679e-20 6.59075 	-0.223349 	2.7342e-20 6.58456 	-0.224414 	3.09411e-20 6.57803 	-0.225327 	3.15246e-20 6.57145 	-0.226239 	3.21116e-20 6.56484 	-0.227151 	3.27021e-20 6.55867 	-0.227754 	2.67832e-20 6.55263 	-0.229014 	3.12211e-20 6.54593 	-0.229954 	2.47919e-20 6.5392 	-0.230894 	1.83688e-20 6.53242 	-0.231834 	1.19519e-20 6.52637 	-0.232302 	-4.22782e-21 6.52044 	-0.233759 	-6.84617e-21 6.51358 	-0.234727 	-1.3542e-20 6.50668 	-0.235694 	-2.02336e-20 6.4999 	-0.236564 	-2.73668e-20 6.49382 	-0.236995 	-3.64964e-20 6.48769 	-0.238477 	-2.60966e-20 6.48096 	-0.239644 	-1.99371e-20 6.47389 	-0.240639 	-1.60774e-20 6.46723 	-0.241368 	-2.00673e-20 6.461 	-0.24183 	-3.19384e-20 6.45465 	-0.243336 	1.34829e-22 6.44803 	-0.244707 	2.5191e-20 6.44078 	-0.24573 	3.21227e-20 6.43425 	-0.246316 	1.08507e-20 6.42786 	-0.246808 	-1.65236e-20 6.42131 	-0.248337 	-9.51281e-21 6.4147 	-0.249867 	-2.50356e-21 6.40748 	-0.250885 	0 6.40095 	-0.251405 	0 6.39439 	-0.251926 	0 6.38763 	-0.25348 	0 6.3808 	-0.255034 	0 6.374 	-0.256087 	0 6.3673 	-0.256636 	0 6.36056 	-0.257184 	0 6.35358 	-0.258763 	0 6.34654 	-0.260342 	0 6.34016 	-0.26143 	-1.75058e-22 6.33327 	-0.262005 	-2.03193e-21 6.32634 	-0.262579 	-3.88844e-21 6.31915 	-0.264184 	1.66263e-20 6.31207 	-0.265691 	3.21951e-20 6.30571 	-0.266767 	2.602e-20 6.29883 	-0.26751 	6.62204e-21 6.29171 	-0.268109 	-1.84412e-20 6.2843 	-0.26974 	-1.21392e-20 6.27734 	-0.271081 	-7.11704e-21 6.27077 	-0.272181 	-3.16474e-21 6.26397 	-0.273149 	7.15371e-22 6.25665 	-0.273771 	4.41137e-21 6.24901 	-0.275428 	2.81204e-23 6.24219 	-0.276598 	4.10907e-21 6.2354 	-0.277721 	9.01191e-21 6.22856 	-0.278843 	1.39166e-20 6.22113 	-0.279563 	2.36392e-20 6.21354 	-0.281091 	2.52695e-20 6.20657 	-0.282236 	1.5366e-20 6.19956 	-0.283381 	5.45498e-21 6.19249 	-0.284525 	-4.46356e-21 6.18513 	-0.28548 	-1.74685e-20 6.17867 	-0.286665 	-1.33347e-20 6.17247 	-0.287669 	-1.52034e-20 6.16625 	-0.288674 	-1.70806e-20 6.15998 	-0.289677 	-1.89666e-20 6.15399 	-0.29063 	-2.07665e-20 6.15296 	-0.290802 	-2.12804e-20 6.15193 	-0.290974 	-2.17948e-20 6.1509 	-0.291146 	-2.23095e-20 6.14987 	-0.291318 	-2.28247e-20 6.1488 	-0.291476 	-2.12009e-20 6.14191 	-0.292682 	-1.26501e-20 6.13485 	-0.293872 	-4.49561e-21 6.12774 	-0.295062 	3.65891e-21 6.12058 	-0.29625 	1.18134e-20 6.11312 	-0.29733 	1.80094e-20 6.10682 	-0.298661 	3.33176e-20 6.09953 	-0.29987 	3.53915e-20 6.09218 	-0.301079 	3.74768e-20 6.08478 	-0.302287 	3.95735e-20 6.07685 	-0.303303 	1.64176e-20 6.07117 	-0.304747 	1.20742e-20 6.06364 	-0.305975 	7.72003e-21 6.05605 	-0.307203 	3.36399e-21 6.04827 	-0.30838 	-1.89617e-21 6.03995 	-0.30939 	-1.02145e-20 6.03407 	-0.310843 	-3.24352e-21 6.02715 	-0.312185 	0 6.01932 	-0.31343 	0 6.01101 	-0.314546 	-5.34113e-21 6.00241 	-0.315587 	-1.37467e-20 5.99629 	-0.317046 	-6.74182e-21 5.99005 	-0.318496 	1.20459e-22 5.98193 	-0.319748 	3.79431e-21 5.97309 	-0.320818 	1.50293e-20 5.9642 	-0.321888 	2.62676e-20 5.95784 	-0.323353 	4.46578e-20 5.95142 	-0.324817 	6.30498e-20 5.94362 	-0.326097 	6.43842e-20 5.93449 	-0.327192 	4.86e-20 5.9253 	-0.328286 	3.28163e-20 5.91869 	-0.329759 	3.46101e-20 5.91202 	-0.331231 	3.64071e-20 5.90459 	-0.332544 	2.95701e-20 5.89517 	-0.333661 	1.44611e-20 5.88568 	-0.334777 	-6.84788e-22 5.87882 	-0.336258 	-2.5867e-20 5.8716 	-0.337677 	-4.42075e-20 5.86382 	-0.338988 	-5.0413e-20 5.85512 	-0.340218 	-4.48383e-20 5.84532 	-0.341352 	-2.48489e-20 5.8382 	-0.342842 	7.93144e-21 5.83033 	-0.344195 	1.05596e-20 5.82224 	-0.345516 	6.38481e-21 5.8141 	-0.346837 	2.18664e-21 5.8042 	-0.348004 	-3.10575e-20 5.79656 	-0.349456 	-5.62603e-20 5.78824 	-0.350788 	-3.7812e-20 5.77985 	-0.352119 	-1.93332e-20 5.77139 	-0.353448 	-8.23872e-22 5.7623 	-0.354725 	2.81467e-20 5.75819 	-0.355442 	2.97719e-20 5.75385 	-0.356118 	3.2174e-20 5.74949 	-0.356794 	3.45785e-20 5.74511 	-0.35747 	3.69854e-20 5.74085 	-0.358125 	3.93246e-20 5.73669 	-0.358794 	4.26776e-20 5.73253 	-0.359463 	4.60358e-20 5.72835 	-0.360132 	4.93991e-20 5.72415 	-0.3608 	5.27676e-20 5.71994 	-0.361304 	4.45693e-20 5.71178 	-0.362829 	3.99049e-20 5.70323 	-0.364179 	3.75435e-20 5.69461 	-0.365528 	3.5171e-20 5.68594 	-0.366875 	3.27874e-20 5.67717 	-0.367733 	3.78824e-20 5.66941 	-0.369608 	7.21235e-20 5.66054 	-0.37096 	7.79345e-20 5.65161 	-0.372312 	8.37624e-20 5.6426 	-0.373527 	7.8268e-20 5.63344 	-0.374206 	2.79683e-20 5.62554 	-0.376133 	2.56252e-20 5.61696 	-0.377773 	2.17171e-20 5.60771 	-0.379127 	1.62474e-20 5.59828 	-0.380022 	6.17403e-21 5.58875 	-0.38072 	-5.86827e-21 5.58057 	-0.382631 	-4.46882e-20 5.57231 	-0.38454 	-8.3528e-20 5.56286 	-0.385836 	-9.50537e-20 5.553 	-0.386552 	-7.13105e-20 5.5431 	-0.387266 	-4.75677e-20 5.53464 	-0.389159 	-7.35472e-20 5.5261 	-0.39105 	-9.95374e-20 5.51702 	-0.392368 	-9.72116e-20 5.50677 	-0.393076 	-7.07606