# vtk DataFile Version 2.0
track0
ASCII
DATASET POLYDATA
POINTS 10880 double
-0.0205 0.001 1e-05
-0.0202034 0.00100003 1e-05
-0.0199069 0.00100026 1e-05
-0.0196103 0.00100071 1e-05
-0.0193137 0.00100137 1e-05
-0.0190172 0.00100225 1e-05
-0.0187132 0.00100354 1e-05
-0.0184093 0.0010045 1e-05
-0.0181054 0.00100547 1e-05
-0.0178015 0.00100644 1e-05
-0.0174976 0.00100741 1e-05
-0.0172058 0.00100863 1e-05
-0.016914 0.00100939 1e-05
-0.0166222 0.00101011 1e-05
-0.0163305 0.00101076 1e-05
-0.0160387 0.00101136 1e-05
-0.0157586 0.0010122 1e-05
-0.0154784 0.00101261 1e-05
-0.0151983 0.00101297 1e-05
-0.0149182 0.00101329 1e-05
-0.0146381 0.00101356 1e-05
-0.0143692 0.00101412 1e-05
-0.0141002 0.00101426 1e-05
-0.0138313 0.00101437 1e-05
-0.0135624 0.00101444 1e-05
-0.0132934 0.00101448 1e-05
-0.0130353 0.00101483 1e-05
-0.0127771 0.00101477 1e-05
-0.0125189 0.00101468 1e-05
-0.0122607 0.00101457 1e-05
-0.0120025 0.00101443 1e-05
-0.0117547 0.00101464 1e-05
-0.0115068 0.00101443 1e-05
-0.0112589 0.0010142 1e-05
-0.0110111 0.00101395 1e-05
-0.0107632 0.00101368 1e-05
-0.0105252 0.0010138 1e-05
-0.0102873 0.00101348 1e-05
-0.0100493 0.00101314 1e-05
-0.00981133 0.00101277 1e-05
-0.00957337 0.00101239 1e-05
-0.00934491 0.00101246 1e-05
-0.00911645 0.00101205 1e-05
-0.008888 0.00101161 1e-05
-0.00865954 0.00101116 1e-05
-0.00843108 0.00101068 1e-05
-0.00821175 0.00101072 1e-05
-0.00799242 0.00101022 1e-05
-0.00777309 0.0010097 1e-05
-0.00755376 0.00100916 1e-05
-0.00733443 0.0010086 1e-05
-0.00712387 0.00100862 1e-05
-0.0069133 0.00100804 1e-05
-0.00670273 0.00100744 1e-05
-0.00649217 0.00100683 1e-05
-0.0062816 0.00100619 1e-05
-0.00607944 0.00100619 1e-05
-0.00587729 0.00100554 1e-05
-0.00567514 0.00100487 1e-05
-0.00547299 0.00100417 1e-05
-0.00527083 0.00100345 1e-05
-0.00507675 0.00100345 1e-05
-0.00488268 0.00100273 1e-05
-0.0046886 0.00100198 1e-05
-0.00449452 0.00100121 1e-05
-0.00430044 0.00100041 1e-05
-0.00411412 0.0010004 1e-05
-0.0039278 0.0009996 1e-05
-0.00374148 0.000998771 1e-05
-0.00355516 0.000997917 1e-05
-0.00336883 0.000997036 1e-05
-0.00318995 0.000997022 1e-05
-0.00301107 0.000996133 1e-05
-0.0028322 0.000995216 1e-05
-0.00265332 0.000994269 1e-05
-0.00247443 0.000993293 1e-05
-0.0023027 0.00099326 1e-05
-0.00213097 0.00099227 1e-05
-0.00195924 0.000991247 1e-05
-0.00178751 0.000990191 1e-05
-0.00161577 0.000989099 1e-05
-0.0014509 0.000989035 1e-05
-0.00128603 0.000987925 1e-05
-0.00112117 0.00098677 1e-05
-0.000956301 0.000985568 1e-05
-0.000791418 0.000984318 1e-05
-0.000633135 0.000984175 1e-05
-0.000474856 0.000982872 1e-05
-0.000316578 0.000981516 1e-05
-0.000158301 0.000980108 1e-05
0 0.000978645 1e-05
0.000105677 0.000978482 1e-05
0.00021135 0.000977444 1e-05
0.000317022 0.000976372 1e-05
0.000422694 0.000975266 1e-05
0.000528387 0.000974124 1e-05
0.000634886 0.00097396 1e-05
0.000741379 0.000972789 1e-05
0.000847872 0.000971591 1e-05
0.000954364 0.000970367 1e-05
0.00106088 0.000969117 1e-05
0.00116821 0.000968984 1e-05
0.00127553 0.000967734 1e-05
0.00138285 0.000966461 1e-05
0.00149017 0.000965163 1e-05
0.00159752 0.000963909 1e-05
0.00170568 0.000963809 1e-05
0.00181383 0.000962636 1e-05
0.00192199 0.000961328 1e-05
0.00203014 0.000959998 1e-05
0.00213833 0.000958862 1e-05
0.00224733 0.000958794 1e-05
0.00235633 0.00095775 1e-05
0.00246532 0.000956441 1e-05
0.00257431 0.000955111 1e-05
0.00268334 0.000954092 1e-05
0.00279319 0.00095405 1e-05
0.00290303 0.000953119 1e-05
0.00301288 0.000951823 1e-05
0.00312272 0.000950504 1e-05
0.00323259 0.000949587 1e-05
0.00334329 0.000949555 1e-05
0.00345399 0.000948718 1e-05
0.00356469 0.000947439 1e-05
0.00367538 0.000946138 1e-05
0.00378611 0.000945303 1e-05
0.00389767 0.000945271 1e-05
0.00400923 0.000944507 1e-05
0.00412079 0.000943248 1e-05
0.00423235 0.000941965 1e-05
0.00434393 0.000941195 1e-05
0.00445636 0.000941152 1e-05
0.00456879 0.000940444 1e-05
0.00468122 0.000939201 1e-05
0.00479364 0.000937933 1e-05
0.00490609 0.000937212 1e-05
0.0050194 0.000937149 1e-05
0.0051327 0.000936479 1e-05
0.005246 0.000935246 1e-05
0.0053593 0.000933989 1e-05
0.00547262 0.000933301 1e-05
0.00558681 0.000933207 1e-05
0.00570099 0.00093256 1e-05
0.00581517 0.000931365 1e-05
0.00592936 0.00093016 1e-05
0.00604356 0.00092949 1e-05
0.00615863 0.00092936 1e-05
0.0062737 0.000928724 1e-05
0.00638877 0.000927586 1e-05
0.00650384 0.000926438 1e-05
0.00661893 0.000925775 1e-05
0.0067349 0.000925603 1e-05
0.00685087 0.000924968 1e-05
0.00696683 0.000923874 1e-05
0.0070828 0.000922768 1e-05
0.00719878 0.000922104 1e-05
0.00731565 0.000921885 1e-05
0.00743252 0.000921243 1e-05
0.00754939 0.000920179 1e-05
0.00766625 0.000919103 1e-05
0.00778313 0.000918429 1e-05
0.00790091 0.000918161 1e-05
0.00801869 0.000917503 1e-05
0.00813647 0.000916459 1e-05
0.00825424 0.000915402 1e-05
0.00837203 0.000914712 1e-05
0.00849073 0.00091439 1e-05
0.00860942 0.000913711 1e-05
0.00872811 0.000912678 1e-05
0.00884681 0.000911631 1e-05
0.00896551 0.000910918 1e-05
0.00908513 0.000910541 1e-05
0.00920475 0.000909835 1e-05
0.00932436 0.000908804 1e-05
0.00944398 0.00090776 1e-05
0.0095636 0.000907019 1e-05
0.00968415 0.000906584 1e-05
0.0098047 0.000905847 1e-05
0.00992524 0.00090481 1e-05
0.0100458 0.000903761 1e-05
0.0101663 0.000902988 1e-05
0.0102878 0.000902493 1e-05
0.0104093 0.00090172 1e-05
0.0105308 0.000900677 1e-05
0.0106523 0.000899628 1e-05
0.0107738 0.000898819 1e-05
0.0108962 0.000898262 1e-05
0.0110186 0.00089745 1e-05
0.0111411 0.000896418 1e-05
0.0112635 0.00089538 1e-05
0.0113859 0.000894531 1e-05
0.0115093 0.000893911 1e-05
0.0116327 0.000893056 1e-05
0.0117561 0.000892025 1e-05
0.0118794 0.000890988 1e-05
0.0120028 0.000890096 1e-05
0.0121272 0.000889411 1e-05
0.0122515 0.00088851 1e-05
0.0123759 0.000887472 1e-05
0.0125002 0.000886427 1e-05
0.0126245 0.000885489 1e-05
0.0127498 0.000884738 1e-05
0.0128752 0.000883789 1e-05
0.0130005 0.000882736 1e-05
0.0131258 0.000881675 1e-05
0.0132511 0.000880688 1e-05
0.0133774 0.00087987 1e-05
0.0135036 0.000878869 1e-05
0.0136299 0.000877794 1e-05
0.0137562 0.000876711 1e-05
0.0138825 0.000875673 1e-05
0.0140098 0.000874788 1e-05
0.014137 0.000873733 1e-05
0.0142643 0.00087263 1e-05
0.0143915 0.000871518 1e-05
0.0145188 0.000870427 1e-05
0.0146471 0.000869473 1e-05
0.0147753 0.000868363 1e-05
0.0149036 0.000867226 1e-05
0.0150318 0.00086608 1e-05
0.0151601 0.000864934 1e-05
0.0152893 0.00086391 1e-05
0.0154186 0.000862743 1e-05
0.0155478 0.000861567 1e-05
0.0156771 0.000860383 1e-05
0.0158063 0.000859189 1e-05
0.0159366 0.000858096 1e-05
0.0160668 0.000856886 1e-05
0.0161971 0.000855667 1e-05
0.0163273 0.000854439 1e-05
0.0164576 0.000853202 1e-05
0.0165889 0.000852039 1e-05
0.0167201 0.000850782 1e-05
0.0168514 0.000849516 1e-05
0.0169827 0.000848241 1e-05
0.0171139 0.000846957 1e-05
0.0172462 0.000845723 1e-05
0.0173785 0.000844416 1e-05
0.0175108 0.0008431 1e-05
0.0176431 0.000841775 1e-05
0.0177754 0.00084044 1e-05
0.0179087 0.000839135 1e-05
0.018042 0.000837775 1e-05
0.0181753 0.000836406 1e-05
0.0183087 0.000835028 1e-05
0.018442 0.00083364 1e-05
0.0185763 0.000832263 1e-05
0.0187107 0.000830848 1e-05
0.018845 0.000829423 1e-05
0.0189794 0.000827989 1e-05
0.0191137 0.000826545 1e-05
0.0192491 0.000825098 1e-05
0.0193845 0.000823625 1e-05
0.0195199 0.000822142 1e-05
0.0196553 0.00082065 1e-05
0.0197907 0.000819148 1e-05
0.0198451 0.000818542 1e-05
0.0198995 0.000817934 1e-05
0.0199539 0.000817324 1e-05
0.0200083 0.000816712 1e-05
0.0200615 0.000816112 1e-05
0.0201438 0.000815182 1e-05
0.0202261 0.000814248 1e-05
0.0203084 0.000813311 1e-05
0.0203907 0.00081237 1e-05
0.020473 0.000811425 1e-05
0.0206105 0.000809836 1e-05
0.020748 0.000808242 1e-05
0.0208855 0.000806637 1e-05
0.021023 0.000805023 1e-05
0.0211606 0.000803399 1e-05
0.0212991 0.00080174 1e-05
0.0214377 0.000800083 1e-05
0.0215763 0.000798415 1e-05
0.0217149 0.000796738 1e-05
0.0218535 0.00079505 1e-05
0.0219931 0.000793322 1e-05
0.0221328 0.0007916 1e-05
0.0222724 0.000789868 1e-05
0.0224121 0.000788125 1e-05
0.0225517 0.000786373 1e-05
0.0226925 0.000784575 1e-05
0.0228332 0.000782787 1e-05
0.022974 0.000780988 1e-05
0.0231147 0.000779179 1e-05
0.0232555 0.000777359 1e-05
0.0233973 0.000775491 1e-05
0.0235391 0.000773633 1e-05
0.023681 0.000771765 1e-05
0.0238228 0.000769886 1e-05
0.0239647 0.000767996 1e-05
0.0241076 0.000766056 1e-05
0.0242505 0.000764129 1e-05
0.0243935 0.000762191 1e-05
0.0245364 0.000760243 1e-05
0.0246794 0.000758284 1e-05
0.0248234 0.000756276 1e-05
0.0249675 0.000754279 1e-05
0.0251115 0.000752273 1e-05
0.0252556 0.000750258 1e-05
0.0253996 0.000748227 1e-05
0.0255448 0.000746148 1e-05
0.02569 0.000744076 1e-05
0.0258351 0.000741999 1e-05
0.0259803 0.00073991 1e-05
0.0261255 0.000737803 1e-05
0.0262718 0.00073565 1e-05
0.0264181 0.000733501 1e-05
0.0265644 0.000731348 1e-05
0.0267107 0.000729183 1e-05
0.026857 0.000726998 1e-05
0.0270044 0.000724771 1e-05
0.0271519 0.000722544 1e-05
0.0272993 0.000720314 1e-05
0.0274468 0.000718072 1e-05
0.0275942 0.00071581 1e-05
0.0277428 0.000713509 1e-05
0.0278914 0.000711205 1e-05
0.0280399 0.000708899 1e-05
0.0281885 0.00070658 1e-05
0.0283371 0.000704243 1e-05
0.0284869 0.000701868 1e-05
0.0286366 0.00069949 1e-05
0.0287863 0.000697107 1e-05
0.0289361 0.000694712 1e-05
0.0290858 0.000692301 1e-05
0.0292367 0.000689854 1e-05
0.0293876 0.000687402 1e-05
0.0295385 0.000684942 1e-05
0.0296894 0.000682472 1e-05
0.0298403 0.000679987 1e-05
0.0299924 0.000677469 1e-05
0.0301445 0.000674943 1e-05
0.0302966 0.000672408 1e-05
0.0304486 0.000669863 1e-05
0.0306007 0.000667306 1e-05
0.030754 0.000664716 1e-05
0.0309072 0.000662117 1e-05
0.0310605 0.000659507 1e-05
0.0312138 0.000656887 1e-05
0.031367 0.000654257 1e-05
0.0315215 0.000651596 1e-05
0.0316759 0.000648922 1e-05
0.0318304 0.000646237 1e-05
0.0319848 0.000643543 1e-05
0.0321393 0.000640839 1e-05
0.0322949 0.000638105 1e-05
0.0324506 0.000635358 1e-05
0.0326062 0.000632597 1e-05
0.0327619 0.000629827 1e-05
0.0329175 0.000627049 1e-05
[...]
POINT_DATA 10880
 FIELD attributes 2
p 1 10880 float
-4.24213 -4.29222 -4.35226 -4.41287 -4.47405 -4.59934 -4.67257 -4.7525 -4.83243 -4.91236 -4.99749 -5.00164 -5.02211 -5.04252 -5.06288 -5.09497 -5.08425 -5.09328 -5.10225 -5.11115 -5.13634 -5.13229 -5.14542 -5.15849 -5.17151 -5.20061 -5.19595 -5.2076 -5.21919 -5.23074 -5.25901 -5.25167 -5.26126 -5.27081 -5.28032 -5.30836 -5.29939 -5.30868 -5.31795 -5.32717 -5.35725 -5.34638 -5.35573 -5.36503 -5.37431 -5.40717 -5.39356 -5.40274 -5.41189 -5.421 -5.457 -5.44012 -5.44924 -5.45832 -5.46737 -5.50715 -5.48681 -5.49622 -5.50559 -5.51492 -5.55945 -5.5354 -5.54531 -5.55518 -5.565 -5.61492 -5.58662 -5.5971 -5.60754 -5.61793 -5.67401 -5.64102 -5.65206 -5.66304 -5.67397 -5.73676 -5.69808 -5.70949 -5.72085 -5.73214 -5.80263 -5.75715 -5.76825 -5.77927 -5.79021 -5.86911 -5.80755 -5.81025 -5.81285 -5.81537 -5.89399 -5.78412 -5.77612 -5.76804 -5.75989 -5.87117 -5.74861 -5.74329 -5.73791 -5.73246 -5.86045 -5.75307 -5.75263 -5.75216 -5.75841 -5.87599 -5.79055 -5.78151 -5.78181 -5.80067 -5.89458 -5.82867 -5.81286 -5.81433 -5.84202 -5.92179 -5.87315 -5.85606 -5.85995 -5.89408 -5.9627 -5.9255 -5.90797 -5.91342 -5.9513 -6.01117 -5.98144 -5.96357 -5.97019 -6.01104 -6.06507 -6.0408 -6.02279 -6.0306 -6.07415 -6.12422 -6.10384 -6.0854 -6.09419 -6.14003 -6.18708 -6.16935 -6.15169 -6.16248 -6.20719 -6.25178 -6.2359 -6.22013 -6.23188 -6.27462 -6.31722 -6.30273 -6.28838 -6.30077 -6.3418 -6.38268 -6.36929 -6.35604 -6.36884 -6.40832 -6.44765 -6.43521 -6.42292 -6.43595 -6.474 -6.51188 -6.50026 -6.4888 -6.50191 -6.5386 -6.57514 -6.56427 -6.55355 -6.56661 -6.60199 -6.63722 -6.62711 -6.61716 -6.63008 -6.66409 -6.69796 -6.68863 -6.67983 -6.69304 -6.72477 -6.75727 -6.74871 -6.74314 -6.75585 -6.78395 -6.8151 -6.80733 -6.80473 -6.81697 -6.84167 -6.87151 -6.86452 -6.86464 -6.87645 -6.89798 -6.92653 -6.92032 -6.92289 -6.93431 -6.95289 -6.98017 -6.97471 -6.97948 -6.99052 -7.00639 -7.03245 -7.02771 -7.03446 -7.04515 -7.05855 -7.08342 -7.07942 -7.08792 -7.09828 -7.10941 -7.13313 -7.12985 -7.13988 -7.14994 -7.16001 -7.1816 -7.18061 -7.19039 -7.20018 -7.20997 -7.22894 -7.23001 -7.23955 -7.24909 -7.25864 -7.27522 -7.27814 -7.28745 -7.29678 -7.30611 -7.32053 -7.32508 -7.3342 -7.34333 -7.35247 -7.36497 -7.37094 -7.3799 -7.38886 -7.39783 -7.40862 -7.41584 -7.42465 -7.43346 -7.44229 -7.4516 -7.45465 -7.45811 -7.46157 -7.46503 -7.46842 -7.47372 -7.47902 -7.48432 -7.48963 -7.49471 -7.50348 -7.51216 -7.52084 -7.52952 -7.53751 -7.5465 -7.55511 -7.56372 -7.57234 -7.57966 -7.58901 -7.59756 -7.60612 -7.61468 -7.62127 -7.6311 -7.63959 -7.6481 -7.65661 -7.66238 -7.6727 -7.68109 -7.68949 -7.6979 -7.70277 -7.71371 -7.72186 -7.73001 -7.738 -7.7417 -7.75255 -7.76079 -7.76872 -7.77569 -7.77892 -7.78959 -7.7981 -7.80575 -7.8115 -7.81405 -7.82445 -7.83313 -7.84029 -7.84461 -7.84653 -7.85662 -7.86556 -7.87231 -7.87534 -7.87687 -7.88681 -7.89621 -7.90272 -7.90463 -7.90596 -7.91585 -7.92574 -7.9319 -7.93311 -7.93432 -7.94419 -7.95405 -7.9599 -7.96105 -7.9622 -7.97205 -7.98191 -7.98751 -7.98863 -7.98977 -7.99961 -8.00946 -8.01486 -8.01599 -8.01712 -8.02696 -8.03681 -8.04203 -8.04316 -8.0443 -8.05413 -8.06397 -8.069 -8.07018 -8.07133 -8.08114 -8.09017 -8.09509 -8.09704 -8.0982 -8.10798 -8.11607 -8.121 -8.12373 -8.12489 -8.13463 -8.14177 -8.14669 -8.15021 -8.15138 -8.16105 -8.16724 -8.17215 -8.17644 -8.17761 -8.1872 -8.19244 -8.19732 -8.20222 -8.20354 -8.21247 -8.21732 -8.22217 -8.22703 -8.22913 -8.23706 -8.24185 -8.24665 -8.25146 -8.25432 -8.26125 -8.26598 -8.27072 -8.27546 -8.27908 -8.28499 -8.28965 -8.29431 -8.29898 -8.30334 -8.30541 -8.30713 -8.30885 -8.31057 -8.31227 -8.31516 -8.31805 -8.32094 -8.32383 -8.32592 -8.33118 -8.3357 -8.34023 -8.34476 -8.34723 -8.35355 -8.35796 -8.36237 -8.36679 -8.36792 -8.37527 -8.37954 -8.38383 -8.38812 -8.38793 -8.39627 -8.4004 -8.40455 -8.40865 -8.40722 -8.41599 -8.42048 -8.42447 -8.42718 -8.4257 -8.43422 -8.4397 -8.44352 -8.44487 -8.44332 -8.45157 -8.45801 -8.46165 -8.46165 -8.46 -8.46798 -8.47535 -8.47879 -8.47744 -8.47568 -8.48338 -8.49109 -8.49408 -8.49219 -8.49029 -8.4977 -8.50512 -8.50785 -8.5058 -8.50376 -8.51086 -8.51797 -8.52043 -8.51821 -8.516 -8.52278 -8.52958 -8.53176 -8.52935 -8.52694 -8.53339 -8.53923 -8.54088 -8.53912 -8.53649 -8.5426 -8.5469 -8.54825 -8.54743 -8.54457 -8.55032 -8.55306 -8.55411 -8.55419 -8.55107 -8.55644 -8.55762 -8.55833 -8.55905 -8.5559 -8.56012 -8.56047 -8.56083 -8.5612 -8.55895 -8.56154 -8.56151 -8.56149 -8.56148 -8.56011 -8.56104 -8.56062 -8.5602 -8.55979 -8.55928 -8.55931 -8.55924 -8.55916 -8.55909 -8.55902 -8.55832 -8.55762 -8.55694 -8.55626 -8.5545 -8.55439 -8.55318 -8.55199 -8.5508 -8.54737 -8.54797 -8.54631 -8.54465 -8.543 -8.53792 -8.53922 -8.53707 -8.53492 -8.53206 -8.52604 -8.52679 -8.52533 -8.52266 -8.51809 -8.51159 -8.51174 -8.51097 -8.50776 -8.50143 -8.49443 -8.49397 -8.49351 -8.4895 -8.48197 -8.47443 -8.47332 -8.47223 -8.46765 -8.45955 -8.45146 -8.44968 -8.44791 -8.44273 -8.43405 -8.42537 -8.42289 -8.41975 -8.41365 -8.40532 -8.39603 -8.39282 -8.38767 -8.38088 -8.37322 -8.36329 -8.35933 -8.35213 -8.34462 -8.33712 -8.32701 -8.32127 -8.313 -8.30475 -8.2965 -8.28706 -8.28043 -8.27265 -8.26487 -8.2571 -8.24972 -8.2484 -8.24707 -8.24574 -8.24442 -8.24288 -8.23325 -8.22341 -8.21358 -8.20377 -8.19234 -8.18334 -8.17268 -8.16202 -8.15138 -8.1377 -8.12932 -8.11781 -8.10631 -8.09398 -8.07883 -8.06959 -8.05867 -8.04629 -8.0316 -8.01559 -8.00541 -7.99512 -7.98165 -7.96474 -7.94784 -7.93669 -7.92555 -7.91109 -7.89327 -7.87547 -7.86332 -7.85118 -7.83579 -7.81706 -7.79833 -7.78516 -7.77072 -7.75402 -7.73598 -7.7163 -7.70209 -7.68501 -7.66729 -7.64958 -7.62927 -7.613 -7.59424 -7.57548 -7.55674 -7.53713 -7.52796 -7.51795 -7.50794 -7.49794 -7.48823 -7.47839 -7.46854 -7.4587 -7.44886 -7.43836 -7.41819 -7.39734 -7.3765 -7.35567 -7.33283 -7.31298 -7.29104 -7.26911 -7.24662 -7.22188 -7.20118 -7.17931 -7.15629 -7.13128 -7.10543 -7.08359 -7.06176 -7.03735 -7.0104 -6.98345 -6.96048 -6.93752 -6.91205 -6.88402 -6.85598 -6.8319 -6.80708 -6.78016 -6.75206 -6.72284 -6.69755 -6.66997 -6.64187 -6.61378 -6.58385 -6.55634 -6.52704 -6.49776 -6.46849 -6.43903 -6.43578 -6.43235 -6.42891 -6.42548 -6.42207 -6.39512 -6.36819 -6.34126 -6.31434 -6.28568 -6.25595 -6.22445 -6.19296 -6.16125 -6.12625 -6.09623 -6.0646 -6.03193 -5.99707 -5.96103 -5.92983 -5.89865 -5.86445 -5.82727 -5.79009 -5.7577 -5.72532 -5.69001 -5.65168 -5.61335 -5.57972 -5.54455 -5.50767 -5.4703 -5.43092 -5.39577 -5.35773 -5.31971 -5.28169 -5.24285 -5.22883 -5.21401 -5.1992 -5.18439 -5.16989 -5.14551 -5.12114 -5.09678 -5.07242 -5.04696 -5.00788 -4.96768 -4.92749 -4.88718 -4.84427 -4.80503 -4.76461 -4.72333 -4.68011 -4.63608 -4.59569 -4.55531 -4.5126 -4.46757 -4.42251 -4.38103 -4.33935 -4.29523 -4.24976 -4.20368 -4.16112 -4.1165 -4.07133 -4.02616 -3.97965 -3.94932 -3.91769 -3.88607 -3.85445 -3.82395 -3.80919 -3.79442 -3.77966 -3.7649 -3.74942 -3.70305 -3.65595 -3.60887 -3.5618 -3.51177 -3.46591 -3.41862 -3.37058 -3.32046 -3.26936 -3.2225 -3.17565 -3.12625 -3.07431 -3.02234 -2.97453 -2.92612 -2.8754 -2.8237 -2.7709 -2.72217 -2.67062 -2.61903 -2.56745 -2.51521 -2.5016 -2.48738 -2.47315 -2.45893 -2.44489 -2.40673 -2.36858 -2.33043 -2.29228 -2.2528 -2.20103 -2.14794 -2.09485 -2.04091 -1.98553 -1.93324 -1.88096 -1.82678 -1.77072 -1.71463 -1.66163 -1.60856 -1.55335 -1.49708 -1.44032 -1.38662 -1.331 -1.27513 -1.21926 -1.16276 -1.14663 -1.12995 -1.11327 -1.09658 -1.08014 -1.04033 -1.00052 -0.960707 -0.9209 -0.879426 -0.824093 -0.767095 -0.710102 -0.651839 -0.592144 -0.536356 -0.480572 -0.422609 -0.362489 -0.302323 -0.246 -0.188979 -0.130113 -0.0707902 -0.0102015 0.0386822 0.0895599 0.140436 0.191311 0.240085 0.24893 0.257775 0.26662 0.275465 0.284537 0.343943 0.403587 0.463229 0.522985 0.584292 0.643223 0.702437 0.76247 0.824043 0.885679 0.944947 1.00421 1.06504 1.12655 1.18848 1.24804 1.30912 1.37022 1.43131 1.49148 1.49168 1.49188 1.49208 1.49228 1.49248 1.55379 1.6151 1.67642 1.73775 1.80165 1.86161 1.92203 1.98364 2.04761 2.11166 2.17187 2.23227 2.29488 2.35821 2.42239 2.46975 2.5188 2.568 2.6172 2.66443 2.6784 2.69238 2.70636 2.72035 2.73459 2.79715 2.86004 2.92293 2.9862 3.05032 3.11261 3.17489 3.23812 3.30227 3.36653 3.42895 3.49203 3.55558 3.61914 3.68316 3.69715 3.71134 3.72558 3.73982 3.75387 3.80336 3.85285 3.90234 3.95217 4.00381 4.0661 4.12885 4.19289 4.25938 4.32599 4.38848 4.45175 4.51691 4.58208 4.64874 4.6723 4.69659 4.72114 4.7457 4.76976 4.81075 4.85175 4.89275 4.93373 4.97472 5.04032 5.10595 5.17162 5.23724 5.30301 5.3688 5.43459 5.50037 5.56615 5.63214 5.64209 5.65204 5.66198 5.67193 5.6818 5.73792 5.79404 5.85018 5.90733 5.96622 6.03104 6.09588 6.16297 6.23233 6.30184 6.34688 6.3931 6.44026 6.48743 6.53329 6.55459 6.57591 6.59722 6.61825 6.63897 6.7081 6.77659 6.84502 6.91163 6.97825 7.04747 7.11584 7.18306 7.25029 7.31756 7.32023 7.32287 7.32546 7.32806 7.33065 7.39539 7.46014 7.52489 7.59195 7.66111 7.72654 7.79204 7.86192 7.93207 8.00375 8.02166 8.04007 8.05916 8.07825 8.09732 8.14806 8.19881 8.24956 8.29792 8.34454 8.41602 8.48752 8.55481 8.6187 8.68239 8.71309 8.74272 8.77081 8.79891 8.82698 8.86399 8.90098 8.93798 8.97744 9.01867 9.08017 9.14162 9.20826 9.28009 9.35166 9.38896 9.42812 9.46982 9.51151 9.55503 9.58081 9.60658 9.63235 9.65556 9.67672 9.74801 9.8174 9.8826 9.93754 9.99234 10.0531 10.1085 10.1584 10.2082 10.2601 10.2673 10.2745 10.2817 10.2897 10.2986 10.3524 10.4088 10.4651 10.5304 10.6003 10.6495 10.699 10.7601 10.8232 10.8895 10.9094 10.9335 10.9601 10.9867 11.0158 11.049 11.0823 11.1155 11.1451 11.1676 11.2373 11.302 11.3592 11.3936 11.4278 11.491 11.5495 11.5971 11.6448 11.6844 11.7164 11.7363 11.755 11.7736 11.7939 11.8169 11.8399 11.8628 11.8858 11.917 11.9393 11.9792 12.0192 12.0733 12.1461 12.1819 12.2172 12.2579 12.3043 12.3505 12.3582 12.3808 12.4119 12.4431 12.4846 12.4892 12.4938 12.4984 12.5021 12.5032 12.5471 12.5855 12.6238 12.6465 12.6503 12.6988 12.7474 12.7707 12.7685 12.7657 12.8072 12.8214 12.8305 12.8396 12.8451 12.8493 12.8497 12.85 12.8504 12.8507 12.8546 12.8584 12.8622 12.8661 12.8973 12.8708 12.8643 12.8616 12.8772 12.9097 12.8745 12.8382 12.8312 12.8542 12.8782 12.8337 12.788 12.7717 12.7854 12.8001 12.7455 12.705 12.6825 12.6684 12.673 12.608 12.5755 12.5431 12.5108 12.493 12.4522 12.4256 12.399 12.3725 12.3338 12.3204 12.3069 12.2934 12.28 12.2573 12.2129 12.1601 12.1075 12.0552 11.9617 11.9274 11.8689 11.8047 11.7114 11.5994 11.5505 11.5035 11.4166 11.2895 11.1608 11.0946 11.0302 10.9237 10.7848 10.6412 10.5595 10.4561 10.3274 10.1906 10.0245 9.9196 9.77756 9.63262 9.48784 9.31591 9.18445 9.01387 8.84353 8.67341 8.47792 8.30724 8.12152 7.93583 7.75015 7.55368 7.35768 7.12942 6.90142 6.67367 6.42104 6.18729 5.95982 5.73228 5.50469 5.28214 5.017 4.68872 4.36118 4.03425 3.65203 3.33273 3.08857 2.84532 2.60285 2.42702 2.11368 1.60712 1.09863 0.588522 0