/*--------------------------------*- C++ -*----------------------------------*\
| =========                 |                                                 |
| \\      /  F ield         | OpenFOAM: The Open Source CFD Toolbox           |
|  \\    /   O peration     | Version:  2112                                  |
|   \\  /    A nd           | Website:  www.openfoam.com                      |
|    \\/     M anipulation  |                                                 |
\*---------------------------------------------------------------------------*/
FoamFile
{
    version     2.0;
    format      ascii;
    arch        "LSB;label=32;scalar=64";
    class       volScalarField;
    location    "0";
    object      yPlus;
}
// * * * * * * * * * * * * * * * * * * * * * * * * * * * * * * * * * * * * * //

dimensions      [0 0 0 0 0 0 0];

internalField   uniform 0;

boundaryField
{
    rotor
    {
        type            calculated;
        value           nonuniform List<scalar> 
400
(
152.853330092
153.02212558
154.112324747
155.967229479
156.528782527
156.919435574
156.856000147
156.86181914
156.807866126
156.795173192
156.782138445
156.779454719
156.777985319
156.77738037
156.777495083
156.777428537
156.777577456
156.777368964
156.777654907
156.777349215
156.777527013
156.777705836
156.777401274
156.777646775
156.777411003
156.77767432
156.777614081
156.777493552
156.777678549
156.777473532
156.777621435
156.777274013
156.777515899
156.777756592
156.777405663
156.777563169
156.777385659
156.777606446
156.777429682
156.777518604
156.777544571
156.777569853
156.777581148
156.777581832
156.777580629
156.777580827
156.777669985
156.777507244
156.777723706
156.777484149
156.777608283
156.777390015
156.777552478
156.777355717
156.777592229
156.777505444
156.777428259
156.777344744
156.777629293
156.777447464
156.77764222
156.777587427
156.777591911
156.77758373
156.77756937
156.777560621
156.777561655
156.777561329
156.77755275
156.777557557
156.777589646
156.777611321
156.777586275
156.777547176
156.777543852
156.77756349
156.777564446
156.777463463
156.777588452
156.777342667
156.777613018
156.777390575
156.777627292
156.777427873
156.777697042
156.777430424
156.777537019
156.777515474
156.777755909
156.777658489
156.777406922
156.777664584
156.777466676
156.777744473
156.777505909
156.77756311
156.777614914
156.77737859
156.777670231
156.777388882
156.777569746
156.77773431
156.777424159
156.777672275
156.777477256
156.777749496
156.777497924
156.77763939
156.777493529
156.777679864
156.77743378
156.777633787
156.777540989
156.777664817
156.777561458
156.777747178
156.777487767
156.777665245
156.777601353
156.777533362
156.777706305
156.777531738
156.777609417
156.777395893
156.777688061
156.777424461
156.777650925
156.777499983
156.777582179
156.777658927
156.777500435
156.777740389
156.777496904
156.777731264
156.777478267
156.777715522
156.777483493
156.777655076
156.777588347
156.777578444
156.777566963
156.777568398
156.777494585
156.777665515
156.777415516
156.777606217
156.777541622
156.777723705
156.777511118
156.777334015
156.777629317
156.777466561
156.777671492
156.777466807
156.777615726
156.777412752
156.777664396
156.777355433
156.777549693
156.777756019
156.777483052
156.777727599
156.777506674
156.777771174
156.777531074
156.777675974
156.777598481
156.77760396
156.777612386
156.777622591
156.777623461
156.777615542
156.777609185
156.777605221
156.777597986
156.777582661
156.777480985
156.777610802
156.777385344
156.777684403
156.77742528
156.777652056
156.777554564
156.777399829
156.777594327
156.777504021
156.777611413
156.777465795
156.777619297
156.77746357
156.777579059
156.777485101
156.777706646
156.77750111
156.777596692
156.777380248
156.777669254
156.777419618
156.777651459
156.777479397
156.777546282
156.777561632
156.777584831
156.777602197
156.777610931
156.777610146
156.777602744
156.777592179
156.77758585
156.777587259
156.777593075
156.777670106
156.777480636
156.777736968
156.777559095
156.777637507
156.777480936
156.77761223
156.77747302
156.777649774
156.777323877
156.777610673
156.777520326
156.777620233
156.77745171
156.777572327
156.777491693
156.777766103
156.777495183
156.777697165
156.777415946
156.777612864
156.777473853
156.777682381
156.777541467
156.777740115
156.77747688
156.777757468
156.777518044
156.777643548
156.777455174
156.777626721
156.777446148
156.777704071
156.777558178
156.777724572
156.777460784
156.777625501
156.777554582
156.777480393
156.7776267
156.777405535
156.77771201
156.777483921
156.777672448
156.777427169
156.777661619
156.777365453
156.777537464
156.77772946
156.777504614
156.777676559
156.777518838
156.777730391
156.777596113
156.777841071
156.777523027
156.777280251
156.777621903
156.777413707
156.777638908
156.777459408
156.777686959
156.777424325
156.777649729
156.777452846
156.777710842
156.777512932
156.777800246
156.777562954
156.777689317
156.777588123
156.77758302
156.777588415
156.777584384
156.777567826
156.777472362
156.777620193
156.77739457
156.777661756
156.777428784
156.77766783
156.777403336
156.777610557
156.777787394
156.777478276
156.777762718
156.777536874
156.777669076
156.777570472
156.777555615
156.777467445
156.77763058
156.777440395
156.777739362
156.777500196
156.777747584
156.777534266
156.777633764
156.777390259
156.777562892
156.777448862
156.777548932
156.777401037
156.777683394
156.777582651
156.777508257
156.777753526
156.777499266
156.777720929
156.777478516
156.777773996
156.777595862
156.777400552
156.7776647
156.777427823
156.777756902
156.77762579
156.777444206
156.777670238
156.777519546
156.777740953
156.777527811
156.777696756
156.777524178
156.77766084
156.777404495
156.777640013
156.777412835
156.77773778
156.777544471
156.777325014
156.777669222
156.777489218
156.777629017
156.777455051
156.777697864
156.777348277
156.777538314
156.777747418
156.777440642
156.7776601
156.777387421
156.777607532
156.777544192
156.777735132
156.777498734
156.777674998
156.777594748
156.777592822
156.777586266
156.777577892
156.777575326
156.77750259
156.777657805
156.777427202
156.777700164
156.77744137
156.777621086
156.777387794
156.777686546
156.777504065
156.777620551
156.777419125
156.777689601
156.777409241
156.777628007
156.777464028
156.77754783
156.777652646
156.777500185
156.77772985
156.777517359
156.777661747
156.777444511
156.777621627
156.777461396
156.777681742
156.777517655
156.777750773
156.777577159
156.777656802
156.77748612
156.777600562
156.77745927
156.777744852
156.777636443
156.777513513
156.777667895
153.777032713
)
;
    }
    box1_wall
    {
        type            calculated;
        value           nonuniform List<scalar> 
100
(
156.777522807
156.777697441
156.777468443
156.77763012
156.777482863
156.777676493
156.777346283
156.777578644
156.777781055
156.77745049
156.777663907
156.777426582
156.777618774
156.777395569
156.777688886
156.777433992
156.777525872
156.777460083
156.777661019
156.777462996
156.77765111
156.777433696
156.77763606
156.77750094
156.77766017
156.777433499
156.777697063
156.777462905
156.777752672
156.777543519
156.777352946
156.777675702
156.777435289
156.777672203
156.77747066
156.77765501
156.777551474
156.777614198
156.777413637
156.777642391
156.777479898
156.77767154
156.777478774
156.777593972
156.777458722
156.777593977
156.777494805
156.777689727
156.77743853
156.777612551
156.777541462
156.777470062
156.777620026
156.777413005
156.777739736
156.777512806
156.777677682
156.777408825
156.777683241
156.777475147
156.777624182
156.77748798
156.777543689
156.777358809
156.777663392
156.777857511
156.777498168
156.777716577
156.777498203
156.777672308
156.777583875
156.777558005
156.77754201
156.777456383
156.777614203
156.777413573
156.777711136
156.777486563
156.777753207
156.7775267
156.777601424
156.777666975
156.777419834
156.777669815
156.777421503
156.777667043
156.777715331
156.779289992
156.781124007
156.795330418
156.801504493
156.861680474
156.833143683
156.910135625
156.463796183
155.914544259
153.971742644
152.924376966
152.848695565
153.601821058
)
;
    }
    outlet
    {
        type            calculated;
        value           uniform 0;
    }
    box2_wall
    {
        type            calculated;
        value           nonuniform List<scalar> 
105
(
152.996568035
153.006501768
154.050921499
155.930035097
156.504700767
156.910868917
156.851995744
156.861422207
156.80783669
156.795343553
156.782132959
156.779353377
156.777876931
156.777824618
156.777492194
156.777655009
156.777522773
156.777729589
156.777475309
156.777779036
156.777588467
156.777417215
156.777723763
156.77741222
156.777608969
156.777473668
156.777584764
156.777597905
156.777677672
156.777508332
156.777773277
156.777612255
156.777703075
156.77746872
156.777627731
156.777436025
156.777694878
156.777412555
156.777657188
156.77759144
156.777510154
156.777740069
156.7774845
156.77772042
156.777431906
156.777642133
156.777492959
156.777587295
156.777598405
156.777601327
156.77760373
156.77760844
156.777613996
156.777699097
156.777528759
156.777749644
156.777533841
156.777733408
156.777556406
156.777645207
156.777491959
156.777599917
156.777439409
156.77768899
156.777566518
156.77770551
156.77732516
156.777594378
156.777931548
156.777614698
156.777301622
156.777617175
156.777517107
156.777564239
156.777350473
156.777613256
156.777463313
156.77763434
156.777488665
156.777724908
156.777481413
156.777797165
156.777557619
156.777297127
156.777693578
156.77796724
156.779463787
156.782193529
156.795393419
156.807866886
156.861430512
156.851869427
156.910551457
156.503966512
155.92911644
154.049596405
153.004817176
152.9922607
153.670072989
153.427286941
153.504356707
153.589134049
153.682387697
153.784968084
153.897806721
)
;
    }
    box3_wall
    {
        type            calculated;
        value           nonuniform List<scalar> 
106
(
118.964969186
145.459691029
150.679130619
152.745043256
154.432569187
155.497884771
156.263033326
156.558943381
156.708649135
156.7401879
156.756192988
156.759293043
156.760847333
156.76096891
156.761159567
156.761310467
156.76108422
156.761277359
156.761137172
156.761389489
156.761170481
156.761315091
156.761114132
156.761350846
156.761088723
156.761298836
156.76108336
156.761382806
156.761180682
156.761338309
156.76124156
156.761229664
156.761237504
156.761170766
156.761321771
156.761082406
156.761344293
156.761108693
156.7613182
156.761043822
156.761266435
156.761201444
156.761426973
156.761174856
156.761410507
156.76116812
156.761391618
156.761185644
156.761409607
156.761154967
156.761375393
156.761163319
156.761393697
156.761164856
156.761382245
156.761093671
156.761312881
156.761506213
156.761183606
156.761436278
156.761197806
156.761337698
156.761247236
156.761157846
156.761291493
156.761053518
156.761335694
156.761040601
156.761227369
156.761419206
156.761123063
156.761351067
156.761121155
156.761328121
156.761099437
156.761336322
156.761076212
156.761305066
156.761138417
156.761201376
156.761194356
156.761195887
156.761206206
156.761302103
156.761161369
156.76136615
156.761017536
156.761490784
156.763042932
156.764767771
156.778935311
156.785118568
156.845321291
156.816931969
156.89412738
156.44823814
155.899376062
153.957182703
152.908831169
152.828472799
153.404283135
153.459950978
153.521186967
153.588545817
153.662641016
153.744146285
)
;
    }
    stator1_wall
    {
        type            calculated;
        value           nonuniform List<scalar> 
201
(
156.777524012
156.77768767
156.777591599
156.777568138
156.777567253
156.777582956
156.777583653
156.777475714
156.777593712
156.777367262
156.777656601
156.777378246
156.777610831
156.777491111
156.77768232
156.77753484
156.777723299
156.777402766
156.777664895
156.777446269
156.777606138
156.777536798
156.777462775
156.777609922
156.777379163
156.777669994
156.777465232
156.777669557
156.777338063
156.777552901
156.777800248
156.777472048
156.777694737
156.777537947
156.777687253
156.777527102
156.777732963
156.777439458
156.777719925
156.77749916
156.7775581
156.777641785
156.777430424
156.777603887
156.77732827
156.777576
156.777800151
156.777459395
156.777680828
156.777526267
156.777588113
156.77755747
156.77760623
156.77743841
156.777670381
156.777418179
156.777717152
156.777484537
156.777608383
156.777509815
156.777499872
156.777411918
156.777578344
156.777398251
156.777686727
156.777347262
156.777529505
156.77775236
156.77741826
156.777650871
156.777500842
156.777556257
156.777539131
156.777549074
156.777655987
156.777524258
156.777742825
156.777433215
156.77770785
156.777550058
156.77739761
156.777653716
156.777501142
156.777704767
156.777490357
156.777662883
156.777479053
156.77762225
156.777424597
156.777699792
156.777346901
156.777477234
156.77767652
156.777463326
156.77767809
156.777493343
156.777571757
156.777573994
156.777565711
156.777550934
156.777538135
156.777528628
156.777591098
156.777416134
156.777639659
156.777390262
156.777642926
156.77741113
156.777601364
156.777363348
156.777604255
156.777407314
156.777694982
156.777486333
156.777560837
156.777341491
156.777607204
156.777390655
156.777647258
156.777430224
156.77763452
156.777418202
156.777740979
156.77752981
156.777658725
156.777540872
156.77751738
156.777518761
156.777535754
156.777553473
156.777567942
156.777582874
156.77759186
156.777588611
156.777582528
156.777512633
156.777691642
156.77741155
156.777232978
156.775655439
156.772534692
156.756510984
156.724798018
156.573241554
156.269846094
155.490058377
154.412949985
152.734953194
150.704224805
145.501518499
118.981358079
139.049624766
151.628706176
155.290735185
156.413022079
156.70623967
156.765704336
156.775812138
156.777191478
156.777636572
156.777374212
156.777616137
156.777476577
156.77763825
156.777482966
156.777700189
156.777419109
156.77765101
156.777394334
156.777641273
156.77750343
156.777671836
156.777498714
156.777697451
156.777448825
156.777584182
156.777408783
156.777684158
156.777536629
156.777598222
156.777575579
156.777584977
156.77768582
156.777527647
156.777719147
156.777377485
156.777615511
156.777472272
156.777529238
156.777447022
156.777751423
156.777451658
156.7776368
156.777508945
156.777713923
156.777502108
156.777562843
156.777460793
156.777701487
156.777429073
156.777719983
)
;
    }
    stator2_wall
    {
        type            calculated;
        value           nonuniform List<scalar> 
181
(
109.427701305
104.3220402
109.424413932
104.32979025
128.942931024
118.890967648
137.815104082
101.076058459
95.0806297378
115.65442354
111.592545491
109.425287202
104.327809103
137.819227868
128.949636705
118.888500904
115.651576546
111.587653774
109.421790969
104.325039149
128.944053268
118.888987696
137.812829429
101.073149353
95.0778656872
115.655374851
111.59050656
115.648985181
111.590827846
109.423052228
104.326295455
128.943441459
118.889988945
109.424781809
104.328836316
115.654814011
111.591529273
137.813890331
101.072713189
95.078617115
137.822083079
128.951749075
118.887618567
101.074934651
95.0813145426
101.075315974
95.080335187
128.944243262
118.88735477
109.425486697
104.326404688
115.655516266
111.588914223
109.426328109
104.325310233
128.945116785
118.886130683
137.810207557
101.078091773
95.0772883614
115.656325975
111.587747534
137.816480287
128.950704522
118.885969086
115.652633769
111.585539306
109.424213094
104.326720436
101.076141431
95.0783607932
115.650711969
111.585424214
109.424819264
104.321307035
128.945758799
118.884433018
109.427007591
104.32379914
115.656960641
111.586103246
137.808082276
101.07473899
95.0745624571
137.813081614
128.952042762
118.882334495
115.653588949
111.581513014
109.423838326
104.319345227
128.946456665
118.88231288
137.806006501
101.075462329
95.0731819878
115.657536573
111.584057481
101.077729666
95.0761778318
137.816620392
128.953799526
118.882174687
101.076995012
95.077605553
115.649640158
111.588346878
109.423688578
104.323965795
137.819604636
128.952556393
118.885147012
101.075796402
95.0796296692
137.811150569
101.073437527
95.0766866318
128.873212139
118.876633921
109.423951889
104.330797499
115.647892006
111.592583316
109.355374498
107.74042355
106.530768647
103.061507984
126.46862915
121.498443546
111.946857673
137.625342449
100.245440508
94.7949084946
137.821551065
128.949000441
118.89073944
115.651006301
111.590129741
109.422441887
104.3308764
101.074713556
95.0819543228
109.147129968
104.088373323
128.896036319
118.74636848
137.766789791
101.079322707
95.0640828471
115.494944796
111.28514067
128.947424416
118.879984812
109.428573777
104.319915645
115.658368727
111.581751914
115.652187896
111.581526958
109.426340123
104.317717362
137.812769145
128.95556101
118.878266387
101.078667871
95.0750186539
137.803682537
101.076447584
95.071612529
137.80850743
128.954084522
118.877735469
115.655344609
111.577231998
109.426835071
104.318079526
101.079638142
95.0730867178
137.651560859
101.049326036
95.4491091929
)
;
    }
    stator3_wall
    {
        type            calculated;
        value           nonuniform List<scalar> 
171
(
124.458911571
93.8939062025
114.732442441
103.290901386
125.917058864
149.871569607
124.464678139
93.8954825912
114.747951459
103.298261623
125.940836434
149.875049675
124.466767093
93.8962857252
114.750878542
132.7522821
101.58770316
123.993318425
147.570651383
122.363862717
129.703666126
92.1910216107
112.48474668
98.3763209756
118.250593301
135.795023622
103.299466883
125.936385258
132.751032365
101.58722701
123.990164909
147.569198767
122.364457728
135.790375029
92.1940918718
112.486994086
129.705677635
98.3748878456
118.243980972
103.29809534
125.934220695
149.871365932
124.464514247
93.8956286429
114.745163364
132.749927474
101.586773547
123.986641765
147.566864161
122.361284654
129.701035487
98.3752722928
118.243968452
135.792241141
149.86758428
103.298418869
125.929154579
124.462160718
93.8947252209
114.741294525
92.1900598309
112.478558988
147.563203833
122.361308996
132.747768598
101.584760172
123.980240639
92.193304173
112.480432133
129.70324297
135.787029743
98.374037982
118.236445997
103.296500081
125.92516061
149.865892411
124.461138753
93.8949154345
114.738117097
131.575120268
132.744206512
101.583508315
123.964641444
147.526980951
122.266467043
92.052786254
112.05145349
128.813376074
97.1386481218
115.470594426
99.3901536065
120.097969138
141.118925217
131.622185718
100.979390118
123.599238974
147.209219308
122.266597432
142.612551457
122.368424409
92.4972737151
113.545029774
129.697176916
92.1621313536
112.479657393
98.3759128145
118.259052305
135.798473234
149.877021297
124.468134942
93.8965186043
114.756907432
103.300829986
125.946265693
135.794448145
103.299621789
125.945360287
149.87750136
124.468409085
93.8967939171
114.755311804
132.754091711
101.588382066
123.99837457
147.573374595
122.365585725
129.705412844
98.376942025
118.255521374
135.797042488
92.1915138919
112.489228592
149.87463975
103.300233843
125.941917865
124.466640461
93.8960806948
114.752907158
147.570373398
122.365863685
92.1946257469
112.492295244
129.707972879
135.79237118
98.3759132556
118.250062315
132.752518803
101.586539901
123.993513693
132.75467303
101.588573102
124.000360812
147.574679367
122.367930035
92.1950885954
112.496070533
129.70922383
98.3761530956
118.253951041
132.747293838
101.58568164
123.977865471
147.562113668
122.358250161
129.697751051
92.1891536923
112.470588015
98.3738250372
118.234061837
135.783549304
149.861139198
)
;
    }
    nozzle_wall
    {
        type            calculated;
        value           nonuniform List<scalar> 
200
(
144.987936701
153.26492585
155.695323975
156.44959744
156.647617373
156.686531835
156.692771246
156.693443566
156.693802009
156.693735859
156.69392358
156.693630943
156.693854635
156.693595615
156.693842962
156.693701148
156.693850244
156.693676944
156.693872525
156.69352933
156.693785336
156.694014757
156.693685881
156.693885596
156.693626083
156.693836907
156.693715237
156.693924445
156.693728118
156.693827378
156.693677047
156.693769113
156.693644482
156.693908746
156.6936748
156.693929819
156.693674211
156.693851284
156.693690947
156.693950071
156.693795899
156.693948453
156.693778556
156.693979044
156.693691249
156.693981552
156.693791652
156.693861143
156.693638653
156.693907338
156.69363151
156.693868519
156.693726041
156.693798016
156.693783391
156.693771713
156.693843315
156.693654285
156.693882524
156.693685848
156.693803446
156.693689919
156.693855318
156.693733535
156.693845231
156.693661391
156.693914904
156.693812983
156.693717485
156.693917144
156.693603158
156.693884824
156.693786453
156.693825612
156.69360406
156.693870406
156.694079287
156.693773233
156.694018784
156.693764418
156.693813022
156.693884351
156.693667812
156.693938139
156.693694231
156.693904985
156.693624787
156.693800932
156.693652869
156.693836291
156.693644888
156.693826138
156.693657063
156.693847093
156.693610226
156.693875953
156.693689399
156.694012155
156.693819533
156.693633701
156.693959033
156.693735964
156.693959606
156.693747007
156.693929838
156.693567803
156.693778566
156.694063289
156.693811403
156.69395831
156.693710135
156.69384847
156.69365999
156.693813181
156.693617037
156.693914839
156.693686554
156.693981039
156.693801472
156.693609042
156.693857595
156.693508844
156.693720303
156.694014823
156.693776012
156.693931198
156.693688842
156.693855635
156.693783025
156.693781339
156.693681958
156.693812375
156.693589149
156.693892682
156.693633676
156.693809336
156.693645088
156.693853815
156.693738981
156.693935001
156.69366599
156.693911974
156.69366385
156.693859325
156.693682899
156.693849632
156.693975324
156.69369922
156.693847495
156.693651403
156.693851282
156.693676854
156.693813148
156.693715439
156.69383732
156.693636333
156.693850499
156.693993503
156.693657353
156.693859113
156.693585211
156.693832561
156.693711542
156.693820642
156.693836081
156.693824439
156.693792959
156.693764939
156.693755889
156.693764145
156.693776032
156.693776893
156.693765743
156.693756182
156.693755127
156.693754025
156.693826418
156.693661354
156.693872387
156.693584743
156.693810164
156.693574352
156.693863972
156.6938002
156.693850502
156.693528061
156.694070621
156.695663958
156.697413139
156.711573675
156.71772817
156.777927402
156.749659684
156.82722755
156.381925808
155.83371393
153.892186881
152.8451147
152.768178904
153.521014288
)
;
    }
    inlet
    {
        type            calculated;
        value           uniform 0;
    }
    axis
    {
        type            calculated;
        value           nonuniform List<scalar> 0();
    }
    bottomEmptyFaces
    {
        type            wedge;
    }
    topEmptyFaces
    {
        type            wedge;
    }
}


// ************************************************************************* //
