# y+ ()       
# Time        	patch         	min           	max           	average       
1917          	upperWall	4.654893e+00	8.302920e+02	2.532156e+01
1917          	lowerWall	6.012395e+00	1.216801e+03	3.420635e+01
