/*--------------------------------*- C++ -*----------------------------------*\
| =========                 |                                                 |
| \\      /  F ield         | OpenFOAM: The Open Source CFD Toolbox           |
|  \\    /   O peration     | Version:  v1906                                 |
|   \\  /    A nd           | Web:      www.OpenFOAM.com                      |
|    \\/     M anipulation  |                                                 |
\*---------------------------------------------------------------------------*/
FoamFile
{
    version     2.0;
    format      ascii;
    class       volScalarField;
    location    "400";
    object      epsilon;
}
// * * * * * * * * * * * * * * * * * * * * * * * * * * * * * * * * * * * * * //

dimensions      [0 2 -3 0 0 0 0];


internalField   nonuniform List<scalar> 
12225
(
8534.02
8352.89
7991.17
7604.55
7243.27
6920.78
6636.66
6390.28
6170.54
5983.54
5808.42
5669.01
5556.93
5466.55
5383.61
5325.02
5253.91
5230.69
612.843
1496.68
1698.67
1689.22
1643.2
1565.32
1507.49
1461.59
1423.45
1391.05
1363.76
1339.82
1321.43
1305.49
1291.56
1281
1264.07
1255.09
136.093
458.868
618.738
686.987
717.373
720.796
717.721
710.422
700.514
690.003
680.026
670.089
661.054
652.65
644.583
638.027
629.529
625.267
58.4941
196.186
292.443
349.196
383.842
402.689
413.045
418.255
419.726
419.194
417.68
414.953
411.788
408.404
404.785
401.56
397.162
395.296
35.9832
104.799
162.96
203.275
231.286
250.12
262.868
271.514
277.156
280.709
282.901
283.999
284.229
284.019
283.43
282.625
281.098
281.01
26.8379
65.6347
102.219
130.431
151.698
167.461
179.165
187.904
194.396
199.192
202.749
205.341
207.156
208.409
209.223
209.718
209.831
210.375
22.3045
46.1298
70.088
90.0276
105.974
118.534
128.411
136.206
142.365
147.234
151.1
154.168
156.586
158.49
159.98
161.145
161.985
163.037
19.7659
35.3029
51.5633
65.8866
77.887
87.7626
95.8532
102.489
107.943
112.432
116.141
119.214
121.758
123.869
125.62
127.075
128.268
129.529
18.2252
28.792
40.1565
50.6121
59.7104
67.4604
74.014
79.5502
84.2315
88.197
91.5655
94.4347
96.8832
98.9767
100.771
102.312
103.644
104.95
17.2356
24.6382
32.7704
40.5155
47.474
53.5741
58.869
63.4506
67.4141
70.8466
73.8252
76.4157
78.6734
80.6452
82.3714
83.8874
85.2325
86.5069
16.572
21.8688
27.7965
33.6071
38.9739
43.7975
48.0798
51.8621
55.1975
58.1392
60.7367
63.0339
65.0693
66.8761
68.4839
69.9192
71.2133
72.4223
16.1502
20.1184
24.629
29.1507
33.4205
37.3364
40.8768
44.0563
46.9034
49.4509
51.731
53.7739
55.6067
57.2536
58.7366
60.0764
61.2966
62.4319
15.8383
18.8312
22.2854
25.8222
29.233
32.4221
35.3561
38.0329
40.4647
42.6697
44.668
46.4795
48.1229
49.6157
50.9739
52.2134
53.3515
54.4109
15.5801
17.7735
20.3489
23.0468
25.7088
28.2508
30.6343
32.8462
34.887
36.7637
38.4869
40.068
41.5189
42.8511
44.0759
45.2045
46.2493
47.2248
15.3748
16.9404
18.8149
20.8284
22.8654
24.8563
26.7623
28.5642
30.2546
31.8326
33.3014
34.666
35.9328
37.1088
38.201
39.2171
40.1654
41.0554
15.2203
16.3206
17.667
19.1536
20.6995
22.2489
23.7661
25.2295
26.6266
27.9515
29.2019
30.3785
31.4835
32.5202
33.4928
34.406
35.2649
36.0756
15.1155
15.9037
16.8907
18.0115
19.2098
20.4417
21.6754
22.8887
24.067
25.201
26.2854
27.3178
28.2976
29.2258
30.1043
30.9358
31.7237
32.4713
15.063
15.6958
16.5013
17.4344
18.4515
19.5156
20.5977
21.6762
22.7355
23.7653
24.7587
25.7116
26.6223
27.4904
28.3167
29.1029
29.8519
30.5671
15.0791
15.7588
16.6179
17.6054
18.6741
19.7856
20.9105
22.0272
23.1208
24.1812
25.202
26.1797
27.1126
28.0008
28.845
29.6469
30.4087
31.1325
15.1989
16.2332
17.5014
18.9071
20.3759
21.8555
23.3118
24.7232
26.077
27.3665
28.5889
29.7439
30.8329
31.8585
32.8236
33.7314
34.5851
35.3867
15.4072
17.0668
19.0419
21.1524
23.2791
25.3517
27.3322
29.2024
30.9558
32.5925
34.1164
35.5334
36.8501
38.0738
39.2114
40.2691
41.2518
42.1611
15.767
18.525
21.7126
24.9943
28.1808
31.1819
33.9635
36.5196
38.8584
40.994
42.943
44.7222
46.3477
47.8347
49.1972
50.4469
51.593
52.6348
16.3867
21.0659
26.3185
31.5142
36.3633
40.769
44.724
48.2551
51.402
54.2066
56.7088
58.9448
60.9472
62.7443
64.3622
65.8225
67.1432
68.3166
17.4987
25.6601
34.5308
42.8944
50.348
56.8502
62.4809
67.3439
71.545
75.1812
78.3358
81.08
83.474
85.5685
87.409
89.0323
90.4768
91.7209
19.6473
34.5752
50.1047
63.8323
75.3824
84.9706
92.9154
99.4853
104.931
109.46
113.237
116.397
119.047
121.272
123.154
124.747
126.136
127.268
24.2996
53.9029
82.4101
105.377
123.261
137.141
147.951
156.294
162.771
167.819
171.746
174.798
177.157
178.96
180.357
181.395
182.254
182.799
36.492
103.323
158.507
197.263
224.142
242.881
255.933
264.526
270.309
274.107
276.415
277.678
278.151
278.05
277.698
276.951
276.201
275.163
81.6124
262.521
372.065
433.086
466.499
484.559
492.797
493.404
492.164
489.219
484.985
480.322
475.559
470.658
466.066
461.307
457.353
453.008
390.156
975.236
1160.1
1205.39
1197.52
1173.92
1134.65
1094.72
1063.22
1037.29
1015.22
996.088
979.439
964.632
951.776
940.035
930.167
920.781
6457.23
6260.45
5992.4
5736.01
5500.79
5290.29
5102.41
4935.32
4786.9
4654.7
4536.5
4430.25
4334.6
4247.73
4169.28
4097.05
4031.98
3970.73
33.6507
20.6168
29.8312
36.0448
40.4884
42.2113
41.7708
39.9541
36.0081
30.2912
22.9901
15.0531
10.5369
8.31668
7.7755
8.93909
13.2187
22.1672
39.1873
63.9269
89.7298
116.482
143.882
171.34
198.853
226.286
253.68
281.063
308.478
335.963
363.547
391.242
419.039
446.914
474.822
502.722
530.579
558.33
585.849
612.989
639.573
665.468
690.645
715.242
739.161
762.298
784.482
805.499
825.087
842.996
858.957
872.713
883.728
890.284
893.673
894.486
890.7
883.458
872.386
857.146
837.682
813.566
784.11
756.572
729.69
704.079
679.954
657.418
636.594
617.444
599.582
581.259
563.962
551.277
542.992
536.07
529.185
522.48
516.121
510.134
504.564
499.404
494.647
490.268
486.252
482.573
479.208
476.125
473.298
470.693
468.279
466.031
463.926
461.945
460.069
458.281
456.566
454.911
453.307
451.742
450.204
448.692
447.209
445.759
444.346
442.972
441.638
440.346
439.096
437.889
436.726
435.608
434.536
433.51
432.533
431.604
430.723
429.893
429.119
428.399
427.733
427.116
426.545
426.017
425.531
425.089
424.69
424.335
424.025
423.761
423.544
423.373
423.248
423.169
423.136
423.149
423.209
423.314
423.465
423.667
423.91
424.218
424.514
424.938
425.601
425.876
426.326
427.045
427.724
428.402
429.097
429.82
430.576
431.367
432.197
433.065
433.973
434.925
435.919
436.953
438.025
439.133
440.272
441.44
442.631
443.839
445.057
446.275
447.481
448.66
449.718
450.564
451.594
452.046
452.694
452.594
452.618
450.148
443.517
403.252
101.125
63.4627
54.7218
50.1691
47.5451
44.7784
41.2775
38.2846
37.8619
38.8686
41.4657
46.9786
56.0914
67.5164
78.9369
88.5225
96.3623
103.599
111.077
118.852
126.652
134.601
142.764
150.872
159.179
167.479
175.684
183.726
191.558
199.161
206.543
213.74
220.819
227.883
235.082
242.623
250.709
258.816
266.911
275.007
283.185
291.633
300.713
309.688
318.264
326.331
333.749
340.451
346.378
351.471
355.639
358.812
360.529
361.011
360.261
358.225
354.96
350.423
344.389
337.092
328.667
319.346
309.663
300.39
291.438
282.968
275.046
267.709
260.962
254.763
248.996
243.642
238.971
234.711
230.367
226.152
222.303
218.788
215.54
212.537
209.755
207.174
204.774
202.533
200.433
198.458
196.595
194.833
193.162
191.572
190.056
188.605
187.213
185.873
184.58
183.328
182.114
180.934
179.784
178.662
177.57
176.504
175.463
174.443
173.444
172.464
171.504
170.564
169.644
168.743
167.862
167.001
166.16
165.339
164.539
163.76
163.002
162.265
161.55
160.857
160.189
159.545
158.925
158.329
157.754
157.202
156.67
156.158
155.667
155.195
154.743
154.31
153.899
153.506
153.133
152.777
152.439
152.118
151.815
151.524
151.236
150.995
150.74
150.553
150.343
150.181
150.004
149.87
149.732
149.595
149.461
149.333
149.212
149.098
148.991
148.892
148.802
148.719
148.643
148.574
148.51
148.451
148.396
148.342
148.289
148.235
148.178
148.115
148.043
147.957
147.847
147.701
147.531
147.303
147.04
146.698
146.306
146.695
147.979
152.018
179.534
101.967
84.4987
75.1758
69.2743
65.5137
64.3614
64.8182
68.5854
75.6323
85.4779
96.0718
105.286
111.735
115.298
117.138
118.582
120.548
123.532
127.635
132.721
138.538
144.767
151.1
157.12
162.742
167.859
172.405
176.415
179.984
183.237
186.312
189.338
192.429
195.67
199.108
202.746
206.523
210.369
214.246
218.141
222.035
225.867
229.517
232.929
236.033
238.779
241.163
243.171
244.789
245.902
246.367
246.355
245.624
244.034
241.535
238.151
233.847
228.627
222.667
216.158
209.357
202.541
195.928
189.61
183.681
178.187
173.145
168.538
164.336
160.511
157.056
153.946
151.11
148.525
146.195
144.074
142.111
140.282
138.58
137.005
135.56
134.224
132.976
131.8
130.684
129.622
128.606
127.632
126.695
125.793
124.921
124.078
123.26
122.465
121.693
120.94
120.207
119.493
118.798
118.126
117.476
116.84
116.214
115.598
114.991
114.393
113.805
113.225
112.655
112.094
111.542
111.001
110.469
109.947
109.435
108.934
108.443
107.963
107.496
107.048
106.619
106.205
105.807
105.422
105.05
104.691
104.343
104.007
103.681
103.367
103.063
102.769
102.486
102.212
101.947
101.692
101.445
101.206
100.974
100.75
100.536
100.33
100.135
99.9496
99.77
99.5961
99.4295
99.2654
99.1032
98.9428
98.7846
98.6287
98.4753
98.3243
98.1758
98.0299
97.8863
97.7448
97.6049
97.4663
97.3285
97.1911
97.0536
96.9156
96.7765
96.6358
96.4939
96.3494
96.2007
96.0457
95.8808
95.7114
95.5325
95.3593
95.1732
95.1244
95.302
96.0325
98.2789
265.163
143.026
117.8
104.823
100.518
97.1123
95.5951
95.193
96.5131
99.2567
102.81
106.311
109.197
111.425
113.275
115.258
117.83
121.264
125.698
130.996
136.858
142.818
148.461
153.477
157.728
161.1
163.698
165.661
167.171
168.413
169.56
170.754
172.107
173.705
175.609
177.873
180.552
183.524
186.389
189.025
191.388
193.457
195.207
196.617
197.701
198.425
198.768
198.839
198.656
198.248
197.638
196.923
196.169
194.928
193.07
190.541
187.329
183.439
178.91
173.865
168.468
162.91
157.376
152.021
146.963
142.281
138.015
134.17
130.725
127.65
124.912
122.473
120.285
118.303
116.499
114.849
113.327
111.913
110.599
109.386
108.295
107.338
106.461
105.641
104.862
104.118
103.403
102.714
102.048
101.403
100.777
100.168
99.5757
98.9984
98.4352
97.8853
97.3481
96.8232
96.3104
95.8096
95.3198
94.8393
94.3663
93.8999
93.44
92.9862
92.5385
92.0969
91.6614
91.2322
90.8092
90.3927
89.9827
89.5793
89.1825
88.7926
88.4096
88.0337
87.6653
87.3052
86.9553
86.6159
86.2864
85.9664
85.6554
85.3529
85.0586
84.772
84.4928
84.2207
83.9556
83.6972
83.4452
83.1994
82.9596
82.7253
82.4964
82.2725
82.0534
81.8389
81.6292
81.4246
81.2249
81.0301
80.8398
80.6528
80.4685
80.2865
80.1056
79.9254
79.7457
79.5665
79.3877
79.2093
79.0314
78.8537
78.6762
78.4989
78.3214
78.1437
77.9654
77.7864
77.6064
77.4254
77.2432
77.0596
76.8746
76.6884
76.5006
76.311
76.1188
75.9243
75.7284
75.5349
75.3448
75.1792
75.1049
75.2317
75.7944
77.1932
374.245
187.664
151.447
133.374
125.348
118.778
114.077
110.375
107.966
106.76
106.472
107.007
108.357
110.373
113.21
116.762
121.051
126.251
132.037
137.909
143.421
148.285
152.327
155.475
157.829
159.511
160.638
161.39
161.93
162.393
162.886
163.492
164.27
165.259
166.473
167.9
169.488
171.134
172.7
174.09
175.248
176.149
176.758
177.02
177.029
176.773
176.282
175.604
174.762
173.793
172.741
171.632
170.36
168.723
166.628
164.02
160.865
157.159
152.93
148.265
143.298
138.194
133.129
128.268
123.739
119.625
115.959
112.736
109.922
107.471
105.331
103.45
101.779
100.279
98.9212
97.6797
96.5354
95.476
94.4951
93.5918
92.7662
92.0094
91.3031
90.6364
90.0024
89.3963
88.8145
88.2543
87.7135
87.1901
86.6827
86.1897
85.7101
85.2428
84.7869
84.3417
83.9064
83.4806
83.0634
82.6542
82.252
81.856
81.4656
81.0806
80.7007
80.3259
79.9561
79.5914
79.2317
78.8771
78.5278
78.1838
77.8453
77.5122
77.1846
76.8625
76.5461
76.2354
75.9308
75.6327
75.3419
75.0586
74.7825
74.5136
74.2514
73.9957
73.7463
73.5026
73.2646
73.032
72.8045
72.582
72.3643
72.1511
71.9421
71.7371
71.5358
71.338
71.1436
70.9524
70.7645
70.5797
70.3978
70.2187
70.042
69.8669
69.693
69.5199
69.3471
69.1743
69.0013
68.8279
68.6542
68.48
68.3052
68.1298
67.9536
67.7765
67.5985
67.4195
67.2393
67.0578
66.8752
66.6914
66.5064
66.3206
66.1343
65.9477
65.7616
65.5766
65.3938
65.2147
65.0436
64.884
64.7485
64.6591
64.6758
64.8314
65.3158
66.3561
439.855
217.162
171.277
149.005
137.692
128.562
121.695
116.226
112.324
109.947
109.01
109.309
111.028
113.904
117.582
121.963
127.005
132.297
137.473
142.225
146.343
149.728
152.364
154.317
155.65
156.477
156.975
157.229
157.337
157.381
157.441
157.588
157.887
158.389
159.131
160.128
161.386
162.896
164.299
165.424
166.163
166.482
166.457
166.047
165.28
164.183
162.805
161.194
159.399
157.488
155.558
153.751
152.006
150.041
147.771
145.13
142.059
138.523
134.512
130.072
125.309
120.382
115.486
110.811
106.513
102.684
99.3569
96.5141
94.1072
92.0726
90.3441
88.8598
87.5674
86.4254
85.4024
84.4749
83.6259
82.8443
82.1229
81.4572
80.8418
80.269
79.7307
79.221
78.7357
78.2717
77.8264
77.3978
76.9843
76.5842
76.1963
75.8195
75.4529
75.0955
74.7466
74.4055
74.0714
73.7437
73.4217
73.105
72.7929
72.4849
72.181
71.8809
71.5846
71.2919
71.0028
70.7174
70.4356
70.1574
69.8831
69.6127
69.3462
69.0835
68.8247
68.5698
68.3188
68.0719
67.8293
67.5912
67.358
67.1298
66.9064
66.6877
66.4736
66.2637
66.0578
65.8556
65.657
65.4618
65.2697
65.0808
64.8947
64.7113
64.5303
64.3515
64.1747
63.9998
63.8265
63.655
63.4849
63.3162
63.1486
62.9821
62.8161
62.6505
62.4847
62.3186
62.1519
61.9844
61.8159
61.6464
61.4758
61.304
61.131
60.9567
60.7811
60.604
60.4255
60.2455
60.0641
59.8812
59.6969
59.5115
59.3252
59.1384
58.9516
58.7656
58.5814
58.4002
58.2241
58.0555
57.8994
57.761
57.6554
57.6036
57.6408
57.7967
58.2028
58.9253
487.774
233.973
179.892
154.464
141.404
131.473
124.357
119.03
115.526
113.723
113.316
114.226
116.391
119.537
123.404
127.715
132.187
136.547
140.58
144.143
147.169
149.643
151.579
153.026
154.052
154.7
155.014
155.087
154.986
154.792
154.617
154.549
154.666
155.036
155.678
156.559
157.603
158.697
159.716
160.4
160.688
160.634
160.183
159.347
158.156
156.633
154.796
152.681
150.347
147.871
145.359
142.939
140.518
137.982
135.312
132.438
129.266
125.72
121.733
117.295
112.475
107.432
102.394
97.6027
93.2514
89.4537
86.24
83.578
81.3994
79.6215
78.1626
76.9507
75.9268
75.0457
74.2738
73.5861
72.9654
72.3996
71.8805
71.4018
70.9579
70.5433
70.153
69.7834
69.4317
69.0955
68.7733
68.4634
68.1647
67.8759
67.5963
67.3248
67.0607
66.8032
66.5518
66.3057
66.0645
65.8275
65.5943
65.3645
65.1378
64.914
64.693
64.4746
64.2588
64.0455
63.8346
63.6261
63.42
63.2163
63.0151
62.8165
62.6203
62.4264
62.2349
62.0457
61.8589
61.6746
61.4929
61.314
61.138
60.9648
60.7943
60.6264
60.4609
60.2976
60.1363
59.9767
59.8187
59.6622
59.5071
59.3534
59.2008
59.0491
58.898
58.7475
58.5974
58.4475
58.2979
58.1484
57.9988
57.8492
57.6991
57.5487
57.3975
57.2454
57.0922
56.9377
56.7817
56.6243
56.4651
56.3043
56.1417
55.9773
55.811
55.6429
55.473
55.3012
55.1277
54.9524
54.7756
54.5974
54.4181
54.2381
54.0576
53.8775
53.6983
53.5211
53.3472
53.1783
53.0169
52.866
52.7311
52.6184
52.5424
52.5221
52.575
52.7383
53.1065
53.6622
516.204
240.243
180.936
153.723
140.395
130.873
124.603
120.336
117.963
117.069
117.418
118.892
121.27
124.295
127.726
131.336
134.94
138.394
141.598
144.497
147.066
149.267
151.108
152.575
153.653
154.329
154.626
154.652
154.474
154.22
154.059
154.082
154.389
155.014
155.924
157.036
158.227
159.344
160.238
160.757
160.921
160.695
160.002
158.857
157.282
155.303
152.943
150.247
147.285
144.141
140.897
137.562
134.073
130.561
127.143
123.76
120.299
116.605
112.53
107.975
102.943
97.5871
92.1817
87.044
82.4328
78.49
75.2429
72.6386
70.5823
68.9676
67.6945
66.6784
65.8523
65.1661
64.5829
64.076
63.6274
63.2245
62.8586
62.5232
62.2132
61.9243
61.6532
61.3973
61.1545
60.9234
60.7027
60.4912
60.2881
60.0924
59.9036
59.7209
59.5437
59.3714
59.2034
59.0392
58.8783
58.7204
58.5651
58.4122
58.2614
58.1127
57.9659
57.8209
57.6777
57.5361
57.3961
57.2574
57.1201
56.9842
56.8498
56.7167
56.5848
56.454
56.3242
56.1954
56.0678
55.9413
55.8161
55.6921
55.5693
55.4476
55.3269
55.2069
55.0876
54.9687
54.8501
54.7315
54.6128
54.4942
54.3755
54.2567
54.1376
54.018
53.8976
53.7762
53.654
53.5308
53.4065
53.2812
53.1546
53.0266
52.8972
52.7662
52.6335
52.499
52.3626
52.2242
52.0838
51.9411
51.7963
51.6493
51.5
51.3485
51.1947
51.0388
50.8807
50.7205
50.5584
50.3946
50.2293
50.0627
49.8951
49.7271
49.5592
49.392
49.2264
49.0635
48.9047
48.752
48.608
48.4758
48.3609
48.2694
48.2135
48.2086
48.2659
48.4244
48.742
49.1758
521.191
238.605
177.533
150.003
137.237
128.704
123.628
120.498
119.181
119.043
119.967
121.708
124.058
126.802
129.777
132.852
135.935
138.957
141.888
144.69
147.303
149.664
151.713
153.382
154.616
155.385
155.72
155.755
155.61
155.489
155.561
155.962
156.77
157.975
159.484
161.141
162.763
164.178
165.254
165.886
166.102
165.858
165.079
163.784
161.984
159.691
156.925
153.714
150.093
146.11
141.818
137.294
132.685
128.117
123.683
119.396
115.257
111.13
106.778
101.949
96.5503
90.6766
84.6581
78.9261
73.8425
69.5881
66.1818
63.5382
61.5259
60.0074
58.8598
57.9832
57.3013
56.7581
56.3132
55.9391
55.6171
55.3342
55.0815
54.8528
54.6435
54.4502
54.2702
54.1016
53.943
53.7935
53.6517
53.517
53.3886
53.2662
53.1491
53.0369
52.9289
52.8247
52.7238
52.6257
52.5302
52.4368
52.3455
52.2561
52.1683
52.0819
51.9969
51.9132
51.8308
51.7497
51.6694
51.5897
51.5109
51.4327
51.3553
51.2783
51.2014
51.1247
51.0481
50.9717
50.8957
50.8199
50.7443
50.6689
50.5934
50.5177
50.4416
50.3651
50.2878
50.2098
50.1307
50.0503
49.9688
49.8863
49.8027
49.7181
49.632
49.5442
49.4544
49.3627
49.2691
49.1737
49.0764
48.9771
48.8755
48.7717
48.6657
48.5574
48.4467
48.3335
48.218
48.0999
47.9794
47.8562
47.7305
47.6023
47.4715
47.3383
47.2026
47.0645
46.9243
46.7819
46.6376
46.4917
46.3444
46.196
46.0469
45.8976
45.7487
45.6008
45.4548
45.312
45.1737
45.0419
44.9191
44.8085
44.7149
44.6438
44.6041
44.609
44.6717
44.8223
45.0915
45.4393
518.294
234.237
172.109
144.997
133.165
125.649
121.664
119.54
118.912
119.288
120.561
122.428
124.732
127.314
130.091
132.993
135.985
139.03
142.098
145.134
148.064
150.79
153.186
155.123
156.51
157.311
157.623
157.634
157.55
157.607
157.989
158.811
160.078
161.688
163.468
165.215
166.746
167.926
168.671
168.992
168.931
168.437
167.536
166.251
164.593
162.548
160.101
157.221
153.865
149.986
145.572
140.66
135.349
129.799
124.221
118.835
113.798
109.041
104.294
99.1122
93.1575
86.4696
79.5043
72.916
67.1393
62.4159
58.745
55.991
53.9705
52.505
51.4435
50.6683
50.0926
49.6547
49.3117
49.035
48.805
48.6089
48.4381
48.2866
48.1504
48.0266
47.9131
47.8086
47.7119
47.6221
47.5384
47.4602
47.3873
47.3193
47.2559
47.1968
47.1412
47.0887
47.0389
46.9915
46.9461
46.9026
46.861
46.8208
46.7818
46.744
46.707
46.6711
46.6366
46.6031
46.5698
46.5368
46.5042
46.4719
46.4396
46.4069
46.3737
46.3401
46.3064
46.2725
46.2384
46.2041
46.1693
46.1339
46.0975
46.06
46.0214
45.9814
45.94
45.8969
45.8519
45.8048
45.7558
45.7053
45.6533
45.5996
45.5436
45.485
45.4236
45.3596
45.2933
45.2247
45.1536
45.0798
45.0031
44.9237
44.8415
44.7565
44.6687
44.5782
44.4848
44.3886
44.2897
44.188
44.0835
43.9764
43.8666
43.7542
43.6394
43.5223
43.403
43.2818
43.1588
43.0344
42.9087
42.7821
42.6551
42.5281
42.4016
42.2764
42.1533
42.0334
41.9181
41.8091
41.7089
41.6202
41.5473
41.4947
41.4695
41.4819
41.5476
41.688
41.9156
42.1977
506.254
226.464
166.16
140.702
129.233
122.356
119.101
117.589
117.513
118.287
119.78
121.74
124.075
126.669
129.483
132.485
135.671
139.017
142.469
145.94
149.305
152.398
155.038
157.071
158.409
159.068
159.227
159.112
158.999
159.135
159.682
160.691
162.08
163.676
165.265
166.652
167.705
168.36
168.632
168.586
168.227
167.582
166.674
165.518
164.114
162.455
160.528
158.302
155.725
152.722
149.204
145.081
140.288
134.827
128.829
122.558
116.361
110.52
105.029
99.3222
92.7645
85.13
76.8515
68.9437
62.1978
56.8199
52.7735
49.844
47.7739
46.3306
45.3281
44.6285
44.1336
43.7759
43.5099
43.3058
43.144
43.0117
42.9007
42.8056
42.7225
42.6492
42.5839
42.5256
42.4735
42.427
42.3853
42.3482
42.3153
42.2869
42.2631
42.2431
42.2261
42.2118
42.1999
42.1901
42.1823
42.1761
42.1713
42.1678
42.1653
42.1637
42.1625
42.1622
42.1639
42.1667
42.169
42.1713
42.1738
42.1762
42.1782
42.1788
42.1783
42.1781
42.1778
42.1773
42.1767
42.175
42.1724
42.1687
42.1634
42.1567
42.1483
42.1381
42.1261
42.1119
42.0952
42.0757
42.0538
42.0306
42.0059
41.9791
41.9493
41.916
41.8794
41.8401
41.7985
41.7544
41.7075
41.6572
41.6037
41.5471
41.4876
41.4249
41.3593
41.2906
41.219
41.1445
41.067
40.9867
40.9037
40.8179
40.7295
40.6386
40.5453
40.4498
40.3523
40.2529
40.152
40.0498
39.9465
39.8425
39.7382
39.6339
39.5303
39.428
39.3277
39.2305
39.1377
39.0507
38.9717
38.9032
38.8486
38.8115
38.7983
38.8164
38.8837
39.0115
39.2039
39.4387
483.923
215.759
159.309
136.084
125.015
118.69
115.913
114.759
115.002
116.036
117.75
119.883
122.39
125.184
128.272
131.629
135.245
139.068
143
146.93
150.684
154.047
156.81
158.818
160.013
160.487
160.475
160.251
160.142
160.393
161.129
162.331
163.85
165.467
166.965
168.186
169.057
169.58
169.815
169.831
169.627
169.193
168.512
167.568
166.359
164.885
163.155
161.177
158.944
156.428
153.572
150.289
146.459
141.944
136.629
130.494
123.717
116.777
110.252
103.535
95.9037
86.8223
76.7003
67.0028
58.8512
52.5842
48.0406
44.8748
42.7226
41.2801
40.3191
39.678
39.2467
38.9517
38.7452
38.5966
38.4862
38.4015
38.3348
38.2811
38.237
38.2004
38.1698
38.1448
38.1252
38.1099
38.0985
38.0908
38.0863
38.086
38.0911
38.0998
38.1108
38.1242
38.1397
38.1571
38.1763
38.1969
38.2187
38.2417
38.2656
38.2903
38.3157
38.342
38.3693
38.397
38.4248
38.4527
38.4805
38.5081
38.5351
38.5611
38.5865
38.6114
38.6358
38.6597
38.6828
38.7051
38.7262
38.746
38.7643
38.7809
38.7959
38.809
38.82
38.8286
38.8344
38.8364
38.836
38.8354
38.8335
38.8294
38.8213
38.8088
38.7926
38.7744
38.7543
38.7318
38.7059
38.6763
38.6432
38.6072
38.568
38.5257
38.4803
38.4318
38.3805
38.3261
38.2689
38.2089
38.1461
38.0806
38.0126
37.9422
37.8695
37.7947
37.7179
37.6395
37.5595
37.4783
37.3962
37.3133
37.2301
37.1469
37.0643
36.9828
36.9031
36.8261
36.7529
36.6849
36.6239
36.5719
36.5317
36.5058
36.5005
36.5222
36.5883
36.702
36.8653
37.0601
458.493
203.338
151.578
130.751
120.445
114.851
112.345
111.456
111.986
113.278
115.258
117.669
120.494
123.651
127.154
130.968
135.074
139.377
143.788
148.151
152.253
155.849
158.722
160.732
161.865
162.27
162.225
162.071
162.143
162.678
163.757
165.295
167.089
168.898
170.525
171.872
172.942
173.792
174.483
175.038
175.43
175.605
175.505
175.088
174.337
173.267
171.9
170.246
168.294
166.019
163.395
160.412
157.061
153.257
148.813
143.483
137.066
129.741
122.272
114.142
103.873
92.3517
79.4938
67.1069
56.9818
49.5295
44.3524
40.893
38.634
37.1789
36.2488
35.6558
35.2769
35.0332
34.8746
34.7698
34.6996
34.6519
34.6192
34.5971
34.5828
34.574
34.5691
34.5689
34.574
34.5826
34.5938
34.6081
34.6258
34.6472
34.6726
34.7013
34.7328
34.7667
34.8026
34.8402
34.8793
34.9195
34.9608
35.003
35.0461
35.0898
35.1342
35.1792
35.2248
35.2706
35.3166
35.3626
35.4084
35.4538
35.4987
35.5431
35.5869
35.63
35.6724
35.7141
35.755
35.7948
35.8335
35.8707
35.9066
35.9409
35.9737
36.0047
36.0335
36.0601
36.084
36.105
36.1239
36.1411
36.1562
36.1686
36.1773
36.181
36.181
36.1806
36.179
36.1752
36.1673
36.1549
36.1391
36.1209
36.0993
36.0745
36.0466
36.016
35.9823
35.9457
35.9063
35.8641
35.8193
35.7718
35.722
35.6697
35.6152
35.5588
35.5004
35.4404
35.379
35.3163
35.2525
35.188
35.1231
35.0581
34.9935
34.9298
34.8675
34.8075
34.7507
34.6983
34.6518
34.613
34.5838
34.5652
34.5652
34.5903
34.6538
34.7539
34.8929
35.0589
430.625
189.729
143.165
124.758
115.464
110.626
108.505
107.958
108.871
110.517
112.886
115.686
118.953
122.575
126.579
130.888
135.469
140.254
145.145
149.947
154.427
158.325
161.424
163.6
164.873
165.426
165.569
165.671
166.069
166.979
168.433
170.296
172.337
174.33
176.124
177.67
179.001
180.181
181.252
182.214
183.025
183.624
183.969
184.053
183.917
183.609
183.168
182.603
181.865
180.845
179.394
177.366
174.695
171.432
167.703
163.479
158.177
151.196
142.676
133.476
120.241
103.283
85.7847
69.4112
56.4683
47.4471
41.4925
37.6954
35.319
33.8487
32.9463
32.3963
32.063
31.8626
31.7435
31.6743
31.6361
31.6175
31.6114
31.6139
31.6234
31.6365
31.6529
31.6726
31.6956
31.7213
31.7497
31.7808
31.815
31.8524
31.8931
31.9376
31.9852
32.0353
32.0872
32.1404
32.1947
32.25
32.3059
32.3626
32.4198
32.4774
32.5356
32.594
32.6528
32.7117
32.7705
32.8293
32.8878
32.9459
33.0037
33.0609
33.1174
33.1733
33.2284
33.2827
33.3361
33.3884
33.4395
33.4893
33.5378
33.5851
33.6312
33.6755
33.7179
33.7581
33.7958
33.8311
33.8641
33.895
33.9236
33.9494
33.9718
33.9905
34.0063
34.02
34.0317
34.0407
34.0459
34.0462
34.0444
34.0413
34.0338
34.0232
34.01
33.9942
33.9752
33.9532
33.9285
33.9011
33.8712
33.8387
33.8038
33.7666
33.7273
33.6862
33.6432
33.5986
33.5524
33.505
33.4564
33.407
33.357
33.3068
33.2567
33.2071
33.1587
33.1121
33.0681
33.0277
32.9921
32.9628
32.9413
32.928
32.9309
32.9568
33.0155
33.1029
33.2219
33.3639
397.855
176.786
134.92
118.506
110.289
106.163
104.646
104.632
106.084
108.253
111.172
114.524
118.353
122.514
127.017
131.82
136.937
142.273
147.703
153.016
157.973
162.315
165.828
168.395
170.044
170.964
171.476
171.946
172.7
173.923
175.618
177.636
179.762
181.812
183.679
185.346
186.855
188.263
189.598
190.845
191.957
192.884
193.604
194.146
194.579
194.987
195.445
195.997
196.638
197.311
197.91
198.265
198.136
197.231
195.214
192.255
188.486
183.31
175.397
164.441
148.475
122.352
96.5637
73.8825
57.0573
46.0676
39.2351
35.094
32.6147
31.1417
30.2736
29.7673
29.477
29.3151
29.2297
29.19
29.1776
29.1828
29.1994
29.222
29.2489
29.2789
29.3115
29.3466
29.3841
29.4238
29.4658
29.5102
29.5572
29.6068
29.6593
29.7147
29.7732
29.8345
29.8977
29.9621
30.0274
30.0935
30.1603
30.2276
30.2954
30.3635
30.4321
30.5008
30.5698
30.6388
30.7078
30.7767
30.8454
30.9138
30.9818
31.0494
31.1163
31.1826
31.2481
31.3128
31.3766
31.4393
31.5008
31.561
31.6199
31.6774
31.7334
31.7877
31.8401
31.8904
31.9385
31.9843
32.0278
32.0691
32.1079
32.144
32.1771
32.2071
32.2342
32.2588
32.2809
32.3002
32.3161
32.3284
32.3381
32.3449
32.3472
32.3466
32.3452
32.3413
32.3338
32.3231
32.3101
32.2942
32.2759
32.2552
32.2321
32.2067
32.1795
32.1504
32.1196
32.0871
32.053
32.0175
31.9808
31.9432
31.9048
31.866
31.8271
31.7885
31.7507
31.7142
31.6798
31.6482
31.6206
31.5981
31.5818
31.5721
31.5763
31.6016
31.6548
31.7313
31.8339
31.9576
353.916
164.44
126.293
111.492
104.606
101.375
100.903
101.764
104.043
107.017
110.698
114.759
119.235
124.041
129.228
134.741
140.56
146.583
152.678
158.637
164.229
169.206
173.355
176.55
178.799
180.27
181.256
182.11
183.137
184.517
186.266
188.267
190.349
192.36
194.206
195.881
197.432
198.915
200.355
201.737
203.02
204.172
205.2
206.169
207.189
208.386
209.87
211.701
213.867
216.282
218.833
221.433
224.063
226.695
228.995
230.423
230.335
228.485
224.093
212.871
194.168
154.81
113.107
80.3041
58.204
44.9562
37.2442
32.8273
30.3052
28.8686
28.0562
27.6038
27.3594
27.2353
27.1808
27.1667
27.1773
27.2032
27.2365
27.2745
27.3156
27.3591
27.4047
27.4523
27.5018
27.5532
27.6065
27.6618
27.7192
27.7787
27.8405
27.9047
27.9714
28.0406
28.1117
28.1839
28.257
28.3308
28.4052
28.4801
28.5555
28.6312
28.7073
28.7836
28.8601
28.9368
29.0134
29.0901
29.1666
29.2428
29.3188
29.3944
29.4695
29.544
29.6179
29.6909
29.7631
29.8342
29.9042
29.973
30.0405
30.1065
30.171
30.2338
30.2948
30.3538
30.4107
30.4653
30.5178
30.5679
30.6155
30.6606
30.7029
30.7422
30.7787
30.8126
30.8437
30.872
30.8972
30.9191
30.9382
30.9543
30.9669
30.9767
30.9841
30.9888
30.9891
30.9873
30.9843
30.9777
30.9692
30.9582
30.945
30.9295
30.9119
30.8925
30.8711
30.848
30.8233
30.797
30.7695
30.7408
30.7112
30.6811
30.6506
30.6202
30.5902
30.5612
30.5337
30.5084
30.4863
30.4683
30.4553
30.4475
30.4517
30.475
30.5224
30.5895
30.6784
30.7873
305.724
150.274
116.885
103.973
99.1219
97.3204
98.2502
100.363
103.745
107.698
112.291
117.316
122.806
128.649
134.848
141.353
148.115
155.031
161.963
168.733
175.128
180.912
185.871
189.861
192.855
194.969
196.447
197.602
198.736
200.069
201.68
203.507
205.416
207.268
208.977
210.53
211.958
213.307
214.606
215.855
217.043
218.165
219.259
220.424
221.81
223.592
225.941
228.981
232.772
237.315
242.556
248.348
254.411
260.476
266.5
272.623
278.436
283.714
286.712
279.68
259.654
199.37
132.722
86.2446
58.6639
43.4286
35.2076
30.7672
28.3496
27.0291
26.3128
25.9327
25.7409
25.6549
25.6288
25.6375
25.667
25.7068
25.7522
25.8012
25.8524
25.9055
25.9602
26.0166
26.0747
26.1345
26.196
26.2591
26.3239
26.3905
26.4588
26.529
26.601
26.6747
26.7501
26.8266
26.9038
26.9816
27.0601
27.139
27.2184
27.2981
27.3782
27.4586
27.5393
27.6201
27.701
27.782
27.8629
27.9438
28.0244
28.1048
28.1848
28.2643
28.3433
28.4215
28.4989
28.5754
28.6509
28.7252
28.7983
28.8699
28.9401
29.0086
29.0754
29.1403
29.2031
29.2639
29.3224
29.3787
29.4326
29.4839
29.5325
29.5784
29.6215
29.6619
29.6994
29.7341
29.7658
29.7945
29.8202
29.843
29.8626
29.8793
29.8932
29.9044
29.9121
29.9173
29.9189
29.9178
29.9158
29.9118
29.9055
29.8969
29.8863
29.8736
29.8589
29.8424
29.8241
29.8042
29.783
29.7605
29.737
29.7128
29.6881
29.6633
29.6387
29.6146
29.5918
29.5708
29.5523
29.5372
29.5263
29.5198
29.5238
29.5449
29.5875
29.6473
29.7262
29.8223
258.576
134.801
107.509
97.2152
94.9422
95.0448
97.4908
100.997
105.598
110.886
116.871
123.335
130.247
137.496
145.037
152.791
160.71
168.705
176.658
184.404
191.743
198.449
204.309
209.16
212.938
215.702
217.636
219.008
220.127
221.253
222.506
223.891
225.348
226.797
228.159
229.401
230.529
231.57
232.551
233.499
234.441
235.416
236.51
237.87
239.695
242.205
245.613
250.079
255.698
262.495
270.425
279.395
289.291
300.02
311.552
323.277
333.39
343.83
355.874
353.55
332.205
242.716
147.899
89.2032
57.6188
41.3991
33.21
29.0094
26.8164
25.6632
25.0621
24.7588
24.618
24.5659
24.5639
24.5907
24.6326
24.6817
24.7349
24.7906
24.848
24.9067
24.9667
25.0281
25.0913
25.1562
25.2226
25.2904
25.3596
25.4301
25.502
25.5754