/*--------------------------------*- C++ -*----------------------------------*\
| =========                 |                                                 |
| \\      /  F ield         | OpenFOAM: The Open Source CFD Toolbox           |
|  \\    /   O peration     | Version:  v1906                                 |
|   \\  /    A nd           | Web:      www.OpenFOAM.com                      |
|    \\/     M anipulation  |                                                 |
\*---------------------------------------------------------------------------*/
FoamFile
{
    version     2.0;
    format      ascii;
    class       volScalarField;
    location    "400";
    object      k;
}
// * * * * * * * * * * * * * * * * * * * * * * * * * * * * * * * * * * * * * //

dimensions      [0 2 -2 0 0 0 0];


internalField   nonuniform List<scalar> 
12225
(
2.25874
2.22666
2.16191
2.0916
2.02482
1.96427
1.91013
1.86256
1.81961
1.78266
1.74771
1.71963
1.69689
1.67843
1.66141
1.64933
1.63461
1.62979
2.25029
2.13778
1.98564
1.8724
1.78123
1.71365
1.66065
1.61689
1.5811
1.55018
1.52534
1.5021
1.48557
1.46754
1.45733
1.44244
1.43618
1.42214
2.25785
2.21889
2.14361
2.07155
2.00395
1.94414
1.89182
1.84555
1.80503
1.76886
1.7373
1.70842
1.68374
1.66038
1.64121
1.62187
1.60747
1.59187
2.25839
2.23539
2.18792
2.1358
2.08423
2.03593
1.99189
1.95181
1.91561
1.88272
1.8531
1.82596
1.80165
1.77914
1.75914
1.74025
1.72413
1.7074
2.25891
2.24458
2.21503
2.1801
2.14388
2.10832
2.07446
2.04257
2.01282
1.98511
1.95949
1.93565
1.91367
1.89321
1.87443
1.85688
1.8412
1.82575
2.25905
2.2484
2.22764
2.20204
2.1745
2.14658
2.11926
2.09297
2.06795
2.04429
2.02205
2.00114
1.98157
1.96322
1.94613
1.93013
1.91534
1.90097
2.25918
2.25079
2.23564
2.21663
2.1957
2.17403
2.15239
2.13117
2.11065
2.09095
2.07216
2.0543
2.03738
2.02138
2.00631
1.99214
1.97893
1.96625
2.25923
2.25213
2.24038
2.22555
2.20895
2.19148
2.17375
2.15612
2.13885
2.12208
2.10593
2.09043
2.07563
2.06154
2.04818
2.03554
2.02362
2.01224
2.25928
2.25312
2.24369
2.23187
2.21853
2.20435
2.18979
2.17517
2.1607
2.14652
2.13274
2.11943
2.10663
2.09438
2.0827
2.07162
2.06115
2.0512
2.2593
2.25379
2.24591
2.23617
2.22514
2.21333
2.2011
2.18871
2.17635
2.16415
2.15221
2.14061
2.1294
2.11862
2.10831
2.09849
2.08919
2.0804
2.25933
2.25433
2.24759
2.23939
2.23014
2.22019
2.20983
2.19927
2.18868
2.17816
2.16782
2.15772
2.14793
2.13849
2.12945
2.12084
2.11271
2.10506
2.25935
2.2547
2.2487
2.24155
2.2335
2.22484
2.21579
2.20652
2.19718
2.18788
2.17869
2.1697
2.16096
2.15252
2.14443
2.13674
2.12949
2.12272
2.25938
2.25501
2.24961
2.24328
2.2362
2.22859
2.22062
2.21243
2.20416
2.19589
2.1877
2.17967
2.17185
2.1643
2.15708
2.15023
2.14381
2.13788
2.2594
2.25529
2.2504
2.24477
2.23854
2.23185
2.22483
2.21762
2.2103
2.20296
2.19569
2.18855
2.18159
2.17487
2.16846
2.16242
2.15679
2.15167
2.25944
2.25556
2.2511
2.24608
2.24057
2.23468
2.22851
2.22215
2.21569
2.20921
2.20278
2.19645
2.19029
2.18437
2.17874
2.17347
2.16864
2.16431
2.25947
2.25578
2.25166
2.24711
2.24218
2.23693
2.23143
2.22578
2.22002
2.21424
2.2085
2.20287
2.19739
2.19215
2.1872
2.18262
2.17848
2.17488
2.2595
2.25596
2.25209
2.24789
2.24337
2.23859
2.23359
2.22845
2.22322
2.21797
2.21276
2.20764
2.20269
2.19796
2.19354
2.1895
2.18591
2.18289
2.25952
2.25607
2.25234
2.24832
2.24403
2.23951
2.2348
2.22995
2.22502
2.22007
2.21515
2.21034
2.20569
2.20127
2.19715
2.1934
2.19013
2.18739
2.25951
2.25603
2.25226
2.24819
2.24384
2.23924
2.23444
2.2295
2.22447
2.21942
2.21439
2.20946
2.20468
2.20012
2.19585
2.19196
2.18851
2.18562
2.2595
2.25589
2.25186
2.24744
2.24265
2.23756
2.23224
2.22676
2.22117
2.21556
2.20997
2.20446
2.1991
2.19394
2.18905
2.18448
2.18031
2.1766
2.25944
2.25556
2.25107
2.24601
2.24046
2.2345
2.22825
2.2218
2.21524
2.20864
2.20206
2.19557
2.18921
2.18306
2.17716
2.17157
2.16637
2.16165
2.25942
2.25521
2.25006
2.24406
2.23738
2.2302
2.22267
2.21492
2.20706
2.19919
2.19137
2.18366
2.17612
2.16881
2.16176
2.15502
2.14864
2.14263
2.25935
2.25458
2.24829
2.24072
2.23218
2.22297
2.21335
2.20349
2.19354
2.18363
2.17382
2.1642
2.15481
2.1457
2.13691
2.12846
2.12039
2.11284
2.25935
2.25386
2.24587
2.23598
2.22482
2.21288
2.20053
2.18801
2.17551
2.16316
2.15106
2.13927
2.12784
2.11681
2.10622
2.09609
2.08647
2.07727
2.25927
2.25242
2.24126
2.22721
2.21144
2.19477
2.17776
2.16075
2.14401
2.1277
2.11191
2.09671
2.08213
2.06818
2.05486
2.04215
2.02998
2.01854
2.25925
2.25041
2.23398
2.21365
2.19151
2.16872
2.14599
2.12372
2.10218
2.08153
2.06182
2.04308
2.02531
2.00849
1.9926
1.97761
1.96363
1.95058
2.25889
2.24473
2.21619
2.18221
2.14681
2.1118
2.07812
2.04632
2.01659
1.98892
1.9632
1.93933
1.91717
1.89661
1.87745
1.85968
1.84277
1.82711
2.25872
2.23437
2.1857
2.13369
2.08302
2.03501
1.99036
1.9497
1.91276
1.87918
1.84861
1.8208
1.79535
1.77212
1.75075
1.73121
1.71317
1.69773
2.25333
2.17275
2.05405
1.95321
1.87051
1.8015
1.74478
1.69887
1.66027
1.62725
1.59855
1.57363
1.55153
1.53226
1.51483
1.4997
1.48562
1.47244
2.25474
2.20869
2.14519
2.08356
2.0262
1.97417
1.92715
1.88485
1.84686
1.8127
1.78189
1.75396
1.72862
1.70545
1.68439
1.66488
1.6472
1.63048
0.0785669
0.094329
0.120839
0.13715
0.148257
0.152587
0.151571
0.147274
0.137694
0.123035
0.103085
0.0777265
0.0611399
0.0519789
0.0492187
0.0530943
0.0678546
0.0949198
0.13798
0.194006
0.244795
0.292433
0.33751
0.379847
0.419983
0.458141
0.494676
0.52985
0.563888
0.59697
0.629234
0.66078
0.691668
0.721933
0.751582
0.780616
0.809035
0.836837
0.86394
0.890248
0.915635
0.940006
0.963344
0.985847
1.00747
1.02815
1.04778
1.06621
1.08325
1.09871
1.1124
1.1241
1.13361
1.13923
1.14211
1.14273
1.13943
1.13324
1.12379
1.11072
1.09394
1.07296
1.04679
1.0216
0.996699
0.972664
0.949706
0.927981
0.907649
0.888719
0.870953
0.852954
0.835136
0.821467
0.812308
0.804901
0.797568
0.790358
0.783463
0.776917
0.770771
0.765023
0.759676
0.754708
0.750108
0.745852
0.741917
0.738274
0.734892
0.73174
0.728784
0.725999
0.72336
0.720849
0.718444
0.716127
0.713885
0.711703
0.70957
0.707477
0.705411
0.703367
0.701348
0.699359
0.697404
0.695486
0.693605
0.691764
0.689963
0.688204
0.686488
0.684815
0.683187
0.681604
0.680067
0.678578
0.677136
0.675742
0.674404
0.67312
0.671887
0.670703
0.669562
0.668463
0.667405
0.666388
0.665412
0.66448
0.66359
0.662743
0.661941
0.661184
0.66047
0.659798
0.65917
0.658585
0.658043
0.657543
0.657085
0.656672
0.656303
0.655984
0.655665
0.655448
0.65549
0.655116
0.654924
0.654996
0.655019
0.655032
0.655056
0.655101
0.655172
0.655273
0.655404
0.655566
0.655761
0.65599
0.656253
0.656547
0.656871
0.657221
0.657593
0.657984
0.658389
0.658801
0.659213
0.659615
0.659996
0.66034
0.660547
0.660561
0.660753
0.660346
0.660115
0.659152
0.658306
0.655052
0.647749
0.60713
0.163827
0.187015
0.263349
0.296593
0.314762
0.319241
0.318255
0.317946
0.323646
0.339193
0.362967
0.392468
0.426714
0.466685
0.509586
0.55117
0.589761
0.625456
0.657874
0.687153
0.717886
0.75196
0.789509
0.829736
0.871603
0.914162
0.956606
0.998324
1.03891
1.07815
1.11598
1.15248
1.1878
1.22211
1.25564
1.28859
1.32117
1.35356
1.38584
1.41802
1.45004
1.48175
1.51282
1.54328
1.57326
1.60267
1.63142
1.65926
1.68593
1.71112
1.7345
1.75572
1.77438
1.7902
1.80299
1.81065
1.81337
1.81242
1.80728
1.79762
1.78362
1.76579
1.74493
1.72212
1.69784
1.67276
1.64745
1.62236
1.59781
1.57404
1.55129
1.52992
1.51092
1.49619
1.48589
1.47728
1.46874
1.46022
1.45187
1.44376
1.43593
1.42843
1.42127
1.41447
1.40804
1.40196
1.39621
1.39076
1.3856
1.38068
1.37597
1.37144
1.36707
1.36284
1.35872
1.3547
1.35076
1.34689
1.34307
1.3393
1.33556
1.33185
1.32819
1.32456
1.32098
1.31745
1.31396
1.31053
1.30715
1.30382
1.30054
1.29732
1.29415
1.29104
1.28798
1.28498
1.28203
1.27914
1.2763
1.27353
1.2708
1.26812
1.26547
1.26287
1.2603
1.25777
1.25527
1.25281
1.25038
1.24799
1.24563
1.2433
1.24101
1.23874
1.23651
1.2343
1.23212
1.22996
1.22783
1.22573
1.22365
1.22158
1.21953
1.21751
1.21551
1.21347
1.21145
1.20946
1.20746
1.20547
1.20348
1.20149
1.1995
1.19751
1.19552
1.19352
1.19152
1.18952
1.18752
1.18551
1.1835
1.18147
1.17942
1.17736
1.17527
1.17316
1.17102
1.16884
1.16664
1.16439
1.1621
1.15974
1.1574
1.15493
1.1526
1.15008
1.14781
1.14307
1.13431
1.1066
0.240334
0.33514
0.455115
0.502189
0.543704
0.568373
0.591085
0.611267
0.636342
0.666898
0.70369
0.744173
0.784389
0.820406
0.851074
0.878358
0.905804
0.936396
0.971734
1.01234
1.05799
1.10758
1.15938
1.2115
1.26222
1.3102
1.35468
1.39535
1.43237
1.46622
1.49757
1.52714
1.55568
1.58382
1.61209
1.64089
1.67049
1.70102
1.73251
1.76488
1.79798
1.83166
1.86573
1.89993
1.934
1.96761
2.00047
2.03229
2.06278
2.09164
2.11856
2.14319
2.16514
2.18406
2.19955
2.21078
2.2164
2.21765
2.2141
2.20555
2.19218
2.17459
2.15362
2.13019
2.1051
2.07916
2.05309
2.02743
2.0026
1.97891
1.95663
1.93597
1.91715
1.90024
1.88496
1.87082
1.85747
1.84479
1.83276
1.82138
1.81062
1.80045
1.79083
1.78175
1.77317
1.76506
1.75738
1.75009
1.74315
1.73652
1.73017
1.72405
1.71814
1.71241
1.70684
1.70141
1.69609
1.69088
1.68576
1.68072
1.67575
1.67085
1.66602
1.66125
1.65653
1.65189
1.6473
1.64277
1.6383
1.63389
1.62954
1.62525
1.62103
1.61686
1.61275
1.60871
1.60472
1.6008
1.59693
1.59313
1.58939
1.58569
1.58205
1.57846
1.5749
1.57139
1.56792
1.56449
1.5611
1.55774
1.55442
1.55113
1.54788
1.54466
1.54146
1.5383
1.53516
1.53204
1.52895
1.52588
1.52282
1.51979
1.51676
1.51376
1.51075
1.50775
1.50475
1.50175
1.49876
1.49575
1.49274
1.48972
1.48669
1.48365
1.48059
1.47751
1.47442
1.47131
1.46819
1.46504
1.46187
1.45867
1.45545
1.4522
1.44891
1.4456
1.44225
1.43887
1.43545
1.43201
1.42853
1.42502
1.42152
1.41799
1.4146
1.41111
1.40794
1.40351
1.39662
1.37993
0.31164
0.500334
0.658492
0.731299
0.789184
0.825912
0.853409
0.874154
0.894074
0.914941
0.937724
0.961875
0.987101
1.01376
1.04314
1.07684
1.11607
1.16121
1.21176
1.26647
1.32351
1.38071
1.43595
1.48749
1.53423
1.57576
1.61226
1.64438
1.67305
1.69929
1.72409
1.74834
1.77279
1.79799
1.82432
1.852
1.88111
1.9116
1.94332
1.976
2.00931
2.04291
2.07646
2.10968
2.14233
2.17421
2.20512
2.2349
2.26342
2.29053
2.31603
2.3397
2.36122
2.38023
2.39618
2.40847
2.41585
2.41852
2.41642
2.40918
2.39689
2.38005
2.35948
2.33613
2.31102
2.28511
2.2592
2.23392
2.20969
2.18681
2.16541
2.14557
2.12721
2.11017
2.09424
2.0793
2.06526
2.05205
2.03961
2.02793
2.01694
2.0066
1.99686
1.98766
1.97896
1.97073
1.96292
1.95549
1.94839
1.94158
1.93503
1.92871
1.92258
1.91662
1.91081
1.90513
1.89955
1.89407
1.88868
1.88337
1.87812
1.87293
1.8678
1.86272
1.85769
1.85271
1.84778
1.8429
1.83806
1.83327
1.82853
1.82383
1.81919
1.81459
1.81004
1.80554
1.80109
1.79669
1.79234
1.78803
1.78378
1.77958
1.77541
1.77129
1.76721
1.76316
1.75915
1.75517
1.75123
1.74731
1.74343
1.73957
1.73574
1.73194
1.72816
1.72441
1.72067
1.71696
1.71326
1.70958
1.7059
1.70224
1.69859
1.69494
1.6913
1.68764
1.68399
1.68032
1.67665
1.67296
1.66926
1.66554
1.66179
1.65803
1.65424
1.65042
1.64658
1.64271
1.63882
1.63489
1.63093
1.62695
1.62293
1.61888
1.61479
1.61068
1.60654
1.60237
1.59819
1.594
1.58981
1.58564
1.58154
1.5775
1.57367
1.56992
1.56656
1.56249
1.55721
1.54589
0.392194
0.646485
0.837335
0.924809
0.988702
1.02809
1.05537
1.0736
1.08825
1.10224
1.1182
1.13782
1.16261
1.19368
1.2316
1.2763
1.32695
1.38216
1.44007
1.49852
1.55534
1.60874
1.6575
1.70109
1.73956
1.77342
1.80344
1.83052
1.85557
1.87943
1.90285
1.92644
1.95072
1.97605
2.00266
2.03066
2.05998
2.09045
2.12178
2.15361
2.18555
2.2172
2.24824
2.27839
2.30746
2.33537
2.36213
2.38773
2.41219
2.43553
2.45769
2.47859
2.49802
2.51564
2.53093
2.54321
2.55145
2.55506
2.55399
2.54764
2.53594
2.51931
2.4986
2.47492
2.44949
2.42344
2.39767
2.37283
2.34931
2.3273
2.30684
2.28787
2.27028
2.25392
2.23867
2.22443
2.21113
2.19868
2.18701
2.17609
2.16583
2.1562
2.14713
2.13856
2.13046
2.12276
2.11543
2.10843
2.10172
2.09525
2.08901
2.08295
2.07706
2.07131
2.06568
2.06016
2.05472
2.04936
2.04407
2.03884
2.03365
2.02851
2.02341
2.01834
2.01331
2.0083
2.00333
1.99839
1.99347
1.98859
1.98373
1.9789
1.97411
1.96934
1.96461
1.95991
1.95525
1.95061
1.94601
1.94145
1.93691
1.93241
1.92793
1.92349
1.91907
1.91467
1.91029
1.90594
1.90161
1.8973
1.89301
1.88873
1.88448
1.88023
1.876
1.87178
1.86757
1.86337
1.85917
1.85498
1.85079
1.84659
1.8424
1.8382
1.83398
1.82976
1.82551
1.82125
1.81697
1.81266
1.80832
1.80395
1.79955
1.79512
1.79065
1.78615
1.78161
1.77704
1.77243
1.76778
1.76309
1.75837
1.75361
1.74881
1.74399
1.73914
1.73426
1.72937
1.72448
1.7196
1.71476
1.70996
1.70528
1.70073
1.69643
1.69232
1.68859
1.6845
1.67987
1.67129
0.436829
0.739273
0.955469
1.05373
1.12169
1.16368
1.19308
1.21394
1.23189
1.25017
1.27159
1.29788
1.33028
1.3692
1.41433
1.4646
1.51841
1.5739
1.62912
1.68233
1.73224
1.77807
1.81957
1.85686
1.89033
1.92052
1.94801
1.97341
1.99731
2.0203
2.04294
2.06579
2.08933
2.11398
2.13997
2.16738
2.19608
2.22576
2.25599
2.28624
2.316
2.3448
2.3723
2.39828
2.4227
2.44558
2.46698
2.48705
2.50598
2.52399
2.54127
2.55793
2.57395
2.58918
2.60315
2.61506
2.62411
2.62898
2.62946
2.62453
2.61385
2.59768
2.57691
2.55286
2.52704
2.50079
2.47518
2.45087
2.42821
2.4073
2.38811
2.37048
2.35426
2.33928
2.32541
2.31255
2.3006
2.28947
2.27909
2.26939
2.2603
2.25178
2.24375
2.23617
2.22898
2.22216
2.21564
2.2094
2.2034
2.1976
2.19198
2.18652
2.18119
2.17597
2.17084
2.16579
2.16082
2.15589
2.15101
2.14617
2.14136
2.13658
2.13182
2.12707
2.12234
2.11762
2.11291
2.10822
2.10354
2.09886
2.0942
2.08955
2.08492
2.0803
2.07569
2.07109
2.06651
2.06193
2.05738
2.05283
2.0483
2.04377
2.03926
2.03475
2.03025
2.02576
2.02127
2.01678
2.0123
2.00782
2.00334
1.99885
1.99437
1.98989
1.9854
1.9809
1.9764
1.97188
1.96736
1.96283
1.95828
1.95371
1.94913
1.94452
1.93989
1.93523
1.93055
1.92583
1.92107
1.91628
1.91145
1.90658
1.90168
1.89672
1.89173
1.8867
1.88162
1.8765
1.87133
1.86613
1.86088
1.85559
1.85027
1.84492
1.83954
1.83413
1.82872
1.8233
1.8179
1.81254
1.80724
1.80204
1.79699
1.79213
1.78758
1.78327
1.77936
1.77517
1.77047
1.76227
0.468104
0.795581
1.02291
1.12699
1.19998
1.24793
1.28461
1.31407
1.34165
1.37012
1.40184
1.43789
1.47869
1.5239
1.57271
1.62388
1.676
1.72768
1.77772
1.82529
1.8699
1.91134
1.94963
1.98488
2.01728
2.04704
2.07443
2.09979
2.12358
2.14637
2.16883
2.19167
2.21555
2.24094
2.26806
2.29684
2.32689
2.35759
2.38816
2.41783
2.44589
2.47181
2.49525
2.51606
2.53424
2.54999
2.56364
2.5755
2.58601
2.59571
2.60505
2.61445
2.62419
2.63434
2.6447
2.65457
2.66319
2.66902
2.67097
2.66763
2.65805
2.64214
2.62081
2.59573
2.56878
2.54168
2.51567
2.49147
2.46937
2.44938
2.43135
2.41506
2.40029
2.38682
2.3745
2.36319
2.35276
2.34313
2.33418
2.32586
2.31809
2.31081
2.30397
2.29751
2.29138
2.28554
2.27997
2.27461
2.26946
2.26447
2.25962
2.2549
2.25027
2.24574
2.24128
2.23687
2.23252
2.2282
2.22391
2.21964
2.21539
2.21115
2.20691
2.20268
2.19845
2.19423
2.19
2.18576
2.18152
2.17728
2.17304
2.16879
2.16453
2.16027
2.15601
2.15174
2.14746
2.14318
2.13889
2.13459
2.13028
2.12595
2.12162
2.11727
2.1129
2.10853
2.10413
2.09972
2.09529
2.09084
2.08636
2.08187
2.07736
2.07282
2.06826
2.06367
2.05906
2.05442
2.04975
2.04505
2.04032
2.03555
2.03075
2.02592
2.02104
2.01612
2.01116
2.00616
2.0011
1.996
1.99086
1.98566
1.98041
1.97511
1.96977
1.96437
1.95892
1.95343
1.94789
1.9423
1.93668
1.93102
1.92533
1.91961
1.91388
1.90814
1.9024
1.89669
1.89102
1.88541
1.87991
1.87456
1.8694
1.8645
1.85995
1.85572
1.85187
1.8478
1.8433
1.8358
0.486303
0.823717
1.05346
1.16074
1.24006
1.2962
1.34296
1.3835
1.42261
1.46218
1.50387
1.54812
1.59496
1.64383
1.69393
1.74435
1.79429
1.84311
1.89037
1.93576
1.97911
2.02028
2.05914
2.09552
2.12927
2.16031
2.18868
2.2147
2.23893
2.2622
2.28545
2.30966
2.33557
2.36359
2.39369
2.42538
2.4578
2.48991
2.52062
2.54899
2.57431
2.59613
2.61427
2.62874
2.63969
2.64751
2.65252
2.65499
2.6556
2.65506
2.65415
2.6536
2.65413
2.65637
2.66052
2.66655
2.67357
2.67997
2.6836
2.68251
2.67479
2.65968
2.63788
2.61149
2.58305
2.55471
2.52796
2.50358
2.48181
2.46254
2.44552
2.43042
2.41697
2.40492
2.39405
2.38418
2.37517
2.3669
2.35928
2.35222
2.34566
2.33952
2.33377
2.32834
2.3232
2.3183
2.31363
2.30914
2.30481
2.30062
2.29654
2.29257
2.28868
2.28486
2.28109
2.27737
2.27368
2.27002
2.26637
2.26274
2.25911
2.25549
2.25186
2.24823
2.2446
2.24095
2.23729
2.23362
2.22994
2.22623
2.22251
2.21878
2.21502
2.21125
2.20745
2.20363
2.19978
2.19591
2.19201
2.18808
2.18412
2.18013
2.1761
2.17205
2.16795
2.16382
2.15965
2.15545
2.1512
2.14692
2.14259
2.13822
2.13382
2.12937
2.12487
2.12034
2.11575
2.11113
2.10645
2.10173
2.09697
2.09215
2.08728
2.08236
2.07739
2.07237
2.06729
2.06215
2.05696
2.05171
2.04641
2.04104
2.03562
2.03014
2.02461
2.01902
2.01338
2.00769
2.00195
1.99617
1.99035
1.9845
1.97863
1.97273
1.96683
1.96094
1.95506
1.94922
1.94345
1.93776
1.93221
1.92682
1.92167
1.9168
1.91229
1.90811
1.90426
1.90024
1.89574
1.88881
0.489588
0.828103
1.05821
1.16932
1.25591
1.32079
1.37776
1.42883
1.4783
1.52722
1.57681
1.62714
1.67818
1.72951
1.78077
1.83158
1.88168
1.93087
1.97908
2.02616
2.0719
2.11596
2.1579
2.1972
2.23339
2.2662
2.29572
2.32247
2.34739
2.37171
2.39676
2.42361
2.4529
2.48464
2.51822
2.55257
2.58634
2.61822
2.64708
2.67215
2.69297
2.70943
2.72158
2.7296
2.7336
2.73426
2.73171
2.72627
2.71842
2.70869
2.69776
2.68652
2.67615
2.66801
2.66355
2.66286
2.66604
2.67182
2.67752
2.67988
2.67553
2.66231
2.64053
2.61278
2.58245
2.55242
2.5246
2.49982
2.47821
2.45954
2.4434
2.42938
2.41711
2.40627
2.39662
2.38795
2.38012
2.37299
2.36646
2.36044
2.35487
2.34969
2.34484
2.34027
2.33596
2.33187
2.32796
2.32422
2.32061
2.31712
2.31372
2.31042
2.30718
2.304
2.30087
2.29777
2.29471
2.29166
2.28863
2.28561
2.28259
2.27958
2.27656
2.27353
2.27049
2.26744
2.26437
2.26128
2.25816
2.25503
2.25186
2.24867
2.24545
2.2422
2.23891
2.23559
2.23222
2.22882
2.22537
2.22187
2.21833
2.21474
2.21111
2.20742
2.20367
2.19988
2.19603
2.19213
2.18817
2.18415
2.18008
2.17595
2.17176
2.16751
2.1632
2.15883
2.1544
2.14992
2.14537
2.14076
2.13608
2.13135
2.12656
2.1217
2.11678
2.11179
2.10674
2.10163
2.09645
2.09121
2.08591
2.08054
2.07511
2.06962
2.06407
2.05847
2.05281
2.0471
2.04135
2.03556
2.02973
2.02388
2.018
2.01212
2.00624
2.00037
1.99453
1.98875
1.98304
1.97744
1.97198
1.96671
1.96168
1.95693
1.95253
1.94844
1.94462
1.94062
1.93617
1.92981
0.487791
0.82149
1.05021
1.16412
1.25682
1.32935
1.39494
1.45452
1.51213
1.56814
1.62371
1.67874
1.7334
1.78753
1.84116
1.89429
1.94701
1.99934
2.0512
2.10232
2.15225
2.20037
2.24585
2.28784
2.32569
2.35917
2.38863
2.41503
2.43979
2.46452
2.49064
2.51902
2.54976
2.58219
2.61504
2.64679
2.676
2.70156
2.72285
2.73968
2.75219
2.76077
2.76578
2.76771
2.76702
2.76385
2.75839
2.75074
2.74095
2.72901
2.71501
2.69933
2.6828
2.66677
2.65296
2.64384
2.64079
2.64403
2.65179
2.65937
2.66134
2.65278
2.63264
2.60409
2.57193
2.54022
2.51134
2.4862
2.46482
2.44677
2.43149
2.41848
2.40727
2.39751
2.38892
2.38129
2.37444
2.36825
2.36262
2.35745
2.35268
2.34825
2.34411
2.34023
2.33656
2.33308
2.32976
2.32659
2.32353
2.32058
2.31772
2.31493
2.31221
2.30954
2.30692
2.30434
2.30179
2.29926
2.29674
2.29424
2.29175
2.28926
2.28676
2.28426
2.28175
2.27922
2.27667
2.27409
2.2715
2.26887
2.26621
2.26353
2.2608
2.25803
2.25522
2.25237
2.24946
2.24651
2.2435
2.24043
2.23731
2.23412
2.23088
2.22757
2.2242
2.22077
2.21727
2.2137
2.21006
2.20635
2.20258
2.19873
2.19482
2.19083
2.18677
2.18264
2.17844
2.17416
2.16982
2.1654
2.16091
2.15636
2.15172
2.14702
2.14225
2.13741
2.13249
2.12751
2.12246
2.11733
2.11215
2.10689
2.10157
2.09619
2.09076
2.08526
2.07972
2.07413
2.0685
2.06283
2.05714
2.05142
2.0457
2.03996
2.03424
2.02854
2.02288
2.01728
2.01176
2.00635
2.00109
1.99602
1.99118
1.98661
1.98236
1.97837
1.97459
1.97065
1.96633
1.96053
0.480251
0.806093
1.03289
1.15005
1.24835
1.32633
1.39836
1.46439
1.52817
1.58964
1.65005
1.70927
1.76773
1.82546
1.88278
1.93984
1.99684
2.05379
2.11047
2.1664
2.22078
2.27259
2.32065
2.36392
2.40175
2.43415
2.46189
2.48643
2.50959
2.53312
2.55823
2.5853
2.61376
2.64232
2.66938
2.69342
2.7134
2.72882
2.73974
2.74657
2.74986
2.75025
2.74808
2.74381
2.73788
2.73068
2.72256
2.71375
2.70432
2.69418
2.68304
2.67055
2.65641
2.6407
2.62442
2.60974
2.6003
2.59882
2.6068
2.62095
2.63296
2.63361
2.61823
2.59034
2.55691
2.52376
2.49402
2.46873
2.44773
2.4304
2.41604
2.40401
2.39381
2.38504
2.3774
2.37066
2.36465
2.35925
2.35435
2.34986
2.34572
2.34188
2.3383
2.33494
2.33176
2.32875
2.32588
2.32314
2.3205
2.31796
2.3155
2.31312
2.31079
2.30852
2.3063
2.30411
2.30196
2.29984
2.29773
2.29564
2.29356
2.29148
2.2894
2.28732
2.28523
2.28313
2.281
2.27886
2.27669
2.2745
2.27227
2.27001
2.26771
2.26536
2.26297
2.26052
2.25803
2.25547
2.25286
2.25019
2.24745
2.24465
2.24177
2.23883
2.23582
2.23273
2.22957
2.22633
2.22302
2.21963
2.21616
2.21261
2.20899
2.20528
2.2015
2.19764
2.19369
2.18967
2.18557
2.18139
2.17714
2.1728
2.16839
2.1639
2.15934
2.1547
2.14999
2.1452
2.14034
2.13541
2.13041
2.12535
2.12022
2.11504
2.10979
2.1045
2.09916
2.09377
2.08835
2.0829
2.07742
2.07193
2.06643
2.06093
2.05545
2.04999
2.04458
2.03923
2.03396
2.0288
2.02379
2.01895
2.01433
2.00995
2.00584
2.00195
1.99823
1.99436
1.99017
1.98491
0.466058
0.784745
1.00881
1.12851
1.23146
1.31448
1.3917
1.46234
1.53088
1.59691
1.66166
1.72499
1.78755
1.84947
1.91121
1.97296
2.03489
2.09684
2.15841
2.21878
2.27685
2.33122
2.38048
2.42353
2.45993
2.49005
2.51516
2.53713
2.55805
2.57963
2.60275
2.62724
2.65199
2.67536
2.69574
2.71197
2.72354
2.73058
2.73363
2.73318
2.72964
2.7234
2.71478
2.7041
2.69178
2.67829
2.66414
2.64984
2.63586
2.62252
2.60998
2.59819
2.58689
2.57564
2.56406
2.55228
2.54177
2.53664
2.54235
2.56132
2.58705
2.60323
2.59785
2.57331
2.53968
2.50559
2.47538
2.45025
2.42987
2.41344
2.40008
2.38907
2.37986
2.37202
2.36525
2.35931
2.35404
2.3493
2.345
2.34107
2.33744
2.33406
2.3309
2.32793
2.32512
2.32246
2.31991
2.31748
2.31515
2.3129
2.31073
2.30863
2.30659
2.3046
2.30266
2.30077
2.2989
2.29707
2.29526
2.29347
2.2917
2.28993
2.28817
2.28641
2.28464
2.28286
2.28107
2.27925
2.27742
2.27556
2.27366
2.27174
2.26977
2.26776
2.2657
2.2636
2.26143
2.25921
2.25693
2.25459
2.25217
2.24969
2.24714
2.24452
2.24182
2.23904
2.23618
2.23324
2.23023
2.22713
2.22395
2.22068
2.21734
2.21391
2.21039
2.20679
2.20311
2.19935
2.19551
2.19158
2.18757
2.18348
2.17931
2.17506
2.17074
2.16633
2.16186
2.1573
2.15268
2.14798
2.14322
2.1384
2.13351
2.12856
2.12356
2.11851
2.11341
2.10827
2.1031
2.09791
2.09269
2.08746
2.08222
2.07699
2.07177
2.06658
2.06143
2.05634
2.05133
2.04642
2.04164
2.03702
2.03258
2.02836
2.02436
2.02054
2.01685
2.01303
2.00897
2.00409
0.449608
0.760479
0.980621
1.10209
1.20856
1.29536
1.37702
1.45208
1.52485
1.59473
1.66354
1.73105
1.79795
1.86434
1.93076
1.99729
2.06404
2.13064
2.19647
2.26044
2.32118
2.37705
2.42657
2.46873
2.50332
2.5311
2.55376
2.57348
2.59246
2.61224
2.63331
2.65501
2.67586
2.69414
2.7085
2.71829
2.7236
2.72499
2.72287
2.7177
2.70974
2.6991
2.68586
2.6702
2.65247
2.63317
2.61287
2.59212
2.57139
2.55112
2.53181
2.51416
2.49891
2.48643
2.47647
2.46848
2.46199
2.45842
2.46241
2.48195
2.52089
2.55961
2.5716
2.55434
2.52201
2.48766
2.45744
2.43284
2.41338
2.39802
2.38577
2.37583
2.36761
2.36068
2.35473
2.34954
2.34493
2.34079
2.33703
2.33358
2.33038
2.32739
2.32458
2.32193
2.31941
2.31701
2.31473
2.31253
2.31042
2.30839
2.30644
2.30454
2.30271
2.30092
2.29919
2.29749
2.29584
2.29422
2.29262
2.29105
2.28949
2.28795
2.28641
2.28488
2.28335
2.28181
2.28026
2.27869
2.27711
2.2755
2.27386
2.27219
2.27048
2.26873
2.26694
2.26509
2.2632
2.26124
2.25923
2.25715
2.25501
2.25279
2.25051
2.24815
2.24572
2.2432
2.24061
2.23794
2.23518
2.23234
2.22942
2.22642
2.22332
2.22015
2.21689
2.21354
2.21011
2.20659
2.20299
2.19931
2.19554
2.19169
2.18776
2.18375
2.17967
2.1755
2.17126
2.16695
2.16256
2.15811
2.15359
2.14901
2.14436
2.13966
2.13491
2.13011
2.12526
2.12038
2.11546
2.11052
2.10556
2.10058
2.0956
2.09063
2.08567
2.08073
2.07583
2.07098
2.06621
2.06152
2.05695
2.05252
2.04824
2.04414
2.04023
2.03646
2.03278
2.02902
2.02505
2.02051
0.431238
0.733563
0.949446
1.0722
1.18155
1.27159
1.35703
1.43579
1.5127
1.58677
1.65985
1.73143
1.80273
1.87357
1.94454
2.0155
2.08649
2.15695
2.22614
2.29277
2.35534
2.41212
2.46163
2.50298
2.53618
2.56227
2.58314
2.60111
2.6183
2.63601
2.65436
2.67236
2.6884
2.70097
2.70918
2.71289
2.71225
2.70776
2.69994
2.68922
2.67573
2.6595
2.64067
2.61957
2.59678
2.57296
2.54876
2.52466
2.5009
2.47748
2.45428
2.43137
2.40937
2.38975
2.37478
2.36614
2.36271
2.36324
2.36994
2.38874
2.43526
2.50101
2.53902
2.53376
2.50465
2.47077
2.44103
2.41734
2.39905
2.38492
2.37385
2.365
2.35776
2.35171
2.34654
2.34204
2.33804
2.33444
2.33116
2.32813
2.3253
2.32265
2.32015
2.31777
2.3155
2.31333
2.31125
2.30926
2.30733
2.30548
2.30369
2.30195
2.30028
2.29865
2.29706
2.29552
2.29402
2.29254
2.2911
2.28968
2.28828
2.28689
2.28552
2.28415
2.28278
2.28141
2.28003
2.27864
2.27723
2.2758
2.27435
2.27287
2.27135
2.2698
2.2682
2.26655
2.26486
2.26311
2.2613
2.25943
2.25749
2.25549
2.25342
2.25127
2.24905
2.24675
2.24438
2.24192
2.23938
2.23676
2.23406
2.23127
2.2284
2.22544
2.2224
2.21927
2.21605
2.21275
2.20937
2.2059
2.20235
2.19872
2.195
2.19121
2.18734
2.18339
2.17937
2.17527
2.17111
2.16687
2.16258
2.15821
2.15379
2.14932
2.14479
2.14022
2.1356
2.13094
2.12626
2.12154
2.11681
2.11206
2.10731
2.10256
2.09782
2.0931
2.08841
2.08377
2.07918
2.07468
2.07027
2.06598
2.06182
2.0578
2.05393
2.05017
2.04649
2.04274
2.03886
2.03456
0.409209
0.701312
0.915818
1.03983
1.15217
1.24525
1.3344
1.41684
1.49784
1.57595
1.65334
1.72927
1.80484
1.87989
1.95488
2.02956
2.10389
2.17724
2.24879
2.31721
2.38096
2.43832
2.4879
2.52887
2.56133
2.58639
2.60596
2.62226
2.63726
2.65199
2.66637
2.67934
2.68958
2.69606
2.69803
2.69544
2.68864
2.67825
2.66474
2.64834
2.62912
2.60715
2.58263
2.55603
2.52803
2.49936
2.4707
2.44257
2.41528
2.38899
2.36373
2.33942
2.31582
2.29284
2.27129
2.25442
2.24636
2.24947
2.26325
2.28677
2.33794
2.43067
2.50203
2.51311
2.48869
2.45572
2.42684
2.40437
2.38745
2.37465
2.3648
2.35703
2.35074
2.34552
2.34107
2.33721
2.33377
2.33067
2.32781
2.32516
2.32267
2.32032
2.31808
2.31594
2.31389
2.31192
2.31002
2.30819
2.30643
2.30473
2.30308
2.30148
2.29994
2.29844
2.29698
2.29557
2.29419
2.29284
2.29152
2.29022
2.28894
2.28768
2.28643
2.28519
2.28395
2.28271
2.28146
2.28021
2.27894
2.27765
2.27633
2.27499
2.27362
2.27221
2.27076
2.26927
2.26773
2.26613
2.26448
2.26277
2.261
2.25916
2.25725
2.25528
2.25323
2.2511
2.2489
2.24662
2.24425
2.24181
2.23928
2.23667
2.23398
2.2312
2.22833
2.22538
2.22234
2.21922
2.21602
2.21273
2.20936
2.20591
2.20237
2.19876
2.19507
2.1913
2.18746
2.18355
2.17957
2.17552
2.17141
2.16723
2.163
2.15871
2.15437
2.14998
2.14555
2.14109
2.13659
2.13207
2.12752
2.12296
2.11839
2.11382
2.10926
2.10472
2.1002
2.09572
2.09128
2.08692
2.08263
2.07843
2.07435
2.07037
2.06652
2.06276
2.05907
2.05533
2.0515
2.04742
0.378634
0.660821
0.877479
1.00439
1.11984
1.21655
1.30951
1.39607
1.48139
1.56392
1.64574
1.72607
1.80587
1.88478
1.96318
2.04081
2.11759
2.19289
2.26587
2.33526
2.39958
2.45725
2.50694
2.54785
2.58002
2.60439
2.6227
2.63697
2.64895
2.65957
2.66886
2.67615
2.68033
2.68035
2.6761
2.66733
2.65461
2.63851
2.61943
2.59756
2.573
2.54586
2.51648
2.48545
2.45353
2.42147
2.38989
2.3591
2.32909
2.29961
2.2704
2.24147
2.21345
2.18725
2.16325
2.1424
2.12661
2.12162
2.137
2.17008
2.23331
2.35771
2.46738
2.49526
2.47482
2.44264
2.41487
2.39393
2.37857
2.36721
2.35862
2.35193
2.34655
2.3421
2.33832
2.33502
2.33206
2.32937
2.32688
2.32455
2.32234
2.32023
2.31822
2.31628
2.31441
2.3126
2.31086
2.30918
2.30755
2.30598
2.30445
2.30298
2.30155
2.30016
2.29882
2.29751
2.29624
2.295
2.29378
2.29259
2.29142
2.29026
2.28912
2.28798
2.28684
2.28571
2.28457
2.28342
2.28226
2.28108
2.27988
2.27865
2.27739
2.2761
2.27477
2.27339
2.27197
2.2705
2.26898
2.26739
2.26575
2.26404
2.26227
2.26042
2.25851
2.25652
2.25445
2.2523
2.25008
2.24778
2.24539
2.24292
2.24036
2.23773
2.235
2.23219
2.2293
2.22632
2.22326
2.22011
2.21688
2.21357
2.21018
2.2067
2.20315
2.19953
2.19583
2.19206
2.18822
2.18431
2.18034
2.1763
2.17221
2.16807
2.16387
2.15963
2.15534
2.15102
2.14666
2.14228
2.13787
2.13345
2.12901
2.12458
2.12014
2.11572
2.11131
2.10694
2.1026
2.09832
2.0941
2.08995
2.08589
2.08192
2.07804
2.07424
2.07049
2.06674
2.06294
2.059
0.343614
0.618897
0.83604
0.967614
1.08637
1.18738
1.28446
1.37545
1.46513
1.55214
1.63819
1.7226
1.80607
1.88822
1.96928
2.04903
2.1273
2.20353
2.27695
2.34639
2.41055
2.468
2.51751
2.55827
2.59015
2.61386
2.63078
2.64258
2.6509
2.65693
2.661
2.66245
2.66076
2.65525
2.64538
2.6313
2.61343
2.59226
2.56818
2.54146
2.51232
2.48103
2.44805
2.41407
2.37992
2.34642
2.31426
2.28373
2.25484
2.22751
2.20169
2.17666
2.15131
2.12489
2.09776
2.07181
2.04901
2.03486
2.04124
2.06781
2.14182
2.31325
2.45273
2.48684
2.46496
2.43238
2.40589
2.38679
2.3732
2.36333
2.35594
2.35022
2.34564
2.34185
2.33862
2.33578
2.33322
2.33085
2.32864
2.32654
2.32454
2.32261
2.32075
2.31895
2.3172
2.31551
2.31387
2.31229
2.31075
2.30927
2.30783
2.30644
2.30509
2.30379
2.30253
2.3013
2.3001
2.29894
2.2978
2.29669
2.2956
2.29452
2.29345
2.2924
2.29134
2.29029
2.28923
2.28817
2.28709
2.286
2.28488
2.28374
2.28257
2.28137
2.28013
2.27885
2.27752
2.27614
2.27472
2.27323
2.27169
2.27008
2.26841
2.26667
2.26485
2.26297
2.26101
2.25897
2.25685
2.25465
2.25238
2.25001
2.24757
2.24504
2.24242
2.23972
2.23694
2.23407
2.23112
2.22808
2.22496
2.22175
2.21847
2.2151
2.21166
2.20814
2.20455
2.20089
2.19715
2.19335
2.18949
2.18557
2.18158
2.17755
2.17346
2.16932
2.16515
2.16093
2.15668
2.1524
2.1481
2.14378
2.13945
2.13511
2.13077
2.12643
2.12211
2.11781
2.11354
2.10931
2.10513
2.101
2.09695
2.09296
2.08905
2.0852
2.0814
2.07762
2.07382
2.07
0.307464
0.581011
0.794937
0.931746
1.05426
1.1598
1.26096
1.35621
1.44976
1.54068
1.6303
1.71812
1.80452
1.88917
1.97222
2.05343
2.13255
2.20909
2.28233
2.35128
2.41479
2.47162
2.52061
2.56096
2.59242
2.61541
2.63094
2.64043
2.64528
2.64672
2.64557
2.6417
2.63456
2.62384
2.60928
2.59093
2.56906
2.54405
2.51631
2.48622
2.45418
2.42066
2.38632
2.35197
2.3186
2.28712
2.25836
2.23271
2.21012
2.19003
2.1713
2.15292
2.13407
2.11396
2.09201
2.06759
2.03988
2.01797
2.01812