/*--------------------------------*- C++ -*----------------------------------*\
| =========                 |                                                 |
| \\      /  F ield         | OpenFOAM: The Open Source CFD Toolbox           |
|  \\    /   O peration     | Version:  v1906                                 |
|   \\  /    A nd           | Web:      www.OpenFOAM.com                      |
|    \\/     M anipulation  |                                                 |
\*---------------------------------------------------------------------------*/
FoamFile
{
    version     2.0;
    format      ascii;
    class       volScalarField;
    location    "400";
    object      nut;
}
// * * * * * * * * * * * * * * * * * * * * * * * * * * * * * * * * * * * * * //

dimensions      [0 2 -1 0 0 0 0];


internalField   nonuniform List<scalar> 
12225
(
5.38048e-05
5.34214e-05
5.26389e-05
5.17759e-05
5.09427e-05
5.01751e-05
4.94789e-05
4.88589e-05
4.82922e-05
4.77994e-05
4.73284e-05
4.69466e-05
4.66351e-05
4.63808e-05
4.61449e-05
4.59767e-05
4.57709e-05
4.5703e-05
0.000743655
0.000274815
0.000208898
0.00018679
0.000173778
0.000168845
0.000164642
0.000160983
0.000158058
0.000155476
0.000153545
0.000151564
0.000150309
0.000148473
0.000147994
0.00014618
0.000146855
0.000145028
0.00337131
0.00096566
0.000668387
0.000562192
0.000503816
0.000471936
0.000448793
0.000431498
0.000418596
0.000408112
0.000399454
0.000392011
0.000385973
0.00038017
0.000376092
0.000371052
0.000369416
0.000364748
0.00784747
0.00229234
0.00147321
0.00117569
0.00101855
0.0009264
0.000864524
0.00081974
0.000786851
0.000761027
0.000739943
0.000723148
0.000709431
0.000697547
0.000688049
0.000678761
0.000673619
0.000663729
0.0127627
0.00432668
0.00270971
0.00210431
0.00178853
0.00159943
0.00147338
0.00138294
0.00131561
0.00126344
0.0012215
0.00118734
0.0011596
0.00113578
0.00111567
0.00109799
0.00108539
0.00106758
0.0171138
0.00693197
0.00436917
0.0033459
0.00280531
0.00247641
0.00225609
0.00209812
0.00197987
0.00188823
0.00181496
0.00175517
0.00170593
0.00166443
0.0016292
0.00159875
0.0015735
0.00154597
0.0205946
0.00988394
0.00641805
0.00491196
0.00409439
0.00358866
0.00324699
0.00300113
0.00281625
0.00267251
0.00255755
0.00246363
0.00238579
0.00232026
0.00226451
0.00221648
0.00217585
0.0021342
0.0232406
0.0129306
0.00876082
0.0067658
0.00563831
0.00492502
0.00443663
0.00408234
0.00381425
0.00360475
0.0034367
0.00329905
0.00318452
0.00308792
0.00300553
0.00293456
0.0028733
0.00281343
0.0252063
0.0158687
0.0112827
0.00885779
0.00741862
0.00648267
0.00583087
0.00535287
0.00498833
0.00470174
0.00447083
0.00428105
0.00412261
0.00398861
0.00387403
0.00377516
0.00368905
0.00360808
0.026654
0.018555
0.0138531
0.0111078
0.00938647
0.00822964
0.00740689
0.0067949
0.00632336
0.00594973
0.00564687
0.00539679
0.00518715
0.00500922
0.00485662
0.00472456
0.00460885
0.00450283
0.0277221
0.0209148
0.0163563
0.0134299
0.0114851
0.0101292
0.00914111
0.00839365
0.00781063
0.00734434
0.00696365
0.00664752
0.00638127
0.00615441
0.00595921
0.00578978
0.00564105
0.00550678
0.0284467
0.0227418
0.0184782
0.0155127
0.0134339
0.0119318
0.0108099
0.00994607
0.0092634
0.00871193
0.00825816
0.00787898
0.00755801
0.00728338
0.00704623
0.00683976
0.00665817
0.00649566
0.0290075
0.0243032
0.0204379
0.0175394
0.0153954
0.0137867
0.0125523
0.0115831
0.0108057
0.0101705
0.00964321
0.00919946
0.00882167
0.00849689
0.00821537
0.0079695
0.007753
0.00756001
0.0294889
0.0257559
0.0223986
0.0196778
0.0175424
0.0158687
0.0145422
0.013475
0.0126032
0.0118806
0.0112739
0.0107586
0.0103167
0.00993455
0.00960164
0.00930977
0.0090522
0.00882317
0.0298838
0.0270289
0.02424
0.0217991
0.0197597
0.0180816
0.0167012
0.0155585
0.014604
0.0137989
0.0131136
0.0125251
0.0120159
0.0115723
0.0111835
0.0108412
0.0105381
0.0102686
0.0301878
0.0280608
0.0258277
0.0237269
0.0218587
0.0202413
0.0188561
0.0176724
0.0166587
0.0157866
0.0150324
0.0143765
0.013803
0.0132993
0.0128549
0.0124613
0.0121118
0.0118005
0.0303979
0.028801
0.0270252
0.0252489
0.0235788
0.0220634
0.0207149
0.0195267
0.0184836
0.0175686
0.0167647
0.0160566
0.0154311
0.014877
0.0143848
0.0139466
0.0135558
0.013207
0.0305046
0.0291854
0.0276689
0.0260947
0.0245624
0.0231295
0.0218223
0.0206466
0.0195977
0.0186651
0.0178371
0.0171014
0.0164469
0.0158638
0.0153433
0.014878
0.0144614
0.0140877
0.0304716
0.0290675
0.0274727
0.0258383
0.0242653
0.0228083
0.021489
0.0203094
0.0192617
0.0183334
0.0175113
0.0167823
0.0161348
0.0155584
0.0150445
0.0145857
0.0141756
0.0138095
0.0302312
0.0282144
0.0260768
0.0240433
0.0222152
0.0206173
0.0192375
0.0180503
0.0170275
0.0161432
0.0153751
0.0147045
0.0141162
0.0135978
0.0131391
0.0127322
0.0123706
0.0120492
0.0298208
0.0268285
0.0239504
0.0214639
0.0194066
0.0177254
0.0163492
0.0152137
0.0142673
0.0134702
0.0127919
0.0122095
0.0117052
0.0112654
0.0108795
0.0105395
0.0102391
0.00997475
0.0291397
0.0247092
0.0209855
0.0181331
0.0159871
0.0143558
0.0130912
0.0120902
0.011282
0.0106181
0.0100642
0.00959599
0.00919564
0.00884997
0.00854904
0.00828536
0.00805342
0.00784988
0.0280362
0.0217167
0.0172857
0.0143387
0.0123321
0.0109089
0.00985827
0.00905567
0.00842471
0.00791675
0.00749964
0.00715141
0.00685659
0.00660401
0.00638531
0.00619438
0.00602659
0.00588097
0.0262545
0.0178171
0.0131464
0.0104901
0.00884811
0.00775225
0.00697508
0.00639799
0.00595369
0.00560159
0.00531602
0.00507995
0.00488168
0.00471296
0.00456767
0.00444135
0.0043304
0.00423408
0.0233816
0.0132062
0.00902292
0.00699395
0.00583878
0.00510214
0.00459382
0.00422371
0.00394271
0.00372226
0.00354489
0.00339919
0.00327747
0.00317436
0.00308572
0.00300876
0.00294026
0.00288138
0.0189047
0.00845579
0.00545032
0.00418519
0.00350673
0.00308662
0.00280143
0.00259713
0.00244346
0.00232362
0.00222769
0.0021492
0.00208385
0.00202874
0.00198129
0.00194044
0.00190407
0.00187325
0.0125845
0.00438906
0.00278873
0.00217265
0.00185058
0.00165255
0.00151865
0.0014247
0.001354
0.00129884
0.0012549
0.001219
0.00118927
0.00116432
0.00114237
0.00112387
0.00110652
0.00109189
0.00562613
0.00171154
0.00115559
0.000946086
0.000837103
0.000769183
0.000723497
0.000693389
0.000669038
0.000649642
0.000634171
0.000621203
0.000610008
0.000600517
0.000591893
0.000584729
0.00057755
0.000572633
0.00117127
0.000435665
0.000327318
0.000284848
0.000262954
0.000248814
0.000241468
0.00023728
0.000233333
0.000229747
0.000226535
0.000223743
0.0002212
0.000219052
0.000216987
0.000215332
0.000213547
0.000211913
7.08579e-05
7.01307e-05
6.91152e-05
6.8115e-05
6.7171e-05
6.6303e-05
6.55086e-05
6.47857e-05
6.41296e-05
6.35338e-05
6.29915e-05
6.24959e-05
6.20429e-05
6.16258e-05
6.12442e-05
6.08886e-05
6.05647e-05
6.02567e-05
1.65093e-05
3.88428e-05
4.40543e-05
4.6967e-05
4.88585e-05
4.96421e-05
4.94997e-05
4.8858e-05
4.73881e-05
4.49766e-05
4.16002e-05
3.61206e-05
3.19286e-05
2.92379e-05
2.80397e-05
2.83822e-05
3.13481e-05
3.65801e-05
4.37249e-05
5.29893e-05
6.01052e-05
6.60748e-05
7.1254e-05
7.5788e-05
7.98313e-05
8.34803e-05
8.68158e-05
8.9897e-05
9.27693e-05
9.54676e-05
9.80181e-05
0.000100441
0.00010275
0.000104957
0.000107069
0.000109091
0.000111027
0.000112884
0.000114663
0.000116362
0.000117977
0.000119503
0.000120934
0.000122295
0.000123585
0.000124805
0.000125951
0.000127018
0.000127998
0.00012888
0.000129656
0.00013031
0.000130872
0.000131202
0.000131364
0.000131388
0.000131185
0.000130829
0.000130287
0.000129538
0.000128574
0.000127356
0.000125772
0.000124151
0.000122527
0.000120934
0.000119383
0.000117891
0.00011647
0.000115126
0.000113863
0.000112648
0.000111303
0.000110167
0.000109368
0.000108769
0.000108186
0.000107602
0.000107036
0.00010649
0.000105968
0.000105473
0.000105003
0.00010456
0.000104143
0.000103749
0.000103378
0.000103028
0.000102696
0.000102381
0.000102079
0.000101789
0.000101509
0.000101237
0.000100973
0.000100714
0.000100461
0.00010021
9.99634e-05
9.97188e-05
9.94758e-05
9.92335e-05
9.89919e-05
9.87513e-05
9.85123e-05
9.82749e-05
9.80394e-05
9.78058e-05
9.75744e-05
9.73451e-05
9.7118e-05
9.68932e-05
9.66709e-05
9.6451e-05
9.62336e-05
9.60188e-05
9.58067e-05
9.55971e-05
9.53905e-05
9.51871e-05
9.49866e-05
9.47886e-05
9.4593e-05
9.43996e-05
9.42084e-05
9.40193e-05
9.38324e-05
9.36477e-05
9.34653e-05
9.32851e-05
9.31072e-05
9.29317e-05
9.27584e-05
9.25872e-05
9.24182e-05
9.22513e-05
9.20865e-05
9.19239e-05
9.1763e-05
9.16042e-05
9.14487e-05
9.12935e-05
9.11411e-05
9.09899e-05
9.08599e-05
9.06976e-05
9.05488e-05
9.04162e-05
9.02789e-05
9.01397e-05
9.00002e-05
8.98612e-05
8.97231e-05
8.95859e-05
8.94498e-05
8.93146e-05
8.91805e-05
8.90476e-05
8.89158e-05
8.8785e-05
8.8655e-05
8.85257e-05
8.83967e-05
8.82678e-05
8.81386e-05
8.80087e-05
8.78777e-05
8.77448e-05
8.76093e-05
8.74702e-05
8.73192e-05
8.71589e-05
8.70107e-05
8.68165e-05
8.66316e-05
8.63983e-05
8.61722e-05
8.57905e-05
8.51424e-05
8.22676e-05
2.38866e-05
4.95993e-05
0.000114063
0.000157808
0.000187544
0.000204839
0.000220841
0.000237642
0.000248989
0.000266402
0.000285948
0.000295087
0.000292159
0.000290322
0.000296072
0.000308859
0.000324853
0.000339845
0.000350674
0.000357553
0.00036622
0.00037808
0.000392951
0.00041069
0.00042953
0.000449084
0.000468787
0.00048822
0.000507104
0.000525284
0.000542685
0.000559278
0.00057503
0.000589865
0.000603608
0.000615944
0.000626601
0.000637099
0.00064759
0.000658056
0.000668244
0.000677575
0.000684958
0.000692165
0.000699932
0.000708391
0.000717715
0.00072781
0.000738537
0.000749744
0.000761348
0.000773191
0.000785955
0.000798963
0.000812103
0.000823677
0.000833753
0.00084366
0.000853579
0.000862756
0.000871152
0.000878733
0.000884929
0.000888554
0.000890207
0.000889965
0.000888102
0.000884854
0.000880475
0.000875268
0.000869827
0.000864622
0.000859767
0.000858392
0.000862572
0.000868493
0.000873343
0.000877109
0.000880179
0.000882668
0.000884705
0.000886387
0.000887813
0.000889069
0.00089023
0.000891338
0.000892419
0.000893484
0.000894536
0.000895566
0.000896561
0.000897519
0.000898439
0.000899321
0.000900159
0.00090095
0.00090169
0.000902377
0.000903008
0.000903577
0.000904068
0.000904483
0.000904845
0.000905172
0.000905472
0.000905751
0.000906011
0.000906252
0.000906474
0.000906678
0.000906862
0.000907026
0.000907168
0.000907287
0.000907383
0.000907454
0.000907497
0.000907511
0.000907492
0.000907437
0.000907327
0.000907146
0.000906892
0.000906566
0.000906169
0.000905705
0.000905176
0.000904582
0.000903924
0.000903203
0.000902419
0.000901572
0.000900649
0.000899658
0.0008986
0.000897479
0.000896294
0.000895046
0.000893733
0.000892375
0.000891041
0.000889457
0.000887974
0.000886137
0.000884458
0.000882435
0.000880537
0.000878433
0.000876348
0.000874261
0.000872155
0.000870019
0.000867846
0.000865628
0.000863363
0.000861047
0.000858686
0.000856288
0.000853846
0.000851359
0.000848828
0.000846255
0.000843643
0.000840994
0.000838315
0.000835609
0.000832887
0.000830153
0.000827427
0.00082472
0.000822084
0.000819563
0.000817196
0.00081497
0.000813133
0.000811478
0.000810436
0.000801636
0.000782543
0.000724983
2.89551e-05
9.91369e-05
0.000220615
0.000301925
0.000384056
0.00044379
0.000488558
0.000518808
0.000531364
0.000529242
0.000521377
0.000518793
0.000525938
0.000542138
0.0005654
0.000592775
0.00062272
0.00065464
0.000687953
0.000722653
0.000759051
0.000796933
0.00083565
0.000874229
0.000912593
0.000949335
0.000983941
0.00101639
0.00104669
0.00107501
0.00110154
0.00112658
0.00115039
0.00117323
0.00119535
0.00121707
0.00123873
0.00126094
0.00128415
0.00130846
0.00133376
0.00135991
0.00138703
0.00141549
0.00144521
0.0014762
0.00150838
0.00154136
0.00157484
0.00160852
0.00164272
0.00167795
0.00171259
0.00174785
0.00178426
0.00182118
0.00185647
0.00189276
0.00192979
0.00196617
0.0020009
0.00203287
0.00206095
0.0020844
0.00210342
0.00211815
0.00212902
0.0021366
0.00214157
0.00214468
0.00214661
0.00214775
0.00214874
0.00215063
0.00215303
0.00215464
0.00215527
0.00215531
0.00215503
0.00215449
0.00215359
0.00215216
0.00215042
0.00214864
0.00214698
0.00214554
0.00214435
0.0021434
0.00214266
0.00214212
0.00214172
0.00214143
0.00214124
0.0021411
0.00214099
0.00214089
0.00214077
0.00214061
0.00214038
0.00214005
0.00213952
0.0021388
0.00213802
0.00213723
0.00213645
0.00213569
0.00213494
0.0021342
0.00213347
0.00213275
0.00213202
0.0021313
0.00213058
0.00212984
0.00212909
0.00212833
0.00212755
0.00212674
0.00212589
0.00212498
0.00212385
0.00212251
0.00212098
0.0021193
0.00211747
0.00211551
0.00211341
0.00211118
0.00210883
0.00210636
0.00210377
0.00210106
0.00209823
0.00209528
0.00209222
0.00208904
0.00208575
0.00208235
0.00207885
0.00207526
0.00207156
0.00206769
0.0020637
0.00205952
0.00205518
0.00205069
0.00204611
0.00204139
0.00203661
0.00203177
0.00202688
0.00202192
0.00201688
0.00201176
0.00200655
0.00200124
0.00199584
0.00199036
0.00198478
0.00197911
0.00197336
0.00196752
0.0019616
0.00195561
0.00194955
0.00194342
0.00193725
0.00193101
0.00192474
0.00191846
0.00191224
0.00190612
0.00190013
0.00189424
0.00188862
0.001883
0.0018755
0.00186024
0.00182802
0.00174379
3.29637e-05
0.000157525
0.000331282
0.000459174
0.000557641
0.000632173
0.00068568
0.000722459
0.000745424
0.000759046
0.00076976
0.000783256
0.000803072
0.000830094
0.000864552
0.000905472
0.000951415
0.00100077
0.00105135
0.00110199
0.00115193
0.00120134
0.00124999
0.0012975
0.00134312
0.00138716
0.00142912
0.00146902
0.00150696
0.00154312
0.00157774
0.00161111
0.00164346
0.00167496
0.00170567
0.00173546
0.00176388
0.00179202
0.00182352
0.00185908
0.00189855
0.00194159
0.0019879
0.00203729
0.00208933
0.00214412
0.00220172
0.00226078
0.00232099
0.00238181
0.00244265
0.00250187
0.00255792
0.00261581
0.00267648
0.00273991
0.002804
0.0028698
0.00293733
0.00300447
0.00306916
0.00312945
0.00318373
0.00323096
0.00327072
0.003303
0.00332833
0.00334753
0.00336163
0.00337164
0.00337846
0.0033829
0.00338574
0.00338751
0.00338826
0.00338806
0.00338734
0.00338638
0.00338523
0.00338365
0.00338082
0.00337609
0.00337088
0.00336584
0.00336123
0.00335716
0.00335362
0.0033506
0.00334802
0.00334583
0.00334394
0.0033423
0.00334085
0.00333954
0.00333831
0.00333712
0.00333593
0.0033347
0.0033334
0.00333198
0.00333046
0.00332887
0.00332725
0.00332562
0.00332397
0.00332231
0.00332064
0.00331895
0.00331723
0.00331549
0.00331372
0.00331192
0.00331008
0.0033082
0.00330627
0.0033043
0.00330227
0.00330018
0.00329802
0.00329575
0.00329329
0.00329062
0.00328775
0.00328469
0.00328143
0.003278
0.00327439
0.00327062
0.00326669
0.0032626
0.00325837
0.00325399
0.00324947
0.0032448
0.00324001
0.00323508
0.00323002
0.00322484
0.00321953
0.0032141
0.00320853
0.00320281
0.00319691
0.00319085
0.00318461
0.00317823
0.00317172
0.00316509
0.00315838
0.0031516
0.00314473
0.00313777
0.00313071
0.00312355
0.00311629
0.00310892
0.00310145
0.00309387
0.00308619
0.00307841
0.00307053
0.00306257
0.00305452
0.0030464
0.0030382
0.00302994
0.00302164
0.00301329
0.00300495
0.00299663
0.00298843
0.00298038
0.00297264
0.00296505
0.00295812
0.00295055
0.00294083
0.00292064
0.00287939
0.00278624
3.69903e-05
0.000200437
0.000416658
0.000577131
0.000701867
0.000800886
0.000878731
0.000939853
0.000987223
0.00102421
0.00105693
0.00108887
0.00112268
0.00116186
0.00120587
0.00125558
0.00130914
0.00136184
0.00141356
0.00146546
0.00151804
0.00157078
0.00162321
0.00167509
0.00172558
0.00177449
0.0018222
0.00186859
0.00191368
0.00195762
0.00200063
0.00204295
0.00208484
0.00212653
0.00216827
0.00221036
0.00225336
0.00229819
0.00234613
0.00239774
0.00245306
0.00251172
0.00257364
0.00263923
0.00270687
0.00277677
0.00284866
0.00292199
0.00299653
0.00307182
0.00314703
0.00322145
0.00329659
0.00337572
0.00345983
0.00354902
0.00364211
0.00373855
0.00383873
0.00393985
0.00403907
0.00413351
0.0042205
0.00429782
0.00436404
0.00441861
0.00446187
0.00449485
0.00451897
0.00453582
0.00454696
0.00455383
0.00455766
0.00455938
0.00455966
0.00455908
0.0045581
0.00455692
0.00455551
0.00455362
0.00455096
0.00454767
0.00454437
0.00454134
0.00453872
0.00453654
0.00453479
0.00453341
0.00453236
0.00453156
0.00453095
0.00453049
0.0045301
0.00452975
0.00452939
0.00452898
0.00452848
0.00452788
0.00452715
0.00452629
0.00452532
0.00452426
0.0045231
0.00452184
0.00452049
0.00451904
0.00451748
0.00451581
0.00451402
0.00451211
0.00451008
0.0045079
0.00450559
0.00450314
0.00450055
0.00449781
0.00449492
0.00449188
0.00448865
0.00448522
0.00448152
0.00447754
0.00447328
0.00446874
0.00446393
0.00445885
0.00445352
0.00444794
0.00444214
0.00443611
0.00442986
0.00442339
0.00441672
0.00440984
0.00440277
0.00439551
0.00438807
0.00438045
0.00437266
0.00436469
0.00435652
0.00434817
0.00433961
0.00433085
0.00432191
0.00431279
0.00430352
0.00429411
0.00428458
0.00427493
0.00426516
0.00425527
0.00424526
0.00423512
0.00422485
0.00421446
0.00420395
0.00419331
0.00418256
0.0041717
0.00416073
0.00414966
0.0041385
0.00412725
0.00411592
0.00410451
0.00409304
0.00408151
0.00406994
0.00405836
0.00404679
0.00403524
0.00402372
0.00401211
0.00400022
0.00398639
0.00396781
0.00393911
0.00388842
0.00378846
3.90441e-05
0.0002265
0.000479707
0.000670654
0.000822393
0.000947981
0.00105271
0.00114113
0.00121595
0.00127937
0.00133495
0.00138695
0.00143448
0.00148128
0.0015311
0.00158289
0.0016338
0.00168518
0.00173753
0.00179098
0.00184538
0.00190037
0.00195567
0.00201087
0.00206618
0.00212142
0.00217568
0.00222918
0.00228193
0.00233411
0.00238582
0.0024372
0.00248836
0.00253932
0.00259002
0.00264024
0.00268951
0.00273709
0.00278791
0.00284373
0.00290527
0.00297228
0.00304283
0.00311754
0.0031961
0.0032785
0.00336439
0.00345353
0.00354577
0.00364058
0.00373639
0.00383002
0.00392269
0.00402119
0.00412714
0.00424081
0.00436253
0.00449052
0.0046261
0.00476609
0.00490708
0.0050449
0.00517503
0.00529316
0.00539592
0.00548146
0.00554955
0.00560133
0.00563886
0.00566466
0.00568133
0.00569127
0.00569649
0.00569856
0.00569866
0.00569769
0.00569619
0.00569443
0.00569247
0.00569024
0.00568775
0.00568519
0.00568284
0.00568081
0.00567917
0.00567789
0.00567694
0.00567626
0.00567578
0.00567546
0.00567522
0.00567503
0.00567482
0.00567457
0.00567423
0.00567378
0.00567319
0.00567247
0.00567159
0.00567056
0.00566937
0.00566804
0.00566655
0.0056649
0.00566307
0.00566106
0.00565888
0.0056565
0.00565393
0.00565115
0.00564817
0.00564497
0.00564155
0.00563791
0.00563405
0.00562998
0.00562568
0.00562114
0.00561634
0.00561124
0.00560582
0.00560006
0.00559396
0.00558752
0.00558075
0.00557367
0.00556629
0.00555862
0.00555068
0.00554246
0.00553399
0.00552525
0.00551627
0.00550704
0.00549759
0.00548793
0.00547806
0.00546798
0.0054577
0.00544721
0.00543652
0.00542562
0.00541451
0.0054032
0.00539171
0.00538004
0.00536821
0.00535623
0.00534411
0.00533187
0.00531949
0.00530697
0.00529433
0.00528156
0.00526866
0.00525563
0.00524248
0.00522921
0.00521583
0.00520235
0.00518877
0.00517509
0.00516133
0.00514749
0.00513357
0.00511958
0.00510552
0.0050914
0.0050772
0.00506295
0.00504861
0.00503415
0.00501948
0.00500434
0.00498806
0.00496853
0.00494356
0.00490704
0.00484702
0.00474335
4.04303e-05
0.00024347
0.000523488
0.000740031
0.000916491
0.00106607
0.0011943
0.00130563
0.0014023
0.00148564
0.0015608
0.00162903
0.00169075
0.00174845
0.00180388
0.00185826
0.00191251
0.00196737
0.00202325
0.00208024
0.00213827
0.00219717
0.00225686
0.0023171
0.00237742
0.00243784
0.00249845
0.0025587
0.00261871
0.00267856
0.00273801
0.00279722
0.00285634
0.0029152
0.00297388
0.00303267
0.00309194
0.00315216
0.00321382
0.00328011
0.00335068
0.00342323
0.00349829
0.00357553
0.00365469
0.00373626
0.00382117
0.00391001
0.00400322
0.00410084
0.00420176
0.00430379
0.00441065
0.00452652
0.00465221
0.00478871
0.00493813
0.00509969
0.00527436
0.00546027
0.00565344
0.00584815
0.00603723
0.00621295
0.00636853
0.00649957
0.0066045
0.00668437
0.00674206
0.00678147
0.00680672
0.00682159
0.00682925
0.00683213
0.00683206
0.00683036
0.00682783
0.00682492
0.00682184
0.00681869
0.00681559
0.00681266
0.00681004
0.00680775
0.00680579
0.00680411
0.00680267
0.00680142
0.00680028
0.00679921
0.00679815
0.00679706
0.00679588
0.0067946
0.00679319
0.00679163
0.00678991
0.00678802
0.00678595
0.0067837
0.00678125
0.00677859
0.00677573
0.00677264
0.00676932
0.00676576
0.00676196
0.00675792
0.00675362
0.00674906
0.00674423
0.00673911
0.00673373
0.00672809
0.00672218
0.006716
0.00670953
0.00670276
0.00669567
0.00668822
0.00668041
0.00667223
0.00666368
0.00665476
0.0066455
0.0066359
0.00662599
0.00661579
0.00660529
0.00659451
0.00658346
0.00657212
0.00656052
0.00654867
0.0065366
0.00652431
0.00651182
0.00649912
0.00648621
0.0064731
0.0064598
0.0064463
0.00643261
0.00641875
0.00640471
0.00639051
0.00637616
0.00636168
0.00634706
0.00633232
0.00631745
0.00630246
0.00628735
0.00627213
0.00625679
0.00624134
0.0062258
0.00621015
0.00619441
0.00617859
0.00616269
0.00614672
0.00613067
0.00611455
0.00609837
0.00608211
0.00606578
0.00604936
0.00603284
0.00601619
0.00599936
0.00598223
0.00596461
0.00594608
0.00592565
0.00590098
0.00587062
0.00582678
0.00575822
0.00565228
4.12321e-05
0.000254184
0.00055202
0.000788805
0.000985777
0.00115541
0.00130269
0.00143155
0.00154409
0.00164361
0.00173351
0.00181425
0.00188794
0.00195661
0.00202188
0.00208509
0.00214726
0.00220917
0.00227131
0.00233394
0.00239702
0.00246096
0.00252537
0.00259026
0.00265562
0.00272161
0.0027882
0.00285442
0.00292058
0.0029865
0.00305141
0.00311591
0.00317989
0.00324352
0.00330726
0.00337135
0.00343603
0.00350166
0.00356855
0.00363756
0.00370639
0.0037748
0.00384432
0.00391499
0.00398722
0.00406199
0.00414029
0.00422244
0.00430933
0.00440154
0.00449979
0.00460697
0.00472875
0.00486411
0.00501052
0.00517083
0.00534764
0.0055435
0.00575983
0.00599797
0.00625495
0.00652391
0.00679375
0.00705148
0.00728464
0.0074836
0.00764393
0.00776603
0.00785388
0.00791344
0.00795115
0.007973
0.00798391
0.00798772
0.00798715
0.00798408
0.00797971
0.00797475
0.00796959
0.00796448
0.00795955
0.00795492
0.00795063
0.00794669
0.00794304
0.00793961
0.00793635
0.00793322
0.00793013
0.00792705
0.0079239
0.00792066
0.00791729
0.00791377
0.00791008
0.00790621
0.00790215
0.00789789
0.00789342
0.00788873
0.00788381
0.00787864
0.00787323
0.00786756
0.0078616
0.00785537
0.00784886
0.00784207
0.007835
0.00782762
0.00781993
0.00781193
0.00780365
0.0077951
0.00778625
0.00777711
0.00776763
0.00775781
0.00774762
0.00773706
0.00772611
0.00771479
0.00770311
0.00769107
0.00767869
0.007666
0.00765302
0.00763976
0.00762622
0.00761242
0.00759832
0.00758395
0.00756933
0.00755448
0.00753944
0.00752422
0.00750881
0.00749321
0.00747742
0.00746146
0.00744534
0.00742906
0.00741262
0.00739605
0.00737933
0.00736249
0.00734552
0.00732844
0.00731125
0.00729396
0.00727657
0.00725908
0.0072415
0.00722384
0.00720609
0.00718827
0.00717037
0.00715241
0.00713439
0.00711631
0.00709817
0.00707999
0.00706175
0.00704346
0.00702511
0.00700669
0.00698819
0.00696958
0.00695083
0.00693187
0.00691261
0.00689288
0.00687238
0.00685055
0.00682627
0.00679712
0.00676171
0.00671112
0.00663588
0.0065293
4.13911e-05
0.000258661
0.000567685
0.000820366
0.0010344
0.00121989
0.00138189
0.00152484
0.00165029
0.00176335
0.00186527
0.00195781
0.00204311
0.00212307
0.00219918
0.00227261
0.00234424
0.00241474
0.00248441
0.00255361
0.00262283
0.00269241
0.00276238
0.00283274
0.00290346
0.00297462
0.00304605
0.00311674
0.00318693
0.00325586
0.00332346
0.00338961
0.00345412
0.00351706
0.0035786
0.00363908
0.0036988
0.00375785
0.00381615
0.00387394
0.00392943
0.00398346
0.00403823
0.00409418
0.00415182
0.0042135
0.00427975
0.00435178
0.00443114
0.00451939
0.00461868
0.00473119
0.00485781
0.00500048
0.00516244
0.00534504
0.00555022
0.00578129
0.00604259
0.00633997
0.00667281
0.00703499
0.00741237
0.00778442
0.00812829
0.00842583
0.0086674
0.00885165
0.00898383
0.00907289
0.00912881
0.0091608
0.00917637
0.0091813
0.00917975
0.00917443
0.0091671
0.00915884
0.00915028
0.00914179
0.00913355
0.00912566
0.00911816
0.009111
0.00910415
0.00909749
0.00909099
0.00908456
0.00907814
0.00907165
0.00906504
0.00905826
0.00905131
0.00904419
0.00903688
0.00902939
0.00902169
0.00901379
0.00900564
0.00899725
0.00898862
0.00897974
0.00897061
0.00896119
0.00895145
0.0089414
0.00893106
0.00892044
0.00890952
0.00889827
0.00888671
0.00887486
0.00886274
0.00885035
0.00883765
0.00882462
0.00881123
0.00879746
0.00878332
0.0087688
0.00875392
0.00873869
0.00872314
0.00870726
0.0086911
0.00867466
0.00865797
0.00864106
0.00862391
0.00860651
0.00858882
0.00857086
0.00855269
0.00853436
0.0085159
0.00849731
0.00847856
0.00845964
0.00844058
0.0084214
0.00840211
0.00838271
0.00836322
0.00834363
0.00832394
0.00830417
0.00828432
0.00826439
0.00824439
0.00822433
0.00820421
0.00818403
0.00816379
0.00814351
0.00812319
0.00810283
0.00808244
0.00806201
0.00804156
0.00802109
0.00800059
0.00798006
0.0079595
0.0079389
0.00791825
0.00789753
0.00787672
0.00785578
0.00783465
0.00781324
0.00779141
0.00776893
0.00774543
0.00772028
0.00769246
0.00765936
0.00761865
0.00756186
0.0074823
0.00737635
4.13176e-05
0.000259294
0.000576748
0.000841159
0.00106757
0.00126579
0.00143942
0.00159281
0.00173059
0.00185531
0.00196813
0.00207171
0.00216802
0.00225877
0.0023452
0.00242833
0.00250893
0.00258766
0.00266483
0.00274076
0.00281566
0.00288976
0.00296336
0.00303681
0.00311032
0.00318422
0.00325778
0.00332995
0.00340038
0.00346842
0.00353377
0.00359604
0.00365519
0.00371142
0.00376501
0.0038162
0.00386508
0.0039116
0.00395592
0.00399738
0.00403544
0.00407254
0.00410934
0.00414685
0.00418655
0.00422953
0.0042772
0.00433143
0.00439445
0.00446891
0.00455728
0.00466211
0.00478591
0.00493105
0.00509929
0.00529382
0.00551537
0.00577017
0.00606819
0.00642204
0.00684266
0.00732455
0.00784578
0.00837011
0.00886714
0.00930441
0.00966233
0.00993569
0.0101311
0.0102619
0.0103433
0.0103894
0.0104116
0.0104184
0.0104159
0.0104078
0.0103968
0.0103844
0.0103715
0.0103586
0.0103459
0.0103335
0.0103215
0.0103099
0.0102984
0.0102871
0.0102759
0.0102648
0.0102536
0.0102423
0.0102307
0.0102189
0.010207
0.0101948
0.0101824
0.0101699
0.0101572
0.0101443
0.0101311
0.0101177
0.0101042
0.0100904
0.0100763
0.010062
0.0100473
0.0100323
0.010017
0.0100014
0.00998561
0.00996947
0.00995305
0.00993643
0.00991962
0.00990252
0.00988509
0.0098673
0.00984912
0.00983055
0.00981161
0.00979233
0.00977276
0.00975289
0.00973275
0.00971235
0.00969172
0.00967087
0.00964985
0.0096287
0.00960736
0.00958576
0.00956385
0.00954171
0.00951943
0.0094971
0.00947474
0.0094523
0.00942972
0.009407
0.00938419
0.00936133
0.00933845
0.00931553
0.00929257
0.00926958
0.00924655
0.00922348
0.00920039
0.00917728
0.00915414
0.00913098
0.00910782
0.00908464
0.00906146
0.00903828
0.0090151
0.00899192
0.00896876
0.0089456
0.00892245
0.0088993
0.00887616
0.00885301
0.00882985
0.00880667
0.00878345
0.00876017
0.00873678
0.00871324
0.00868946
0.00866534
0.00864069
0.00861525
0.00858859
0.00856006
0.00852861
0.00849175
0.00844597
0.008384
0.00830192
0.0081979
4.10025e-05
0.000258234
0.000577859
0.000846017
0.00108527
0.00129396
0.00147763
0.0016413
0.00178855
0.00192268
0.00204577
0.00215989
0.00226667
0.00236765
0.00246393
0.00255626
0.00264512
0.00273077
0.00281374
0.0028943
0.0029729
0.00305004
0.00312625
0.00320192
0.00327731
0.00335239
0.00342582
0.00349698
0.00356497
0.00362902
0.00368864
0.00374346
0.00379351
0.00383908
0.00388044
0.00391778
0.00395116
0.00398065
0.00400608
0.00402719
0.00404544
0.00406218
0.00407786
0.0040936
0.00411079
0.00413097
0.00415572
0.00418692
0.00422671
0.00427755
0.00434228
0.0044242
0.00452704
0.00465483
0.00481166
0.00500146
0.00522974
0.00549989
0.00582299
0.00622463
0.00672589
0.00733271
0.00802795
0.00875915
0.00946019
0.0100888
0.0106079
0.0110047
0.011287
0.0114744
0.0115899
0.0116547
0.0116856
0.0116949
0.0116912
0.0116798
0.0116643
0.0116467
0.0116284
0.0116098
0.0115915
0.0115734
0.0115557
0.0115383
0.0115211
0.0115039
0.0114869
0.0114698
0.0114527
0.0114353
0.0114175
0.0113994
0.0113811
0.0113626
0.0113439
0.011325
0.011306
0.0112868
0.0112674
0.0112478
0.0112281
0.0112082
0.0111882
0.011168
0.0111471
0.0111258
0.0111046
0.0110831
0.0110614
0.0110394
0.0110173
0.0109952
0.0109731
0.0109504
0.0109274
0.0109039
0.01088
0.0108558
0.0108313
0.0108066
0.0107817
0.0107565
0.0107312
0.0107056
0.0106798
0.010654
0.010628
0.0106021
0.010576
0.0105496
0.0105229
0.0104959
0.010469
0.0104422
0.0104155
0.0103887
0.0103618
0.0103347
0.0103076
0.0102806
0.0102537
0.0102268
0.0102
0.0101732
0.0101464
0.0101196
0.0100929
0.0100662
0.0100396
0.0100129
0.00998638
0.00995985
0.00993338
0.00990695
0.00988057
0.00985425
0.00982797
0.00980174
0.00977555
0.00974939
0.00972328
0.00969718
0.0096711
0.00964502
0.00961891
0.00959275
0.00956648
0.00954004
0.00951333
0.00948623
0.00945853
0.00942993
0.00939999
0.00936809
0.00933301
0.00929252
0.00924197
0.00917608
0.00909267
0.00899088
4.03967e-05
0.00025688
0.000574935
0.000842262
0.00109175
0.00131019
0.00150383
0.00167706
0.00183408
0.00197793
0.00211041
0.00223386
0.00234972
0.00245917
0.00256288
0.0026615
0.00275553
0.00284543
0.00293205
0.00301549
0.0030963
0.00317508
0.00325235
0.00332844
0.00340356
0.00347711
0.00354786
0.00361516
0.00367752
0.00373396
0.00378384
0.00382684
0.00386312
0.00389311
0.00391718
0.00393569
0.00394892
0.00395712
0.00396045
0.00395879
0.00395328
0.00394533
0.00393623
0.00392732
0.00391992
0.00391542
0.00391522
0.00392085
0.00393408
0.00395699
0.00399212
0.00404258
0.00411228
0.00420625
0.00433069
0.00449272
0.00469985
0.00495906
0.00527627
0.00570274
0.00628081
0.00702483
0.00791907
0.00889475
0.00986383
0.010745
0.0114793
0.0120409
0.0124381
0.0126991
0.0128583
0.0129465
0.012988
0.0130003
0.0129951
0.0129797
0.0129588
0.0129351
0.0129103
0.0128851
0.0128599
0.0128351
0.0128106
0.0127864
0.0127621
0.012738
0.0127139
0.0126898
0.0126658
0.0126413
0.0126159
0.0125901
0.0125642
0.0125382
0.012512
0.0124857
0.0124592
0.0124327
0.012406
0.0123792
0.0123523
0.0123254
0.0122982
0.0122708
0.0122431
0.0122153
0.0121873
0.0121591
0.0121307
0.0121022
0.0120737
0.0120451
0.0120163
0.0119873
0.011958
0.0119284
0.0118985
0.0118683
0.0118379
0.0118073
0.0117765
0.0117455
0.0117143
0.011683
0.0116516
0.0116202
0.0115888
0.0115578
0.0115267
0.0114949
0.0114626
0.0114302
0.0113982
0.0113666
0.0113353
0.0113037
0.0112719