/*--------------------------------*- C++ -*----------------------------------*\
| =========                 |                                                 |
| \\      /  F ield         | OpenFOAM: The Open Source CFD Toolbox           |
|  \\    /   O peration     | Version:  v1906                                 |
|   \\  /    A nd           | Web:      www.OpenFOAM.com                      |
|    \\/     M anipulation  |                                                 |
\*---------------------------------------------------------------------------*/
FoamFile
{
    version     2.0;
    format      ascii;
    class       volScalarField;
    location    "400";
    object      p;
}
// * * * * * * * * * * * * * * * * * * * * * * * * * * * * * * * * * * * * * //

dimensions      [0 2 -2 0 0 0 0];


internalField   nonuniform List<scalar> 
12225
(
3.51517
2.31338
2.26485
2.26213
2.1296
1.99544
1.89422
1.80564
1.72136
1.643
1.57168
1.5028
1.43258
1.35915
1.28173
1.19265
1.07958
0.912257
1.75452
1.2403
1.08418
1.10082
1.04858
0.98762
0.944005
0.900644
0.852669
0.803887
0.756166
0.707697
0.65507
0.598736
0.536801
0.466379
0.384554
0.264684
2.33952
1.55964
1.42183
1.45588
1.42606
1.38058
1.34411
1.30662
1.26523
1.2232
1.18171
1.13974
1.09463
1.04716
0.995181
0.941057
0.883677
0.853578
1.68419
1.2182
1.00215
0.930449
0.841064
0.761218
0.704185
0.65539
0.608049
0.562571
0.518714
0.47489
0.429127
0.3813
0.331223
0.279862
0.231145
0.18322
1.87493
1.41684
1.20326
1.1449
1.08563
1.03439
0.997318
0.963286
0.928391
0.893636
0.859376
0.824829
0.789182
0.752233
0.716069
0.680603
0.660363
0.660077
1.49728
1.1959
0.991436
0.890899
0.790308
0.701751
0.630991
0.569292
0.512311
0.459324
0.409508
0.36148
0.314293
0.267592
0.222984
0.180751
0.147217
0.116377
1.56235
1.31531
1.11695
1.02076
0.936852
0.869419
0.817921
0.773731
0.732942
0.694768
0.658669
0.623879
0.590213
0.557723
0.528838
0.504349
0.495627
0.505674
1.32104
1.13786
0.964598
0.859104
0.757694
0.668958
0.593544
0.526128
0.464125
0.406631
0.352877
0.301988
0.253595
0.207638
0.165416
0.127429
0.0955324
0.0660345
1.33318
1.20686
1.04766
0.94776
0.856786
0.781451
0.719644
0.666124
0.618149
0.574454
0.53423
0.496827
0.462228
0.430595
0.403771
0.382508
0.373876
0.378386
1.17093
1.06169
0.923682
0.825781
0.729501
0.64388
0.567904
0.498689
0.434778
0.375359
0.319841
0.267719
0.218838
0.173234
0.131384
0.0935282
0.0584511
0.0250997
1.16013
1.09577
0.976921
0.887544
0.800329
0.724294
0.657975
0.598952
0.545756
0.497375
0.453145
0.412586
0.375682
0.342495
0.314089
0.290713
0.276112
0.268967
1.05639
0.990176
0.883455
0.797917
0.710634
0.630805
0.557611
0.489904
0.427003
0.368341
0.313514
0.262213
0.214298
0.169745
0.128473
0.0905335
0.0539329
0.0192664
1.03811
1.00122
0.91241
0.835565
0.756227
0.683275
0.61661
0.55556
0.499603
0.448175
0.40086
0.357333
0.317519
0.281349
0.249218
0.221031
0.198083
0.178995
0.951968
0.908475
0.827471
0.754116
0.676876
0.602893
0.532806
0.466571
0.404208
0.345541
0.290382
0.238559
0.18988
0.144206
0.101128
0.0605571
0.0210389
-0.0162978
0.927477
0.90537
0.843193
0.77999
0.711619
0.644334
0.579917
0.518876
0.461506
0.40778
0.35757
0.310723
0.267086
0.226518
0.188809
0.153759
0.120707
0.0893173
0.857611
0.830473
0.773344
0.713865
0.649613
0.584815
0.521551
0.460571
0.402439
0.347382
0.295465
0.246617
0.200751
0.157617
0.117145
0.0788323
0.0432055
0.00878711
0.828836
0.809454
0.76231
0.707739
0.646764
0.582813
0.518486
0.454963
0.393012
0.333059
0.275248
0.219641
0.16607
0.114548
0.0644434
0.016243
-0.0323048
-0.0778627
0.814215
0.799813
0.761493
0.71599
0.666006
0.614144
0.562996
0.513835
0.46746
0.424319
0.384619
0.348302
0.315371
0.285318
0.258446
0.233112
0.211643
0.187857
0.768462
0.740181
0.685198
0.621981
0.551695
0.47636
0.398562
0.319547
0.240107
0.160854
0.0821226
0.00424509
-0.072695
-0.14817
-0.222447
-0.293901
-0.364408
-0.428108
0.899124
0.891861
0.856281
0.813915
0.769363
0.725277
0.684355
0.647604
0.615442
0.58799
0.565231
0.54691
0.532918
0.52258
0.51603
0.511111
0.509671
0.503673
0.867563
0.821582
0.745071
0.667721
0.586249
0.502479
0.419004
0.336471
0.255137
0.175187
0.0965262
0.0189805
-0.0579504
-0.13444
-0.211626
-0.288495
-0.368378
-0.443407
1.05007
1.03071
0.964907
0.904037
0.847521
0.796715
0.753608
0.71746
0.687232
0.662239
0.642035
0.626304
0.615149
0.608602
0.607934
0.612594
0.627392
0.644522
1.02043
0.938235
0.822134
0.72309
0.625476
0.529573
0.438745
0.352656
0.27049
0.1919
0.116458
0.0435469
-0.0277777
-0.0984985
-0.170931
-0.246374
-0.332399
-0.425044
1.28233
1.20737
1.08292
1.00126
0.937416
0.885353
0.845725
0.814682
0.788767
0.766588
0.74759
0.731415
0.718151
0.708164
0.703385
0.705467
0.724212
0.760189
1.21744
1.05823
0.886309
0.76748
0.657179
0.552159
0.459682
0.377485
0.302059
0.2322
0.167169
0.106007
0.0476774
-0.0087114
-0.0652722
-0.124344
-0.197545
-0.292577
1.63059
1.38781
1.19925
1.12779
1.08188
1.04299
1.01566
0.994017
0.972768
0.951617
0.931302
0.911938
0.893621
0.876592
0.861972
0.851163
0.854951
0.886073
1.43842
1.13673
0.904795
0.787705
0.680814
0.582203
0.50687
0.446143
0.391426
0.340823
0.293904
0.249774
0.2076
0.16708
0.127486
0.0879858
0.0392038
-0.0354784
2.17457
1.56913
1.40345
1.42175
1.41378
1.38191
1.35497
1.32934
1.29957
1.26802
1.23697
1.20677
1.17744
1.14919
1.12237
1.09684
1.07876
1.08353
1.54962
1.16257
0.937606
0.923292
0.880924
0.829663
0.793732
0.761013
0.72423
0.685329
0.646674
0.608603
0.571093
0.534417
0.498908
0.464546
0.42674
0.370967
3.42016
2.29897
2.22737
2.24571
2.14432
2.02315
1.92843
1.84766
1.77059
1.69801
1.63126
1.56965
1.51224
1.4588
1.4093
1.3641
1.3248
1.29308
-0.925265
-1.03368
-1.13437
-1.24241
-1.35972
-1.45725
-1.50361
-1.49647
-1.45795
-1.40309
-1.33897
-1.27494
-1.22406
-1.18871
-1.1652
-1.15309
-1.16129
-1.20288
-1.28229
-1.38899
-1.51476
-1.65616
-1.81079
-1.9743
-2.14294
-2.3129
-2.48122
-2.64565
-2.80431
-2.95613
-3.09959
-3.23408
-3.35776
-3.47009
-3.56866
-3.65247
-3.71785
-3.76353
-3.78711
-3.78984
-3.76848
-3.71736
-3.62523
-3.49027
-3.31354
-3.09892
-2.8467
-2.5595
-2.23733
-1.88294
-1.49762
-1.08556
-0.650076
-0.195483
0.274367
0.752674
1.23185
1.70821
2.17693
2.63362
3.07458
3.49837
3.9025
4.28571
4.64584
4.9839
5.29964
5.59491
5.87035
6.12815
6.369
6.59508
6.8088
7.01456
7.21408
7.40641
7.59055
7.76733
7.93724
8.10116
8.25965
8.41346
8.56298
8.70876
8.85105
8.99026
9.12657
9.26026
9.39147
9.5204
9.64717
9.77185
9.89454
10.0153
10.1343
10.2515
10.3671
10.4811
10.5936
10.7046
10.8142
10.9224
11.0295
11.1353
11.2399
11.3435
11.4461
11.5477
11.6484
11.7483
11.8474
11.9458
12.0435
12.1406
12.2371
12.3331
12.4287
12.5238
12.6185
12.7128
12.8068
12.9006
12.9941
13.0873
13.1803
13.2731
13.3658
13.4583
13.5506
13.6428
13.7349
13.8269
13.9187
14.0105
14.1021
14.1937
14.2851
14.3765
14.4677
14.5588
14.6498
14.7407
14.8314
14.9218
15.0121
15.1023
15.1922
15.2817
15.3709
15.4598
15.5483
15.6364
15.724
15.811
15.8975
15.9833
16.0683
16.1526
16.236
16.3185
16.4
16.4805
16.5598
16.638
16.715
16.7908
16.8654
16.9388
17.0112
17.0829
17.1542
17.2255
17.2979
17.3722
17.4521
17.5388
17.6492
17.7854
18.0121
18.2699
-1.16082
-1.40958
-1.50183
-1.6373
-1.75722
-1.85684
-1.89891
-1.87889
-1.79829
-1.68923
-1.5736
-1.46595
-1.38084
-1.32671
-1.30589
-1.31304
-1.35072
-1.42697
-1.54123
-1.68804
-1.86225
-2.05716
-2.26574
-2.48121
-2.69861
-2.91439
-3.12651
-3.33387
-3.53576
-3.73181
-3.92114
-4.103
-4.27557
-4.4373
-4.58529
-4.71733
-4.82985
-4.92054
-4.98503
-5.01936
-5.01842
-4.98384
-4.92088
-4.83327
-4.71858
-4.57367
-4.39401
-4.17807
-3.92424
-3.63295
-3.30474
-2.94196
-2.5472
-2.12331
-1.67362
-1.20391
-0.720741
-0.228758
0.267146
0.762356
1.25226
1.73176
2.19423
2.63662
3.05794
3.4578
3.83565
4.19222
4.528
4.84467
5.14301
5.42426
5.68982
5.93693
6.16181
6.37088
6.56974
6.76028
6.94364
7.12118
7.29346
7.46109
7.6244
7.78377
7.93941
8.09163
8.24062
8.3866
8.52975
8.67025
8.80825
8.94385
9.07716
9.20831
9.33739
9.4645
9.58974
9.71318
9.83491
9.955
10.0735
10.1906
10.3061
10.4204
10.5333
10.6449
10.7554
10.8648
10.973
11.0803
11.1866
11.292
11.3966
11.5004
11.6034
11.7058
11.8074
11.9085
12.009
12.109
12.2085
12.3075
12.4061
12.5044
12.6022
12.6997
12.7968
12.8937
12.9902
13.0865
13.1825
13.2783
13.3738
13.4691
13.5642
13.6591
13.7537
13.8481
13.9424
14.0364
14.1301
14.2237
14.317
14.4101
14.5028
14.5954
14.6876
14.7794
14.8708
14.9618
15.0524
15.1425
15.2321
15.3211
15.4094
15.4971
15.584
15.6701
15.7554
15.8397
15.923
16.0052
16.0864
16.1664
16.2452
16.3228
16.3993
16.4747
16.5491
16.6229
16.6964
16.7701
16.8452
16.9223
17.0052
17.094
17.2005
17.3168
17.5074
17.7096
-1.20621
-1.49318
-1.56471
-1.72876
-1.79835
-1.91612
-1.95329
-1.9592
-1.90498
-1.832
-1.74935
-1.67637
-1.623
-1.59498
-1.59482
-1.61995
-1.67081
-1.74856
-1.85089
-1.97282
-2.10889
-2.25351
-2.40267
-2.55346
-2.70457
-2.85559
-3.00669
-3.15816
-3.31001
-3.46208
-3.61345
-3.76319
-3.90938
-4.05043
-4.18362
-4.30677
-4.41675
-4.51163
-4.58833
-4.64394
-4.67383
-4.67579
-4.648
-4.58768
-4.48904
-4.35036
-4.1721
-3.95507
-3.69938
-3.40592
-3.07566
-2.71077
-2.31434
-1.88992
-1.44039
-0.969019
-0.483209
0.0101884
0.505702
0.998202
1.48249
1.95356
2.40659
2.83894
3.24903
3.63631
4.0006
4.34262
4.66314
4.96361
5.2447
5.50732
5.7549
5.99123
6.2165
6.43047
6.63433
6.83031
7.01925
7.20167
7.37836
7.5499
7.71659
7.87884
8.03697
8.19132
8.34216
8.48974
8.63428
8.77598
8.91502
9.05153
9.18564
9.31749
9.44718
9.57483
9.70053
9.82437
9.94644
10.0668
10.1856
10.3028
10.4186
10.5329
10.646
10.7577
10.8683
10.9777
11.0861
11.1934
11.2998
11.4053
11.5099
11.6137
11.7168
11.8192
11.9209
12.022
12.1225
12.2225
12.322
12.4211
12.5197
12.6178
12.7156
12.8131
12.9102
13.007
13.1035
13.1997
13.2957
13.3914
13.4869
13.5821
13.6771
13.7719
13.8665
13.9609
14.055
14.1489
14.2426
14.3361
14.4293
14.5223
14.615
14.7074
14.7995
14.8912
14.9826
15.0735
15.1641
15.2541
15.3436
15.4326
15.5209
15.6085
15.6953
15.7814
15.8665
15.9508
16.034
16.1161
16.1972
16.2771
16.3558
16.4333
16.5097
16.5851
16.6595
16.7331
16.8066
16.8799
16.9547
17.0309
17.1128
17.198
17.3017
17.4052
17.5699
17.6983
-0.964127
-1.34681
-1.44189
-1.63948
-1.72933
-1.85263
-1.9194
-1.95814
-1.95223
-1.92676
-1.89035
-1.85837
-1.83896
-1.83964
-1.8651
-1.91652
-1.99262
-2.08995
-2.20492
-2.33364
-2.47344
-2.62234
-2.77945
-2.94423
-3.1165
-3.29603
-3.48235
-3.67478
-3.87215
-4.07307
-4.27546
-4.47714
-4.67514
-4.86659
-5.04777
-5.21534
-5.36516
-5.49408
-5.59845
-5.67565
-5.72268
-5.73817
-5.72004
-5.66661
-5.57637
-5.44897
-5.28218
-5.07497
-4.82635
-4.53638
-4.20548
-3.83505
-3.42752
-2.98684
-2.51762
-2.02338
-1.50912
-0.983296
-0.453479
0.0743867
0.593556
1.09803
1.58284
2.04498
2.48267
2.89534
3.28306
3.64666
3.98728
4.3066
4.60611
4.88719
5.15154
5.40057
5.63549
5.85824
6.07024
6.27305
6.46793
6.65584
6.83747
7.01361
7.18488
7.35175
7.51456
7.67364
7.82923
7.98158
8.13088
8.27731
8.42103
8.56217
8.70085
8.83718
8.97128
9.10324
9.23317
9.36114
9.48724
9.61156
9.73417
9.85515
9.97456
10.0925
10.209
10.3242
10.438
10.5507
10.6622
10.7726
10.8819
10.9903
11.0977
11.2043
11.31
11.415
11.5192
11.6228
11.7257
11.828
11.9298
12.031
12.1317
12.232
12.3318
12.4312
12.5302
12.6288
12.7271
12.8251
12.9227
13.0201
13.1172
13.214
13.3106
13.4069
13.5029
13.5987
13.6943
13.7896
13.8847
13.9796
14.0742
14.1685
14.2625
14.3562
14.4495
14.5426
14.6352
14.7274
14.8192
14.9104
15.0012
15.0913
15.1809
15.2697
15.3578
15.4451
15.5316
15.6171
15.7016
15.7851
15.8674
15.9486
16.0287
16.1075
16.1852
16.2617
16.3374
16.4122
16.4868
16.5612
16.637
16.7137
16.7961
16.8796
16.9808
17.0752
17.227
17.3123
-0.559162
-1.04606
-1.18385
-1.41585
-1.5087
-1.64207
-1.72266
-1.79834
-1.84495
-1.87998
-1.90222
-1.92346
-1.9508
-1.98972
-2.04214
-2.10795
-2.18613
-2.27493
-2.37332
-2.48028
-2.59554
-2.7187
-2.84975
-2.98853
-3.13507
-3.28929
-3.45099
-3.61975
-3.79471
-3.97472
-4.15796
-4.34247
-4.52547
-4.70436
-4.8757
-5.03652
-5.18303
-5.31223
-5.42021
-5.50397
-5.55989
-5.58572
-5.57854
-5.53654
-5.45753
-5.3398
-5.18123
-4.98075
-4.73721
-4.45041
-4.12071
-3.74928
-3.33807
-2.89022
-2.41026
-1.90276
-1.37285
-0.82924
-0.280955
0.264619
0.799462
1.31674
1.81117
2.27946
2.71995
3.13235
3.51727
3.87606
4.21036
4.52224
4.81368
5.08687
5.34431
5.58814
5.81959
6.03983
6.25003
6.45168
6.64575
6.83307
7.01438
7.19032
7.36133
7.52786
7.69027
7.84888
8.00395
8.15573
8.30443
8.45022
8.59327
8.73371
8.87167
9.00727
9.14061
9.27181
9.40096
9.52815
9.65346
9.77698
9.89879
10.019
10.1376
10.2548
10.3705
10.4849
10.5981
10.71
10.8208
10.9305
11.0392
11.1469
11.2538
11.3597
11.4649
11.5693
11.673
11.7761
11.8785
11.9803
12.0816
12.1823
12.2826
12.3823
12.4817
12.5806
12.6792
12.7774
12.8753
12.9728
13.0701
13.167
13.2637
13.3601
13.4562
13.5521
13.6477
13.7431
13.8382
13.9331
14.0277
14.1221
14.2162
14.3101
14.4036
14.4969
14.5897
14.6823
14.7744
14.8662
14.9574
15.0482
15.1385
15.2281
15.3172
15.4055
15.4931
15.5798
15.6657
15.7506
15.8345
15.9174
15.9992
16.0798
16.1592
16.2375
16.3146
16.3906
16.4656
16.5397
16.6136
16.687
16.7616
16.8364
16.9165
16.9956
17.0911
17.1728
17.3
17.3359
-0.233074
-0.775935
-0.959418
-1.21681
-1.32161
-1.47124
-1.56893
-1.67237
-1.75266
-1.82927
-1.89872
-1.9687
-2.03779
-2.11004
-2.18795
-2.27246
-2.36414
-2.46357
-2.57159
-2.68869
-2.81562
-2.95282
-3.10085
-3.25998
-3.43043
-3.6121
-3.80463
-4.00727
-4.21876
-4.43746
-4.66099
-4.88675
-5.11135
-5.33141
-5.54283
-5.74185
-5.92405
-6.08584
-6.22314
-6.3329
-6.41163
-6.45688
-6.46515
-6.43362
-6.35994
-6.24388
-6.08398
-5.87973
-5.62977
-5.33333
-4.99048
-4.60159
-4.16852
-3.69436
-3.18351
-2.6411
-2.07284
-1.48802
-0.897306
-0.310209
0.263345
0.814913
1.33843
1.83063
2.2904
2.71824
3.11556
3.48427
3.8266
4.14508
4.44202
4.71966
4.98017
5.2257
5.45803
5.67887
5.88957
6.09149
6.28573
6.47328
6.65489
6.83128
7.00297
7.17044
7.33402
7.49403
7.65068
7.8042
7.95476
8.10251
8.24759
8.39011
8.53017
8.66787
8.80331
8.93658
9.06776
9.19695
9.32423
9.44966
9.57334
9.69534
9.81575
9.93464
10.0521
10.1681
10.2829
10.3964
10.5087
10.6198
10.7299
10.839
10.9472
11.0545
11.1609
11.2666
11.3715
11.4757
11.5792
11.6821
11.7845
11.8863
11.9876
12.0884
12.1887
12.2886
12.3882
12.4873
12.5861
12.6846
12.7827
12.8806
12.9782
13.0755
13.1725
13.2693
13.3659
13.4622
13.5583
13.6541
13.7497
13.845
13.9401
14.0349
14.1294
14.2236
14.3175
14.4111
14.5042
14.597
14.6893
14.7811
14.8724
14.9631
15.0532
15.1426
15.2313
15.3192
15.4063
15.4924
15.5775
15.6615
15.7444
15.8262
15.9067
15.986
16.064
16.1409
16.2166
16.2914
16.3657
16.4392
16.5138
16.5875
16.666
16.7407
16.8309
16.8991
17.0149
17.0274
-0.0277077
-0.622328
-0.812357
-1.08954
-1.19591
-1.36266
-1.4732
-1.60031
-1.70513
-1.81093
-1.90658
-2.00086
-2.09271
-2.18541
-2.27691
-2.36974
-2.46656
-2.5687
-2.67736
-2.79357
-2.91845
-3.05265
-3.19699
-3.35195
-3.5181
-3.69566
-3.88465
-4.0846
-4.29449
-4.51273
-4.73694
-4.9644
-5.19153
-5.41484
-5.63009
-5.83352
-6.02073
-6.18822
-6.33187
-6.44882
-6.53562
-6.58999
-6.60894
-6.59104
-6.53445
-6.43661
-6.29448
-6.10609
-5.86882
-5.58137
-5.24268
-4.85249
-4.41181
-3.92325
-3.39041
-2.81837
-2.21418
-1.58802
-0.952875
-0.321415
0.293349
0.880124
1.43157
1.94434
2.41804
2.8543
3.25574
3.62548
3.96697
4.2835
4.57785
4.8527
5.11059
5.3537
5.58388
5.80294
6.01233
6.21335
6.40704
6.59432
6.77589
6.95238
7.12426
7.29195
7.45576
7.61596
7.7728
7.92647
8.07714
8.22497
8.37007
8.51256
8.65255
8.79013
8.92542
9.05851
9.18949
9.31845
9.44547
9.57063
9.69404
9.81577
9.93591
10.0545
10.1717
10.2875
10.402
10.5153
10.6274
10.7384
10.8483
10.9572
11.0652
11.1724
11.2787
11.3842
11.489
11.5931
11.6965
11.7993
11.9016
12.0032
12.1044
12.2051
12.3053
12.4051
12.5044
12.6034
12.7021
12.8003
12.8983
12.9959
13.0933
13.1903
13.2871
13.3836
13.4798
13.5757
13.6714
13.7669
13.8621
13.957
14.0516
14.146
14.24
14.3338
14.4272
14.5202
14.6129
14.7051
14.7969
14.8882
14.979
15.0692
15.1588
15.2477
15.3359
15.4232
15.5097
15.5952
15.6797
15.7632
15.8456
15.9268
16.0068
16.0856
16.1632
16.2396
16.3149
16.3891
16.4628
16.5355
16.6091
16.6813
16.7579
16.8292
16.9149
16.9738
17.0766
17.0524
0.0412983
-0.598278
-0.765635
-1.05847
-1.15804
-1.33825
-1.45127
-1.59122
-1.70439
-1.82365
-1.93074
-2.03819
-2.14046
-2.2431
-2.34583
-2.45132
-2.55884
-2.67067
-2.78927
-2.91601
-3.05204
-3.19849
-3.35678
-3.52804
-3.71362
-3.91441
-4.13099
-4.36315
-4.60984
-4.86901
-5.13754
-5.41164
-5.68661
-5.95771
-6.2196
-6.46753
-6.69637
-6.90208
-7.08039
-7.22837
-7.34263
-7.42079
-7.46031
-7.46026
-7.41696
-7.32756
-7.19005
-7.00457
-6.76835
-6.47928
-6.13497
-5.73349
-5.27345
-4.75604
-4.1836
-3.56135
-2.8973
-2.20361
-1.49715
-0.795045
-0.114983
0.526519
1.11928
1.6605
2.15268
2.60088
3.01021
3.385
3.7291
4.04623
4.33977
4.6128
4.86814
5.10845
5.33595
5.55238
5.75931
5.95815
6.14998
6.33575
6.51617
6.69187
6.8633
7.03085
7.19479
7.35532
7.51266
7.66698
7.81843
7.96712
8.11315
8.2566
8.39756
8.53612
8.67238
8.80642
8.93834
9.06821
9.19611
9.32214
9.4464
9.56896
9.68991
9.80932
9.92726
10.0438
10.159
10.273
10.3857
10.4973
10.6079
10.7174
10.826
10.9337
11.0406
11.1467
11.252
11.3566
11.4606
11.5639
11.6667
11.7688
11.8705
11.9717
12.0724
12.1728
12.2727
12.3722
12.4714
12.5702
12.6688
12.767
12.865
12.9626
13.0601
13.1572
13.2541
13.3508
13.4472
13.5434
13.6394
13.7351
13.8306
13.9258
14.0207
14.1153
14.2095
14.3035
14.397
14.4902
14.5829
14.6752
14.7669
14.8581
14.9486
15.0385
15.1276
15.216
15.3035
15.3901
15.4756
15.56
15.6433
15.7254
15.8062
15.8856
15.9637
16.0405
16.116
16.1901
16.2634
16.3352
16.4073
16.4769
16.5499
16.6148
16.6926
16.7383
16.8271
16.7947
-0.000947778
-0.636301
-0.775719
-1.07609
-1.16422
-1.35265
-1.45883
-1.60355
-1.714
-1.8371
-1.94486
-2.0569
-2.16289
-2.27148
-2.37902
-2.48973
-2.60367
-2.7231
-2.84769
-2.97942
-3.12064
-3.27258
-3.43758
-3.6176
-3.81495
-4.03122
-4.26752
-4.52354
-4.79759
-5.08636
-5.38508
-5.6882
-5.98944
-6.28295
-6.56283
-6.82442
-7.06312
-7.27583
-7.45934
-7.61205
-7.73188
-7.8176
-7.86858
-7.8866
-7.86884
-7.8103
-7.70754
-7.55918
-7.36104
-7.10935
-6.79971
-6.42712
-5.98606
-5.47183
-4.88124
-4.21562
-3.48324
-2.69992
-1.89032
-1.08004
-0.297036
0.429665
1.08466
1.66864
2.18992
2.6572
3.07797
3.45876
3.80524
4.12243
4.41463
4.68568
4.93886
5.17718
5.40305
5.61828
5.82448
6.02302
6.21496
6.40117
6.58229
6.75883
6.93118
7.09966
7.26454
7.42607
7.58441
7.73966
7.89192
8.04133
8.18797
8.33196
8.47337
8.61231
8.7489
8.88322
9.01539
9.14547
9.27354
9.39972
9.52412
9.64682
9.76791
9.88746
10.0055
10.1222
10.2376
10.3517
10.4646
10.5764
10.6871
10.7968
10.9056
11.0135
11.1206
11.2268
11.3323
11.4371
11.5411
11.6446
11.7475
11.8497
11.9515
12.0528
12.1536
12.2539
12.3538
12.4534
12.5525
12.6513
12.7497
12.8479
12.9457
13.0432
13.1404
13.2373
13.334
13.4304
13.5265
13.6224
13.718
13.8134
13.9084
14.0032
14.0977
14.1919
14.2858
14.3793
14.4725
14.5653
14.6576
14.7495
14.8408
14.9316
15.0218
15.1113
15.2001
15.2881
15.3752
15.4614
15.5466
15.6307
15.7137
15.7956
15.8762
15.9554
16.0334
16.11
16.1854
16.2593
16.3323
16.4036
16.4751
16.5435
16.615
16.6774
16.7517
16.7913
16.8722
16.8194
-0.0882479
-0.702209
-0.81303
-1.1114
-1.1802
-1.37216
-1.4671
-1.61356
-1.71579
-1.83993
-1.9444
-2.05902
-2.1659
-2.27903
-2.39097
-2.50834
-2.62831
-2.75439
-2.88708
-3.02887
-3.18066
-3.34517
-3.52645
-3.72748
-3.95195
-4.20224
-4.47947
-4.7822
-5.10641
-5.44572
-5.79201
-6.13698
-6.47268
-6.79288
-7.09229
-7.36756
-7.61559
-7.83484
-8.0234
-8.18047
-8.30487
-8.39627
-8.45261
-8.47087
-8.45022
-8.39436
-8.30428
-8.17986
-8.02003
-7.82319
-7.58377
-7.29011
-6.92621
-6.4779
-5.93311
-5.2809
-4.51582
-3.64769
-2.7105
-1.74516
-0.80178
0.0587339
0.808958
1.45481
2.01284
2.49966
2.92905
3.31175
3.6561
3.9688
4.25533
4.5203
4.76755
5.0002
5.22079
5.43148
5.63397
5.82955
6.01922
6.20376
6.38374
6.55957
6.73158
6.90001
7.06507
7.22698
7.38581
7.54161
7.69445
7.84444
7.99168
8.13622
8.27818
8.41764
8.55469
8.68943
8.82193
8.95236
9.08083
9.20743
9.3322
9.45524
9.57662
9.69645
9.81479
9.93173
10.0473
10.1617
10.2748
10.3868
10.4977
10.6077
10.7167
10.8249
10.9322
11.0386
11.1443
11.2493
11.3536
11.4573
11.5605
11.663
11.7651
11.8666
11.9678
12.0684
12.1687
12.2686
12.3682
12.4674
12.5663
12.6648
12.7631
12.8612
12.9589
13.0564
13.1537
13.2507
13.3474
13.444
13.5403
13.6363
13.7321
13.8276
13.9228
14.0178
14.1124
14.2067
14.3006
14.3941
14.4872
14.5799
14.672
14.7636
14.8546
14.9449
15.0345
15.1233
15.2112
15.2982
15.3841
15.4689
15.5525
15.6349
15.7158
15.7953
15.8733
15.9497
16.0246
16.0977
16.1694
16.2389
16.3077
16.3724
16.4388
16.494
16.5589
16.5868
16.6535
16.5947
-0.180465
-0.757763
-0.842735
-1.13936
-1.19177
-1.38376
-1.461
-1.60799
-1.70011
-1.82477
-1.92296
-2.03894
-2.14439
-2.26047
-2.37394
-2.49537
-2.61906
-2.75076
-2.88877
-3.03774
-3.19876
-3.37556
-3.57243
-3.79454
-4.04601
-4.32879
-4.64224
-4.98169
-5.33868
-5.70249
-6.06204
-6.4083
-6.73473
-7.03791
-7.31575
-7.56772
-7.79276
-7.99047
-8.15934
-8.29906
-8.40831
-8.48642
-8.53088
-8.54187
-8.52259
-8.47499
-8.39784
-8.29078
-8.15272
-7.98308
-7.78183
-7.55267
-7.30053
-7.01771
-6.66513
-6.18899
-5.5438
-4.70208
-3.68255
-2.53684
-1.34996
-0.263323
0.651825
1.40161
2.01868
2.53634
2.97994
3.36713
3.71042
4.01907
4.30019
4.55946
4.80135
5.02942
5.24648
5.45473
5.65575
5.85073
6.04054
6.2258
6.40693
6.58422
6.75789
6.92811
7.09497
7.25855
7.41889
7.57611
7.73029
7.88152
8.02988
8.17546
8.31836
8.45866
8.59649
8.73194
8.86512
8.99618
9.12529
9.25248
9.37783
9.5014
9.62331
9.74363
9.86245
9.97983
10.0958
10.2106
10.3242
10.4367
10.5481
10.6586
10.768
10.8765
10.9842
11.0909
11.1969
11.3022
11.4069
11.5108
11.6142
11.717
11.8193
11.921
12.0223
12.1231
12.2235
12.3234
12.423
12.5222
12.6211
12.7196
12.8178
12.9157
13.0133
13.1106
13.2077
13.3044
13.401
13.4972
13.5932
13.689
13.7845
13.8797
13.9746
14.0693
14.1636
14.2576
14.3513
14.4446
14.5375
14.6299
14.7219
14.8133
14.9041
14.9943
15.0838
15.1725
15.2603
15.3472
15.4331
15.5179
15.6016
15.684
15.7652
15.8448
15.9231
15.9997
16.0747
16.1479
16.2196
16.2889
16.3573
16.4212
16.4864
16.54
16.6019
16.6271
16.6871
16.6248
-0.261236
-0.792309
-0.854107
-1.1431
-1.17836
-1.373
-1.43505
-1.58319
-1.66163
-1.78875
-1.88123
-2.00019
-2.10292
-2.22224
-2.3364
-2.46176
-2.58843
-2.72522
-2.86892
-3.02568
-3.19618
-3.38695
-3.60231
-3.84788
-4.12769
-4.44318
-4.7908
-5.1615
-5.54247
-5.92028
-6.28366
-6.62606
-6.94483
-7.24055
-7.51402
-7.76613
-7.99567
-8.20138
-8.38086
-8.53225
-8.65297
-8.7428
-8.80197
-8.82775
-8.81321
-8.75657
-8.65956
-8.52507
-8.35691
-8.1618
-7.94772
-7.71765
-7.4663
-7.18992
-6.89469
-6.59433
-6.24294
-5.69732
-4.84739
-3.66695
-2.21855
-0.802802
0.36355
1.26005
1.94867
2.49437
2.94291
3.32316
3.65376
3.94749
4.21344
4.45844
4.6876
4.90477
5.11281
5.31381
5.50923
5.70006
5.88693
6.07023
6.2502
6.42693
6.60049
6.77088
6.93811
7.10217
7.26309
7.42094
7.57575
7.72757
7.87648
8.02255
8.16588
8.30658
8.44475
8.58053
8.71403
8.84537
8.97464
9.10193
9.22735
9.35101
9.47298
9.59337
9.71223
9.82966
9.94571
10.0605
10.1743
10.287
10.3987
10.5092
10.6186
10.7272
10.8349
10.9418
11.0479
11.1533
11.2581
11.3622
11.4658
11.5688
11.6713
11.7733
11.8748
11.9759
12.0766
12.1768
12.2768
12.3763
12.4756
12.5745
12.6731
12.7714
12.8694
12.9672
13.0648
13.1621
13.2591
13.356
13.4525
13.5489
13.6449
13.7407
13.8363
13.9315
14.0264
14.121
14.2153
14.3091
14.4026
14.4956
14.5881
14.6801
14.7715
14.8623
14.9523
15.0415
15.1299
15.2172
15.3035
15.3887
15.4726
15.5551
15.6362
15.7156
15.7934
15.8693
15.9433
16.0151
16.0849
16.1516
16.2166
16.2762
16.3354
16.3818
16.4339
16.4494
16.4953
16.4288
-0.318314
-0.79914
-0.840688
-1.11902
-1.13851
-1.33263
-1.37981
-1.531
-1.5997
-1.72876
-1.81326
-1.93504
-2.03648
-2.15937
-2.27387
-2.40298
-2.53202
-2.6733
-2.82144
-2.98461
-3.16331
-3.36516
-3.59469
-3.85863
-4.1601
-4.49847
-4.86699
-5.25425
-5.64418
-6.02293
-6.38117
-6.71629
-7.02963
-7.32424
-7.60188
-7.86279
-8.10431
-8.32304
-8.5145
-8.67557
-8.80342
-8.89678
-8.95405
-8.97538
-8.96
-8.9064
-8.81219
-8.67674
-8.5006
-8.28729
-8.04229
-7.7716
-7.48624
-7.20439
-6.91793
-6.608
-6.30504
-5.99043
-5.55016
-4.72448
-3.20226
-1.38169
0.151697
1.25952
2.04413
2.62297
3.07374
3.44163
3.75378
4.02742
4.27407
4.50183
4.7164
4.9218
5.12083
5.31532
5.50639
5.69467
5.88045
6.06377
6.24456
6.4227
6.59803
6.77041
6.93972
7.10587
7.26882
7.42858
7.58515
7.73862
7.88904
8.0365
8.1811
8.32297
8.46223
8.59901
8.73343
8.86563
8.99572
9.12383
9.25005
9.37449
9.49723
9.61836
9.73797
9.85616
9.97303
10.0887
10.2031
10.3164
10.4285
10.5395
10.6495
10.7586
10.8668
10.9742
11.0809
11.1868
11.292
11.3966
11.5005
11.6038
11.7066
11.8089
11.9106
12.0119
12.1127
12.2132
12.3132
12.4128
12.512
12.6109
12.7095
12.8078
12.9057
13.0034
13.1008
13.198
13.2949
13.3915
13.4879
13.584
13.6799
13.7755
13.8709
13.966
14.0608
14.1553
14.2495
14.3433
14.4367
14.5298
14.6223
14.7144
14.8059
14.8968
14.987
15.0764
15.1649
15.2526
15.3392
15.4246
15.5089
15.5919
15.6734
15.7533
15.8316
15.908
15.9824
16.0545
16.1245
16.1913
16.256
16.3151
16.3732
16.4188
16.4681
16.4834
16.5221
16.4617
-0.34283
-0.776445
-0.8003
-1.06582
-1.07314
-1.26625
-1.30104
-1.45474
-1.51303
-1.64667
-1.72682
-1.85201
-1.95126
-2.07705
-2.1933
-2.32586
-2.45816
-2.60339
-2.75577
-2.92387
-3.10862
-3.31807
-3.55738
-3.83268
-4.1468
-4.4985
-4.8792
-5.27533
-5.66987
-6.04984
-6.40762
-6.74287
-7.05861
-7.35886
-7.64489
-7.91506
-8.16454
-8.38808
-8.58047
-8.73931
-8.8635
-8.95397
-9.01
-9.03168
-9.01801
-8.96746
-8.87745
-8.74686
-8.5749
-8.36224
-8.11021
-7.82302
-7.50979
-7.18444
-6.85241
-6.5271
-6.21895
-5.88578
-5.58614
-5.26026
-4.10893
-1.99365
-0.0264009
1.3262
2.19984
2.78944
3.21691
3.54859
3.82144
4.05747
4.27036
4.46909
4.6595
4.84541
5.02913
5.21196
5.39444
5.57665
5.75836
5.93918
6.11865
6.29632
6.47177
6.64467
6.81474
6.98177
7.14564
7.30627
7.46367
7.61787
7.76894
7.91695
8.06202
8.20427
8.34383
8.48087
8.61551
8.74786
8.87802
9.00614
9.13235
9.25674
9.37943
9.50052
9.62009
9.73825
9.85508
9.97063
10.085
10.1981
10.3101
10.4211
10.5312
10.6403
10.7486
10.8561
10.9629
11.0689
11.1742
11.2789
11.383
11.4865
11.5895
11.692
11.7939
11.8955
11.9966
12.0972
12.1975
12.2974
12.397
12.4962
12.5952
12.6938
12.7921
12.8902
12.988
13.0856
13.1829
13.28
13.3768
13.4734
13.5697
13.6657
13.7615
13.857
13.9522
14.0471
14.1417
14.2358
14.3297
14.423
14.516
14.6084
14.7002
14.7914
14.8819
14.9716
15.0604
15.1482
15.2349
15.3204
15.4046
15.4874
15.5685
15.648
15.7255
15.8009
15.874
15.9444
16.0121
16.0761
16.1371
16.1918
16.244
16.2832
16.3232
16.3314
16.3569
16.297
-0.322282
-0.722896
-0.727858
-0.983321
-0.976373
-1.16934
-1.19504
-1.34801
-1.4043
-1.53511
-1.61696
-1.74053
-1.84276
-1.96858
-2.08895
-2.22374
-2.36036
-2.50861
-2.66493
-2.83605
-3.02412
-3.23617
-3.47808
-3.75575
-4.07265
-4.42685
-4.81057
-5.21009
-5.6086
-5.99221
-6.35361
-6.69295
-7.01379
-7.31927
-7.60979
-7.884
-8.1365
-8.36113
-8.55244
-8.70838
-8.82841
-8.91443
-8.9671
-8.98568
-8.96724
-8.90945
-8.80966
-8.66736
-8.48453
-8.26604
-8.01765
-7.74328
-7.438
-7.09439
-6.7162
-6.32597
-5.97256
-5.60823
-5.23637
-5.13815
-4.52473
-2.36979
0.0198161
1.62312
2.56955
3.14469
3.5241
3.79798
4.0144
4.19968
4.36934
4.53264
4.695
4.85945
5.02738
5.19915
5.37439
5.55233
5.73207
5.9126
6.09298
6.27238
6.45008
6.62549
6.79814
6.96772
7.13404
7.29698
7.45654
7.61272
7.7656
7.91527
8.06185
8.20548
8.34632
8.48452
8.62023
8.75358
8.88467
9.01367
9.14073
9.26595
9.38946
9.51134
9.63169
9.75059
9.86812
9.98434
10.0993
10.2131
10.3259
10.4376
10.5484
10.6581
10.767
10.8751
10.9824
11.0889
11.1947
11.2999
11.4044
11.5083
11.6116
11.7144
11.8166
11.9184
12.0197
12.1206
12.221
12.3211
12.4207
12.52
12.619
12.7176
12.8159
12.914
13.0117
13.1092
13.2065
13.3035
13.4002
13.4967
13.593
13.689
13.7848
13.8803
13.9756
14.0706
14.1653
14.2596
14.3536
14.4472
14.5404
14.6331
14.7253
14.8169
14.9078
14.9979
15.0872
15.1756
15.2628
15.349
15.4338
15.5173
15.5992
15.6793
15.7576
15.8336
15.9074
15.9783
16.0463
16.1105
16.1713
16.2258
16.277
16.3158
16.3531
16.3625
16.3801
16.3294
-0.254428
-0.62799
-0.622609
-0.861758
-0.854308
-1.03598
-1.06721
-1.211
-1.2752
-1.39973
-1.48877
-1.60913
-1.71729
-1.84344
-1.969
-2.10627
-2.24799
-2.39986
-2.56062
-2.73464
-2.92482
-3.13657
-3.37593
-3.64826
-3.95773
-4.3036
-4.6803
-5.07545
-5.47391
-5.86152
-6.23107
-6.58007
-6.90841
-7.21847
-7.51224
-7.78853
-8.0419
-8.2674
-8.45994
-8.61752
-8.73878
-8.82493
-8.87554
-8.89062
-8.86752
-8.80413
-8.69691
-8.54456
-8.34674
-8.10626
-7.82737
-7.51901
-7.19179
-6.85823
-6.51414
-6.11804
-5.68082
-5.21067
-4.71428
-4.59886
-4.3215
-2.34789
0.338283
2.10611
3.05644
3.56905
3.86336
4.0514
4.18906
4.30635
4.41963
4.53752
4.66452
4.80213
4.95043
5.10831
5.27421
5.44636
5.6229
5.80217
5.9826
6.16292
6.34207
6.5192
6.69365
6.86502
7.03302
7.19751
7.35842
7.51579
7.66967
7.82018
7.96745
8.11163
8.25289
8.39139
8.52729
8.66077
8.79198
8.92106
9.04815
9.17336
9.29679
9.41858
9.5388
9.65757
9.77496
9.89104
10.0059
10.1196
10.2322
10.3438
10.4544
10.5641
10.6729
10.781
10.8882
10.9948
11.1006
11.2058
11.3104
11.4144
11.5178
11.6207
11.7231
11.8251
11.9266
12.0277
12.1283
12.2286
12.3285
12.428
12.5272
12.6261
12.7248
12.8231
12.9212
13.019
13.1166
13.2139
13.311
13.4078
13.5044
13.6007
13.6968
13.7926
13.8881
13.9833
14.0782
14.1727
14.267
14.3608
14.4542
14.5471
14.6395
14.7312
14.8223
14.9125
15.0019
15.0903
15.1775
15.2636
15.3482
15.4313
15.5128
15.5923
15.6698
15.7448
15.8172
15.8864
15.9524
16.0139
16.0713
16.1219
16.1677
16.2013
16.2306
16.2356
16.2418
16.198
-0.143385
-0.496001
-0.480355
-0.700667
-0.70281
-0.868569
-0.913019
-1.04542
-1.12075
-1.23904
-1.33582
-1.45395
-1.56766
-1.6951
-1.82584
-1.96639
-2.11362
-2.2704
-2.4366
-2.61483
-2.80767
-3.01909
-3.25404
-3.51695
-3.81205
-4.13999
-4.49763
-4.87761
-5.26909
-5.65921
-6.03669
-6.39471
-6.73245
-7.05072
-7.34928
-7.62656
-7.87913
-8.10354
-8.29554
-8.45286
-8.57359
-8.65823
-8.70589
-8.71553
-8.68446
-8.61145
-8.49458
-8.33424
-8.13164
-7.8901
-7.61272
-7.30229
-6.95797
-6.58093
-6.17803
-5.76041
-5.34992
-4.85846
-4.20149
-3.8656
-3.62003
-1.8558
1.02371
2.89585
3.77937
4.17011
4.33363
4.40041
4.43502