/*--------------------------------*- C++ -*----------------------------------*\
| =========                 |                                                 |
| \\      /  F ield         | OpenFOAM: The Open Source CFD Toolbox           |
|  \\    /   O peration     | Version:  v1906                                 |
|   \\  /    A nd           | Web:      www.OpenFOAM.com                      |
|    \\/     M anipulation  |                                                 |
\*---------------------------------------------------------------------------*/
FoamFile
{
    version     2.0;
    format      ascii;
    class       surfaceScalarField;
    location    "400";
    object      phi;
}
// * * * * * * * * * * * * * * * * * * * * * * * * * * * * * * * * * * * * * //

dimensions      [0 3 -1 0 0 0 0];
oriented        oriented;


internalField   nonuniform List<scalar> 
24170
(
3.08279e-06
1.05617e-07
2.98688e-06
9.59077e-08
2.92044e-06
6.64366e-08
2.86426e-06
5.61857e-08
2.8152e-06
4.9053e-08
2.77209e-06
4.31177e-08
2.73368e-06
3.84019e-08
2.69911e-06
3.45732e-08
2.66787e-06
3.12454e-08
2.63959e-06
2.82792e-08
2.61382e-06
2.57647e-08
2.59018e-06
2.36434e-08
2.56859e-06
2.15877e-08
2.54915e-06
1.94436e-08
2.53229e-06
1.68613e-08
2.51872e-06
1.3561e-08
2.50995e-06
8.7712e-09
-6.06666e-09
2.51601e-06
3.44276e-06
8.01029e-08
3.44404e-06
9.46344e-08
3.43229e-06
7.81771e-08
3.41865e-06
6.98307e-08
3.40386e-06
6.38437e-08
3.38898e-06
5.7993e-08
3.37452e-06
5.28695e-08
3.36056e-06
4.85263e-08
3.34715e-06
4.46601e-08
3.33431e-06
4.11211e-08
3.3221e-06
3.7972e-08
3.31057e-06
3.51737e-08
3.29963e-06
3.25264e-08
3.28929e-06
2.97852e-08
3.27941e-06
2.67341e-08
3.27004e-06
2.29338e-08
3.26199e-06
1.68235e-08
4.30961e-09
3.25161e-06
3.67626e-06
6.63625e-08
3.67851e-06
9.23825e-08
3.67266e-06
8.40222e-08
3.66505e-06
7.74412e-08
3.65735e-06
7.15441e-08
3.65005e-06
6.52976e-08
3.64319e-06
5.97242e-08
3.63672e-06
5.50001e-08
3.63056e-06
5.0818e-08
3.62467e-06
4.70083e-08
3.61907e-06
4.35731e-08
3.61379e-06
4.04556e-08
3.60884e-06
3.74808e-08
3.60422e-06
3.44004e-08
3.59992e-06
3.10309e-08
3.59608e-06
2.67772e-08
3.59127e-06
2.16375e-08
1.32621e-08
3.58232e-06
3.93545e-06
5.63041e-08
3.94295e-06
8.48759e-08
3.94496e-06
8.20135e-08
3.94487e-06
7.75328e-08
3.94355e-06
7.28603e-08
3.94138e-06
6.74758e-08
3.93869e-06
6.24055e-08
3.93576e-06
5.79389e-08
3.93269e-06
5.38796e-08
3.92959e-06
5.0114e-08
3.92652e-06
4.66414e-08
3.92356e-06
4.34127e-08
3.92076e-06
4.02792e-08
3.91814e-06
3.702e-08
3.9157e-06
3.34726e-08
3.91333e-06
2.91525e-08
3.91111e-06
2.38529e-08
1.54613e-08
3.90891e-06
4.21808e-06
4.53481e-08
4.22751e-06
7.5446e-08
4.23137e-06
7.81612e-08
4.23261e-06
7.62847e-08
4.23265e-06
7.28193e-08
4.232e-06
6.81251e-08
4.23101e-06
6.34021e-08
4.22986e-06
5.90887e-08
4.22863e-06
5.51072e-08
4.22735e-06
5.13898e-08
4.22607e-06
4.7929e-08
4.22481e-06
4.46697e-08
4.2236e-06
4.14892e-08
4.22243e-06
3.81932e-08
4.2212e-06
3.46977e-08
4.21977e-06
3.05855e-08
4.21719e-06
2.64306e-08
2.13885e-08
4.21127e-06
4.51707e-06
3.7361e-08
4.52574e-06
6.67752e-08
4.53138e-06
7.25221e-08
4.53531e-06
7.23613e-08
4.53819e-06
6.9934e-08
4.54023e-06
6.60921e-08
4.54163e-06
6.19977e-08
4.54261e-06
5.81103e-08
4.54328e-06
5.44318e-08
4.54374e-06
5.09379e-08
4.54404e-06
4.76284e-08
4.54425e-06
4.44598e-08
4.5444e-06
4.13385e-08
4.54447e-06
3.81199e-08
4.54444e-06
3.47264e-08
4.5441e-06
3.09274e-08
4.54376e-06
2.67745e-08
2.18661e-08
4.54328e-06
4.83984e-06
3.02429e-08
4.84831e-06
5.83023e-08
4.85423e-06
6.66029e-08
4.85826e-06
6.83277e-08
4.86112e-06
6.70783e-08
4.86313e-06
6.40818e-08
4.86459e-06
6.05365e-08
4.86572e-06
5.69763e-08
4.86665e-06
5.35101e-08
4.86741e-06
5.017e-08
4.86807e-06
4.69738e-08
4.86864e-06
4.38919e-08
4.86911e-06
4.08619e-08
4.86946e-06
3.77769e-08
4.86955e-06
3.46335e-08
4.86918e-06
3.12975e-08
4.86769e-06
2.82615e-08
2.53332e-08
4.86423e-06
5.18531e-06
2.45116e-08
5.19289e-06
5.07233e-08
5.19916e-06
6.033e-08
5.2043e-06
6.31962e-08
5.20861e-06
6.27674e-08
5.21221e-06
6.04822e-08
5.21525e-06
5.74961e-08
5.21787e-06
5.43473e-08
5.22019e-06
5.11986e-08
5.22224e-06
4.81144e-08
5.22409e-06
4.5124e-08
5.22577e-06
4.22133e-08
5.22729e-06
3.93428e-08
5.22862e-06
3.64487e-08
5.22973e-06
3.35191e-08
5.23052e-06
3.05087e-08
5.23131e-06
2.7471e-08
2.45589e-08
5.23209e-06
5.5557e-06
2.01449e-08
5.56247e-06
4.39609e-08
5.56861e-06
5.41844e-08
5.57371e-06
5.80953e-08
5.57791e-06
5.85684e-08
5.58134e-06
5.70504e-08
5.5842e-06
5.46424e-08
5.58664e-06
5.19005e-08
5.58879e-06
4.90504e-08
5.59071e-06
4.61999e-08
5.59243e-06
4.3403e-08
5.59397e-06
4.0667e-08
5.59533e-06
3.79836e-08
5.59646e-06
3.53211e-08
5.59725e-06
3.27272e-08
5.59756e-06
3.02004e-08
5.59696e-06
2.80772e-08
2.62577e-08
5.59526e-06
5.95379e-06
1.6126e-08
5.96012e-06
3.76398e-08
5.96626e-06
4.80355e-08
5.97184e-06
5.25177e-08
5.97685e-06
5.35594e-08
5.9813e-06
5.25997e-08
5.98528e-06
5.06679e-08
5.98887e-06
4.83078e-08
5.99215e-06
4.5773e-08
5.99515e-06
4.31924e-08
5.99793e-06
4.06319e-08
6.00048e-06
3.8114e-08
6.00282e-06
3.56438e-08
6.00492e-06
3.32146e-08
6.0068e-06
3.08473e-08
6.00844e-06
2.85654e-08
6.01011e-06
2.6403e-08
2.46208e-08
6.01175e-06
6.37946e-06
1.34788e-08
6.38471e-06
3.2385e-08
6.39045e-06
4.2299e-08
6.39587e-06
4.70999e-08
6.40076e-06
4.86714e-08
6.40507e-06
4.82878e-08
6.40887e-06
4.68641e-08
6.41226e-06
4.4918e-08
6.41531e-06
4.27233e-08
6.41807e-06
4.04306e-08
6.42058e-06
3.81246e-08
6.42285e-06
3.58459e-08
6.42487e-06
3.3623e-08
6.42662e-06
3.1468e-08
6.42802e-06
2.94404e-08
6.42902e-06
2.75684e-08
6.42939e-06
2.60378e-08
2.4811e-08
6.4292e-06
5.74322e-06
1.10915e-08
5.74763e-06
2.79802e-08
5.75249e-06
3.74377e-08
5.75726e-06
4.23297e-08
5.76178e-06
4.41531e-08
5.76596e-06
4.41032e-08
5.76982e-06
4.30057e-08
5.77339e-06
4.13518e-08
5.77669e-06
3.94184e-08
5.77976e-06
3.73631e-08
5.78261e-06
3.52767e-08
5.78524e-06
3.32085e-08
5.78768e-06
3.119e-08
5.7899e-06
2.92439e-08
5.79194e-06
2.74009e-08
5.79381e-06
2.5701e-08
5.79569e-06
2.41549e-08
2.29801e-08
5.79752e-06
6.99984e-06
9.40494e-09
7.00393e-06
2.38891e-08
7.00899e-06
3.23761e-08
7.01423e-06
3.70933e-08
7.01928e-06
3.91031e-08
7.02398e-06
3.94001e-08
7.02831e-06
3.86775e-08
7.03229e-06
3.73755e-08
7.03595e-06
3.5761e-08
7.03931e-06
3.39944e-08
7.04242e-06
3.21746e-08
7.04526e-06
3.03603e-08
7.04786e-06
2.85956e-08
7.05019e-06
2.69106e-08
7.05224e-06
2.53512e-08
7.054e-06
2.39473e-08
7.05539e-06
2.27597e-08
2.17138e-08
7.05666e-06
8.53317e-06
7.08321e-09
8.53801e-06
1.90497e-08
8.54385e-06
2.65375e-08
8.55001e-06
3.09313e-08
8.55614e-06
3.29764e-08
8.56204e-06
3.34927e-08
8.56766e-06
3.30637e-08
8.57296e-06
3.20755e-08
8.57794e-06
3.07743e-08
8.58262e-06
2.9313e-08
8.58701e-06
2.77868e-08
8.59112e-06
2.62548e-08
8.59496e-06
2.47566e-08
8.59855e-06
2.33212e-08
8.60192e-06
2.19735e-08
8.60513e-06
2.07445e-08
8.60825e-06
1.96391e-08
1.88277e-08
8.61114e-06
1.04007e-05
5.6439e-09
1.04049e-05
1.48545e-08
1.04106e-05
2.07794e-08
1.04171e-05
2.4417e-08
1.04238e-05
2.62652e-08
1.04304e-05
2.68934e-08
1.04368e-05
2.67306e-08
1.04428e-05
2.60742e-08
1.04484e-05
2.51259e-08
1.04537e-05
2.40179e-08
1.04587e-05
2.28365e-08
1.04633e-05
2.16388e-08
1.04676e-05
2.04623e-08
1.04716e-05
1.93355e-08
1.04753e-05
1.82714e-08
1.04787e-05
1.72876e-08
1.0482e-05
1.6359e-08
1.5483e-08
1.04853e-05
1.26789e-05
3.55154e-09
1.26839e-05
9.85801e-09
1.26905e-05
1.4169e-08
1.2698e-05
1.6944e-08
1.27058e-05
1.84576e-08
1.27136e-05
1.9075e-08
1.27212e-05
1.90944e-08
1.27286e-05
1.87288e-08
1.27356e-05
1.81291e-08
1.27422e-05
1.73961e-08
1.27484e-05
1.65969e-08
1.27543e-05
1.57748e-08
1.27598e-05
1.49606e-08
1.2765e-05
1.41725e-08
1.27698e-05
1.34295e-08
1.27743e-05
1.27402e-08
1.27786e-05
1.21103e-08
1.15837e-08
1.27825e-05
1.5455e-05
1.77677e-09
1.54599e-05
4.92279e-09
1.5467e-05
7.07173e-09
1.54755e-05
8.46105e-09
1.54847e-05
9.21986e-09
1.54943e-05
9.52002e-09
1.55039e-05
9.50692e-09
1.55133e-05
9.28506e-09
1.55225e-05
8.93108e-09
1.55314e-05
8.49849e-09
1.554e-05
8.0225e-09
1.55482e-05
7.52786e-09
1.55561e-05
7.02589e-09
1.55638e-05
6.52945e-09
1.55712e-05
6.02812e-09
1.55784e-05
5.54126e-09
1.55855e-05
5.01779e-09
4.59663e-09
1.55925e-05
1.88392e-05
2.46882e-10
1.8844e-05
1.34242e-10
1.8851e-05
1.46932e-11
1.88595e-05
1.38874e-11
1.88686e-05
9.42507e-11
1.88779e-05
2.26625e-10
1.8887e-05
3.8745e-10
1.88957e-05
5.58418e-10
1.89039e-05
7.28289e-10
1.89115e-05
8.89001e-10
1.89185e-05
1.03434e-09
1.89249e-05
1.15714e-09
1.89307e-05
1.25123e-09
1.89359e-05
1.30546e-09
1.89406e-05
1.31174e-09
1.89449e-05
1.25937e-09
1.89488e-05
1.11433e-09
8.25459e-10
1.89526e-05
2.29673e-05
-3.71883e-09
2.29764e-05
-8.96238e-09
2.29888e-05
-1.24213e-08
2.30035e-05
-1.46626e-08
2.30196e-05
-1.60384e-08
2.30367e-05
-1.67925e-08
2.30542e-05
-1.71225e-08
2.30719e-05
-1.71746e-08
2.30897e-05
-1.70482e-08
2.31074e-05
-1.68087e-08
2.31249e-05
-1.64983e-08
2.31422e-05
-1.614e-08
2.31592e-05
-1.57446e-08
2.31758e-05
-1.53083e-08
2.3192e-05
-1.48243e-08
2.32075e-05
-1.42629e-08
2.32222e-05
-1.36312e-08
-1.25584e-08
2.32356e-05
1.68113e-05
-4.28559e-09
1.68149e-05
-1.25572e-08
1.68205e-05
-1.8104e-08
1.68273e-05
-2.14074e-08
1.68343e-05
-2.3066e-08
1.68411e-05
-2.3597e-08
1.68474e-05
-2.34148e-08
1.6853e-05
-2.28067e-08
1.6858e-05
-2.19551e-08
1.68621e-05
-2.09737e-08
1.68656e-05
-1.99307e-08
1.68683e-05
-1.88699e-08
1.68704e-05
-1.78146e-08
1.68718e-05
-1.67917e-08
1.68728e-05
-1.58128e-08
1.68735e-05
-1.49306e-08
1.6874e-05
-1.41524e-08
-1.39384e-08
1.68754e-05
1.46387e-05
-8.42921e-09
1.46469e-05
-2.07874e-08
1.46571e-05
-2.82502e-08
1.46682e-05
-3.25104e-08
1.46798e-05
-3.46398e-08
1.46915e-05
-3.53217e-08
1.47032e-05
-3.50982e-08
1.47147e-05
-3.43487e-08
1.47261e-05
-3.33097e-08
1.47372e-05
-3.21288e-08
1.47482e-05
-3.09035e-08
1.4759e-05
-2.96961e-08
1.47698e-05
-2.85521e-08
1.47805e-05
-2.74931e-08
1.47912e-05
-2.65488e-08
1.4802e-05
-2.56877e-08
1.48128e-05
-2.49514e-08
-2.36899e-08
1.48225e-05
1.27416e-05
-9.93837e-09
1.27469e-05
-2.60331e-08
1.27537e-05
-3.5022e-08
1.27606e-05
-3.94384e-08
1.2767e-05
-4.10635e-08
1.27727e-05
-4.09694e-08
1.27775e-05
-3.99274e-08
1.27816e-05
-3.84233e-08
1.2785e-05
-3.67116e-08
1.27878e-05
-3.49242e-08
1.279e-05
-3.3132e-08
1.27917e-05
-3.13698e-08
1.27927e-05
-2.96417e-08
1.27932e-05
-2.7943e-08
1.27929e-05
-2.62307e-08
1.27917e-05
-2.45096e-08
1.27894e-05
-2.26721e-08
-2.14408e-08
1.27872e-05
1.10966e-05
-1.55936e-08
1.11063e-05
-3.57856e-08
1.11168e-05
-4.5517e-08
1.11272e-05
-4.98306e-08
1.11373e-05
-5.11635e-08
1.1147e-05
-5.06238e-08
1.11561e-05
-4.90776e-08
1.11648e-05
-4.70914e-08
1.1173e-05
-4.49399e-08
1.11809e-05
-4.27613e-08
1.11884e-05
-4.06421e-08
1.11956e-05
-3.86358e-08
1.12028e-05
-3.67839e-08
1.121e-05
-3.51186e-08
1.12174e-05
-3.37174e-08
1.12255e-05
-3.26195e-08
1.12349e-05
-3.20683e-08
-3.12932e-08
1.12448e-05
9.65977e-06
-2.0147e-08
9.66828e-06
-4.4297e-08
9.67632e-06
-5.35576e-08
9.68284e-06
-5.63503e-08
9.68792e-06
-5.62451e-08
9.69179e-06
-5.44888e-08
9.69473e-06
-5.20238e-08
9.69705e-06
-4.94062e-08
9.69892e-06
-4.68142e-08
9.70046e-06
-4.42997e-08
9.70171e-06
-4.18947e-08
9.70269e-06
-3.96166e-08
9.70336e-06
-3.74545e-08
9.70363e-06
-3.53883e-08
9.70324e-06
-3.33212e-08
9.70178e-06
-3.11636e-08
9.69817e-06
-2.84541e-08
-2.56916e-08
9.69256e-06
8.41355e-06
-2.83414e-08
8.42519e-06
-5.59449e-08
8.43549e-06
-6.38551e-08
8.44442e-06
-6.5282e-08
8.45234e-06
-6.41625e-08
8.45924e-06
-6.13884e-08
8.46522e-06
-5.80055e-08
8.47047e-06
-5.46497e-08
8.47512e-06
-5.14651e-08
8.47928e-06
-4.84669e-08
8.48306e-06
-4.56734e-08
8.48654e-06
-4.30923e-08
8.48981e-06
-4.07242e-08
8.49299e-06
-3.85667e-08
8.49635e-06
-3.66881e-08
8.50035e-06
-3.51648e-08
8.50649e-06
-3.45874e-08
-3.47033e-08
8.5155e-06
7.32788e-06
-3.89345e-08
7.33976e-06
-6.78297e-08
7.34658e-06
-7.06726e-08
7.34999e-06
-6.86938e-08
7.35159e-06
-6.57653e-08
7.35212e-06
-6.19176e-08
7.35209e-06
-5.7976e-08
7.35184e-06
-5.43924e-08
7.35148e-06
-5.11122e-08
7.35107e-06
-4.80516e-08
7.35059e-06
-4.51988e-08
7.35006e-06
-4.2556e-08
7.34944e-06
-4.01064e-08
7.34872e-06
-3.78442e-08
7.34772e-06
-3.56946e-08
7.34616e-06
-3.36001e-08
7.34236e-06
-3.07892e-08
-2.67455e-08
7.3344e-06
6.38129e-06
-5.01582e-08
6.3932e-06
-7.97362e-08
6.40006e-06
-7.75347e-08
6.40438e-06
-7.3012e-08
6.40697e-06
-6.83563e-08
6.40809e-06
-6.3038e-08
6.4082e-06
-5.80872e-08
6.40767e-06
-5.38652e-08
6.40674e-06
-5.01838e-08
6.40556e-06
-4.68669e-08
6.40421e-06
-4.38541e-08
6.40277e-06
-4.11137e-08
6.40128e-06
-3.86172e-08
6.39977e-06
-3.63332e-08
6.39836e-06
-3.42863e-08
6.39722e-06
-3.24597e-08
6.39804e-06
-3.16024e-08
-3.2299e-08
6.40359e-06
5.56302e-06
-6.77088e-08
5.56915e-06
-8.58748e-08
5.56482e-06
-7.32045e-08
5.55749e-06
-6.56801e-08
5.54983e-06
-6.06995e-08
5.54256e-06
-5.57627e-08
5.53587e-06
-5.13962e-08
5.52971e-06
-4.77062e-08
5.52395e-06
-4.4427e-08
5.51851e-06
-4.14278e-08
5.51333e-06
-3.8674e-08
5.50837e-06
-3.61527e-08
5.5036e-06
-3.38423e-08
5.49901e-06
-3.17414e-08
5.49454e-06
-2.98179e-08
5.49021e-06
-2.81341e-08
5.48457e-06
-2.59572e-08
-2.18198e-08
5.47409e-06
4.85296e-06
-9.30619e-08
4.85867e-06
-9.15858e-08
4.84882e-06
-6.33575e-08
4.83776e-06
-5.46211e-08
4.82561e-06
-4.85424e-08
4.81347e-06
-4.36244e-08
4.80183e-06
-3.97597e-08
4.79077e-06
-3.66421e-08
4.78027e-06
-3.39244e-08
4.77027e-06
-3.1435e-08
4.76074e-06
-2.91412e-08
4.75162e-06
-2.70366e-08
4.7429e-06
-2.51168e-08
4.73453e-06
-2.33741e-08
4.72656e-06
-2.18427e-08
4.71895e-06
-2.0526e-08
4.71328e-06
-2.02852e-08
-2.15213e-08
4.71298e-06
4.10961e-06
4.01803e-06
3.95467e-06
3.90005e-06
3.85151e-06
3.80788e-06
3.76812e-06
3.73148e-06
3.69756e-06
3.66612e-06
3.63698e-06
3.60994e-06
3.58483e-06
3.56145e-06
3.53961e-06
3.51908e-06
3.4988e-06
3.47728e-06
2.08479e-07
-2.08318e-07
4.32654e-07
-2.24237e-07
6.45313e-07
-2.12544e-07
8.12945e-07
-1.67733e-07
9.38291e-07
-1.25252e-07
1.01327e-06
-7.49397e-08
1.03133e-06
-1.79572e-08
9.94418e-07
3.71484e-08
9.13017e-07
8.14929e-08
8.00701e-07
1.12692e-07
6.68525e-07
1.32178e-07
5.27485e-07
1.41605e-07
3.83265e-07
1.4402e-07
2.36867e-07
1.47347e-07
8.14371e-08
1.5502e-07
-8.83047e-08
1.70562e-07
-2.78746e-07
1.8985e-07
-4.80896e-07
2.02426e-07
-6.90901e-07
2.09503e-07
-9.03384e-07
2.12524e-07
-1.11558e-06
2.11828e-07
-1.32294e-06
2.07317e-07
-1.52266e-06
1.99472e-07
-1.71207e-06
1.89323e-07
-1.89008e-06
1.77858e-07
-2.05614e-06
1.65952e-07
-2.21045e-06
1.54213e-07
-2.3536e-06
1.43014e-07
-2.48618e-06
1.32512e-07
-2.60902e-06
1.22698e-07
-2.72252e-06
1.13468e-07
-2.82732e-06
1.04631e-07
-2.92332e-06
9.60056e-08
-3.01085e-06
8.73589e-08
-3.08932e-06
7.8532e-08
-3.15882e-06
6.93393e-08
-3.21843e-06
5.97059e-08
-3.26809e-06
4.95081e-08
-3.30668e-06
3.87027e-08
-3.33402e-06
2.71758e-08
-3.34892e-06
1.50222e-08
-3.35173e-06
2.6416e-09
-3.34259e-06
-8.99456e-09
-3.32295e-06
-1.97917e-08
-3.29232e-06
-3.04572e-08
-3.25167e-06
-4.07719e-08
-3.20047e-06
-5.10069e-08
-3.13917e-06
-6.13841e-08
-3.0671e-06
-7.18607e-08
-2.98467e-06
-8.24481e-08
-2.89149e-06
-9.29666e-08
-2.78809e-06
-1.0333e-07
-2.67455e-06
-1.1332e-07
-2.55166e-06
-1.22713e-07
-2.42035e-06
-1.31084e-07
-2.28181e-06
-1.38253e-07
-2.1375e-06
-1.4407e-07
-1.98852e-06
-1.48618e-07
-1.83663e-06
-1.5171e-07
-1.68327e-06
-1.52963e-07
-1.53062e-06
-1.52525e-07
-1.37976e-06
-1.50486e-07
-1.2322e-06
-1.47572e-07
-1.08808e-06
-1.43805e-07
-9.49193e-07
-1.39004e-07
-8.15412e-07
-1.33493e-07
-6.87842e-07
-1.27726e-07
-5.65834e-07
-1.21702e-07
-4.50291e-07
-1.15714e-07
-3.40514e-07
-1.09483e-07
-2.37737e-07
-1.02977e-07
-1.4197e-07
-9.5545e-08
-5.51418e-08
-8.70449e-08
2.51158e-08
-8.00985e-08
1.04077e-07
-7.91256e-08
1.83636e-07
-7.94365e-08
2.60547e-07
-7.70016e-08
3.34219e-07
-7.3594e-08
4.04134e-07
-7.00075e-08
4.70474e-07
-6.63082e-08
5.33258e-07
-6.28745e-08
5.93002e-07
-5.97467e-08
6.49898e-07
-5.69965e-08
7.04429e-07
-5.45516e-08
7.5677e-07
-5.24286e-08
8.07301e-07
-5.05581e-08
8.5616e-07
-4.89385e-08
9.03613e-07
-4.75106e-08
9.49774e-07
-4.62562e-08
9.948e-07
-4.5136e-08
1.03884e-06
-4.41147e-08
1.08198e-06
-4.31788e-08
1.12427e-06
-4.23163e-08
1.16578e-06
-4.15094e-08
1.20652e-06
-4.07421e-08
1.24653e-06
-4.00005e-08
1.28581e-06
-3.9276e-08
1.32438e-06
-3.85608e-08
1.36225e-06
-3.78512e-08
1.3994e-06
-3.71424e-08
1.43585e-06
-3.64313e-08
1.47158e-06
-3.57147e-08
1.50659e-06
-3.49941e-08
1.54087e-06
-3.427e-08
1.57443e-06
-3.35462e-08
1.60726e-06
-3.28235e-08
1.63938e-06
-3.21052e-08
1.67077e-06
-3.1392e-08
1.70146e-06
-3.06864e-08
1.73146e-06
-2.99894e-08
1.76076e-06
-2.93033e-08
1.78939e-06
-2.86288e-08
1.81736e-06
-2.79681e-08
1.84468e-06
-2.73217e-08
1.87137e-06
-2.66912e-08
1.89745e-06
-2.60769e-08
1.92293e-06
-2.54799e-08
1.94783e-06
-2.4901e-08
1.97218e-06
-2.43431e-08
1.99599e-06
-2.38075e-08
2.01929e-06
-2.32956e-08
2.0421e-06
-2.28065e-08
2.06445e-06
-2.23397e-08
2.08635e-06
-2.18944e-08
2.10782e-06
-2.14704e-08
2.1289e-06
-2.10681e-08
2.14959e-06
-2.06874e-08
2.16993e-06
-2.03289e-08
2.18993e-06
-1.99923e-08
2.20962e-06
-1.9678e-08
2.22901e-06
-1.93859e-08
2.24814e-06
-1.91159e-08
2.26702e-06
-1.88679e-08
2.28568e-06
-1.86416e-08
2.30413e-06
-1.84365e-08
2.3224e-06
-1.82527e-08
2.3405e-06
-1.80893e-08
2.35847e-06
-1.79461e-08
2.37631e-06
-1.78236e-08
2.39405e-06
-1.77196e-08
2.41172e-06
-1.76372e-08
2.42931e-06
-1.75717e-08
2.44685e-06
-1.75106e-08
2.46436e-06
-1.74932e-08
2.48189e-06
-1.74986e-08
2.49942e-06
-1.75004e-08
2.51696e-06
-1.75186e-08
2.53455e-06
-1.75665e-08
2.55222e-06
-1.76368e-08
2.56996e-06
-1.77215e-08
2.58781e-06
-1.78219e-08
2.60577e-06
-1.79374e-08
2.62386e-06
-1.80693e-08
2.6421e-06
-1.8215e-08
2.6605e-06
-1.83758e-08
2.67908e-06
-1.85498e-08
2.69784e-06
-1.87383e-08
2.7168e-06
-1.89387e-08
2.73597e-06
-1.91515e-08
2.75536e-06
-1.93727e-08
2.77498e-06
-1.96012e-08
2.79484e-06
-1.98308e-08
2.81492e-06
-2.00588e-08
2.83521e-06
-2.02764e-08
2.85571e-06
-2.04786e-08
2.87639e-06
-2.06514e-08
2.8972e-06
-2.07876e-08
2.91808e-06
-2.08612e-08
2.93897e-06
-2.08691e-08
2.95974e-06
-2.07479e-08
2.98025e-06
-2.04861e-08
3.00024e-06
-1.9955e-08
3.01942e-06
-1.91631e-08
3.03713e-06
-1.76769e-08
3.05269e-06
-1.55269e-08
3.06392e-06
-1.11947e-08
3.06459e-06
-6.31307e-10
3.03908e-06
2.556e-08
2.95577e-06
8.33494e-08
1.50385e-07
2.80543e-06
2.06837e-07
-4.15002e-07
3.27482e-07
-3.44869e-07
4.31714e-07
-3.16712e-07
5.07564e-07
-2.43633e-07
5.74382e-07
-1.92022e-07
6.08517e-07
-1.09046e-07
6.01657e-07
-1.1017e-08
5.46601e-07
9.2332e-08
4.54514e-07
1.7367e-07
3.34127e-07
2.33246e-07
1.92771e-07
2.73603e-07
3.3319e-08
3.01222e-07
-1.45308e-07
3.22699e-07
-3.43544e-07
3.4572e-07
-5.58765e-07
3.70249e-07
-7.80616e-07
3.92496e-07
-9.97109e-07
4.06286e-07
-1.20235e-06
4.07689e-07
-1.3912e-06
3.98259e-07
-1.55885e-06
3.80147e-07
-1.70275e-06
3.55636e-07
-1.82282e-06
3.27333e-07
-1.92124e-06
2.97814e-07
-2.00119e-06
2.69215e-07
-2.06641e-06
2.43004e-07
-2.1205e-06
2.1999e-07
-2.16676e-06
2.00415e-07
-2.20793e-06
1.84112e-07
-2.24612e-06
1.70651e-07
-2.28297e-06
1.59466e-07
-2.3195e-06
1.49958e-07
-2.35651e-06
1.41553e-07
-2.39427e-06
1.33745e-07
-2.4331e-06
1.261e-07
-2.47285e-06
1.18274e-07
-2.51357e-06
1.09976e-07
-2.55484e-06
1.00988e-07
-2.59653e-06
9.11051e-08
-2.63799e-06
8.01958e-08
-2.67907e-06
6.81738e-08
-2.71905e-06
5.50392e-08
-2.75714e-06
4.06598e-08
-2.79079e-06
2.47091e-08
-2.81811e-06
7.4889e-09
-2.83745e-06
-1.10565e-08
-2.84716e-06
-3.10803e-08
-2.8458e-06
-5.22888e-08
-2.83284e-06
-7.43227e-08
-2.80778e-06
-9.68405e-08
-2.77059e-06
-1.19587e-07
-2.72121e-06
-1.42247e-07
-2.65992e-06
-1.64531e-07
-2.58707e-06
-1.8606e-07
-2.50327e-06
-2.06398e-07
-2.40931e-06
-2.24913e-07
-2.30633e-06
-2.41086e-07
-2.19565e-06
-2.54623e-07
-2.07869e-06
-2.65425e-07
-1.95683e-06
-2.73449e-07
-1.8315e-06
-2.78155e-07
-1.70425e-06
-2.79695e-07
-1.57623e-06
-2.78404e-07
-1.44887e-06
-2.74885e-07
-1.3233e-06
-2.6931e-07
-1.20025e-06
-2.62041e-07
-1.08024e-06
-2.53471e-07
-9.63871e-07
-2.44089e-07
-8.5134e-07
-2.34199e-07
-7.4285e-07
-2.24203e-07
-6.38029e-07
-2.14281e-07
-5.36328e-07
-2.04688e-07
-4.36562e-07
-1.953e-07
-3.38093e-07
-1.85531e-07
-2.42745e-07
-1.75439e-07
-1.55485e-07
-1.66399e-07
-7.62494e-08
-1.5866e-07
-1.66386e-09
-1.51594e-07
6.92125e-08
-1.44464e-07
1.36644e-07
-1.37452e-07
2.01318e-07
-1.30984e-07
2.63573e-07
-1.25149e-07
3.23745e-07
-1.19931e-07
3.82039e-07
-1.15314e-07
4.38665e-07
-1.11194e-07
4.93752e-07
-1.07539e-07
5.47455e-07
-1.04278e-07
5.99873e-07
-1.0138e-07
6.51124e-07
-9.87854e-08
7.01283e-07
-9.6454e-08
7.5044e-07
-9.43371e-08
7.98684e-07
-9.23887e-08
8.4607e-07
-9.0581e-08
8.92638e-07
-8.88892e-08
9.38416e-07
-8.72896e-08
9.83434e-07
-8.57577e-08
1.02771e-06
-8.42746e-08
1.07126e-06
-8.28248e-08
1.11411e-06
-8.1398e-08
1.15625e-06
-7.9986e-08
1.19769e-06
-7.8583e-08
1.23845e-06
-7.71837e-08
1.27853e-06
-7.5784e-08
1.31793e-06
-7.4383e-08
1.35665e-06
-7.29819e-08
1.39469e-06
-7.15838e-08
1.43206e-06
-7.01913e-08
1.46877e-06
-6.88076e-08
1.50481e-06
-6.74354e-08
1.54021e-06
-6.60777e-08
1.57495e-06
-6.47365e-08
1.60907e-06
-6.34149e-08
1.64255e-06
-6.21149e-08
1.67542e-06
-6.08395e-08
1.70769e-06
-5.95909e-08
1.73937e-06
-5.83717e-08
1.77048e-06
-5.71837e-08
1.80102e-06
-5.60288e-08
1.83103e-06
-5.49092e-08
1.86052e-06
-5.38278e-08
1.8895e-06
-5.27868e-08
1.918e-06
-5.17885e-08
1.94602e-06
-5.08328e-08
1.9736e-06
-4.99196e-08
2.00076e-06
-4.90479e-08
2.02751e-06
-4.82176e-08
2.05387e-06
-4.74286e-08
2.07987e-06
-4.66812e-08
2.10552e-06
-4.59755e-08
2.13084e-06
-4.53115e-08
2.15586e-06
-4.46895e-08
2.18058e-06
-4.41094e-08
2.20504e-06
-4.35712e-08
2.22926e-06
-4.30746e-08
2.25324e-06
-4.26193e-08
2.27702e-06
-4.22047e-08
2.3006e-06
-4.18301e-08
2.32401e-06
-4.14946e-08
2.34728e-06
-4.11983e-08
2.37041e-06
-4.09406e-08
2.39341e-06
-4.07168e-08
2.41632e-06
-4.05302e-08
2.43914e-06
-4.0379e-08
2.46189e-06
-4.02503e-08
2.48459e-06
-4.01871e-08
2.50726e-06
-4.01568e-08
2.52992e-06
-4.01388e-08
2.55257e-06
-4.01587e-08
2.57523e-06
-4.02183e-08
2.59792e-06
-4.03173e-08
2.62066e-06
-4.04479e-08
2.64346e-06
-4.06092e-08
2.66634e-06
-4.08e-08
2.6893e-06
-4.10205e-08
2.71236e-06
-4.12692e-08
2.73554e-06
-4.15458e-08
2.75885e-06
-4.18484e-08
2.7823e-06
-4.21762e-08
2.8059e-06
-4.2527e-08
2.82966e-06
-4.28984e-08
2.85358e-06
-4.32852e-08
2.87767e-06
-4.36822e-08
2.90193e-06
-4.40812e-08
2.92636e-06
-4.44736e-08
2.95094e-06
-4.48459e-08
2.97566e-06
-4.51845e-08
3.00048e-06
-4.54661e-08
3.02538e-06
-4.56703e-08
3.05028e-06
-4.57531e-08
3.07511e-06
-4.56897e-08
3.09976e-06
-4.53859e-08
3.12408e-06
-4.47869e-08
3.14781e-06
-4.36728e-08
3.17069e-06
-4.20202e-08
3.19209e-06
-3.90574e-08
3.21154e-06
-3.49577e-08
3.22732e-06
-2.69563e-08
3.2413e-06
-1.45826e-08
3.25834e-06
8.54681e-09
3.28438e-06
5.73408e-08
1.4441e-07
3.2904e-06
4.29445e-08
-4.57799e-07
2.44443e-08
-3.26329e-07
1.63833e-08
-3.08597e-07
7.32688e-09
-2.3461e-07
-2.02651e-08
-1.64395e-07
-5.91441e-08
-7.01466e-08
-1.12383e-07
4.22652e-08
-1.7787e-07
1.57903e-07
-2.60051e-07
2.55898e-07
-3.61059e-07
3.34357e-07
-4.83841e-07
3.96412e-07
-6.29245e-07
4.4672e-07
-7.9427e-07
4.87725e-07
-9.67966e-07
5.19494e-07
-1.13696e-06
5.3922e-07
-1.28888e-06
5.44465e-07
-1.41753e-06
5.34901e-07
-1.52252e-06
5.12692e-07
-1.60582e-06
4.81503e-07
-1.67105e-06
4.45364e-07
-1.72353e-06
4.08068e-07
-1.76897e-06
3.72749e-07
-1.81272e-06
3.41517e-07
-1.85898e-06
3.15435e-07
-1.91068e-06
2.94671e-07
-1.96949e-06
2.78764e-07
-2.03598e-06
2.6687e-07
-2.10989e-06
2.57987e-07
-2.19036e-06
2.51092e-07
-2.27619e-06
2.4524e-07
-2.36586e-06
2.39611e-07
-2.45789e-06
2.33521e-07
-2.5506e-06
2.26438e-07
-2.64251e-06
2.17948e-07
-2.73201e-06
2.0776e-07
-2.81776e-06
1.95666e-07
-2.89832e-06
1.81541e-07
-2.97256e-06
1.65292e-07
-3.03926e-06
1.46882e-07
-3.09742e-06
1.26288e-07
-3.14588e-06
1.03503e-07
-3.18378e-06
7.85236e-08
-3.2105e-06
5.14421e-08
-3.22561e-06
2.25899e-08
-3.22904e-06
-7.601e-09
-3.22111e-06
-3.90089e-08
-3.20204e-06
-7.13203e-08
-3.17195e-06
-1.04383e-07
-3.13077e-06
-1.37978e-07
-3.07848e-06
-1.71829e-07
-3.0151e-06
-2.05558e-07
-2.94084e-06
-2.38732e-07
-2.856e-06
-2.70827e-07
-2.76107e-06
-3.01252e-07
-2.6566e-06
-3.29305e-07
-2.54338e-06
-3.54217e-07
-2.42284e-06
-3.75093e-07
-2.29635e-06
-3.91831e-07
-2.16541e-06
-4.04333e-07
-2.03143e-06
-4.12068e-07
-1.89596e-06
-4.15121e-07
-1.76041e-06
-4.13906e-07
-1.62626e-06
-4.09013e-07
-1.49458e-06
-4.00968e-07
-1.36622e-06
-3.90392e-07
-1.24178e-06
-3.77899e-07
-1.12177e-06
-3.64095e-07
-1.00652e-06
-3.49441e-07
-8.96343e-07
-3.34374e-07
-7.91443e-07
-3.19177e-07
-6.91973e-07
-3.0416e-07
-5.978e-07
-2.89476e-07
-5.08088e-07
-2.75246e-07
-4.21747e-07
-2.61782e-07
-3.38689e-07
-2.4946e-07
-2.59263e-07
-2.38086e-07
-1.83335e-07
-2.27523e-07
-1.10228e-07
-2.17572e-07
-3.94399e-08
-2.08244e-07
2.91622e-08
-1.9959e-07
9.57144e-08
-1.91707e-07
1.60324e-07
-1.84548e-07
2.23069e-07
-1.78068e-07
2.84081e-07
-1.72215e-07
3.43485e-07
-1.66952e-07
4.01411e-07
-1.62213e-07
4.5797e-07
-1.57947e-07
5.13261e-07
-1.54088e-07
5.6737e-07
-1.50581e-07
6.20381e-07
-1.47369e-07
6.72374e-07
-1.44397e-07
7.23412e-07
-1.41625e-07
7.73537e-07
-1.39017e-07
8.22788e-07
-1.3654e-07
8.71197e-07
-1.34165e-07
9.18791e-07
-1.31867e-07
9.65595e-07
-1.29625e-07
1.01163e-06
-1.27426e-07
1.0569e-06
-1.25256e-07
1.10143e-06
-1.23106e-07
1.14521e-06
-1.20968e-07
1.18827e-06
-1.18838e-07
1.23061e-06
-1.16715e-07
1.27223e-06
-1.14598e-07
1.31314e-06
-1.12491e-07
1.35334e-06
-1.10396e-07
1.39285e-06
-1.08317e-07
1.43168e-06
-1.06257e-07
1.46982e-06
-1.04218e-07
1.50728e-06
-1.02204e-07
1.54409e-06
-1.00218e-07
1.58024e-06
-9.82643e-08
1.61574e-06
-9.63465e-08
1.65062e-06
-9.44671e-08
1.68487e-06
-9.26282e-08
1.71852e-06
-9.08324e-08
1.75157e-06
-8.90831e-08
1.78405e-06
-8.73846e-08
1.81596e-06
-8.57413e-08
1.84733e-06
-8.41568e-08
1.87817e-06
-8.26323e-08
1.90851e-06
-8.11679e-08
1.93835e-06
-7.97625e-08
1.96771e-06
-7.84153e-08
1.99662e-06
-7.71263e-08
2.02509e-06
-7.58961e-08
2.05313e-06
-7.47256e-08
2.08077e-06
-7.36154e-08
2.10803e-06
-7.25661e-08
2.13492e-06
-7.1578e-08
2.16146e-06
-7.06513e-08
2.18767e-06
-6.97855e-08
2.21358e-06
-6.89804e-08
2.2392e-06
-6.82355e-08
2.26455e-06
-6.75504e-08
2.28964e-06
-6.69245e-08
2.31451e-06
-6.6357e-08
2.33916e-06
-6.58476e-08
2.36362e-06
-6.53959e-08
2.3879e-06
-6.49998e-08
2.41204e-06
-6.46591e-08
2.43604e-06
-6.43753e-08
2.45993e-06
-6.41426e-08
2.48373e-06
-6.39793e-08
2.50745e-06
-6.38751e-08
2.53113e-06
-6.38161e-08
2.55478e-06
-6.38071e-08
2.57842e-06
-6.3854e-08
2.60206e-06
-6.39605e-08
2.62574e-06
-6.41232e-08
2.64947e-06
-6.43391e-08
2.67328e-06
-6.46063e-08
2.69719e-06
-6.49236e-08
2.72121e-06
-6.52904e-08
2.74537e-06
-6.57062e-08
2.7697e-06
-6.61692e-08
2.7942e-06
-6.6677e-08
2.8189e-06
-6.72268e-08
2.84382e-06
-6.78144e-08
2.86897e-06
-6.84324e-08
2.89436e-06
-6.90716e-08
2.92e-06
-6.97194e-08
2.94589e-06
-7.03615e-08
2.97202e-06
-7.09778e-08
2.99839e-06
-7.15472e-08
3.02496e-06
-7.2037e-08
3.05171e-06
-7.24152e-08
3.07858e-06
-7.26212e-08
3.10551e-06
-7.26099e-08
3.13238e-06
-7.22524e-08
3.15907e-06
-7.1478e-08
3.18538e-06
-6.99761e-08
3.21106e-06
-6.76977e-08
3.23571e-06
-6.36994e-08
3.25886e-06
-5.80986e-08
3.27967e-06
-4.77627e-08
3.29808e-06
-3.29869e-08
3.3112e-06
-4.55961e-09
3.32368e-06
4.48576e-08
1.4153e-07
3.32656e-06
-1.02526e-07
-3.55166e-07
-1.77178e-07
-2.51647e-07
-2.60441e-07
-2.25313e-07
-3.44119e-07
-1.50945e-07
-4.43097e-07
-6.54086e-08
-5.45365e-07
3.21326e-08
-6.40586e-07
1.37503e-07
-7.26079e-07
2.43441e-07
-8.11388e-07
3.41221e-07
-9.02669e-07
4.25697e-07
-1.00117e-06
4.94916e-07
-1.10264e-06
5.48248e-07
-1.19927e-06
5.8434e-07
-1.28216e-06
6.02432e-07
-1.34588e-06
6.02914e-07
-1.38957e-06
5.88172e-07
-1.4169e-06
5.62199e-07
-1.43395e-06
5.2974e-07
-1.44787e-06
4.95392e-07
-1.46545e-06
4.6292e-07
-1.49226e-06
4.34842e-07
-1.5319e-06
4.12355e-07
-1.58595e-06
3.95533e-07
-1.65422e-06
3.83684e-07
-1.73529e-06
3.7571e-07
-1.82693e-06
3.70382e-07
-1.92661e-06
3.66522e-07
-2.03173e-06
3.63082e-07
-2.13984e-06
3.59184e-07
-2.24875e-06
3.54115e-07
-2.35648e-06
3.4732e-07
-2.46139e-06
3.38386e-07
-2.562e-06
3.27023e-07
-2.65715e-06
3.1305e-07
-2.74579e-06
2.9638e-07
-2.82717e-06
2.7699e-07
-2.90057e-06
2.5492e-07
-2.96557e-06
2.30246e-07
-3.02178e-06
2.03074e-07
-3.06905e-06
1.73514e-07
-3.10721e-06
1.41652e-07
-3.13628e-06
1.07557e-07
-3.15616e-06
7.13267e-08
-3.1667e-06
3.31089e-08
-3.16739e-06
-6.8963e-09
-3.15797e-06
-4.84254e-08
-3.13796e-06
-9.13065e-08
-3.10702e-06
-1.35295e-07
-3.06488e-06
-1.80088e-07
-3.01136e-06
-2.25302e-07
-2.94645e-06
-2.70427e-07
-2.87025e-06
-3.14876e-07
-2.7831e-06
-3.57923e-07
-2.68556e-06
-3.98728e-07
-2.57845e-06
-4.36355e-07
-2.46279e-06
-4.69811e-07
-2.3398e-06
-4.98029e-07
-2.21112e-06
-5.20462e-07
-2.07862e-06
-5.36784e-07
-1.9441e-06
-5.4655e-07
-1.80938e-06
-5.49811e-07
-1.67615e-06
-5.47115e-07
-1.54584e-06
-5.39311e-07
-1.41944e-06
-5.27355e-07
-1.29758e-06
-5.12239e-07
-1.18061e-06
-4.94874e-07
-1.06864e-06
-4.76058e-07
-9.61655e-07
-4.5642e-07
-8.59552e-07
-4.36476e-07
-7.62149e-07
-4.1658e-07
-6.69279e-07
-3.97031e-07
-5.80765e-07
-3.77993e-07
-4.96376e-07
-3.59638e-07
-4.1594e-07
-3.42222e-07
-3.39354e-07
-3.26048e-07
-2.66308e-07
-3.11134e-07
-1.96417e-07
-2.97416e-07
-1.29227e-07
-2.84765e-07
-6.43087e-08
-2.73165e-07
-1.34216e-09
-2.6256e-07
5.98408e-08
-2.52894e-07
1.19401e-07
-2.44114e-07
1.77518e-07
-2.3619e-07
2.34339e-07
-2.29041e-07
2.89979e-07
-2.22596e-07
3.44535e-07
-2.16773e-07
3.98081e-07
-2.11498e-07
4.5068e-07
-2.06693e-07
5.0238e-07
-2.02292e-07
5.53227e-07
-1.98229e-07
6.03265e-07
-1.94443e-07
6.52523e-07
-1.90887e-07
7.01021e-07
-1.87515e-07
7.48773e-07
-1.84292e-07
7.95792e-07
-1.81183e-07
8.42091e-07
-1.78164e-07
8.87679e-07
-1.75212e-07
9.32567e-07
-1.72312e-07
9.76764e-07
-1.6945e-07
1.02028e-06
-1.66616e-07
1.06311e-06
-1.63801e-07
1.10528e-06
-1.61001e-07
1.14678e-06
-1.58214e-07
1.18762e-06
-1.55442e-07
1.22782e-06
-1.52687e-07
1.26738e-06
-1.49952e-07
1.3063e-06
-1.47241e-07
1.3446e-06
-1.44556e-07
1.38228e-06
-1.419e-07
1.41936e-06
-1.39278e-07
1.45583e-06
-1.36697e-07
1.49173e-06
-1.34158e-07
1.52704e-06