/*--------------------------------*- C++ -*----------------------------------*\
| =========                 |                                                 |
| \\      /  F ield         | OpenFOAM: The Open Source CFD Toolbox           |
|  \\    /   O peration     | Version:  v1906                                 |
|   \\  /    A nd           | Web:      www.OpenFOAM.com                      |
|    \\/     M anipulation  |                                                 |
\*---------------------------------------------------------------------------*/
FoamFile
{
    version     2.0;
    format      ascii;
    class       volSymmTensorField;
    location    "400";
    object      R;
}
// * * * * * * * * * * * * * * * * * * * * * * * * * * * * * * * * * * * * * //

dimensions      [0 2 -2 0 0 0 0];


internalField   nonuniform List<symmTensor> 
12225
(
(1.62918 -0.333427 0 1.36078 0 1.52752)
(1.99603 -0.5977 0 0.915061 0 1.54224)
(2.14972 -0.586189 0 0.685646 0 1.48845)
(2.1627 -0.548237 0 0.594746 0 1.42576)
(2.12981 -0.520972 0 0.549725 0 1.37011)
(2.08379 -0.501199 0 0.521705 0 1.32304)
(2.03636 -0.485682 0 0.501101 0 1.2828)
(1.99209 -0.472894 0 0.484733 0 1.2483)
(1.95063 -0.461768 0 0.470866 0 1.21773)
(1.91451 -0.452314 0 0.459303 0 1.19151)
(1.8794 -0.443466 0 0.448807 0 1.16721)
(1.85195 -0.436845 0 0.440176 0 1.14714)
(1.82978 -0.431597 0 0.433157 0 1.13083)
(1.81217 -0.427251 0 0.427391 0 1.1173)
(1.79557 -0.423235 0 0.422163 0 1.10509)
(1.78391 -0.420723 0 0.418651 0 1.09611)
(1.77002 -0.416738 0 0.41364 0 1.08557)
(1.76464 -0.417592 0 0.413366 0 1.08156)
(1.52372 -0.0379524 0 1.46009 0 1.51677)
(1.57652 -0.140448 0 1.18691 0 1.51214)
(1.58674 -0.190069 0 0.927561 0 1.45698)
(1.57208 -0.209384 0 0.773663 0 1.39906)
(1.54356 -0.218214 0 0.676052 0 1.34286)
(1.51887 -0.22529 0 0.610875 0 1.29756)
(1.49723 -0.231489 0 0.564149 0 1.25991)
(1.47774 -0.236901 0 0.528738 0 1.22731)
(1.46129 -0.241899 0 0.501097 0 1.19981)
(1.44654 -0.246144 0 0.478677 0 1.17515)
(1.43507 -0.250436 0 0.46057 0 1.15504)
(1.42395 -0.253652 0 0.444834 0 1.13542)
(1.41709 -0.257906 0 0.432727 0 1.12132)
(1.40936 -0.260053 0 0.420683 0 1.10503)
(1.40546 -0.26449 0 0.413266 0 1.09593)
(1.40063 -0.265147 0 0.402585 0 1.08167)
(1.39714 -0.269399 0 0.399061 0 1.07615)
(1.39308 -0.267662 0 0.388726 0 1.06248)
(1.51161 -0.00810514 0 1.49387 0 1.51022)
(1.53454 -0.0358739 0 1.38464 0 1.5186)
(1.54649 -0.061525 0 1.23508 0 1.50565)
(1.54345 -0.0798429 0 1.11785 0 1.48181)
(1.52935 -0.0934315 0 1.02619 0 1.45237)
(1.51251 -0.105285 0 0.952688 0 1.42307)
(1.49527 -0.115923 0 0.892797 0 1.39557)
(1.47824 -0.125505 0 0.843043 0 1.36982)
(1.46242 -0.134302 0 0.801187 0 1.34646)
(1.44758 -0.142203 0 0.765381 0 1.32476)
(1.4344 -0.149663 0 0.734651 0 1.30555)
(1.42208 -0.156173 0 0.707524 0 1.28723)
(1.41136 -0.162653 0 0.684387 0 1.27173)
(1.40193 -0.167894 0 0.662742 0 1.25609)
(1.39236 -0.173557 0 0.645929 0 1.24414)
(1.38774 -0.177503 0 0.626045 0 1.22995)
(1.37356 -0.182051 0 0.618751 0 1.22264)
(1.38838 -0.183809 0 0.588026 0 1.20733)
(1.51152 -0.00607651 0 1.49418 0 1.51109)
(1.52721 -0.0163008 0 1.42181 0 1.52175)
(1.53977 -0.0295042 0 1.31289 0 1.52319)
(1.54297 -0.0419325 0 1.21344 0 1.51518)
(1.53791 -0.0522136 0 1.12961 0 1.50093)
(1.52891 -0.0612689 0 1.05893 0 1.48402)
(1.51809 -0.0694961 0 0.999318 0 1.46638)
(1.50634 -0.0770347 0 0.948595 0 1.44869)
(1.49453 -0.0840478 0 0.905062 0 1.43164)
(1.4829 -0.0904966 0 0.867306 0 1.41524)
(1.47186 -0.0965802 0 0.834398 0 1.39995)
(1.46132 -0.102112 0 0.805297 0 1.38531)
(1.45147 -0.107426 0 0.779814 0 1.37201)
(1.44252 -0.112062 0 0.756656 0 1.35911)
(1.4336 -0.116609 0 0.736846 0 1.34783)
(1.42697 -0.120234 0 0.717176 0 1.33636)
(1.4178 -0.123702 0 0.703022 0 1.32744)
(1.41531 -0.126186 0 0.68251 0 1.31698)
(1.50987 -0.00455177 0 1.49821 0 1.50975)
(1.52092 -0.00885399 0 1.44947 0 1.51877)
(1.53223 -0.0149505 0 1.37328 0 1.52455)
(1.53797 -0.0220032 0 1.29833 0 1.52389)
(1.53793 -0.0286204 0 1.2317 0 1.51814)
(1.53431 -0.0349024 0 1.17295 0 1.50938)
(1.52856 -0.0409799 0 1.12131 0 1.49904)
(1.52147 -0.0468213 0 1.07584 0 1.48784)
(1.51367 -0.0524242 0 1.0356 0 1.47636)
(1.50555 -0.0577312 0 0.999812 0 1.46487)
(1.49741 -0.0627945 0 0.967883 0 1.45368)
(1.48938 -0.0675281 0 0.939177 0 1.44274)
(1.48157 -0.0720271 0 0.913403 0 1.43236)
(1.47418 -0.0761021 0 0.889943 0 1.4223)
(1.46697 -0.0799056 0 0.868904 0 1.41299)
(1.4607 -0.0831738 0 0.849129 0 1.40393)
(1.45436 -0.086016 0 0.831969 0 1.39608)
(1.45019 -0.0885679 0 0.813157 0 1.38815)
(1.50978 -0.00412884 0 1.49853 0 1.50979)
(1.51848 -0.00588347 0 1.46069 0 1.51763)
(1.52834 -0.00842997 0 1.40235 0 1.52458)
(1.53488 -0.0122318 0 1.34181 0 1.52739)
(1.53741 -0.0162786 0 1.28529 0 1.52629)
(1.537 -0.0203741 0 1.2337 0 1.52247)
(1.53455 -0.0245185 0 1.18711 0 1.51686)
(1.53065 -0.0286362 0 1.14521 0 1.51008)
(1.5258 -0.0326756 0 1.1075 0 1.5026)
(1.52036 -0.0365851 0 1.07349 0 1.49473)
(1.5146 -0.0403608 0 1.04276 0 1.48673)
(1.50869 -0.0439493 0 1.01488 0 1.47871)
(1.50275 -0.0473567 0 0.989545 0 1.47084)
(1.49694 -0.0504961 0 0.96638 0 1.46313)
(1.49127 -0.05338 0 0.945228 0 1.45575)
(1.48605 -0.0559357 0 0.925552 0 1.44865)
(1.48103 -0.0581717 0 0.907558 0 1.4421)
(1.47689 -0.0603979 0 0.889357 0 1.4357)
(1.50947 -0.0034066 0 1.49935 0 1.50955)
(1.51637 -0.00437688 0 1.46909 0 1.51612)
(1.52459 -0.00514496 0 1.4239 0 1.5228)
(1.53092 -0.00682266 0 1.37546 0 1.5269)
(1.53448 -0.00893419 0 1.32879 0 1.52813)
(1.53575 -0.0113047 0 1.28519 0 1.52713)
(1.53528 -0.0139005 0 1.24501 0 1.52448)
(1.53347 -0.0166316 0 1.20823 0 1.52064)
(1.53071 -0.019418 0 1.1746 0 1.51599)
(1.52727 -0.0221973 0 1.14384 0 1.51078)
(1.52339 -0.0249332 0 1.11568 0 1.50525)
(1.51923 -0.0275752 0 1.08984 0 1.49953)
(1.51491 -0.0300937 0 1.06609 0 1.49376)
(1.51058 -0.0324367 0 1.04418 0 1.488)
(1.50632 -0.0345824 0 1.02393 0 1.48238)
(1.50229 -0.0365211 0 1.00505 0 1.47694)
(1.49858 -0.0382613 0 0.987435 0 1.47185)
(1.4952 -0.0400777 0 0.970383 0 1.46692)
(1.50953 -0.00301189 0 1.4993 0 1.50963)
(1.51535 -0.00365084 0 1.4735 0 1.51541)
(1.52223 -0.00355213 0 1.43701 0 1.52151)
(1.52806 -0.00402997 0 1.397 0 1.52604)
(1.53201 -0.00495273 0 1.35736 0 1.52853)
(1.53423 -0.00620467 0 1.31949 0 1.52924)
(1.53501 -0.00773729 0 1.28395 0 1.52853)
(1.53463 -0.00946156 0 1.25089 0 1.52672)
(1.53335 -0.011295 0 1.22026 0 1.52408)
(1.53139 -0.0131758 0 1.19193 0 1.52084)
(1.52894 -0.0150587 0 1.16573 0 1.51718)
(1.52615 -0.0168979 0 1.14148 0 1.51323)
(1.52315 -0.0186562 0 1.11901 0 1.50911)
(1.52004 -0.020298 0 1.09814 0 1.50491)
(1.51692 -0.0218024 0 1.07871 0 1.50073)
(1.51392 -0.0231789 0 1.06054 0 1.49663)
(1.51102 -0.0244713 0 1.04355 0 1.49268)
(1.50811 -0.0258492 0 1.02754 0 1.48884)
(1.50948 -0.00247308 0 1.49946 0 1.50961)
(1.51443 -0.00309798 0 1.47715 0 1.51467)
(1.52017 -0.00265323 0 1.44716 0 1.52006)
(1.52533 -0.00242077 0 1.41389 0 1.52451)
(1.52923 -0.00251851 0 1.38032 0 1.52752)
(1.53183 -0.00292941 0 1.34772 0 1.52915)
(1.53329 -0.00362848 0 1.31669 0 1.5296)
(1.53376 -0.00454585 0 1.28749 0 1.52909)
(1.53344 -0.00560835 0 1.26014 0 1.52781)
(1.53251 -0.00675655 0 1.23459 0 1.52595)
(1.5311 -0.00794202 0 1.21075 0 1.52364)
(1.52934 -0.00912004 0 1.18851 0 1.52101)
(1.52735 -0.0102526 0 1.16776 0 1.51817)
(1.52522 -0.0113114 0 1.14836 0 1.51519)
(1.52305 -0.0122804 0 1.1302 0 1.51216)
(1.5209 -0.0131742 0 1.11318 0 1.50915)
(1.5188 -0.0140217 0 1.09727 0 1.50622)
(1.51647 -0.0149362 0 1.08259 0 1.50333)
(1.50952 -0.00211952 0 1.49943 0 1.50965)
(1.51391 -0.00276471 0 1.47942 0 1.51425)
(1.51877 -0.00220222 0 1.45401 0 1.51905)
(1.52331 -0.00160335 0 1.42578 0 1.52324)
(1.52698 -0.00122046 0 1.39687 0 1.52643)
(1.52972 -0.00110727 0 1.36838 0 1.52857)
(1.53154 -0.00125933 0 1.3409 0 1.52976)
(1.53257 -0.00162371 0 1.31472 0 1.53013)
(1.53292 -0.00213842 0 1.28996 0 1.52982)
(1.53273 -0.0027493 0 1.26661 0 1.52896)
(1.53209 -0.00340998 0 1.24465 0 1.52767)
(1.53113 -0.00407943 0 1.22403 0 1.52606)
(1.52993 -0.00472319 0 1.20466 0 1.52421)
(1.52858 -0.00531766 0 1.18647 0 1.52219)
(1.52715 -0.00585097 0 1.16939 0 1.52008)
(1.52567 -0.00633412 0 1.15339 0 1.51793)
(1.5241 -0.00679618 0 1.1385 0 1.51577)
(1.52223 -0.00727034 0 1.12495 0 1.51362)
(1.50949 -0.00170929 0 1.49955 0 1.50963)
(1.51341 -0.00237955 0 1.48143 0 1.51382)
(1.51755 -0.00184256 0 1.45956 0 1.51807)
(1.5215 -0.00107911 0 1.43537 0 1.52192)
(1.52486 -0.000402374 0 1.41036 0 1.52506)
(1.52752 7.78938e-05 0 1.38545 0 1.52741)
(1.52949 0.00033847 0 1.36117 0 1.529)
(1.53081 0.00040955 0 1.33782 0 1.52991)
(1.53158 0.000337685 0 1.31554 0 1.53023)
(1.53187 0.000168773 0 1.29439 0 1.53007)
(1.53178 -5.51548e-05 0 1.27435 0 1.52951)
(1.53139 -0.000296652 0 1.25542 0 1.52864)
(1.53079 -0.000524164 0 1.23755 0 1.52752)
(1.53004 -0.000715454 0 1.22071 0 1.52624)
(1.52919 -0.000857028 0 1.20486 0 1.52484)
(1.52827 -0.000948959 0 1.19003 0 1.52338)
(1.52722 -0.00099005 0 1.1763 0 1.52189)
(1.52582 -0.000994692 0 1.16393 0 1.52036)
(1.50945 -0.00144583 0 1.49965 0 1.5096)
(1.51308 -0.00211876 0 1.48277 0 1.51354)
(1.51673 -0.00164545 0 1.46328 0 1.51739)
(1.52022 -0.000845677 0 1.44193 0 1.52095)
(1.52328 -4.38438e-05 0 1.41976 0 1.52396)
(1.52582 0.000622473 0 1.3975 0 1.52637)
(1.52781 0.00111284 0 1.37561 0 1.52816)
(1.52927 0.00144142 0 1.35439 0 1.52938)
(1.53028 0.00164297 0 1.33399 0 1.5301)
(1.53088 0.00175628 0 1.31448 0 1.53039)
(1.53115 0.00181885 0 1.2959 0 1.53033)
(1.53117 0.0018648 0 1.27826 0 1.52997)
(1.53098 0.00192345 0 1.26154 0 1.52938)
(1.53066 0.00201708 0 1.24575 0 1.52863)
(1.53023 0.00216221 0 1.23089 0 1.52774)
(1.52971 0.00236884 0 1.21699 0 1.52677)
(1.52902 0.00264828 0 1.2042 0 1.52575)
(1.52802 0.00303951 0 1.19275 0 1.52467)
(1.50939 -0.00117374 0 1.49983 0 1.50954)
(1.51275 -0.00181108 0 1.48403 0 1.51324)
(1.51599 -0.00141594 0 1.46648 0 1.51676)
(1.51907 -0.000638091 0 1.44747 0 1.52001)
(1.52184 0.000216472 0 1.4277 0 1.52286)
(1.52421 0.000997227 0 1.40773 0 1.52524)
(1.52615 0.00165018 0 1.38796 0 1.52712)
(1.52767 0.00217479 0 1.36866 0 1.52853)
(1.52882 0.00259423 0 1.34998 0 1.52952)
(1.52963 0.00293967 0 1.33202 0 1.53013)
(1.53016 0.00324372 0 1.31482 0 1.53042)
(1.53046 0.00353745 0 1.29842 0 1.53045)
(1.5306 0.00384892 0 1.28284 0 1.53026)
(1.53061 0.00420238 0 1.26809 0 1.52991)
(1.53052 0.00461985 0 1.2542 0 1.52943)
(1.53034 0.00512486 0 1.24125 0 1.52887)
(1.53001 0.0057512 0 1.22937 0 1.52824)
(1.5294 0.00654067 0 1.2188 0 1.52755)
(1.5093 -0.000946682 0 1.50005 0 1.50945)
(1.51244 -0.00153236 0 1.4852 0 1.51295)
(1.51532 -0.00122407 0 1.4693 0 1.51617)
(1.51803 -0.000515021 0 1.45237 0 1.51914)
(1.5205 0.000323849 0 1.43478 0 1.5218)
(1.52267 0.00114334 0 1.41693 0 1.52409)
(1.52452 0.00188197 0 1.39915 0 1.526)
(1.52604 0.00252829 0 1.38166 0 1.52753)
(1.52727 0.00309584 0 1.36461 0 1.52871)
(1.52824 0.00360892 0 1.34812 0 1.52958)
(1.52898 0.00409567 0 1.33224 0 1.53017)
(1.52953 0.00458469 0 1.31704 0 1.53052)
(1.52994 0.00510383 0 1.30255 0 1.53068)
(1.53025 0.00567979 0 1.28881 0 1.53069)
(1.53047 0.00634033 0 1.27588 0 1.53058)
(1.53061 0.00711752 0 1.26384 0 1.53037)
(1.53064 0.008053 0 1.25284 0 1.53011)
(1.53048 0.00923124 0 1.24306 0 1.5298)
(1.50919 -0.000674788 0 1.50035 0 1.50934)
(1.51208 -0.00112982 0 1.48643 0 1.51261)
(1.51465 -0.000883006 0 1.47201 0 1.51555)
(1.51702 -0.000263992 0 1.4569 0 1.51825)
(1.51918 0.000516298 0 1.44127 0 1.52069)
(1.52113 0.00132793 0 1.42537 0 1.52286)
(1.52285 0.0021098 0 1.40944 0 1.52473)
(1.52433 0.00284327 0 1.39367 0 1.5263)
(1.52559 0.00353347 0 1.3782 0 1.5276)
(1.52665 0.00419785 0 1.36314 0 1.52864)
(1.52753 0.0048599 0 1.34858 0 1.52945)
(1.52827 0.00554615 0 1.33457 0 1.53005)
(1.52891 0.00628514 0 1.32118 0 1.53049)
(1.52948 0.00710823 0 1.30846 0 1.5308)
(1.52999 0.00805103 0 1.2965 0 1.53099)
(1.53046 0.00915708 0 1.28538 0 1.53111)
(1.53087 0.0104805 0 1.27523 0 1.53117)
(1.53118 0.0120722 0 1.26623 0 1.53121)
(1.50904 -0.00047174 0 1.50069 0 1.5092)
(1.51172 -0.000802407 0 1.48758 0 1.51227)
(1.51403 -0.000616446 0 1.47431 0 1.51498)
(1.51613 -0.000118073 0 1.46065 0 1.51744)
(1.51804 0.000542255 0 1.44662 0 1.51969)
(1.51979 0.00126346 0 1.43235 0 1.52172)
(1.52136 0.00199305 0 1.41799 0 1.52352)
(1.52277 0.00271165 0 1.40369 0 1.52509)
(1.52401 0.00342031 0 1.38959 0 1.52645)
(1.52511 0.0041322 0 1.37579 0 1.52759)
(1.52608 0.00486768 0 1.36238 0 1.52854)
(1.52696 0.00565186 0 1.34944 0 1.52933)
(1.52778 0.00651403 0 1.33703 0 1.52997)
(1.52856 0.00748814 0 1.32523 0 1.53051)
(1.52933 0.00861484 0 1.31411 0 1.53095)
(1.53012 0.00994467 0 1.30378 0 1.53134)
(1.53094 0.0115399 0 1.29434 0 1.53169)
(1.53178 0.0135017 0 1.28594 0 1.53205)
(1.5089 -0.00020321 0 1.50105 0 1.50906)
(1.51137 -0.000298336 0 1.48863 0 1.51192)
(1.51348 -8.43557e-05 0 1.47627 0 1.51444)
(1.51536 0.000343349 0 1.4637 0 1.51672)
(1.51707 0.000904553 0 1.45086 0 1.51881)
(1.51864 0.0015407 0 1.43782 0 1.52071)
(1.52009 0.00221953 0 1.42467 0 1.52243)
(1.52141 0.00292895 0 1.41153 0 1.52397)
(1.52261 0.00367073 0 1.39851 0 1.52533)
(1.52372 0.00445615 0 1.38571 0 1.52652)
(1.52474 0.00530333 0 1.37322 0 1.52755)
(1.52571 0.00623609 0 1.36112 0 1.52845)
(1.52665 0.00728363 0 1.34949 0 1.52923)
(1.5276 0.00848122 0 1.3384 0 1.52992)
(1.52859 0.00987054 0 1.32794 0 1.53055)
(1.52966 0.0115001 0 1.3182 0 1.53113)
(1.53085 0.0134253 0 1.30927 0 1.53171)
(1.53219 0.0156924 0 1.30127 0 1.53232)
(1.50878 -3.99187e-05 0 1.50133 0 1.50894)
(1.51111 3.92059e-05 0 1.48937 0 1.51166)
(1.51311 0.000243563 0 1.4775 0 1.51407)
(1.51488 0.000546008 0 1.46552 0 1.51625)
(1.51649 0.000925203 0 1.45334 0 1.51825)
(1.51797 0.00136521 0 1.44098 0 1.52007)
(1.51934 0.0018584 0 1.42852 0 1.52173)
(1.52061 0.00240455 0 1.41604 0 1.52324)
(1.5218 0.00300967 0 1.40365 0 1.52459)
(1.5229 0.00368535 0 1.39144 0 1.52579)
(1.52396 0.00444852 0 1.37949 0 1.52686)
(1.52498 0.00532162 0 1.36788 0 1.52781)
(1.52601 0.00633322 0 1.35669 0 1.52867)
(1.52709 0.00751908 0 1.34599 0 1.52945)
(1.52826 0.00892296 0 1.33585 0 1.53018)
(1.52956 0.0105994 0 1.32634 0 1.5309)
(1.53106 0.0126111 0 1.31756 0 1.53163)
(1.5328 0.0150494 0 1.30958 0 1.53241)
(1.50879 0.000307315 0 1.50127 0 1.50896)
(1.51114 0.000770721 0 1.48922 0 1.5117)
(1.51315 0.00112742 0 1.47725 0 1.51412)
(1.51493 0.00144137 0 1.46514 0 1.51631)
(1.51655 0.00176581 0 1.45282 0 1.5183)
(1.51803 0.00213819 0 1.44032 0 1.52012)
(1.51939 0.00258329 0 1.42772 0 1.52177)
(1.52063 0.00311731 0 1.41511 0 1.52325)
(1.52178 0.00375205 0 1.40259 0 1.52458)
(1.52284 0.00449838 0 1.39025 0 1.52574)
(1.52384 0.0053687 0 1.37817 0 1.52677)
(1.52481 0.00637871 0 1.36642 0 1.52768)
(1.52579 0.00754856 0 1.35507 0 1.5285)
(1.52683 0.00890369 0 1.34417 0 1.52924)
(1.52798 0.0104751 0 1.33378 0 1.52995)
(1.52932 0.0122989 0 1.32394 0 1.53065)
(1.53092 0.0144157 0 1.31471 0 1.53139)
(1.53287 0.0168608 0 1.30615 0 1.53223)
(1.50903 0.000488953 0 1.5008 0 1.50917)
(1.5117 0.00109858 0 1.48789 0 1.51218)
(1.51399 0.00138328 0 1.4749 0 1.51484)
(1.51606 0.00150131 0 1.46157 0 1.51725)
(1.51795 0.00157213 0 1.44792 0 1.51944)
(1.51967 0.00167442 0 1.43404 0 1.52141)
(1.52124 0.00185484 0 1.42007 0 1.52317)
(1.52264 0.00213761 0 1.40615 0 1.52472)
(1.5239 0.00253422 0 1.39239 0 1.52606)
(1.52502 0.00305056 0 1.37889 0 1.5272)
(1.52604 0.00369152 0 1.36573 0 1.52816)
(1.52699 0.0044637 0 1.35296 0 1.52897)
(1.5279 0.00537777 0 1.34065 0 1.52966)
(1.52881 0.00644995 0 1.32884 0 1.53024)
(1.52979 0.00770496 0 1.31756 0 1.53075)
(1.53087 0.0091781 0 1.30686 0 1.53122)
(1.53214 0.0109211 0 1.29679 0 1.53169)
(1.53364 0.013017 0 1.28738 0 1.53218)
(1.5092 0.000855632 0 1.50034 0 1.50934)
(1.51219 0.00175203 0 1.48628 0 1.51265)
(1.51485 0.00206004 0 1.47167 0 1.51562)
(1.51731 0.00210919 0 1.45637 0 1.51835)
(1.51955 0.00210428 0 1.44056 0 1.52079)
(1.52155 0.00215933 0 1.4245 0 1.52294)
(1.5233 0.00233175 0 1.40841 0 1.52479)
(1.5248 0.00264288 0 1.39247 0 1.52633)
(1.52606 0.00309554 0 1.37683 0 1.52759)
(1.52711 0.00368601 0 1.36158 0 1.52858)
(1.52798 0.00441051 0 1.3468 0 1.52933)
(1.52871 0.00526876 0 1.33254 0 1.52988)
(1.52933 0.00626613 0 1.31884 0 1.53026)
(1.5299 0.00741553 0 1.30573 0 1.5305)
(1.53046 0.008738 0 1.29321 0 1.53064)
(1.53111 0.0102642 0 1.28131 0 1.53073)
(1.53191 0.0120297 0 1.27001 0 1.53081)
(1.53303 0.0140614 0 1.25931 0 1.53097)
(1.5094 0.00112381 0 1.49992 0 1.50952)
(1.51276 0.00213253 0 1.48452 0 1.51314)
(1.51594 0.00235011 0 1.46767 0 1.51651)
(1.51894 0.00229108 0 1.44957 0 1.51962)
(1.52165 0.0022091 0 1.43077 0 1.52235)
(1.52398 0.00222397 0 1.41177 0 1.52464)
(1.52593 0.00239056 0 1.39293 0 1.52647)
(1.52749 0.0027226 0 1.37447 0 1.52787)
(1.52869 0.00321311 0 1.35655 0 1.52888)
(1.52958 0.00384907 0 1.33926 0 1.52953)
(1.53021 0.00461773 0 1.32263 0 1.52989)
(1.53063 0.00550884 0 1.3067 0 1.52999)
(1.53089 0.00651551 0 1.29147 0 1.52989)
(1.53105 0.00763412 0 1.27694 0 1.52963)
(1.53117 0.00886503 0 1.2631 0 1.52925)
(1.53131 0.0102126 0 1.24995 0 1.52879)
(1.53151 0.011694 0 1.23747 0 1.5283)
(1.53178 0.0133682 0 1.22572 0 1.52776)
(1.50953 0.00169485 0 1.49953 0 1.50964)
(1.51345 0.0029166 0 1.48198 0 1.51374)
(1.51743 0.00314097 0 1.4614 0 1.51775)
(1.52122 0.00318866 0 1.43883 0 1.5214)
(1.5245 0.00333734 0 1.41545 0 1.52441)
(1.52717 0.00366736 0 1.39204 0 1.52674)
(1.52922 0.00420051 0 1.36908 0 1.52839)
(1.53068 0.0049216 0 1.34686 0 1.52944)
(1.53163 0.0057995 0 1.32552 0 1.52994)
(1.53213 0.00680506 0 1.30513 0 1.52999)
(1.53227 0.00791584 0 1.28572 0 1.52966)
(1.5321 0.00911573 0 1.26728 0 1.52901)
(1.5317 0.010395 0 1.24981 0 1.52812)
(1.53112 0.0117515 0 1.23326 0 1.52702)
(1.53042 0.0131924 0 1.21762 0 1.52578)
(1.52964 0.0147413 0 1.20285 0 1.52442)
(1.52886 0.016438 0 1.18892 0 1.523)
(1.5283 0.0183271 0 1.17573 0 1.52165)
(1.50957 0.00206864 0 1.49948 0 1.50965)
(1.5141 0.00339931 0 1.4794 0 1.51422)
(1.51914 0.00377856 0 1.45366 0 1.51894)
(1.52384 0.00417702 0 1.42512 0 1.52301)
(1.52762 0.00477487 0 1.39603 0 1.526)
(1.53037 0.0055802 0 1.3675 0 1.52789)
(1.53217 0.00659935 0 1.34008 0 1.5288)
(1.53313 0.00781084 0 1.31401 0 1.52888)
(1.53338 0.00917347 0 1.28936 0 1.52828)
(1.53306 0.010651 0 1.26612 0 1.52714)
(1.5323 0.0122168 0 1.24425 0 1.52557)
(1.53119 0.0138513 0 1.22367 0 1.52368)
(1.52983 0.0155409 0 1.2043 0 1.52155)
(1.5283 0.0172763 0 1.18608 0 1.51924)
(1.52668 0.0190502 0 1.16892 0 1.51684)
(1.52505 0.0208473 0 1.15274 0 1.51439)
(1.5235 0.0226403 0 1.13747 0 1.51197)
(1.52192 0.0244061 0 1.1231 0 1.50951)
(1.50974 0.00297448 0 1.49901 0 1.50979)
(1.51558 0.00462212 0 1.47388 0 1.51539)
(1.52234 0.00571561 0 1.43901 0 1.52116)
(1.5282 0.00728207 0 1.4007 0 1.52551)
(1.53235 0.00919127 0 1.36252 0 1.52801)
(1.53485 0.0112688 0 1.32585 0 1.52884)
(1.53594 0.0134719 0 1.29125 0 1.52832)
(1.53588 0.0157678 0 1.25891 0 1.52672)
(1.5349 0.0181058 0 1.22883 0 1.5243)
(1.53323 0.0204517 0 1.2009 0 1.52127)
(1.53104 0.0227882 0 1.17498 0 1.5178)
(1.52847 0.0251037 0 1.15091 0 1.51403)
(1.52565 0.0273893 0 1.12855 0 1.51006)
(1.52265 0.0296387 0 1.10775 0 1.50596)
(1.51952 0.0318457 0 1.08839 0 1.5018)
(1.51631 0.0340146 0 1.07037 0 1.49761)
(1.51296 0.0361687 0 1.05362 0 1.49338)
(1.50976 0.0384134 0 1.03805 0 1.48928)
(1.50954 0.00333006 0 1.49942 0 1.50953)
(1.51692 0.00621424 0 1.46786 0 1.51605)
(1.5258 0.00936019 0 1.41979 0 1.52238)
(1.53239 0.013067 0 1.36923 0 1.52568)
(1.53592 0.0168785 0 1.32118 0 1.52591)
(1.53688 0.0206041 0 1.27677 0 1.52379)
(1.53589 0.0242938 0 1.2361 0 1.51999)
(1.5335 0.027982 0 1.19893 0 1.51501)
(1.53012 0.03162 0 1.16498 0 1.50927)
(1.52606 0.0351738 0 1.13394 0 1.50305)
(1.52157 0.038631 0 1.10549 0 1.49657)
(1.51682 0.0419852 0 1.07937 0 1.48997)
(1.51194 0.0452343 0 1.05532 0 1.48335)
(1.50703 0.0483821 0 1.03313 0 1.47681)
(1.50218 0.051436 0 1.01262 0 1.4704)
(1.49745 0.054408 0 0.993616 0 1.46416)
(1.49311 0.0572924 0 0.975921 0 1.45823)
(1.48903 0.0599319 0 0.959517 0 1.45261)
(1.51071 0.00496549 0 1.49655 0 1.51052)
(1.52204 0.0113155 0 1.44813 0 1.51929)
(1.53412 0.0198847 0 1.3731 0 1.52515)
(1.54086 0.0285182 0 1.29856 0 1.525)
(1.54228 0.0361961 0 1.2312 0 1.52014)
(1.53981 0.0428207 0 1.17157 0 1.51221)
(1.5348 0.0487271 0 1.11903 0 1.50241)
(1.52831 0.0542002 0 1.0727 0 1.49164)
(1.52093 0.0592787 0 1.03179 0 1.48046)
(1.51311 0.0640111 0 0.995497 0 1.46923)
(1.50512 0.068448 0 0.963121 0 1.45815)
(1.49718 0.0726232 0 0.9341 0 1.44738)
(1.48939 0.076558 0 0.907963 0 1.43699)
(1.48186 0.0802764 0 0.884325 0 1.42703)
(1.47457 0.0837835 0 0.862846 0 1.41749)
(1.46764 0.0870939 0 0.843283 0 1.40843)
(1.46062 0.0901556 0 0.825335 0 1.39958)
(1.45379 0.0930564 0 0.809191 0 1.39123)
(1.50985 0.00578649 0 1.49844 0 1.50914)
(1.52693 0.0254616 0 1.42432 0 1.51749)
(1.54199 0.0455984 0 1.31359 0 1.51582)
(1.54559 0.0605643 0 1.21755 0 1.50424)
(1.54092 0.0721784 0 1.1378 0 1.48732)
(1.53119 0.0816029 0 1.07096 0 1.46788)
(1.51903 0.0898427 0 1.01401 0 1.44768)
(1.50631 0.097444 0 0.965071 0 1.42802)
(1.49355 0.104387 0 0.922723 0 1.40924)
(1.4811 0.110738 0 0.885744 0 1.39151)
(1.46918 0.116576 0 0.853197 0 1.37485)
(1.45794 0.121968 0 0.824351 0 1.35931)
(1.44733 0.126951 0 0.798598 0 1.34477)
(1.43747 0.131581 0 0.775508 0 1.33127)
(1.42826 0.135902 0 0.75462 0 1.31862)
(1.41972 0.139921 0 0.7358 0 1.30691)
(1.41199 0.143836 0 0.718439 0 1.2959)
(1.40572 0.147218 0 0.703327 0 1.28643)
(1.5189 0.0284551 0 1.47294 0 1.51483)
(1.56339 0.111999 0 1.26341 0 1.5187)
(1.58319 0.161006 0 1.03778 0 1.48714)
(1.57563 0.18193 0 0.887172 0 1.44363)
(1.55676 0.192524 0 0.784546 0 1.39972)
(1.53305 0.198809 0 0.711682 0 1.35827)
(1.5103 0.204027 0 0.657559 0 1.32169)
(1.49077 0.209102 0 0.61622 0 1.29075)
(1.4734 0.213895 0 0.58337 0 1.26377)
(1.45794 0.218356 0 0.556551 0 1.24)
(1.44407 0.222457 0 0.534232 0 1.2188)
(1.43189 0.22626 0 0.515377 0 1.19999)
(1.42092 0.229756 0 0.499185 0 1.18295)
(1.41149 0.233001 0 0.4852 0 1.16783)
(1.40282 0.236009 0 0.472933 0 1.15391)
(1.39561 0.238786 0 0.462174 0 1.14163)
(1.38859 0.24143 0 0.452622 0 1.13002)
(1.38174 0.243659 0 0.443891 0 1.11924)
(1.59274 0.291965 0 1.39581 0 1.52093)
(1.91623 0.5787 0 0.968068 0 1.53309)
(2.06905 0.585642 0 0.732327 0 1.489)
(2.10358 0.552986 0 0.628205 0 1.43533)
(2.09266 0.525643 0 0.573963 0 1.38578)
(2.06486 0.505529 0 0.540813 0 1.34267)
(2.03109 0.490064 0 0.517775 0 1.30543)
(1.9963 0.477561 0 0.500221 0 1.27317)
(1.96283 0.467078 0 0.485967 0 1.24494)
(1.93148 0.458024 0 0.473946 0 1.21998)
(1.90247 0.450049 0 0.46357 0 1.19773)
(1.87569 0.442931 0 0.454469 0 1.17775)
(1.85112 0.43653 0 0.446401 0 1.15972)
(1.82839 0.430727 0 0.439178 0 1.14333)
(1.80764 0.425436 0 0.432671 0 1.12846)
(1.78821 0.42062 0 0.42679 0 1.11475)
(1.77069 0.416106 0 0.421381 0 1.10234)
(1.75378 0.411923 0 0.416551 0 1.09064)
(0.0209578 0.0101987 0 0.077434 0 0.0587421)
(0.0333491 -0.000934284 0 0.0775122 0 0.0777966)
(0.0527755 -0.00808678 0 0.0896041 0 0.099299)
(0.0696159 -0.0170031 0 0.0933304 0 0.111354)
(0.0830708 -0.0246394 0 0.0941971 0 0.119245)
(0.0996498 -0.0316833 0 0.0842274 0 0.121297)
(0.106579 -0.033306 0 0.0763995 0 0.120164)
(0.111316 -0.0326173 0 0.0665469 0 0.116686)
(0.111377 -0.0294168 0 0.0548816 0 0.109129)
(0.104624 -0.0248245 0 0.043756 0 0.0976912)
(0.089841 -0.0199719 0 0.0338306 0 0.0824991)
(0.0670892 -0.0154895 0 0.0246858 0 0.063678)
(0.0543347 -0.0104455 0 0.0175697 0 0.0503755)
(0.0490297 -0.00528912 0 0.0130238 0 0.0419043)
(0.0478751 -0.00120569 0 0.0118005 0 0.0387617)
(0.0504707 0.0014835 0 0.0137487 0 0.0419694)
(0.0632348 0.00484476 0 0.0186882 0 0.0537862)
(0.089312 0.00885479 0 0.026453 0 0.0740747)
(0.13344 0.01382 0 0.0370155 0 0.105504)
(0.192219 0.0202345 0 0.0493133 0 0.14648)
(0.244714 0.0273628 0 0.0609884 0 0.183888)
(0.293216 0.0349176 0 0.0724575 0 0.219192)
(0.3384 0.0426148 0 0.0838521 0 0.252767)
(0.380186 0.0501788 0 0.0950925 0 0.284416)
(0.419183 0.0575589 0 0.106282 0 0.3145)
(0.455663 0.0647169 0 0.117459 0 0.34316)
(0.489989 0.071678 0 0.128718 0 0.370645)
(0.52241 0.0784744 0 0.140153 0 0.397137)
(0.553119 0.0851388 0 0.151866 0 0.422792)
(0.582249 0.0916973 0 0.163965 0 0.447726)
(0.609884 0.0981666 0 0.176564 0 0.47202)
(0.636066 0.104553 0 0.189773 0 0.495721)
(0.660794 0.110855 0 0.2037 0 0.518842)
(0.684047 0.11706 0 0.218447 0 0.541372)
(0.705779 0.123149 0 0.234107 0 0.563278)
(0.725943 0.12909 0 0.250765 0 0.584523)
(0.744497 0.134829 0 0.268502 0 0.60507)
(0.7614 0.140281 0 0.287394 0 0.624881)
(0.776558 0.14539 0 0.307465 0 0.643857)
(0.789882 0.150117 0 0.328714 0 0.661899)
(0.80128 0.154437 0 0.351095 0 0.678896)
(0.810702 0.158304 0 0.374542 0 0.694768)
(0.818187 0.161519 0 0.398998 0 0.709502)
(0.823945 0.164099 0 0.42452 0 0.72323)
(0.828006 0.166008 0 0.451004 0 0.735929)
(0.830459 0.167105 0 0.478258 0 0.747583)
(0.831323 0.16735 0 0.506098 0 0.758147)
(0.830597 0.166653 0 0.534275 0 0.767556)
(0.828284 0.164935 0 0.562486 0 0.775736)
(0.824392 0.162093 0 0.590415 0 0.782622)
(0.818936 0.15802 0 0.617713 0 0.788146)
(0.811914 0.152544 0 0.644052 0 0.792226)
(0.803282 0.145211 0 0.66919 0 0.794739)
(0.794614 0.136644 0 0.688545 0 0.795311)
(0.786306 0.128226 0 0.703039 0 0.794865)
(0.774618 0.119177 0 0.717681 0 0.793161)
(0.760753 0.106427 0 0.729013 0 0.789092)
(0.747485 0.0940069 0 0.735031 0 0.78397)
(0.7337 0.0805608 0 0.736413 0 0.777458)
(0.71899 0.0666768 0 0.733094 0 0.769353)
(0.703281 0.0522896 0 0.725029 0 0.759579)
(0.686015 0.0371247 0 0.712065 0 0.747847)
(0.667263 0.0162198 0 0.692008 0 0.734307)
(0.652238 -0.00382131 0 0.669032 0 0.721924)
(0.639223 -0.0215187 0 0.644386 0 0.709789)
(0.628213 -0.0368358 0 0.619007 0 0.698109)
(0.618853 -0.0499796 0 0.593678 0 0.686882)
(0.610893 -0.0611707 0 0.568966 0 0.676104)
(0.604144 -0.0707079 0 0.545355 0 0.665798)
(0.59846 -0.0789323 0 0.523058 0 0.655921)
(0.59369 -0.0862613 0 0.501905 0 0.64631)
(0.58989 -0.0937087 0 0.479505 0 0.636514)
(0.58859 -0.102072 0 0.454059 0 0.627622)
(0.58876 -0.10957 0 0.433062 0 0.621111)
(0.589777 -0.115151 0 0.417779 0 0.61706)
(0.590828 -0.118504 0 0.405269 0 0.613705)
(0.591812 -0.12049 0 0.393173 0 0.610151)
(0.592711 -0.121696 0 0.381525 0 0.606479)
(0.593419 -0.122388 0 0.370704 0 0.602803)
(0.593922 -0.122737 0 0.360747 0 0.599165)
(0.59428 -0.122901 0 0.351631 0 0.595631)
(0.594531 -0.122983 0 0.343289 0 0.592227)
(0.594731 -0.123045 0 0.335643 0 0.588978)
(0.594917 -0.123118 0 0.328606 0 0.585892)
(0.595126 -0.123217 0 0.322112 0 0.582978)
(0.595375 -0.123349 0 0.316096 0 0.580232)
(0.595679 -0.123513 0 0.310503 0 0.577653)
(0.59604 -0.123706 0 0.305282 0 0.575226)
(0.596456 -0.12392 0 0.30039 0 0.572939)
(0.59692 -0.124151 0 0.295786 0 0.570775)
(0.597419 -0.124395 0 0.291434 0 0.568716)
(0.597946 -0.124646 0 0.287304 0 0.566747)
(0.598497 -0.124894 0 0.283369 0 0.564856)
(0.599063 -0.125133 0 0.279605 0 0.56303)
(0.599635 -0.125359 0 0.275994 0 0.561257)
(0.600207 -0.125569 0 0.27252 0 0.559528)
(0.600769 -0.125761 0 0.269168 0 0.557832)
(0.601315 -0.125932 0 0.265928 0 0.556162)
(0.60184 -0.126081 0 0.26279 0 0.55451)
(0.602337 -0.126207 0 0.259745 0 0.552871)
(0.602799 -0.126309 0 0.256786 0 0.551236)
(0.603223 -0.126386 0 0.253907 0 0.549603)
(0.603612 -0.126442 0 0.251108 0 0.547975)
(0.603973 -0.126478 0 0.248389 0 0.546357)
(0.604308 -0.126497 0 0.245749 0 0.544752)
(0.604621 -0.126501 0 0.243188 0 0.543163)
(0.604913 -0.126492 0 0.240705 0 0.541592)
(0.605188 -0.126473 0 0.2383 0 0.540041)
(0.605446 -0.126444 0 0.23597 0 0.538511)
(0.605689 -0.126409 0 0.233715 0 0.537004)
(0.60592 -0.126369 0 0.231535 0 0.535521)
(0.606139 -0.126326 0 0.229427 0 0.534064)
(0.606349 -0.126281 0 0.22739 0 0.532634)
(0.606551 -0.126236 0 0.225424 0 0.531231)
(0.606748 -0.126193 0 0.223528 0 0.529858)
(0.606941 -0.126152 0 0.221699 0 0.528515)
(0.607132 -0.126116 0 0.219937 0 0.527203)
(0.607321 -0.126084 0 0.21824 0 0.525924)
(0.607518 -0.12606 0 0.216609 0 0.524681)
(0.607722 -0.126043 0 0.215043 0 0.523475)
(0.607931 -0.126035 0 0.213539 0 0.522304)
(0.608144 -0.126036 0 0.212095 0 0.521167)
(0.608357 -0.126045 0 0.210707 0 0.52006)
(0.60857 -0.126062 0 0.209375 0 0.518981)
(0.608783 -0.126088 0 0.208095 0 0.517931)
(0.608998 -0.126124 0 0.206867 0 0.51691)
(0.609217 -0.12617 0 0.20569 0 0.515918)
(0.60944 -0.126226 0 0.204563 0 0.514956)
(0.609671 -0.126294 0 0.203483 0 0.514025)
(0.60991 -0.126374 0 0.202451 0 0.513126)
(0.61016 -0.126466 0 0.201465 0 0.512258)
(0.610423 -0.12657 0 0.200523 0 0.511423)
(0.610698 -0.126687 0 0.199623 0 0.510618)
(0.610986 -0.126816 0 0.198765 0 0.509845)
(0.611289 -0.126958 0 0.197947 0 0.509103)
(0.611609 -0.127114 0 0.197168 0 0.508392)
(0.611946 -0.127282 0 0.196426 0 0.507713)
(0.612302 -0.127463 0 0.19572 0 0.507064)
(0.612675 -0.127658 0 0.195049 0 0.506445)
(0.613076 -0.127865 0 0.194411 0 0.505857)
(0.613487 -0.128087 0 0.19381 0 0.505309)
(0.613966 -0.128322 0 0.193229 0 0.504773)
(0.614317 -0.128561 0 0.19271 0 0.504302)
(0.615098 -0.128871 0 0.192074 0 0.503724)
(0.615619 -0.12913 0 0.191797 0 0.503564)
(0.615911 -0.129388 0 0.191279 0 0.503041)
(0.61669 -0.129727 0 0.190694 0 0.502465)
(0.617372 -0.130049 0 0.190374 0 0.502245)
(0.618033 -0.130381 0 0.190027 0 0.501978)
(0.618692 -0.13072 0 0.189676 0 0.501696)
(0.61936 -0.131067 0 0.189335 0 0.501417)
(0.620046 -0.131423 0 0.189007 0 0.501149)
(0.620753 -0.131789 0 0.188695 0 0.500896)
(0.621485 -0.132166 0 0.188399 0 0.500662)
(0.622243 -0.132553 0 0.18812 0 0.500446)
(0.623028 -0.13295 0 0.187855 0 0.500249)
(0.623843 -0.133358 0 0.187606 0 0.500072)
(0.624692 -0.133778 0 0.187372 0 0.499916)
(0.625573 -0.134208 0 0.187152 0 0.499781)
(0.626487 -0.134648 0 0.186944 0 0.499664)
(0.627433 -0.135097 0 0.186746 0 0.499563)
(0.628409 -0.135553 0 0.186556 0 0.499476)
(0.629414 -0.136017 0 0.186373 0 0.4994)
(0.630445 -0.136485 0 0.186192 0 0.499331)
(0.631501 -0.136957 0 0.186011 0 0.499266)
(0.632576 -0.137429 0 0.185826 0 0.4992)
(0.633667 -0.137899 0 0.185633 0 0.499126)