/*--------------------------------*- C++ -*----------------------------------*\
| =========                 |                                                 |
| \\      /  F ield         | OpenFOAM: The Open Source CFD Toolbox           |
|  \\    /   O peration     | Version:  v1906                                 |
|   \\  /    A nd           | Web:      www.OpenFOAM.com                      |
|    \\/     M anipulation  |                                                 |
\*---------------------------------------------------------------------------*/
FoamFile
{
    version     2.0;
    format      ascii;
    class       volVectorField;
    location    "400";
    object      U;
}
// * * * * * * * * * * * * * * * * * * * * * * * * * * * * * * * * * * * * * //

dimensions      [0 1 -1 0 0 0 0];


internalField   nonuniform List<vector> 
12225
(
(9.79724 -0.108733 0)
(9.50649 -0.356711 0)
(9.26382 -0.488192 0)
(9.06491 -0.540694 0)
(8.90132 -0.559261 0)
(8.75942 -0.564864 0)
(8.63232 -0.565214 0)
(8.51793 -0.563095 0)
(8.41489 -0.559578 0)
(8.32175 -0.555248 0)
(8.23752 -0.550184 0)
(8.15999 -0.544405 0)
(8.08902 -0.538424 0)
(8.02441 -0.532531 0)
(7.96718 -0.526974 0)
(7.91868 -0.523291 0)
(7.88262 -0.516797 0)
(7.86568 -0.538278 0)
(10.0493 0.150462 0)
(10.0911 0.259805 0)
(10.0683 0.319329 0)
(10.0254 0.363425 0)
(9.98245 0.393049 0)
(9.93946 0.411698 0)
(9.89637 0.423645 0)
(9.8545 0.431442 0)
(9.81446 0.436279 0)
(9.776 0.439021 0)
(9.73936 0.440259 0)
(9.70456 0.440439 0)
(9.67174 0.439593 0)
(9.64057 0.437962 0)
(9.61121 0.434989 0)
(9.58278 0.431723 0)
(9.557 0.422881 0)
(9.53058 0.415306 0)
(10.0166 0.00777848 0)
(10.0498 -0.0104983 0)
(10.0412 -0.0527213 0)
(10.0177 -0.0928197 0)
(9.99593 -0.127128 0)
(9.97588 -0.155379 0)
(9.95659 -0.177554 0)
(9.93832 -0.194772 0)
(9.9211 -0.208368 0)
(9.90471 -0.219349 0)
(9.88898 -0.228222 0)
(9.87415 -0.235469 0)
(9.86005 -0.241509 0)
(9.84713 -0.247035 0)
(9.83474 -0.252266 0)
(9.82372 -0.258782 0)
(9.81301 -0.266344 0)
(9.79422 -0.285461 0)
(10.0096 0.0583276 0)
(10.0389 0.0977453 0)
(10.0504 0.115193 0)
(10.0506 0.134326 0)
(10.0484 0.153264 0)
(10.0441 0.169752 0)
(10.0377 0.183802 0)
(10.0303 0.195647 0)
(10.0226 0.205473 0)
(10.0148 0.213581 0)
(10.0068 0.220328 0)
(9.99913 0.225951 0)
(9.99173 0.230517 0)
(9.98486 0.233993 0)
(9.97835 0.236332 0)
(9.97235 0.237074 0)
(9.96635 0.235928 0)
(9.9608 0.231541 0)
(10.0094 0.0199714 0)
(10.0406 0.0292733 0)
(10.056 0.0222463 0)
(10.06 0.0113208 0)
(10.061 -0.0017358 0)
(10.0603 -0.0159917 0)
(10.0581 -0.0297773 0)
(10.0555 -0.0423261 0)
(10.0526 -0.0536139 0)
(10.0497 -0.0637542 0)
(10.0466 -0.0728516 0)
(10.0435 -0.0810691 0)
(10.0406 -0.0886605 0)
(10.0377 -0.0959683 0)
(10.035 -0.103298 0)
(10.0317 -0.111388 0)
(10.0284 -0.120062 0)
(10.0178 -0.132061 0)
(10.0058 0.0333444 0)
(10.0286 0.0621853 0)
(10.0448 0.0733994 0)
(10.0543 0.0815933 0)
(10.0617 0.0892652 0)
(10.0672 0.0964403 0)
(10.0709 0.10345 0)
(10.0734 0.110247 0)
(10.0752 0.116601 0)
(10.0764 0.122407 0)
(10.0772 0.127663 0)
(10.0778 0.132364 0)
(10.0782 0.136458 0)
(10.0784 0.139819 0)
(10.0785 0.142385 0)
(10.0782 0.143874 0)
(10.0772 0.144426 0)
(10.0767 0.144232 0)
(10.0046 0.0160724 0)
(10.0241 0.0299804 0)
(10.0398 0.0324137 0)
(10.0493 0.0307455 0)
(10.0562 0.0266326 0)
(10.0612 0.0206797 0)
(10.0646 0.0139092 0)
(10.0672 0.00694767 0)
(10.0693 3.87408e-05 0)
(10.0711 -0.00669183 0)
(10.0725 -0.0131724 0)
(10.0738 -0.0194144 0)
(10.0749 -0.0255023 0)
(10.0757 -0.0315989 0)
(10.0763 -0.0377912 0)
(10.076 -0.044388 0)
(10.0749 -0.0509541 0)
(10.0693 -0.058623 0)
(10.0032 0.0204128 0)
(10.0184 0.0436078 0)
(10.0325 0.0547132 0)
(10.0431 0.0613619 0)
(10.0521 0.0661113 0)
(10.0598 0.069872 0)
(10.0661 0.0733654 0)
(10.0715 0.0768404 0)
(10.0763 0.0802684 0)
(10.0805 0.0835907 0)
(10.0842 0.0867633 0)
(10.0876 0.0897294 0)
(10.0907 0.0924207 0)
(10.0935 0.0947422 0)
(10.0958 0.0966655 0)
(10.0978 0.098125 0)
(10.0989 0.0992681 0)
(10.1009 0.100851 0)
(10.0019 0.0116358 0)
(10.0135 0.0250801 0)
(10.0261 0.0305958 0)
(10.036 0.032329 0)
(10.0444 0.0317072 0)
(10.0512 0.0294132 0)
(10.0568 0.0261606 0)
(10.0615 0.022381 0)
(10.0656 0.0182903 0)
(10.0693 0.0140241 0)
(10.0725 0.00967057 0)
(10.0755 0.00526202 0)
(10.0781 0.000796299 0)
(10.0803 -0.00377128 0)
(10.0822 -0.00841566 0)
(10.0832 -0.0131953 0)
(10.0834 -0.017755 0)
(10.0808 -0.0227105 0)
(10.0017 0.0128432 0)
(10.0116 0.0310493 0)
(10.0228 0.0415479 0)
(10.0325 0.0480227 0)
(10.0414 0.0522173 0)
(10.0494 0.0551073 0)
(10.0564 0.057418 0)
(10.0628 0.0595079 0)
(10.0685 0.0615067 0)
(10.0738 0.0634571 0)
(10.0786 0.065365 0)
(10.0831 0.0672086 0)
(10.0872 0.0689601 0)
(10.091 0.0705838 0)
(10.0943 0.0720982 0)
(10.0973 0.0735428 0)
(10.0998 0.0750367 0)
(10.103 0.0773525 0)
(10.0007 0.00815856 0)
(10.0075 0.0195553 0)
(10.017 0.0256336 0)
(10.0257 0.0286234 0)
(10.0339 0.029497 0)
(10.0411 0.0288957 0)
(10.0474 0.0273638 0)
(10.053 0.0252339 0)
(10.0581 0.0226981 0)
(10.0626 0.0198795 0)
(10.0667 0.0168606 0)
(10.0705 0.0136886 0)
(10.0738 0.0103959 0)
(10.0768 0.006998 0)
(10.0793 0.0035518 0)
(10.0812 7.24406e-05 0)
(10.0825 -0.00321477 0)
(10.0823 -0.00675724 0)
(10.0008 0.00832382 0)
(10.0073 0.0219076 0)
(10.016 0.0307583 0)
(10.0244 0.0366055 0)
(10.0326 0.040396 0)
(10.0402 0.0428926 0)
(10.0472 0.0446669 0)
(10.0537 0.0460588 0)
(10.0596 0.0472523 0)
(10.0652 0.0483463 0)
(10.0703 0.0493928 0)
(10.0751 0.0504134 0)
(10.0795 0.0514233 0)
(10.0836 0.0524315 0)
(10.0873 0.0534855 0)
(10.0907 0.0546505 0)
(10.0938 0.0560105 0)
(10.0973 0.0582178 0)
(10.0002 0.00588515 0)
(10.0045 0.015064 0)
(10.0117 0.0206135 0)
(10.0192 0.0238419 0)
(10.0266 0.0252799 0)
(10.0336 0.0254688 0)
(10.0401 0.0248119 0)
(10.046 0.0235763 0)
(10.0514 0.0219326 0)
(10.0565 0.0199923 0)
(10.0611 0.0178318 0)
(10.0653 0.0155028 0)
(10.0692 0.0130468 0)
(10.0727 0.010501 0)
(10.0759 0.00790969 0)
(10.0786 0.00530681 0)
(10.0809 0.00277905 0)
(10.0826 -8.87096e-05 0)
(10.0005 0.00555009 0)
(10.0049 0.0156495 0)
(10.0116 0.0230156 0)
(10.0187 0.0284048 0)
(10.026 0.0322103 0)
(10.0331 0.0349558 0)
(10.0399 0.0370426 0)
(10.0463 0.0387466 0)
(10.0523 0.040247 0)
(10.058 0.0416554 0)
(10.0633 0.043043 0)
(10.0683 0.0444522 0)
(10.0729 0.0459192 0)
(10.0773 0.0474704 0)
(10.0814 0.0491558 0)
(10.0852 0.051039 0)
(10.0888 0.0531352 0)
(10.0926 0.0560429 0)
(10.0001 0.00358316 0)
(10.0027 0.00951068 0)
(10.0079 0.0132763 0)
(10.0139 0.0155045 0)
(10.0204 0.0164315 0)
(10.0268 0.0163902 0)
(10.0331 0.0156342 0)
(10.039 0.0143442 0)
(10.0446 0.012647 0)
(10.0499 0.0106308 0)
(10.0548 0.008357 0)
(10.0594 0.00587256 0)
(10.0637 0.00321001 0)
(10.0677 0.000402897 0)
(10.0714 -0.00253482 0)
(10.0748 -0.00558854 0)
(10.078 -0.00871117 0)
(10.0811 -0.0122951 0)
(10.0002 0.0032187 0)
(10.0031 0.00950108 0)
(10.0079 0.0146855 0)
(10.0136 0.018958 0)
(10.0197 0.0224165 0)
(10.0259 0.0252907 0)
(10.032 0.027791 0)
(10.038 0.0300817 0)
(10.0436 0.0322869 0)
(10.049 0.0344942 0)
(10.0541 0.0367651 0)
(10.0589 0.0391408 0)
(10.0633 0.0416538 0)
(10.0675 0.0443241 0)
(10.0715 0.0471736 0)
(10.0752 0.0502318 0)
(10.0787 0.0534071 0)
(10.0818 0.0572117 0)
(10.0001 0.00120706 0)
(10.0022 0.00307951 0)
(10.0063 0.00395923 0)
(10.0115 0.00404791 0)
(10.0173 0.00342294 0)
(10.0234 0.00220287 0)
(10.0296 0.000490796 0)
(10.0358 -0.00163894 0)
(10.0419 -0.00413024 0)
(10.0477 -0.00694179 0)
(10.0534 -0.0100431 0)
(10.0588 -0.0134089 0)
(10.0641 -0.0170206 0)
(10.0691 -0.0208567 0)
(10.0739 -0.0249037 0)
(10.0787 -0.0291489 0)
(10.0832 -0.0335002 0)
(10.088 -0.0383046 0)
(10 0.00117122 0)
(10.0016 0.00367293 0)
(10.0049 0.00624888 0)
(10.0092 0.00890471 0)
(10.0139 0.0116277 0)
(10.0188 0.0144492 0)
(10.0238 0.0174081 0)
(10.0285 0.0205377 0)
(10.033 0.0238663 0)
(10.0372 0.0274135 0)
(10.0411 0.0311897 0)
(10.0447 0.0351962 0)
(10.0479 0.0394255 0)
(10.0508 0.0438627 0)
(10.0535 0.0484718 0)
(10.0558 0.0532478 0)
(10.0581 0.0579975 0)
(10.0598 0.0631781 0)
(10.0003 -0.00172184 0)
(10.0031 -0.00531751 0)
(10.008 -0.0088832 0)
(10.014 -0.0123904 0)
(10.0208 -0.0158943 0)
(10.0281 -0.019465 0)
(10.0356 -0.0231743 0)
(10.0433 -0.0270826 0)
(10.0511 -0.031234 0)
(10.0588 -0.0356566 0)
(10.0665 -0.0403676 0)
(10.0741 -0.0453748 0)
(10.0816 -0.0506808 0)
(10.0889 -0.0562826 0)
(10.096 -0.0621728 0)
(10.103 -0.0683424 0)
(10.1095 -0.0747229 0)
(10.1159 -0.0814798 0)
(9.99985 -0.00193578 0)
(10.0009 -0.00486452 0)
(10.0039 -0.00640955 0)
(10.0077 -0.0068534 0)
(10.0119 -0.00638814 0)
(10.0161 -0.00516393 0)
(10.02 -0.00331788 0)
(10.0236 -0.000959768 0)
(10.0267 0.00182715 0)
(10.0294 0.00497895 0)
(10.0317 0.00844919 0)
(10.0335 0.0122059 0)
(10.035 0.0162361 0)
(10.036 0.0205365 0)
(10.0367 0.0251301 0)
(10.0371 0.0300393 0)
(10.0376 0.0352706 0)
(10.0377 0.0410949 0)
(10.0006 -0.00455504 0)
(10.005 -0.0132273 0)
(10.0117 -0.0201861 0)
(10.019 -0.02574 0)
(10.0268 -0.0302958 0)
(10.0348 -0.0342078 0)
(10.0428 -0.0377789 0)
(10.0508 -0.0412192 0)
(10.0586 -0.0446516 0)
(10.0663 -0.0481421 0)
(10.0738 -0.0517243 0)
(10.0813 -0.0554168 0)
(10.0886 -0.0592385 0)
(10.096 -0.0632179 0)
(10.1033 -0.0674159 0)
(10.1107 -0.0719174 0)
(10.1179 -0.0768479 0)
(10.1256 -0.082563 0)
(9.99994 -0.004619 0)
(10.0025 -0.0115818 0)
(10.0078 -0.0153948 0)
(10.0133 -0.0169715 0)
(10.0186 -0.0168526 0)
(10.0234 -0.0153889 0)
(10.0275 -0.0129214 0)
(10.031 -0.00973508 0)
(10.034 -0.00604224 0)
(10.0364 -0.00200529 0)
(10.0383 0.00224743 0)
(10.0399 0.00662046 0)
(10.041 0.0110496 0)
(10.0416 0.015505 0)
(10.0417 0.0200076 0)
(10.0411 0.0246398 0)
(10.04 0.0295665 0)
(10.0373 0.0353442 0)
(10.0012 -0.00946853 0)
(10.0088 -0.0251286 0)
(10.0186 -0.0356939 0)
(10.028 -0.0432452 0)
(10.0373 -0.0491876 0)
(10.0462 -0.054274 0)
(10.0547 -0.0590143 0)
(10.0627 -0.0636801 0)
(10.0703 -0.0683485 0)
(10.0776 -0.0730108 0)
(10.0845 -0.0776331 0)
(10.0911 -0.0821762 0)
(10.0976 -0.0866035 0)
(10.104 -0.0908921 0)
(10.1105 -0.0950541 0)
(10.1176 -0.0991637 0)
(10.125 -0.103429 0)
(10.1347 -0.108528 0)
(10.0009 -0.00801665 0)
(10.0084 -0.017994 0)
(10.0181 -0.0215943 0)
(10.0256 -0.0214734 0)
(10.0315 -0.0188266 0)
(10.0361 -0.0142229 0)
(10.0396 -0.00835061 0)
(10.0422 -0.00179707 0)
(10.0444 0.00506338 0)
(10.0461 0.0119804 0)
(10.0476 0.0187711 0)
(10.0487 0.0253062 0)
(10.0496 0.0314962 0)
(10.0501 0.0372748 0)
(10.0502 0.0426011 0)
(10.0492 0.0474833 0)
(10.0473 0.0520717 0)
(10.0414 0.0571656 0)
(10.0027 -0.019899 0)
(10.0163 -0.0446954 0)
(10.0303 -0.0581425 0)
(10.0414 -0.0678797 0)
(10.0513 -0.0767239 0)
(10.0602 -0.085209 0)
(10.0679 -0.0935967 0)
(10.0745 -0.101919 0)
(10.0803 -0.110001 0)
(10.0856 -0.117679 0)
(10.0903 -0.124871 0)
(10.0946 -0.131541 0)
(10.0985 -0.137663 0)
(10.1024 -0.143219 0)
(10.1061 -0.148173 0)
(10.1105 -0.152487 0)
(10.1156 -0.156161 0)
(10.1255 -0.159759 0)
(10.0045 -0.0116902 0)
(10.0233 -0.0208518 0)
(10.0372 -0.0178731 0)
(10.0433 -0.009527 0)
(10.0462 0.00193461 0)
(10.0475 0.0153699 0)
(10.0478 0.0292542 0)
(10.0475 0.0425865 0)
(10.047 0.0549855 0)
(10.0465 0.0663399 0)
(10.0459 0.0766254 0)
(10.0452 0.0858646 0)
(10.0444 0.0941062 0)
(10.0435 0.101394 0)
(10.0424 0.107736 0)
(10.0406 0.113089 0)
(10.0381 0.117375 0)
(10.0294 0.121075 0)
(10.0057 -0.0438672 0)
(10.028 -0.0817042 0)
(10.0436 -0.101105 0)
(10.0514 -0.120424 0)
(10.0563 -0.140231 0)
(10.0593 -0.158521 0)
(10.0602 -0.174869 0)
(10.0597 -0.18929 0)
(10.0584 -0.201758 0)
(10.0568 -0.212394 0)
(10.0547 -0.221427 0)
(10.0525 -0.229085 0)
(10.0502 -0.235552 0)
(10.0479 -0.240984 0)
(10.0455 -0.24547 0)
(10.0436 -0.249041 0)
(10.0421 -0.251517 0)
(10.0474 -0.252637 0)
(10.0127 -0.00408108 0)
(10.0434 0.00734542 0)
(10.0438 0.0414392 0)
(10.0293 0.0776505 0)
(10.0144 0.110942 0)
(10.0011 0.139794 0)
(9.9887 0.163519 0)
(9.97705 0.182554 0)
(9.96631 0.197844 0)
(9.95627 0.210218 0)
(9.94672 0.220259 0)
(9.93758 0.228391 0)
(9.92882 0.234944 0)
(9.92035 0.240167 0)
(9.91226 0.24422 0)
(9.90408 0.2472 0)
(9.89641 0.248988 0)
(9.88174 0.249811 0)
(10.0321 -0.126606 0)
(10.0676 -0.225541 0)
(10.0595 -0.280179 0)
(10.034 -0.322796 0)
(10.0082 -0.353387 0)
(9.98341 -0.373893 0)
(9.95881 -0.387844 0)
(9.93509 -0.397484 0)
(9.91271 -0.404007 0)
(9.89154 -0.408176 0)
(9.87134 -0.410553 0)
(9.85203 -0.411553 0)
(9.83355 -0.411468 0)
(9.81587 -0.410529 0)
(9.79888 -0.408892 0)
(9.78295 -0.406805 0)
(9.76766 -0.404211 0)
(9.76168 -0.400647 0)
(9.86119 0.0769368 0)
(9.66258 0.274132 0)
(9.48847 0.393217 0)
(9.3409 0.447836 0)
(9.21848 0.470497 0)
(9.11103 0.479236 0)
(9.01257 0.481546 0)
(8.92163 0.480602 0)
(8.83769 0.477915 0)
(8.76004 0.474205 0)
(8.68805 0.469809 0)
(8.62126 0.464905 0)
(8.55927 0.459597 0)
(8.50164 0.453964 0)
(8.44794 0.447996 0)
(8.39757 0.441857 0)
(8.35019 0.434627 0)
(8.29975 0.427043 0)
(-0.0342865 -0.299088 -2.69227e-20)
(0.281856 -0.374207 1.70906e-20)
(0.493835 -0.372483 0)
(0.65158 -0.328764 0)
(0.782512 -0.275853 0)
(0.87517 -0.217629 -1.1429e-20)
(0.924095 -0.16171 0)
(0.914807 -0.104353 0)
(0.857569 -0.049812 0)
(0.768195 -0.0028071 0)
(0.659035 0.0348407 1.24274e-20)
(0.536383 0.0622143 0)
(0.405767 0.0762663 0)
(0.275993 0.0738453 0)
(0.146498 0.0522529 0)
(0.00614354 0.0403357 2.67297e-20)
(-0.159906 0.0658013 0)
(-0.340659 0.0841612 0)
(-0.526785 0.0941151 0)
(-0.714012 0.0994239 0)
(-0.904129 0.0993041 0)
(-1.09329 0.0922737 0)
(-1.27657 0.078522 0)
(-1.45175 0.0591957 9.07573e-21)
(-1.6172 0.0355465 -9.05049e-21)
(-1.77218 0.00877519 9.07792e-21)
(-1.91663 -0.020221 9.13777e-21)
(-2.05092 -0.0507978 0)
(-2.17562 -0.0825501 0)
(-2.29137 -0.115233 -9.40377e-21)
(-2.39873 -0.148691 -9.50182e-21)
(-2.49815 -0.182812 0)
(-2.58986 -0.217447 0)
(-2.67396 -0.252423 -9.77632e-21)
(-2.75033 -0.287455 0)
(-2.8187 -0.322206 0)
(-2.87863 -0.356203 9.96314e-21)
(-2.92963 -0.388922 0)
(-2.97125 -0.419664 9.9916e-21)
(-3.00303 -0.447604 1.99351e-20)
(-3.02436 -0.471768 0)
(-3.03442 -0.49136 0)
(-3.03217 -0.50605 0)
(-3.02103 -0.518797 0)
(-2.99995 -0.530619 0)
(-2.96948 -0.542495 1.7713e-20)
(-2.92967 -0.554859 1.6946e-20)
(-2.88045 -0.567875 1.60419e-20)
(-2.82167 -0.581476 0)
(-2.75319 -0.595559 -1.37702e-20)
(-2.67498 -0.609889 0)
(-2.58712 -0.62425 1.07972e-20)
(-2.48993 -0.638342 9.01653e-21)
(-2.38364 -0.651804 0)
(-2.26858 -0.664536 0)
(-2.14677 -0.676937 0)
(-2.01913 -0.687664 -4.67499e-22)
(-1.88568 -0.697096 0)
(-1.74919 -0.704712 0)
(-1.61032 -0.710158 0)
(-1.47099 -0.713337 0)
(-1.33264 -0.714561 0)
(-1.19635 -0.716093 0)
(-1.0634 -0.718903 0)
(-0.93395 -0.721453 0)
(-0.809297 -0.724549 4.349e-20)
(-0.68966 -0.728601 0)
(-0.575326 -0.733894 0)
(-0.466334 -0.740652 -7.04117e-20)
(-0.362721 -0.748769 -8.19933e-20)
(-0.264857 -0.757768 0)
(-0.173498 -0.767588 1.10616e-19)
(-0.0893863 -0.779407 -1.28241e-19)
(-0.0129956 -0.78137 0)
(0.0600245 -0.761142 1.39775e-19)
(0.133672 -0.733602 0)
(0.206617 -0.707158 0)
(0.27676 -0.682236 -1.19248e-19)
(0.343689 -0.658921 0)
(0.407283 -0.63774 1.10949e-19)
(0.467618 -0.618563 0)
(0.524972 -0.601207 -1.05103e-19)
(0.579679 -0.585477 -1.02784e-19)
(0.632056 -0.571179 -1.00768e-19)
(0.682406 -0.558136 -1.97958e-19)
(0.730987 -0.546185 1.94772e-19)
(0.778038 -0.535191 0)
(0.823743 -0.525033 0)
(0.86828 -0.515611 0)
(0.911767 -0.506839 1.84646e-19)
(0.954341 -0.49864 1.82592e-19)
(0.996123 -0.490955 -1.80673e-19)
(1.03718 -0.483735 0)
(1.07756 -0.476933 1.77181e-19)
(1.11729 -0.47051 1.75588e-19)
(1.15639 -0.464431 1.74086e-19)
(1.1949 -0.458669 0)
(1.23281 -0.453199 0)
(1.27013 -0.448001 0)
(1.30686 -0.443057 1.68885e-19)
(1.34301 -0.43835 0)
(1.37856 -0.433867 0)
(1.41351 -0.429595 -1.65721e-19)
(1.44786 -0.425524 0)
(1.4816 -0.421647 0)
(1.51473 -0.417956 -1.63087e-19)
(1.54725 -0.414445 0)
(1.57916 -0.411106 0)
(1.61048 -0.407936 1.60911e-19)
(1.6412 -0.404926 1.60276e-19)
(1.67134 -0.402073 0)
(1.70091 -0.399369 -1.59131e-19)
(1.72991 -0.39681 0)
(1.75837 -0.39439 1.58138e-19)
(1.78629 -0.392106 0)
(1.81369 -0.389952 1.57283e-19)
(1.84058 -0.387922 1.56903e-19)
(1.86699 -0.386011 0)
(1.89292 -0.384215 0)
(1.9184 -0.38253 0)
(1.94346 -0.380952 0)
(1.96811 -0.379478 0)
(1.99237 -0.378103 0)
(2.01627 -0.376821 0)
(2.03982 -0.375629 1.54803e-19)
(2.06304 -0.37452 -1.54638e-19)
(2.08596 -0.373491 0)
(2.1086 -0.372536 0)
(2.13098 -0.371653 0)
(2.15312 -0.370837 0)
(2.17504 -0.370085 -3.08081e-19)
(2.19677 -0.369393 0)
(2.21832 -0.36876 3.07769e-19)
(2.23972 -0.368181 -3.0764e-19)
(2.26098 -0.367654 0)
(2.28214 -0.367176 0)
(2.30321 -0.366747 0)
(2.32421 -0.366361 3.07248e-19)
(2.34516 -0.366019 3.0717e-19)
(2.36609 -0.365718 0)
(2.387 -0.365459 3.07022e-19)
(2.40795 -0.365235 3.06944e-19)
(2.4289 -0.365054 -3.06887e-19)
(2.44988 -0.364869 0)
(2.471 -0.36479 0)
(2.49219 -0.364731 -3.06658e-19)
(2.51346 -0.364647 0)
(2.53488 -0.364618 0)
(2.55645 -0.364633 0)
(2.57819 -0.364677 0)
(2.60012 -0.364744 3.06088e-19)
(2.62226 -0.36483 3.05919e-19)
(2.64463 -0.364934 0)
(2.66724 -0.365055 3.05515e-19)
(2.69011 -0.365192 0)
(2.71326 -0.365347 0)
(2.7367 -0.365522 3.04724e-19)
(2.76045 -0.365718 0)
(2.78453 -0.365938 3.04052e-19)
(2.80895 -0.366182 0)
(2.83372 -0.366454 0)
(2.85884 -0.366754 3.028e-19)
(2.88433 -0.367083 0)
(2.91018 -0.367443 3.01798e-19)
(2.93637 -0.367832 0)
(2.9629 -0.36825 0)
(2.98973 -0.368698 0)
(3.01681 -0.369175 -2.99439e-19)
(3.04406 -0.369685 0)
(3.07144 -0.370226 2.98162e-19)
(3.09876 -0.370841 0)
(3.1258 -0.371436 0)
(3.15243 -0.372151 0)
(3.17785 -0.372895 0)
(3.20207 -0.373773 0)
(3.22181 -0.374699 0)
(3.23963 -0.375594 0)
(3.23116 -0.37199 -5.99303e-19)
(3.20824 -0.352987 0)
(3.03465 -0.331523 0)
(-0.197887 -0.669336 5.33277e-20)
(0.334043 -0.632761 -4.17726e-20)
(0.327054 -0.539223 0)
(0.422054 -0.396617 2.02574e-20)
(0.478755 -0.284832 0)
(0.532946 -0.150892 8.5329e-21)
(0.547102 0.00168308 -1.96898e-20)
(0.52267 0.149045 -1.86726e-20)
(0.455681 0.262316 0)
(0.357156 0.336964 -1.67486e-20)
(0.239876 0.376701 -7.10346e-21)
(0.106004 0.388935 0)
(-0.0453493 0.387464 0)
(-0.214294 0.398272 0)
(-0.400659 0.428324 0)
(-0.597463 0.472268 -4.51564e-21)
(-0.795512 0.513548 0)
(-0.985874 0.539184 9.27704e-21)
(-1.16361 0.550348 0)
(-1.32426 0.54927 0)
(-1.46454 0.538147 -9.54218e-21)
(-1.58301 0.519688 0)
(-1.68085 0.496939 1.03052e-20)
(-1.76066 0.472876 -4.74377e-21)
(-1.82565 0.449866 4.99654e-21)
(-1.87923 0.429595 -5.24685e-21)
(-1.92451 0.413031 -5.48922e-21)
(-1.9642 0.400561 0)
(-2.00047 0.392103 0)
(-2.03497 0.387256 6.14028e-21)
(-2.06888 0.385421 -7.24562e-21)
(-2.10299 0.385874 0)
(-2.13776 0.387868 0)
(-2.17345 0.390616 6.78115e-21)
(-2.21009 0.393387 0)
(-2.24766 0.39543 0)
(-2.28599 0.396064 -7.05105e-21)
(-2.32486 0.39453 0)
(-2.36391 0.390168 8.33677e-21)
(-2.40267 0.382404 -1.4081e-20)
(-2.44067 0.371046 0)
(-2.47736 0.356096 0)
(-2.51257 0.337847 -2.97371e-20)
(-2.54184 0.317747 -2.90761e-20)
(-2.56516 0.295108 -2.81988e-20)
(-2.58018 0.271953 1.53935e-20)
(-2.58572 0.248672 -1.10347e-20)
(-2.58091 0.225391 -3.4763e-20)
(-2.56528 0.202332 2.2955e-20)
(-2.53858 0.179589 8.43378e-21)
(-2.50076 0.157399 0)
(-2.4519 0.135898 -6.30549e-21)
(-2.39231 0.115347 9.91406e-21)
(-2.3223 0.0960517 0)
(-2.24241 0.0789078 0)
(-2.15379 0.0646116 0)
(-2.05738 0.052415 2.13777e-22)
(-1.95437 0.0424609 0)
(-1.84623 0.034739 -1.23287e-21)
(-1.73403 0.0297954 0)
(-1.61921 0.0273274 -7.46859e-21)
(-1.50299 0.0270377 0)
(-1.38685 0.0285101 1.39105e-20)
(-1.27157 0.0319572 0)
(-1.1582 0.0367535 -2.04544e-20)
(-1.04721 0.0425106 9.51132e-21)
(-0.939187 0.0486545 0)
(-0.834505 0.0549141 3.04712e-20)
(-0.733362 0.0608249 1.92357e-20)
(-0.635672 0.0662528 2.09311e-20)
(-0.541059 0.070924 0)
(-0.448893 0.075289 1.98578e-20)
(-0.357363 0.0810209 2.61164e-20)
(-0.266864 0.0893945 0)
(-0.1824 0.0995684 -2.93311e-20)
(-0.106118 0.109736 5.71135e-20)
(-0.0351953 0.119069 0)
(0.0321569 0.12748 3.28884e-20)
(0.096293 0.1348 0)
(0.157651 0.141162 -9.60093e-20)
(0.216739 0.146432 0)
(0.273844 0.150799 9.75783e-20)
(0.329213 0.154391 3.39708e-20)
(0.383034 0.157391 -3.06921e-20)
(0.435458 0.159861 -6.1976e-20)
(0.486613 0.161912 6.25337e-20)
(0.536619 0.163587 0)
(0.585571 0.164968 0)
(0.633561 0.166103 0)
(0.680656 0.167051 -2.0496e-19)
(0.726946 0.167868 -7.05091e-20)
(0.7725 0.168584 7.07494e-20)
(0.81736 0.169225 0)
(0.861553 0.169813 6.59794e-20)
(0.905106 0.170374 -7.13936e-20)
(0.948041 0.170927 -7.15873e-20)
(0.990375 0.171485 0)
(1.03212 0.172058 0)
(1.07329 0.172651 0)
(1.11388 0.17327 -7.22896e-20)
(1.15391 0.17392 0)
(1.19338 0.174603 1.40936e-19)
(1.23229 0.175316 2.14116e-19)
(1.27065 0.176059 -1.41742e-19)
(1.30845 0.176827 0)
(1.34569 0.177617 -6.92849e-20)
(1.38239 0.178427 0)
(1.41854 0.179254 -1.43209e-19)
(1.45415 0.180095 6.9933e-20)
(1.48923 0.180947 7.01372e-20)
(1.52379 0.181808 0)
(1.55782 0.182675 2.18518e-19)
(1.59135 0.183546 -1.44835e-19)
(1.62438 0.18442 -7.42346e-20)
(1.65693 0.185294 0)
(1.689 0.186167 -7.44688e-20)
(1.72062 0.187035 -2.20609e-19)
(1.7518 0.187896 0)
(1.78255 0.188746 -1.46594e-19)
(1.81289 0.189583 -1.46874e-19)
(1.84283 0.190405 -1.47154e-19)
(1.87241 0.191214 0)
(1.90163 0.192009 0)
(1.93051 0.192789 0)
(1.95907 0.193553 7.27784e-20)
(1.98734 0.1943 7.56355e-20)
(2.01534 0.195027 0)
(2.04307 0.195733 1.49151e-19)
(2.07056 0.196419 1.49436e-19)
(2.09784 0.197082 0)
(2.12491 0.197723 1.52501e-19)
(2.15181 0.198341 3.00566e-19)
(2.17854 0.198937 -1.52994e-19)
(2.20513 0.199511 -1.48443e-19)
(2.2316 0.200063 0)
(2.25796 0.200593 0)
(2.28425 0.201105 0)
(2.31047 0.201597 -1.54207e-19)
(2.33664 0.20207 1.49938e-19)
(2.36279 0.202528 3.04893e-19)
(2.38893 0.202969 -1.54899e-19)
(2.41507 0.203394 1.50772e-19)
(2.44124 0.203824 1.55351e-19)
(2.46745 0.204191 0)
(2.49373 0.204581 0)
(2.52009 0.204975 -1.51847e-19)
(2.54654 0.205323 0)
(2.57311 0.205665 0)
(2.59982 0.206002 3.09215e-19)
(2.62667 0.206335 0)
(2.65369 0.206661 1.53025e-19)
(2.6809 0.206979 -1.57138e-19)
(2.7083 0.207288 0)
(2.73592 0.207591 1.53585e-19)
(2.76378 0.207888 0)
(2.79189 0.208184 0)
(2.82026 0.208481 -1.57755e-19)
(2.8489 0.208784 3.11986e-19)
(2.87784 0.209098 -1.57908e-19)
(2.90708 0.20943 0)
(2.93662 0.209785 0)
(2.96648 0.210173 1.54469e-19)
(2.99666 0.210598 0)
(3.02715 0.211071 1.54532e-19)
(3.05794 0.211599 0)
(3.08901 0.212196 0)
(3.12033 0.212874 0)
(3.15185 0.213658 1.57821e-19)
(3.18351 0.214565 0)
(3.2152 0.21565 -1.57653e-19)
(3.24682 0.216972 0)
(3.27809 0.218602 0)
(3.30889 0.220635 3.1164e-19)
(3.33854 0.223423 -3.11624e-19)
(3.36686 0.227023 0)
(3.39209 0.232687 0)
(3.4143 0.242393 0)
(3.4322 0.25899 9.47925e-19)
(3.46949 0.285944 0)
(3.49219 0.314013 -6.51128e-19)
(-0.423076 -0.917981 -2.40181e-21)
(0.252888 -0.648687 5.35928e-20)
(-0.100465 -0.621137 0)
(0.08669 -0.486405 -3.34363e-20)
(-0.0457398 -0.390713 0)
(-0.0118313 -0.220125 0)
(-0.0850794 -0.0118292 -8.46262e-23)
(-0.118695 0.207249 1.21847e-20)
(-0.191791 0.375622 1.1405e-20)
(-0.269873 0.498678 9.9564e-21)
(-0.370657 0.587039 0)
(-0.490104 0.656276 0)
(-0.630785 0.71701 -8.40458e-21)
(-0.785132 0.773002 -1.55498e-20)
(-0.941655 0.817387 1.45684e-20)
(-1.08717 0.841058 0)
(-1.21344 0.838755 1.35666e-20)
(-1.31816 0.811281 -5.59919e-21)
(-1.40234 0.763164 0)
(-1.46833 0.700239 1.39769e-20)
(-1.52034 0.628739 6.22206e-21)
(-1.56357 0.554726 -1.48432e-20)
(-1.60314 0.483219 -6.88121e-21)
(-1.64342 0.417711 0)
(-1.68764 0.360049 1.62274e-20)
(-1.73783 0.310682 1.66657e-20)
(-1.79494 0.269015 0)
(-1.85906 0.233838 1.7519e-20)
(-1.92964 0.203667 0)
(-2.00572 0.177003 1.83485e-20)
(-2.08606 0.152505 8.9597e-21)
(-2.16929 0.12907 0)
(-2.25399 0.10588 0)
(-2.33873 0.0823658 0)
(-2.4221 0.0582127 0)
(-2.50278 0.0332811 0)
(-2.57949 0.00760795 0)
(-2.6511 -0.0186946 2.08138e-20)
(-2.71654 -0.0454298 -3.07201e-20)
(-2.77479 -0.0724835 0)
(-2.82481 -0.0998134 0)
(-2.86567 -0.127442 0)
(-2.89682 -0.155243 -1.52304e-21)
(-2.91766 -0.182662 1.83299e-20)
(-2.92761 -0.209128 3.70877e-20)
(-2.92727 -0.236988 -3.56275e-20)
(-2.9168 -0.266336 -1.77885e-20)
(-2.8963 -0.296719 1.52142e-20)
(-2.86575 -0.327656 1.62128e-21)
(-2.82506 -0.358711 1.46322e-20)
(-2.77421 -0.389382 0)
(-2.71327 -0.419158 1.2016e-20)
(-2.64247 -0.447438 1.54041e-21)
(-2.56216 -0.473611 0)
(-2.47277 -0.497051 0)
(-2.37472 -0.51704 -5.77116e-21)
(-2.26924 -0.532417 0)
(-2.15761 -0.543427 0)
(-2.04103 -0.5502 1.80064e-21)
(-1.92085 -0.552116 -2.38944e-21)
(-1.79846 -0.549487 4.06002e-21)
(-1.6752 -0.542893 0)
(-1.55246 -0.53306 -7.33542e-21)
(-1.43137 -0.520462 0)
(-1.31284 -0.505638 -8.44549e-21)
(-1.1975 -0.489166 -1.19604e-20)
(-1.08587 -0.471668 2.48919e-20)
(-0.97833 -0.453584 1.29016e-20)
(-0.875183 -0.43539 0)
(-0.776647 -0.417376 -3.32467e-20)
(-0.682935 -0.399916 0)
(-0.594242 -0.383207 -5.85956e-20)
(-0.510027 -0.367546 -4.08328e-20)
(-0.429104 -0.353676 -4.31855e-20)
(-0.350963 -0.342126 4.54521e-20)
(-0.275981 -0.331989 -7.24959e-20)
(-0.204326 -0.322671 0)
(-0.135499 -0.31395 0)
(-0.0688594 -0.305807 5.40127e-20)
(-0.00419281 -0.298125 8.46906e-20)
(0.0586387 -0.29098 0)
(0.119714 -0.284393 -3.00497e-20)
(0.179112 -0.278391 0)
(0.236929 -0.272921 9.14605e-20)
(0.29329 -0.267962 1.69699e-21)
(0.34831 -0.263454 -1.66123e-21)
(0.402104 -0.25936 -6.32429e-20)
(0.454764 -0.255622 0)
(0.506377 -0.252198 6.4942e-20)
(0.557016 -0.24904 1.52996e-21)
(0.60676 -0.246104 0)
(0.655677 -0.243361 0)
(0.703814 -0.240783 0)
(0.751207 -0.238347 -7.00424e-20)
(0.797886 -0.236028 0)
(0.843879 -0.233807 0)
(0.889209 -0.231669 0)
(0.933896 -0.229604 0)
(0.977954 -0.227603 0)
(1.02139 -0.225659 -7.22821e-20)
(1.06422 -0.223768 0)
(1.10645 -0.221925 -7.46084e-20)
(1.14808 -0.220129 -7.51163e-20)
(1.18912 -0.21838 7.56102e-20)
(1.22958 -0.216679 0)
(1.26946 -0.215028 7.65571e-20)
(1.30876 -0.213429 0)
(1.3475 -0.211883 7.74528e-20)
(1.38567 -0.210392 -7.78829e-20)
(1.42329 -0.208955 -2.32729e-19)
(1.46036 -0.207574 0)
(1.49689 -0.206248 -2.3521e-19)
(1.5329 -0.204981 -7.74106e-20)
(1.56838 -0.203771 0)
(1.60335 -0.202622 -1.58464e-19)
(1.63783 -0.201531 -1.59216e-19)
(1.67182 -0.200498 2.40916e-19)
(1.70534 -0.199521 0)
(1.73839 -0.198601 8.16523e-20)
(1.77101 -0.197739 8.1987e-20)
(1.8032 -0.196933 2.45077e-19)
(1.83498 -0.196184 0)
(1.86637 -0.195488 0)
(1.89738 -0.194843 0)
(1.92804 -0.194245 8.18312e-20)
(1.95834 -0.193693 0)
(1.98832 -0.193183 0)
(2.01799 -0.192715 -8.45771e-20)
(2.04737 -0.192286 -8.48878e-20)
(2.07648 -0.191895 0)
(2.10533 -0.191542 0)
(2.13395 -0.191224 -1.716e-19)
(2.16235 -0.190941 0)
(2.19056 -0.190692 1.72782e-19)
(2.21859 -0.190476 1.71742e-19)
(2.24646 -0.190293 0)
(2.27419 -0.190141 0)
(2.3018 -0.19002 -1.73484e-19)
(2.32931 -0.189931 -1.56184e-21)
(2.35674 -0.189869 -1.54779e-21)
(2.38411 -0.189835 0)
(2.41144 -0.18983 -3.52893e-19)
(2.43876 -0.189851 0)
(2.46609 -0.189903 0)
(2.49343 -0.189993 0)
(2.52083 -0.190103 1.79247e-19)
(2.5483 -0.190225 0)
(2.57586 -0.190376 -3.5754e-19)
(2.60354 -0.190563 -1.80676e-19)
(2.63135 -0.190782 0)
(2.65932 -0.191027 -1.81554e-19)
(2.68747 -0.191298 0)
(2.71584 -0.191592 0)
(2.74443 -0.191911 -5.45516e-19)
(2.77328 -0.192255 3.63521e-19)
(2.80242 -0.192625 0)
(2.83185 -0.193024 3.64929e-19)
(2.86162 -0.193455 -1.8411e-19)
(2.89173 -0.193919 0)
(2.92221 -0.194419 0)
(2.95307 -0.194953 0)
(2.98433 -0.195522 -5.5291e-19)
(3.016 -0.196121 0)
(3.04808 -0.196746 -1.85542e-19)
(3.08056 -0.19739 0)
(3.11342 -0.198044 0)
(3.14665 -0.1987 0)
(3.1802 -0.199342 0)
(3.21402 -0.199966 0)
(3.24801 -0.200536 0)
(3.28208 -0.201058 -3.70197e-19)
(3.316 -0.201426 0)
(3.3497 -0.201686 -1.8638e-19)
(3.38251 -0.201488 5.57128e-19)
(3.41467 -0.201055 0)
(3.44406 -0.199084 0)
(3.47295 -0.196225 -3.72858e-19)
(3.49474 -0.189582 -3.7822e-19)
(3.51868 -0.169369 3.8061e-19)
(3.52899 -0.117299 3.9367e-19)
(-0.516721 -0.777324 -6.40478e-20)
(0.0562427 -0.556653 -5.26824e-20)
(-0.26811 -0.516083 -2.22288e-20)
(-0.227266 -0.371851 -8.89721e-21)
(-0.364924 -0.210657 0)
(-0.431922 -0.0322337 1.70011e-20)
(-0.534102 0.164752 -7.50591e-21)
(-0.60578 0.359317 0)
(-0.683103 0.534461 -7.33016e-21)
(-0.759666 0.681738 0)
(-0.845793 0.801863 1.31887e-20)
(-0.936417 0.897434 0)
(-1.02747 0.96719 5.57266e-21)
(-1.10971 1.00792 1.06009e-20)
(-1.17646 1.01739 -1.02475e-20)
(-1.22456 0.997256 0)
(-1.25565 0.952827 -1.00646e-20)
(-1.27451 0.891757 0)
(-1.28734 0.822679 0)
(-1.3006 0.753697 -1.07741e-20)
(-1.32003 0.691176 0)
(-1.34986 0.639093 -1.10611e-21)
(-1.39235 0.598954 0)
(-1.44808 0.570349 0)
(-1.51621 0.551642 9.25786e-22)
(-1.595 0.540655 -1.28748e-20)
(-1.68226 0.535128 -1.40802e-20)
(-1.77565 0.532992 -1.34983e-20)
(-1.87289 0.532479 0)
(-1.97188 0.532133 -2.91984e-20)
(-2.07074 0.530798 0)
(-2.16786 0.527557 -1.57752e-20)
(-2.26183 0.521707 0)
(-2.35148 0.512703 0)
(-2.4358 0.500138 1.67772e-20)
(-2.51397 0.483695 0)
(-2.58533 0.463147 -1.7324e-20)
(-2.64935 0.438322 1.27824e-21)
(-2.70567 0.409132 3.39877e-20)
(-2.75402 0.375544 -3.53726e-20)
(-2.79425 0.337563 0)
(-2.82632 0.295186 0)
(-2.8502 0.248468 -1.86227e-20)
(-2.86574 0.197639 0)
(-2.87267 0.143248 -1.49976e-20)
(-2.87057 0.0878106 1.43666e-20)
(-2.85907 0.0324345 1.36484e-20)
(-2.83778 -0.0227344 0)
(-2.8064 -0.0774732 -1.19811e-20)
(-2.76471 -0.131433 -1.10405e-20)
(-2.71258 -0.184114 2.28426e-20)
(-2.65003 -0.234931 -8.97272e-21)
(-2.57722 -0.283166 -7.85497e-21)
(-2.49456 -0.327977 0)
(-2.4027 -0.368417 0)
(-2.30235 -0.403578 4.21601e-21)
(-2.19451 -0.432478 0)
(-2.08064 -0.454817 0)
(-1.96219 -0.470496 -7.93313e-22)
(-1.84094 -0.479126 1.69424e-21)
(-1.71852 -0.480893 0)
(-1.5966 -0.476477 0)
(-1.47662 -0.46682 0)
(-1.35971 -0.45291 0)
(-1.24659 -0.435776 1.28976e-20)
(-1.1377 -0.416364 -1.36542e-20)
(-1.03323 -0.395519 -1.67498e-20)
(-0.933254 -0.373886 -3.5994e-20)
(-0.837689 -0.351995 0)
(-0.7464 -0.330177 1.07503e-21)
(-0.659225 -0.308694 0)
(-0.576054 -0.287612 2.51206e-20)
(-0.496664 -0.266969 1.02323e-21)
(-0.420863 -0.246998 2.80373e-20)
(-0.348585 -0.228213 -2.94215e-20)
(-0.279651 -0.210791 9.93253e-22)
(-0.213718 -0.194685 0)
(-0.150417 -0.179725 -3.23386e-20)
(-0.0892919 -0.165921 -3.4543e-20)
(-0.0299982 -0.153228 -7.0492e-20)
(0.0276774 -0.141625 0)
(0.0838538 -0.131071 3.66374e-20)