# vtk DataFile Version 2.0
track0
ASCII
DATASET POLYDATA
POINTS 10920 double
-0.0205 0.001 1e-05
-0.0202034 0.00100003 1e-05
-0.0199069 0.00100026 1e-05
-0.0196103 0.00100071 1e-05
-0.0193137 0.00100137 1e-05
-0.0190172 0.00100225 1e-05
-0.0187132 0.00100354 1e-05
-0.0184093 0.0010045 1e-05
-0.0181054 0.00100547 1e-05
-0.0178015 0.00100644 1e-05
-0.0174976 0.0010074 1e-05
-0.0172058 0.00100862 1e-05
-0.016914 0.00100939 1e-05
-0.0166222 0.0010101 1e-05
-0.0163305 0.00101075 1e-05
-0.0160387 0.00101135 1e-05
-0.0157586 0.00101219 1e-05
-0.0154784 0.0010126 1e-05
-0.0151983 0.00101296 1e-05
-0.0149182 0.00101328 1e-05
-0.0146381 0.00101355 1e-05
-0.0143692 0.0010141 1e-05
-0.0141002 0.00101424 1e-05
-0.0138313 0.00101435 1e-05
-0.0135624 0.00101442 1e-05
-0.0132934 0.00101445 1e-05
-0.0130353 0.0010148 1e-05
-0.0127771 0.00101474 1e-05
-0.0125189 0.00101466 1e-05
-0.0122607 0.00101454 1e-05
-0.0120025 0.0010144 1e-05
-0.0117547 0.0010146 1e-05
-0.0115068 0.00101439 1e-05
-0.0112589 0.00101416 1e-05
-0.0110111 0.00101391 1e-05
-0.0107632 0.00101363 1e-05
-0.0105252 0.00101375 1e-05
-0.0102873 0.00101342 1e-05
-0.0100493 0.00101308 1e-05
-0.00981133 0.00101271 1e-05
-0.00957337 0.00101232 1e-05
-0.00934491 0.00101239 1e-05
-0.00911645 0.00101197 1e-05
-0.008888 0.00101153 1e-05
-0.00865954 0.00101107 1e-05
-0.00843108 0.00101059 1e-05
-0.00821175 0.00101062 1e-05
-0.00799242 0.00101011 1e-05
-0.00777309 0.00100959 1e-05
-0.00755376 0.00100904 1e-05
-0.00733443 0.00100847 1e-05
-0.00712387 0.00100849 1e-05
-0.0069133 0.0010079 1e-05
-0.00670273 0.00100729 1e-05
-0.00649217 0.00100667 1e-05
-0.0062816 0.00100602 1e-05
-0.00607944 0.00100602 1e-05
-0.00587729 0.00100536 1e-05
-0.00567514 0.00100467 1e-05
-0.00547299 0.00100396 1e-05
-0.00527083 0.00100324 1e-05
-0.00507675 0.00100323 1e-05
-0.00488268 0.00100249 1e-05
-0.0046886 0.00100173 1e-05
-0.00449453 0.00100094 1e-05
-0.00430044 0.00100013 1e-05
-0.00411412 0.00100012 1e-05
-0.0039278 0.000999297 1e-05
-0.00374148 0.000998451 1e-05
-0.00355516 0.000997578 1e-05
-0.00336883 0.000996679 1e-05
-0.00318995 0.000996656 1e-05
-0.00301107 0.000995748 1e-05
-0.0028322 0.000994809 1e-05
-0.00265332 0.00099384 1e-05
-0.00247443 0.00099284 1e-05
-0.0023027 0.000992796 1e-05
-0.00213097 0.000991781 1e-05
-0.00195924 0.000990731 1e-05
-0.00178751 0.000989646 1e-05
-0.00161577 0.000988524 1e-05
-0.0014509 0.000988446 1e-05
-0.00128603 0.000987303 1e-05
-0.00112117 0.000986113 1e-05
-0.000956302 0.000984873 1e-05
-0.000791418 0.000983583 1e-05
-0.000633135 0.00098342 1e-05
-0.000474857 0.00098207 1e-05
-0.000316579 0.000980666 1e-05
-0.000158302 0.000979206 1e-05
0 0.000977688 1e-05
0.000105677 0.000977504 1e-05
0.00021135 0.000976425 1e-05
0.000317021 0.00097531 1e-05
0.000422693 0.000974159 1e-05
0.000528387 0.00097297 1e-05
0.000634886 0.000972777 1e-05
0.000741379 0.000971555 1e-05
0.00084787 0.000970305 1e-05
0.000954362 0.000969027 1e-05
0.00106088 0.00096772 1e-05
0.00116821 0.000967552 1e-05
0.00127553 0.000966244 1e-05
0.00138285 0.00096491 1e-05
0.00149017 0.000963552 1e-05
0.00159752 0.000962258 1e-05
0.00170568 0.000962114 1e-05
0.00181383 0.000960902 1e-05
0.00192199 0.000959527 1e-05
0.00203014 0.00095813 1e-05
0.00213833 0.000956949 1e-05
0.00224733 0.000956832 1e-05
0.00235633 0.000955742 1e-05
0.00246532 0.000954362 1e-05
0.00257431 0.000952959 1e-05
0.00268334 0.000951891 1e-05
0.00279319 0.000951793 1e-05
0.00290303 0.000950813 1e-05
0.00301287 0.000949441 1e-05
0.00312272 0.000948046 1e-05
0.00323259 0.000947074 1e-05
0.00334329 0.000946983 1e-05
0.00345399 0.000946091 1e-05
0.00356469 0.000944734 1e-05
0.00367538 0.000943352 1e-05
0.00378611 0.00094246 1e-05
0.00389767 0.000942363 1e-05
0.00400923 0.000941541 1e-05
0.00412079 0.0009402 1e-05
0.00423235 0.000938834 1e-05
0.00434393 0.000938003 1e-05
0.00445636 0.000937891 1e-05
0.00456879 0.000937121 1e-05
0.00468122 0.000935792 1e-05
0.00479364 0.000934439 1e-05
0.00490609 0.000933654 1e-05
0.0050194 0.000933516 1e-05
0.0051327 0.00093278 1e-05
0.005246 0.000931459 1e-05
0.0053593 0.000930122 1e-05
0.00547262 0.000929365 1e-05
0.00558681 0.000929193 1e-05
0.00570099 0.000928476 1e-05
0.00581517 0.000927217 1e-05
0.00592935 0.000925949 1e-05
0.00604356 0.000925206 1e-05
0.00615863 0.000924993 1e-05
0.0062737 0.000924282 1e-05
0.00638877 0.000923078 1e-05
0.00650384 0.000921862 1e-05
0.00661893 0.000921122 1e-05
0.0067349 0.000920862 1e-05
0.00685087 0.000920148 1e-05
0.00696683 0.000918982 1e-05
0.0070828 0.000917805 1e-05
0.00719878 0.000917058 1e-05
0.00731565 0.000916747 1e-05
0.00743252 0.00091602 1e-05
0.00754939 0.000914881 1e-05
0.00766625 0.000913728 1e-05
0.00778313 0.000912967 1e-05
0.00790091 0.000912601 1e-05
0.00801869 0.000911853 1e-05
0.00813647 0.000910729 1e-05
0.00825424 0.00090959 1e-05
0.00837203 0.000908807 1e-05
0.00849073 0.000908382 1e-05
0.00860942 0.000907607 1e-05
0.00872811 0.000906487 1e-05
0.0088468 0.000905353 1e-05
0.00896551 0.000904542 1e-05
0.00908513 0.000904054 1e-05
0.00920475 0.000903247 1e-05
0.00932436 0.000902123 1e-05
0.00944397 0.000900985 1e-05
0.0095636 0.000900139 1e-05
0.00968415 0.000899586 1e-05
0.0098047 0.000898741 1e-05
0.00992524 0.000897605 1e-05
0.0100458 0.000896458 1e-05
0.0101663 0.000895573 1e-05
0.0102878 0.000894953 1e-05
0.0104093 0.000894065 1e-05
0.0105308 0.000892938 1e-05
0.0106523 0.000891804 1e-05
0.0107738 0.000890875 1e-05
0.0108962 0.000890185 1e-05
0.0110186 0.000889249 1e-05
0.0111411 0.000888124 1e-05
0.0112635 0.00088699 1e-05
0.0113859 0.000886013 1e-05
0.0115093 0.000885252 1e-05
0.0116327 0.000884264 1e-05
0.0117561 0.000883129 1e-05
0.0118794 0.000881986 1e-05
0.0120028 0.000880957 1e-05
0.0121272 0.000880121 1e-05
0.0122515 0.000879078 1e-05
0.0123759 0.000877924 1e-05
0.0125002 0.000876762 1e-05
0.0126245 0.000875676 1e-05
0.0127498 0.000874765 1e-05
0.0128752 0.000873663 1e-05
0.0130005 0.000872482 1e-05
0.0131258 0.000871292 1e-05
0.0132511 0.000870147 1e-05
0.0133774 0.000869158 1e-05
0.0135036 0.000867994 1e-05
0.0136299 0.000866778 1e-05
0.0137562 0.000865553 1e-05
0.0138825 0.000864346 1e-05
0.0140098 0.000863278 1e-05
0.014137 0.000862049 1e-05
0.0142643 0.000860791 1e-05
0.0143915 0.000859523 1e-05
0.0145188 0.00085825 1e-05
0.0146471 0.000857101 1e-05
0.0147753 0.000855806 1e-05
0.0149036 0.0008545 1e-05
0.0150318 0.000853183 1e-05
0.0151601 0.000851855 1e-05
0.0152893 0.000850623 1e-05
0.0154186 0.000849274 1e-05
0.0155478 0.000847914 1e-05
0.0156771 0.000846542 1e-05
0.0158063 0.000845159 1e-05
0.0159366 0.000843844 1e-05
0.0160668 0.000842435 1e-05
0.0161971 0.000841016 1e-05
0.0163273 0.000839584 1e-05
0.0164576 0.000838141 1e-05
0.0165889 0.00083674 1e-05
0.0167201 0.000835267 1e-05
0.0168514 0.000833783 1e-05
0.0169827 0.000832287 1e-05
0.0171139 0.000830779 1e-05
0.0172462 0.000829291 1e-05
0.0173785 0.00082775 1e-05
0.0175108 0.000826198 1e-05
0.0176431 0.000824633 1e-05
0.0177754 0.000823055 1e-05
0.0179087 0.000821479 1e-05
0.018042 0.000819866 1e-05
0.0181753 0.000818241 1e-05
0.0183087 0.000816603 1e-05
0.018442 0.000814952 1e-05
0.0185551 0.00081355 1e-05
0.0186682 0.00081213 1e-05
0.0187814 0.000810701 1e-05
0.0188945 0.000809263 1e-05
0.0190015 0.000807893 1e-05
0.019024 0.000807604 1e-05
0.0190464 0.000807315 1e-05
0.0190689 0.000807025 1e-05
0.0190913 0.000806735 1e-05
0.0191137 0.000806445 1e-05
0.0192491 0.000804689 1e-05
0.0193845 0.000802922 1e-05
0.0195199 0.000801141 1e-05
0.0196553 0.000799346 1e-05
0.0197907 0.000797539 1e-05
0.0199272 0.000795693 1e-05
0.0200636 0.000793843 1e-05
0.0202001 0.000791979 1e-05
0.0203365 0.000790102 1e-05
0.020473 0.000788211 1e-05
0.0206105 0.000786273 1e-05
0.020748 0.000784338 1e-05
0.0208855 0.000782389 1e-05
0.021023 0.000780426 1e-05
0.0211606 0.000778449 1e-05
0.0212991 0.00077642 1e-05
0.0214377 0.000774397 1e-05
0.0215763 0.000772359 1e-05
0.0217149 0.000770308 1e-05
0.0218535 0.000768242 1e-05
0.0219931 0.00076612 1e-05
0.0221328 0.000764007 1e-05
0.0222724 0.000761879 1e-05
0.0224121 0.000759736 1e-05
0.0225517 0.000757579 1e-05
0.0226925 0.000755363 1e-05
0.0228332 0.000753157 1e-05
0.022974 0.000750936 1e-05
0.0231147 0.000748699 1e-05
0.0232555 0.000746445 1e-05
0.0233973 0.000744132 1e-05
0.0235391 0.000741825 1e-05
0.023681 0.000739504 1e-05
0.0238228 0.000737169 1e-05
0.0239647 0.000734812 1e-05
0.0241076 0.0007324 1e-05
0.0242505 0.00072999 1e-05
0.0243935 0.000727571 1e-05
0.0245364 0.000725136 1e-05
0.0246794 0.000722679 1e-05
0.0248234 0.00072017 1e-05
0.0249675 0.00071766 1e-05
0.0251115 0.000715143 1e-05
0.0252556 0.00071261 1e-05
0.0253996 0.000710052 1e-05
0.0255448 0.000707443 1e-05
0.02569 0.000704829 1e-05
0.0258351 0.000702208 1e-05
0.0259803 0.000699569 1e-05
0.0261255 0.000696905 1e-05
0.0262718 0.000694192 1e-05
0.0264181 0.00069147 1e-05
0.0265644 0.00068874 1e-05
0.0267107 0.000685993 1e-05
0.026857 0.00068322 1e-05
0.0270044 0.000680402 1e-05
0.0271519 0.000677572 1e-05
0.0272993 0.000674731 1e-05
0.0274468 0.000671873 1e-05
0.0275942 0.000668993 1e-05
0.0277428 0.000666069 1e-05
0.0278914 0.000663131 1e-05
0.0280399 0.00066018 1e-05
0.0281885 0.000657212 1e-05
0.0283371 0.000654226 1e-05
0.0284869 0.000651197 1e-05
0.0286366 0.000648153 1e-05
0.0287863 0.000645092 1e-05
0.0289361 0.000642017 1e-05
0.0290858 0.000638925 1e-05
0.0292367 0.000635792 1e-05
0.0293876 0.000632642 1e-05
0.0295385 0.000629474 1e-05
0.0296894 0.000626291 1e-05
0.0298403 0.000623094 1e-05
0.0299924 0.000619857 1e-05
0.0301445 0.000616601 1e-05
0.0302966 0.000613326 1e-05
0.0304486 0.000610036 1e-05
0.0306007 0.000606734 1e-05
0.030754 0.000603393 1e-05
0.0309072 0.000600031 1e-05
0.0310605 0.000596649 1e-05
0.0312138 0.000593253 1e-05
0.031367 0.000589845 1e-05
0.0315215 0.000586399 1e-05
0.0316759 0.00058293 1e-05
0.0318304 0.000579442 1e-05
0.0319848 0.00057594 1e-05
0.0321393 0.000572425 1e-05
0.0322949 0.000568872 1e-05
0.0324506 0.000565295 1e-05
0.0326062 0.0005617 1e-05
0.0327619 0.000558091 1e-05
0.0329175 0.000554467 1e-05
[...]
POINT_DATA 10920
 FIELD attributes 1
U 3 10920 float
10.0021 	0.000979929 	0 10.0076 	0.00792604 	0 10.013 	0.0151136 	0 10.0184 	0.0223145 	0 10.0239 	0.0295285 	0 10.0306 	0.0425772 	0 10.0339 	0.0319081 	0 10.0371 	0.0319254 	0 10.0403 	0.0319427 	0 10.0435 	0.0319602 	0 10.0462 	0.0419753 	0 10.0442 	0.0264191 	0 10.0432 	0.0244618 	0 10.0422 	0.0224784 	0 10.0412 	0.0204685 	0 10.0403 	0.0301444 	0 10.0367 	0.0145956 	0 10.0345 	0.0130078 	0 10.0322 	0.0113924 	0 10.0299 	0.009749 	0 10.028 	0.020609 	0 10.0246 	0.00520658 	0 10.0223 	0.00392904 	0 10.02 	0.00262526 	0 10.0177 	0.00129467 	0 10.0156 	0.0135076 	0 10.0124 	-0.00228817 	0 10.01 	-0.00336484 	0 10.0076 	-0.0044662 	0 10.0052 	-0.00559283 	0 10.0029 	0.00840997 	0 9.99989 	-0.00846865 	0 9.99739 	-0.00938339 	0 9.99489 	-0.0103206 	0 9.99238 	-0.0112807 	0 9.98991 	0.00507651 	0 9.9871 	-0.0136665 	0 9.98463 	-0.0145067 	0 9.98215 	-0.0153684 	0 9.97966 	-0.0162521 	0 9.97699 	0.00295314 	0 9.97451 	-0.0183761 	0 9.97208 	-0.0192232 	0 9.96965 	-0.0200923 	0 9.96722 	-0.020984 	0 9.9643 	0.00154349 	0 9.96219 	-0.023 	0 9.95982 	-0.0238917 	0 9.95744 	-0.0248067 	0 9.95506 	-0.0257457 	0 9.9518 	0.000612127 	0 9.95016 	-0.0277133 	0 9.94786 	-0.0286659 	0 9.94556 	-0.0296434 	0 9.94324 	-0.0306464 	0 9.93958 	4.75348e-05 	0 9.93854 	-0.0326118 	0 9.93633 	-0.0336501 	0 9.93412 	-0.0347152 	0 9.9319 	-0.0358078 	0 9.92776 	-0.000295572 	0 9.92741 	-0.0378385 	0 9.92532 	-0.0390114 	0 9.92323 	-0.040214 	0 9.92113 	-0.0414472 	0 9.91644 	-0.000663721 	0 9.91692 	-0.0436694 	0 9.91496 	-0.0450223 	0 9.91298 	-0.0464088 	0 9.91099 	-0.0478298 	0 9.90559 	-0.00125274 	0 9.90699 	-0.0503388 	0 9.90515 	-0.0519754 	0 9.90329 	-0.0536516 	0 9.90143 	-0.0553685 	0 9.89521 	-0.00250135 	0 9.89776 	-0.0585002 	0 9.89603 	-0.0604949 	0 9.8943 	-0.0625368 	0 9.89255 	-0.0646269 	0 9.88531 	-0.00470271 	0 9.88892 	-0.0685307 	0 9.88694 	-0.0713975 	0 9.88494 	-0.0743298 	0 9.88292 	-0.077329 	0 9.87382 	-0.0101663 	0 9.87735 	-0.0841946 	1.06495e-21 9.87507 	-0.0876022 	3.62983e-21 9.87277 	-0.0910874 	6.19273e-21 9.87044 	-0.0946518 	8.75362e-21 9.86046 	-0.0171879 	1.02487e-20 9.86471 	-0.100724 	-1.48906e-20 9.86242 	-0.104057 	-1.92431e-20 9.86011 	-0.107441 	-2.36131e-20 9.85778 	-0.110877 	-2.8001e-20 9.84603 	-0.0178354 	5.99779e-22 9.85399 	-0.113072 	-1.9374e-21 9.85195 	-0.115615 	-4.32572e-21 9.84989 	-0.118196 	-6.71236e-21 9.84781 	-0.120816 	-9.0973e-21 9.83177 	-0.015468 	-1.0192e-20 9.8457 	-0.12 	-9.5344e-21 9.84369 	-0.122284 	-6.27216e-21 9.84168 	-0.124601 	-3.00885e-21 9.8381 	-0.118515 	-4.53207e-22 9.81636 	-0.0130672 	-6.23969e-21 9.83485 	-0.110291 	-7.28599e-22 9.83534 	-0.124971 	-8.85735e-21 9.83308 	-0.127074 	-1.90642e-20 9.82525 	-0.107205 	-2.8993e-20 9.79818 	-0.0105592 	-3.80002e-20 9.82068 	-0.0981816 	-6.10863e-20 9.82519 	-0.124425 	-6.34446e-20 9.82267 	-0.126448 	-5.76369e-20 9.80927 	-0.0960476 	-4.20294e-20 9.77709 	-0.00870263 	-9.24912e-21 9.80353 	-0.0875207 	-9.00125e-21 9.81316 	-0.122564 	-3.596e-21 9.81036 	-0.124628 	5.66526e-21 9.79017 	-0.0865241 	1.5787e-20 9.75292 	-0.00808029 	2.67714e-20 9.78286 	-0.0787811 	8.22857e-20 9.79841 	-0.120159 	1.12742e-19 9.79522 	-0.122245 	1.09625e-19 9.76719 	-0.0786841 	7.01123e-20 9.72514 	-0.00847426 	9.32749e-21 9.75818 	-0.071872 	-6.30412e-20 9.78031 	-0.117633 	-1.16603e-19 9.77668 	-0.119721 	-1.2374e-19 9.74008 	-0.0724722 	-8.06295e-20 9.69367 	-0.0097133 	-2.17664e-20 9.72941 	-0.0666387 	-1.3607e-20 9.75865 	-0.115305 	-8.39952e-21 9.75457 	-0.117399 	-1.98676e-20 9.7089 	-0.0678369 	-4.03198e-20 9.65862 	-0.011749 	-6.19986e-20 9.69669 	-0.0629782 	-7.38364e-20 9.73344 	-0.113442 	-8.52833e-20 9.72818 	-0.114803 	-7.876e-20 9.67385 	-0.0646702 	-5.70358e-20 9.62018 	-0.0144886 	-3.53749e-20 9.6602 	-0.0606726 	-2.26431e-20 9.6996 	-0.106891 	-9.84746e-21 9.69252 	-0.107631 	-4.14129e-22 9.63529 	-0.0627072 	-3.42062e-21 9.57869 	-0.0177382 	-6.40802e-21 9.62028 	-0.059419 	-3.5448e-21 9.66126 	-0.101134 	-7.0029e-22 9.65311 	-0.101986 	-7.80133e-22 9.59348 	-0.0616911 	-3.7861e-21 9.53444 	-0.021354 	-6.77483e-21 9.57722 	-0.0590006 	-3.91192e-21 9.61942 	-0.0966797 	-1.06603e-21 9.61028 	-0.0976059 	-6.29842e-21 9.54872 	-0.0614479 	-1.59885e-20 9.48773 	-0.0252517 	-2.5747e-20 9.53135 	-0.0592848 	-5.06445e-20 9.57441 	-0.0933484 	-7.5477e-20 9.5644 	-0.094322 	-8.05379e-20 9.50137 	-0.0618664 	-6.56733e-20 9.43888 	-0.029376 	-5.08337e-20 9.48302 	-0.0601628 	-9.90741e-20 9.52662 	-0.0909782 	-1.47288e-19 9.51584 	-0.0919768 	-1.39717e-19 9.45176 	-0.0628366 	-7.17786e-20 9.38818 	-0.0336649 	-3.78244e-21 9.43252 	-0.06153 	-3.30486e-21 9.47635 	-0.0894215 	-2.87425e-21 9.46493 	-0.0904294 	1.61136e-21 9.40018 	-0.0642624 	8.26151e-21 9.3359 	-0.0380669 	1.49401e-20 9.38015 	-0.0633013 	7.96854e-21 9.42392 	-0.0885601 	9.69861e-22 9.41197 	-0.089568 	-2.57112e-21 9.3469 	-0.0660717 	-5.55975e-21 9.28228 	-0.0425498 	-8.53816e-21 9.32619 	-0.065414 	-5.69927e-21 9.36965 	-0.0883005 	-2.871e-21 9.35652 	-0.08898 	-4.24209e-23 9.29223 	-0.068208 	-6.6035e-21 9.22758 	-0.0470916 	-1.33307e-20 9.27092 	-0.0678167 	-6.28995e-21 9.30769 	-0.0863395 	-8.6267e-22 9.29387 	-0.0867493 	-8.76202e-21 9.23651 	-0.0706182 	-2.75918e-20 9.1721 	-0.0516696 	-4.82875e-20 9.2147 	-0.0704637 	-1.32599e-19 9.2439 	-0.084983 	-1.96674e-19 9.23023 	-0.0854409 	-1.94454e-19 9.17997 	-0.0732634 	-1.27562e-19 9.11605 	-0.0562683 	-3.60703e-20 9.15772 	-0.0733198 	-2.2239e-20 9.17941 	-0.084429 	-1.06589e-20 9.16589 	-0.0849268 	-3.08626e-21 9.12281 	-0.0761095 	0 9.05959 	-0.0608736 	0 9.10021 	-0.0763517 	0 9.11448 	-0.0845621 	0 9.10111 	-0.0850924 	0 9.06522 	-0.0791226 	0 9.00287 	-0.0654711 	0 9.04231 	-0.0795278 	0 9.04932 	-0.085281 	4.89833e-21 9.03612 	-0.0858377 	1.28603e-20 9.00735 	-0.0822725 	2.27128e-20 8.94601 	-0.0700482 	3.65339e-20 8.98419 	-0.08282 	1.27549e-19 8.98415 	-0.0864983 	1.48978e-19 8.9711 	-0.0870777 	1.46697e-19 8.94934 	-0.0855355 	1.28052e-19 8.88913 	-0.0745988 	3.69743e-20 8.92597 	-0.0862113 	2.32714e-20 8.91912 	-0.0881476 	2.25927e-20 8.90622 	-0.0887475 	2.37134e-20 8.89131 	-0.0888986 	2.52263e-20 8.83233 	-0.0791237 	3.53773e-20 8.86712 	-0.0895549 	9.31925e-20 8.8544 	-0.090173 	8.59063e-20 8.84165 	-0.0907907 	7.86126e-20 8.82888 	-0.0914079 	7.13117e-20 8.77574 	-0.083618 	1.1468e-20 8.80277 	-0.0918856 	-5.13339e-20 8.79019 	-0.0925178 	-6.88341e-20 8.77758 	-0.0931496 	-8.63269e-20 8.76495 	-0.0937811 	-1.03813e-19 8.71947 	-0.0880708 	-7.45073e-20 8.73903 	-0.0944841 	-1.29095e-19 8.72659 	-0.0951274 	-1.21168e-19 8.71412 	-0.0957705 	-1.13231e-19 8.70163 	-0.0964132 	-1.05283e-19 8.66358 	-0.0924747 	-4.96251e-20 8.67599 	-0.0973035 	-3.61215e-20 8.66368 	-0.0979555 	-2.59423e-20 8.65135 	-0.0986073 	-1.57646e-20 8.63898 	-0.0992589 	-5.58834e-21 8.60811 	-0.0968246 	0 8.61371 	-0.100303 	1.53293e-21 8.60153 	-0.100962 	4.19349e-21 8.58932 	-0.101621 	6.85442e-21 8.57708 	-0.102279 	9.51571e-21 8.55311 	-0.101117 	1.21802e-20 8.55225 	-0.103449 	1.16039e-20 8.54019 	-0.104113 	1.17635e-20 8.5281 	-0.104777 	1.1924e-20 8.51598 	-0.105441 	1.20852e-20 8.49863 	-0.10535 	1.25879e-20 8.49353 	-0.106606 	1.60981e-20 8.48347 	-0.107168 	2.06066e-20 8.4734 	-0.107731 	2.51162e-20 8.4633 	-0.108293 	2.96268e-20 8.45373 	-0.108825 	3.3895e-20 8.45167 	-0.108937 	3.46788e-20 8.44961 	-0.109049 	3.54626e-20 8.44755 	-0.10916 	3.62463e-20 8.44549 	-0.109272 	3.70301e-20 8.44305 	-0.109487 	3.77527e-20 8.43139 	-0.110066 	3.48522e-20 8.41926 	-0.110738 	3.30994e-20 8.4071 	-0.11141 	3.13379e-20 8.39491 	-0.112082 	2.95678e-20 8.3803 	-0.113378 	3.59952e-20 8.37118 	-0.113495 	3.08848e-20 8.35916 	-0.114168 	2.52995e-20 8.3471 	-0.114842 	1.97126e-20 8.33501 	-0.115516 	1.41241e-20 8.31878 	-0.117188 	1.12922e-20 8.31195 	-0.116973 	1.31853e-20 8.30003 	-0.117647 	5.4899e-21 8.28807 	-0.118322 	-2.20169e-21 8.27608 	-0.118998 	-9.88939e-21 8.25849 	-0.120919 	-2.96805e-20 8.25372 	-0.120485 	-4.6398e-20 8.24189 	-0.121161 	-5.06558e-20 8.23003 	-0.121838 	-5.49172e-20 8.21814 	-0.122515 	-5.91823e-20 8.19939 	-0.124577 	-5.07629e-20 8.19651 	-0.124024 	-8.72106e-20 8.18477 	-0.124705 	-8.09814e-20 8.173 	-0.125387 	-7.4763e-20 8.16121 	-0.126069 	-6.85556e-20 8.14148 	-0.128181 	-1.21793e-20 8.14032 	-0.127593 	-3.09019e-21 8.12867 	-0.128298 	-6.61695e-21 8.11699 	-0.129004 	-1.01427e-20 8.1048 	-0.129787 	-1.3698e-20 8.0847 	-0.13184 	-1.77522e-20 8.08371 	-0.131504 	-5.05767e-20 8.07358 	-0.132063 	-6.17983e-20 8.06193 	-0.132767 	-6.95272e-20 8.04837 	-0.133721 	-6.67985e-20 8.02881 	-0.135466 	-3.10312e-20 8.02733 	-0.13533 	4.29681e-20 8.01914 	-0.135726 	7.83381e-20 8.00748 	-0.136397 	9.39126e-20 7.99264 	-0.137412 	7.67419e-20 7.97351 	-0.13889 	1.55619e-20 7.9715 	-0.138873 	6.32773e-21 7.9651 	-0.139176 	1.04253e-21 7.95345 	-0.139861 	4.47057e-22 7.93751 	-0.140958 	2.91779e-22 7.91884 	-0.142313 	4.10882e-22 7.91645 	-0.142525 	2.82368e-22 7.91176 	-0.142864 	-1.67014e-21 7.90016 	-0.143587 	-9.12525e-21 7.88321 	-0.144675 	-1.65016e-20 7.86495 	-0.145851 	-2.38574e-20 7.86228 	-0.146247 	-1.59042e-20 7.85926 	-0.146655 	-7.94911e-21 7.84768 	-0.147388 	0 7.82985 	-0.148366 	0 7.81197 	-0.149345 	0 7.80906 	-0.149882 	0 7.80613 	-0.15042 	0 7.79497 	-0.151122 	-3.28672e-21 7.7775 	-0.151915 	-7.05976e-21 7.75999 	-0.152709 	-1.08317e-20 7.7569 	-0.153359 	-4.08361e-20 7.75379 	-0.154009 	-7.08397e-20 7.74339 	-0.154661 	-7.68743e-20 7.72626 	-0.155292 	-5.92553e-20 7.70909 	-0.155923 	-4.16356e-20 7.70586 	-0.156667 	-1.23817e-19 7.70261 	-0.157412 	-2.05999e-19 7.69299 	-0.158016 	-2.10307e-19 7.67617 	-0.158509 	-1.33005e-19 7.65931 	-0.159003 	-5.5704e-20 7.65598 	-0.159829 	-9.91717e-20 7.65261 	-0.160655 	-1.42641e-19 7.64377 	-0.161219 	-1.35879e-19 7.62723 	-0.161597 	-8.04008e-20 7.61066 	-0.161976 	-2.49229e-20 7.60723 	-0.162875 	-1.66444e-20 7.60358 	-0.163761 	-8.38803e-21 7.59502 	-0.164284 	-6.7937e-22 7.57941 	-0.164589 	0 7.5631 	-0.164873 	0 7.5596 	-0.165837 	0 7.55481 	-0.166688 	0 7.54631 	-0.167204 	0 7.53269 	-0.167511 	0 7.5166 	-0.167718 	0 7.51304 	-0.16874 	0 7.50716 	-0.169523 	0 7.4987 	-0.170037 	0 7.48701 	-0.170391 	0 7.47112 	-0.170535 	0 7.4675 	-0.171608 	0 7.46057 	-0.172295 	0 7.45215 	-0.172811 	0 7.44232 	-0.173246 	0 7.42661 	-0.173339 	0 7.42293 	-0.174457 	0 7.41496 	-0.175026 	0 7.40658 	-0.175546 	0 7.39817 	-0.176065 	0 7.38302 	-0.176145 	0 7.37863 	-0.177211 	0 7.3703 	-0.177735 	0 7.36194 	-0.178259 	0 7.35355 	-0.178783 	0 7.34029 	-0.17896 	0 7.33483 	-0.179905 	0 7.32651 	-0.180435 	0 7.31817 	-0.180965 	0 7.30979 	-0.181495 	0 7.29838 	-0.181792 	-2.71936e-21 7.29186 	-0.182599 	0 7.28355 	-0.183136 	0 7.27522 	-0.183673 	0 7.26685 	-0.18421 	0 7.25724 	-0.184647 	-1.12193e-21 7.25225 	-0.185135 	0 7.24654 	-0.18551 	0 7.24081 	-0.185885 	0 7.23507 	-0.186259 	0 7.22947 	-0.186625 	0 7.22674 	-0.186797 	0 7.22401 	-0.186969 	0 7.22128 	-0.187141 	0 7.21854 	-0.187313 	0 7.21568 	-0.1874 	-3.21398e-22 7.20749 	-0.188033 	1.36742e-22 7.1989 	-0.188587 	2.86354e-22 7.19028 	-0.189142 	4.35936e-22 7.18163 	-0.189696 	5.85487e-22 7.17254 	-0.189907 	6.26933e-22 7.1654 	-0.190792 	1.21802e-20 7.1568 	-0.191356 	1.37103e-20 7.14817 	-0.19192 	1.52459e-20 7.13951 	-0.192484 	1.67872e-20 7.13027 	-0.192464 	2.86629e-21 7.12401 	-0.193586 	-1.77325e-21 7.1154 	-0.194161 	-8.27358e-21 7.10677 	-0.194736 	-1.47726e-20 7.0981 	-0.195312 	-2.12703e-20 7.0888 	-0.195076 	-3.39968e-20 7.08331 	-0.196426 	-4.71764e-20 7.07468 	-0.197014 	-4.80176e-20 7.06602 	-0.197602 	-4.88618e-20 7.05729 	-0.198104 	-4.8346e-20 7.04807 	-0.197754 	-3.42802e-20 7.04257 	-0.199151 	-2.03408e-20 7.03459 	-0.199925 	-1.1747e-20 7.02592 	-0.200528 	-4.62318e-21 7.0171 	-0.200811 	0 7.00805 	-0.200505 	0 7.00232 	-0.201895 	0 6.99512 	-0.202905 	0 6.98642 	-0.203524 	0 6.97759 	-0.203603 	0 6.96869 	-0.20334 	0 6.96274 	-0.204725 	0 6.95622 	-0.205965 	0 6.94749 	-0.206602 	0 6.93871 	-0.206485 	0 6.92992 	-0.206264 	0 6.92379 	-0.207648 	0 6.9176 	-0.209032 	0 6.90911 	-0.209643 	-5.56575e-23 6.90042 	-0.209463 	4.6699e-23 6.89172 	-0.209284 	1.49067e-22 6.88541 	-0.210668 	-2.55405e-20 6.87904 	-0.212051 	-5.12298e-20 6.8713 	-0.212679 	-4.98619e-20 6.86267 	-0.212541 	-2.05549e-20 6.85404 	-0.212402 	8.75376e-21 6.84756 	-0.213788 	5.55151e-21 6.84103 	-0.215173 	2.35076e-21 6.83401 	-0.215818 	1.60269e-21 6.82543 	-0.215719 	7.21225e-21 6.81684 	-0.21562 	1.28219e-20 6.81021 	-0.217008 	6.53947e-21 6.80352 	-0.218397 	2.54689e-22 6.79713 	-0.219038 	-6.63606e-21 6.78864 	-0.218999 	-8.12719e-21 6.78007 	-0.218937 	-9.43729e-21 6.7733 	-0.22033 	-9.6258e-21 6.76658 	-0.221532 	-9.08682e-21 6.76011 	-0.222172 	-6.38839e-21 6.75228 	-0.222378 	-4.19631e-21 6.74372 	-0.222353 	-2.27632e-21 6.73681 	-0.22375 	-5.28775e-21 6.73009 	-0.224751 	-6.80752e-21 6.72354 	-0.22541 	-7.04647e-21 6.71632 	-0.225856 	-6.52399e-21 6.70775 	-0.225865 	-4.43961e-21 6.70071 	-0.227267 	-7.62577e-21 6.69402 	-0.228072 	-8.49622e-21 6.68738 	-0.228751 	-8.88219e-21 6.68071 	-0.22943 	-9.27038e-21 6.67212 	-0.229472 	-1.2565e-20 6.66502 	-0.230796 	-9.67385e-21 6.65832 	-0.231495 	-6.77052e-21 6.65159 	-0.232193 	-3.86797e-21 6.64483 	-0.232891 	-9.66199e-22 6.63681 	-0.233173 	0 6.62976 	-0.2343 	-1.2784e-21 6.62297 	-0.235017 	-4.36867e-21 6.61615 	-0.235735 	-7.45967e-21 6.60929 	-0.236452 	-1.05514e-20 6.60182 	-0.236969 	-1.36482e-20 6.59509 	-0.237873 	-1.30203e-20 6.58849 	-0.23858 	-1.32371e-20 6.58186 	-0.239286 	-1.34553e-20 6.57519 	-0.239993 	-1.36749e-20 6.56878 	-0.240669 	-1.38864e-20 6.56842 	-0.240705 	-1.39374e-20 6.56807 	-0.240741 	-1.39884e-20 6.56772 	-0.240777 	-1.40394e-20 6.56736 	-0.240813 	-1.40904e-20 6.56701 	-0.240839 	-1.38074e-20 6.55986 	-0.241604 	-1.12338e-20 6.55264 	-0.242358 	-9.06514e-21 6.54538 	-0.243112 	-6.88845e-21 6.53808 	-0.243866 	-4.70373e-21 6.53092 	-0.244403 	-9.61975e-21 6.52421 	-0.245398 	-1.04812e-20 6.51687 	-0.246172 	-1.02877e-20 6.5095 	-0.246947 	-1.00928e-20 6.50208 	-0.247721 	-9.89626e-21 6.49499 	-0.248077 	-3.6845e-21 6.48868 	-0.249297 	-7.98745e-21 6.48122 	-0.250093 	-2.6353e-21 6.47373 	-0.250889 	2.7168e-21 6.46619 	-0.251684 	8.06886e-21 6.45918 	-0.251865 	1.08109e-20 6.45306 	-0.253236 	2.9283e-20 6.44567 	-0.254126 	3.47279e-20 6.43805 	-0.254944 	3.82338e-20 6.43058 	-0.255569 	3.18176e-20 6.42348 	-0.255771 	3.69465e-21 6.4172 	-0.257154 	8.00841e-21 6.4102 	-0.258276 	8.66326e-21 6.40245 	-0.259117 	5.39619e-21 6.39507 	-0.259565 	2.07067e-21 6.38787 	-0.259801 	-1.28671e-21 6.38141 	-0.261197 	9.28476e-22 6.37478 	-0.262548 	2.71956e-21 6.36691 	-0.263413 	1.4991e-23 6.35962 	-0.263687 	5.41039e-21 6.35231 	-0.263958 	1.08523e-20 6.34569 	-0.265369 	6.17452e-21 6.339 	-0.266779 	1.49935e-21 6.33162 	-0.267635 	5.28332e-21 6.32422 	-0.267941 	1.84414e-20 6.31679 	-0.268247 	3.1602e-20 6.31 	-0.269673 	3.94861e-20 6.30314 	-0.271099 	4.73739e-20 6.29636 	-0.271989 	4.47945e-20 6.28883 	-0.27233 	3.49033e-20 6.28127 	-0.272671 	2.50111e-20 6.27431 	-0.274114 	3.45043e-20 6.26733 	-0.275522 	4.33578e-20 6.2609 	-0.276402 	4.23884e-20 6.25342 	-0.276857 	3.39616e-20 6.24573 	-0.277233 	2.41301e-20 6.2386 	-0.278694 	3.35468e-20 6.23169 	-0.279916 	3.85949e-20 6.22509 	-0.280822 	3.78434e-20 6.21798 	-0.281525 	3.09736e-20 6.21014 	-0.281935 	1.52239e-20 6.20284 	-0.283415 	1.30079e-20 6.196 	-0.284454 	9.01303e-21 6.18923 	-0.285386 	4.58711e-21 6.18242 	-0.286317 	1.63055e-22 6.17447 	-0.286779 	-7.75898e-21 6.16711 	-0.288178 	-8.90789e-22 6.16021 	-0.289136 	-5.69059e-21 6.15327 	-0.290095 	-1.04921e-20 6.14629 	-0.291052 	-1.52953e-20 6.13869 	-0.291766 	-2.30573e-20 6.13139 	-0.292979 	-1.20612e-20 6.12431 	-0.293965 	-1.43736e-20 6.11719 	-0.294949 	-1.66969e-20 6.11002 	-0.295933 	-1.90311e-20 6.10276 	-0.296898 	-2.22425e-20 6.10215 	-0.296997 	-2.18398e-20 6.10156 	-0.29708 	-2.15078e-20 6.10097 	-0.297162 	-2.11759e-20 6.10038 	-0.297245 	-2.08439e-20 6.0998 	-0.297327 	-2.05134e-20 6.09353 	-0.29826 	-1.60719e-20 6.08723 	-0.299193 	-1.16289e-20 6.08089 	-0.300125 	-7.18448e-21 6.07452 	-0.301057 	-2.73857e-21 6.06791 	-0.30182 	3.40934e-21 6.06177 	-0.303045 	0 6.05473 	-0.304088 	0 6.04765 	-0.305129 	0 6.04052 	-0.30617 	0 6.0329 	-0.306863 	0 6.02753 	-0.308313 	3.55148e-24 6.02028 	-0.309381 	3.38248e-23 6.01299 	-0.310447 	6.40833e-23 6.00557 	-0.311448 	-2.21678e-22 5.99754 	-0.312053 	-2.40983e-21 5.9922 	-0.313568 	-1.68538e-20 5.98549 	-0.314809 	-2.53454e-20 5.97799 	-0.315894 	-3.04649e-20 5.97006 	-0.316727 	-2.22183e-20 5.96177 	-0.317352 	-2.95534e-21 5.95621 	-0.318861 	-3.63017e-20 5.9503 	-0.320311 	-6.46275e-20 5.94259 	-0.321419 	-6.33862e-20 5.93415 	-0.322103 	-2.38546e-20 5.92565 	-0.322768 	1.72054e-20 5.91992 	-0.324297 	4.13357e-20 5.91413 	-0.325825 	6.54703e-20 5.90667 	-0.326939 	6.12094e-20 5.89795 	-0.327646 	2.27704e-20 5.88918 	-0.328352 	-1.56794e-20 5.88328 	-0.329916 	-2.64538e-20 5.87732 	-0.331478 	-3.7236e-20 5.87037 	-0.332648 	-4.77993e-20 5.86133 	-0.333382 	-5.69076e-20 5.85225 	-0.334115 	-6.60233e-20 5.84613 	-0.335712 	-8.95162e-20 5.83972 	-0.337198 	-1.04203e-19 5.83259 	-0.33836 	-9.29823e-20 5.82415 	-0.339279 	-7.01983e-20 5.81476 	-0.340024 	-3.91311e-20 5.80838 	-0.341626 	-2.65308e-20 5.80129 	-0.342933 	-1.67788e-20 5.79387 	-0.344113 	-8.23767e-21 5.78632 	-0.34528 	1.31342e-22 5.77663 	-0.346054 	3.32784e-21 5.76984 	-0.347594 	2.35382e-20 5.76216 	-0.348793 	2.06282e-20 5.75443 	-0.349991 	1.77031e-20 5.74664 	-0.351189 	1.47627e-20 5.7378 	-0.352204 	1.43622e-21 5.73185 	-0.353318 	-3.21978e-21 5.72549 	-0.354281 	-9.22612e-21 5.71909 	-0.355244 	-1.52348e-20 5.71266 	-0.356205 	-2.12457e-20 5.70647 	-0.357125 	-2.70005e-20 5.70485 	-0.357379 	-2.82852e-20 5.70323 	-0.357634 	-2.95696e-20 5.70161 	-0.357888 	-3.0854e-20 5.69999 	-0.358142 	-3.21381e-20 5.69836 	-0.358347 	-3.49177e-20 5.69071 	-0.359628 	-4.27778e-20 5.68285 	-0.360852 	-4.70652e-20 5.67493 	-0.362075 	-5.13747e-20 5.66696 	-0.363297 	-5.57065e-20 5.65886 	-0.364247 	-3.44604e-20 5.65169 	-0.365802 	-2.0772e-20 5.6435 	-0.36704 	-7.37211e-21 5.63526 	-0.368277 	6.0277e-21 5.62695 	-0.369495 	1.90245e-20 5.61839 	-0.370268 	2.12821e-20 5.61135 	-0.37197 	4.32876e-20 5.60322 	-0.373343 	5.15557e-20 5.59463 	-0.374585 	5.44153e-20 5.58585 	-0.375585 	4.02654e-20 5.57688 	-0.37636 	1.0432e-20 5.56951 	-0.378055 	1.0082e-20 5.56192 	-0.379701 	8.96076e-21 5.55297 	-0.380928 	1.54965e-21 5.54364 	-0.381694 	6.03393e-21 5.53427 	-0.382458 	1.05198e-20 5.52658 	-0.38414 	3.06234e-20 5.51882 	-0.38582 	5.07273e-20 5.51009 	-0.387042 	4.63754e-20 5.50034 	-0.387799 	1.71632e-20 5.49053 	-0.388555 	-1.20532e-20 5.48251 	-0.390221 	-7.6946e-20 5.47441 	-0.391869 	-1.39386e-19 5.46579 	-0.393076 	-1.35102e-19 5.45586 	-0.393904 	-8.30672e-20 5.4456 	-0.39465 	-2.06902e-20 5.43723 	-0.39629 	3.45029e-20 5.42849 	-0.397672 	6.08733e-20 5.41945 	-0.398854 	6.47737e-20 5.41012 	-0.399965 	6.29236e-20 5.3994 	-0.400685 	2.85758e-20 5.3906 	-0.402236 	5.75964e-20 5.3812 	-0.403376 	4.70895e-20 5.37174 	-0.404514 	3.65587e-20 5.36222 	-0.405651 	2.60037e-20 5.35191 	-0.406579 	3.14685e-21 5.34589 	-0.407434 	-9.91244e-23 5.33961 	-0.408129 	-7.08276e-23 5.33332 	-0.408824 	-4.2533e-23 5.32699 	-0.409518 	-1.42407e-23 5.32086 	-0.410188 	1.31104e-23 5.3174 	-0.41059 	2.98533e-23 5.31394 	-0.410991 	4.65966e-23 5.31047 	-0.411392 	6.33403e-23 5.307 	-0.411793 	8.00844e-23 5.30351 	-0.412135 	-1.07061e-21 5.29406 	-0.413269 	-2.0906e-20 5.28429 	-0.414312 	-3.48964e-20 5.27445 	-0.415355 	-4.89055e-20 5.26456 	-0.416396 	-6.29335e-20 5.25456 	-0.417215 	-5.04987e-20 5.24545 	-0.418527 	-1.09187e-19 5.23523 	-0.419494 	-1.21166e-19 5.22496 	-0.420461 	-1.33178e-19 5.21458 	-0.421336 	-1.19362e-19 5.20405 	-0.421997 	-4.55678e-20 5.19459 	-0.423231 	-3.29867e-20 5.18471 	-0.424349 	-2.29637e-20 5.17398 	-0.425219 	-1.84453e-20 5.16303 	-0.425818 	-1.42272e-2