# vtk DataFile Version 2.0
track0
ASCII
DATASET POLYDATA
POINTS 10920 double
-0.0205 0.001 1e-05
-0.0202034 0.00100003 1e-05
-0.0199069 0.00100026 1e-05
-0.0196103 0.00100071 1e-05
-0.0193137 0.00100137 1e-05
-0.0190172 0.00100225 1e-05
-0.0187132 0.00100354 1e-05
-0.0184093 0.0010045 1e-05
-0.0181054 0.00100547 1e-05
-0.0178015 0.00100644 1e-05
-0.0174976 0.0010074 1e-05
-0.0172058 0.00100862 1e-05
-0.016914 0.00100939 1e-05
-0.0166222 0.0010101 1e-05
-0.0163305 0.00101075 1e-05
-0.0160387 0.00101135 1e-05
-0.0157586 0.00101219 1e-05
-0.0154784 0.0010126 1e-05
-0.0151983 0.00101296 1e-05
-0.0149182 0.00101328 1e-05
-0.0146381 0.00101355 1e-05
-0.0143692 0.0010141 1e-05
-0.0141002 0.00101424 1e-05
-0.0138313 0.00101435 1e-05
-0.0135624 0.00101442 1e-05
-0.0132934 0.00101445 1e-05
-0.0130353 0.0010148 1e-05
-0.0127771 0.00101474 1e-05
-0.0125189 0.00101466 1e-05
-0.0122607 0.00101454 1e-05
-0.0120025 0.0010144 1e-05
-0.0117547 0.0010146 1e-05
-0.0115068 0.00101439 1e-05
-0.0112589 0.00101416 1e-05
-0.0110111 0.00101391 1e-05
-0.0107632 0.00101363 1e-05
-0.0105252 0.00101375 1e-05
-0.0102873 0.00101342 1e-05
-0.0100493 0.00101308 1e-05
-0.00981133 0.00101271 1e-05
-0.00957337 0.00101232 1e-05
-0.00934491 0.00101239 1e-05
-0.00911645 0.00101197 1e-05
-0.008888 0.00101153 1e-05
-0.00865954 0.00101107 1e-05
-0.00843108 0.00101059 1e-05
-0.00821175 0.00101062 1e-05
-0.00799242 0.00101011 1e-05
-0.00777309 0.00100959 1e-05
-0.00755376 0.00100904 1e-05
-0.00733443 0.00100847 1e-05
-0.00712387 0.00100849 1e-05
-0.0069133 0.0010079 1e-05
-0.00670273 0.00100729 1e-05
-0.00649217 0.00100667 1e-05
-0.0062816 0.00100602 1e-05
-0.00607944 0.00100602 1e-05
-0.00587729 0.00100536 1e-05
-0.00567514 0.00100467 1e-05
-0.00547299 0.00100396 1e-05
-0.00527083 0.00100324 1e-05
-0.00507675 0.00100323 1e-05
-0.00488268 0.00100249 1e-05
-0.0046886 0.00100173 1e-05
-0.00449453 0.00100094 1e-05
-0.00430044 0.00100013 1e-05
-0.00411412 0.00100012 1e-05
-0.0039278 0.000999297 1e-05
-0.00374148 0.000998451 1e-05
-0.00355516 0.000997578 1e-05
-0.00336883 0.000996679 1e-05
-0.00318995 0.000996656 1e-05
-0.00301107 0.000995748 1e-05
-0.0028322 0.000994809 1e-05
-0.00265332 0.00099384 1e-05
-0.00247443 0.00099284 1e-05
-0.0023027 0.000992796 1e-05
-0.00213097 0.000991781 1e-05
-0.00195924 0.000990731 1e-05
-0.00178751 0.000989646 1e-05
-0.00161577 0.000988524 1e-05
-0.0014509 0.000988446 1e-05
-0.00128603 0.000987303 1e-05
-0.00112117 0.000986113 1e-05
-0.000956302 0.000984873 1e-05
-0.000791418 0.000983583 1e-05
-0.000633135 0.00098342 1e-05
-0.000474857 0.00098207 1e-05
-0.000316579 0.000980666 1e-05
-0.000158302 0.000979206 1e-05
0 0.000977688 1e-05
0.000105677 0.000977504 1e-05
0.00021135 0.000976425 1e-05
0.000317021 0.00097531 1e-05
0.000422693 0.000974159 1e-05
0.000528387 0.00097297 1e-05
0.000634886 0.000972777 1e-05
0.000741379 0.000971555 1e-05
0.00084787 0.000970305 1e-05
0.000954362 0.000969027 1e-05
0.00106088 0.00096772 1e-05
0.00116821 0.000967552 1e-05
0.00127553 0.000966244 1e-05
0.00138285 0.00096491 1e-05
0.00149017 0.000963552 1e-05
0.00159752 0.000962258 1e-05
0.00170568 0.000962114 1e-05
0.00181383 0.000960902 1e-05
0.00192199 0.000959527 1e-05
0.00203014 0.00095813 1e-05
0.00213833 0.000956949 1e-05
0.00224733 0.000956832 1e-05
0.00235633 0.000955742 1e-05
0.00246532 0.000954362 1e-05
0.00257431 0.000952959 1e-05
0.00268334 0.000951891 1e-05
0.00279319 0.000951793 1e-05
0.00290303 0.000950813 1e-05
0.00301287 0.000949441 1e-05
0.00312272 0.000948046 1e-05
0.00323259 0.000947074 1e-05
0.00334329 0.000946983 1e-05
0.00345399 0.000946091 1e-05
0.00356469 0.000944734 1e-05
0.00367538 0.000943352 1e-05
0.00378611 0.00094246 1e-05
0.00389767 0.000942363 1e-05
0.00400923 0.000941541 1e-05
0.00412079 0.0009402 1e-05
0.00423235 0.000938834 1e-05
0.00434393 0.000938003 1e-05
0.00445636 0.000937891 1e-05
0.00456879 0.000937121 1e-05
0.00468122 0.000935792 1e-05
0.00479364 0.000934439 1e-05
0.00490609 0.000933654 1e-05
0.0050194 0.000933516 1e-05
0.0051327 0.00093278 1e-05
0.005246 0.000931459 1e-05
0.0053593 0.000930122 1e-05
0.00547262 0.000929365 1e-05
0.00558681 0.000929193 1e-05
0.00570099 0.000928476 1e-05
0.00581517 0.000927217 1e-05
0.00592935 0.000925949 1e-05
0.00604356 0.000925206 1e-05
0.00615863 0.000924993 1e-05
0.0062737 0.000924282 1e-05
0.00638877 0.000923078 1e-05
0.00650384 0.000921862 1e-05
0.00661893 0.000921122 1e-05
0.0067349 0.000920862 1e-05
0.00685087 0.000920148 1e-05
0.00696683 0.000918982 1e-05
0.0070828 0.000917805 1e-05
0.00719878 0.000917058 1e-05
0.00731565 0.000916747 1e-05
0.00743252 0.00091602 1e-05
0.00754939 0.000914881 1e-05
0.00766625 0.000913728 1e-05
0.00778313 0.000912967 1e-05
0.00790091 0.000912601 1e-05
0.00801869 0.000911853 1e-05
0.00813647 0.000910729 1e-05
0.00825424 0.00090959 1e-05
0.00837203 0.000908807 1e-05
0.00849073 0.000908382 1e-05
0.00860942 0.000907607 1e-05
0.00872811 0.000906487 1e-05
0.0088468 0.000905353 1e-05
0.00896551 0.000904542 1e-05
0.00908513 0.000904054 1e-05
0.00920475 0.000903247 1e-05
0.00932436 0.000902123 1e-05
0.00944397 0.000900985 1e-05
0.0095636 0.000900139 1e-05
0.00968415 0.000899586 1e-05
0.0098047 0.000898741 1e-05
0.00992524 0.000897605 1e-05
0.0100458 0.000896458 1e-05
0.0101663 0.000895573 1e-05
0.0102878 0.000894953 1e-05
0.0104093 0.000894065 1e-05
0.0105308 0.000892938 1e-05
0.0106523 0.000891804 1e-05
0.0107738 0.000890875 1e-05
0.0108962 0.000890185 1e-05
0.0110186 0.000889249 1e-05
0.0111411 0.000888124 1e-05
0.0112635 0.00088699 1e-05
0.0113859 0.000886013 1e-05
0.0115093 0.000885252 1e-05
0.0116327 0.000884264 1e-05
0.0117561 0.000883129 1e-05
0.0118794 0.000881986 1e-05
0.0120028 0.000880957 1e-05
0.0121272 0.000880121 1e-05
0.0122515 0.000879078 1e-05
0.0123759 0.000877924 1e-05
0.0125002 0.000876762 1e-05
0.0126245 0.000875676 1e-05
0.0127498 0.000874765 1e-05
0.0128752 0.000873663 1e-05
0.0130005 0.000872482 1e-05
0.0131258 0.000871292 1e-05
0.0132511 0.000870147 1e-05
0.0133774 0.000869158 1e-05
0.0135036 0.000867994 1e-05
0.0136299 0.000866778 1e-05
0.0137562 0.000865553 1e-05
0.0138825 0.000864346 1e-05
0.0140098 0.000863278 1e-05
0.014137 0.000862049 1e-05
0.0142643 0.000860791 1e-05
0.0143915 0.000859523 1e-05
0.0145188 0.00085825 1e-05
0.0146471 0.000857101 1e-05
0.0147753 0.000855806 1e-05
0.0149036 0.0008545 1e-05
0.0150318 0.000853183 1e-05
0.0151601 0.000851855 1e-05
0.0152893 0.000850623 1e-05
0.0154186 0.000849274 1e-05
0.0155478 0.000847914 1e-05
0.0156771 0.000846542 1e-05
0.0158063 0.000845159 1e-05
0.0159366 0.000843844 1e-05
0.0160668 0.000842435 1e-05
0.0161971 0.000841016 1e-05
0.0163273 0.000839584 1e-05
0.0164576 0.000838141 1e-05
0.0165889 0.00083674 1e-05
0.0167201 0.000835267 1e-05
0.0168514 0.000833783 1e-05
0.0169827 0.000832287 1e-05
0.0171139 0.000830779 1e-05
0.0172462 0.000829291 1e-05
0.0173785 0.00082775 1e-05
0.0175108 0.000826198 1e-05
0.0176431 0.000824633 1e-05
0.0177754 0.000823055 1e-05
0.0179087 0.000821479 1e-05
0.018042 0.000819866 1e-05
0.0181753 0.000818241 1e-05
0.0183087 0.000816603 1e-05
0.018442 0.000814952 1e-05
0.0185551 0.00081355 1e-05
0.0186682 0.00081213 1e-05
0.0187814 0.000810701 1e-05
0.0188945 0.000809263 1e-05
0.0190015 0.000807893 1e-05
0.019024 0.000807604 1e-05
0.0190464 0.000807315 1e-05
0.0190689 0.000807025 1e-05
0.0190913 0.000806735 1e-05
0.0191137 0.000806445 1e-05
0.0192491 0.000804689 1e-05
0.0193845 0.000802922 1e-05
0.0195199 0.000801141 1e-05
0.0196553 0.000799346 1e-05
0.0197907 0.000797539 1e-05
0.0199272 0.000795693 1e-05
0.0200636 0.000793843 1e-05
0.0202001 0.000791979 1e-05
0.0203365 0.000790102 1e-05
0.020473 0.000788211 1e-05
0.0206105 0.000786273 1e-05
0.020748 0.000784338 1e-05
0.0208855 0.000782389 1e-05
0.021023 0.000780426 1e-05
0.0211606 0.000778449 1e-05
0.0212991 0.00077642 1e-05
0.0214377 0.000774397 1e-05
0.0215763 0.000772359 1e-05
0.0217149 0.000770308 1e-05
0.0218535 0.000768242 1e-05
0.0219931 0.00076612 1e-05
0.0221328 0.000764007 1e-05
0.0222724 0.000761879 1e-05
0.0224121 0.000759736 1e-05
0.0225517 0.000757579 1e-05
0.0226925 0.000755363 1e-05
0.0228332 0.000753157 1e-05
0.022974 0.000750936 1e-05
0.0231147 0.000748699 1e-05
0.0232555 0.000746445 1e-05
0.0233973 0.000744132 1e-05
0.0235391 0.000741825 1e-05
0.023681 0.000739504 1e-05
0.0238228 0.000737169 1e-05
0.0239647 0.000734812 1e-05
0.0241076 0.0007324 1e-05
0.0242505 0.00072999 1e-05
0.0243935 0.000727571 1e-05
0.0245364 0.000725136 1e-05
0.0246794 0.000722679 1e-05
0.0248234 0.00072017 1e-05
0.0249675 0.00071766 1e-05
0.0251115 0.000715143 1e-05
0.0252556 0.00071261 1e-05
0.0253996 0.000710052 1e-05
0.0255448 0.000707443 1e-05
0.02569 0.000704829 1e-05
0.0258351 0.000702208 1e-05
0.0259803 0.000699569 1e-05
0.0261255 0.000696905 1e-05
0.0262718 0.000694192 1e-05
0.0264181 0.00069147 1e-05
0.0265644 0.00068874 1e-05
0.0267107 0.000685993 1e-05
0.026857 0.00068322 1e-05
0.0270044 0.000680402 1e-05
0.0271519 0.000677572 1e-05
0.0272993 0.000674731 1e-05
0.0274468 0.000671873 1e-05
0.0275942 0.000668993 1e-05
0.0277428 0.000666069 1e-05
0.0278914 0.000663131 1e-05
0.0280399 0.00066018 1e-05
0.0281885 0.000657212 1e-05
0.0283371 0.000654226 1e-05
0.0284869 0.000651197 1e-05
0.0286366 0.000648153 1e-05
0.0287863 0.000645092 1e-05
0.0289361 0.000642017 1e-05
0.0290858 0.000638925 1e-05
0.0292367 0.000635792 1e-05
0.0293876 0.000632642 1e-05
0.0295385 0.000629474 1e-05
0.0296894 0.000626291 1e-05
0.0298403 0.000623094 1e-05
0.0299924 0.000619857 1e-05
0.0301445 0.000616601 1e-05
0.0302966 0.000613326 1e-05
0.0304486 0.000610036 1e-05
0.0306007 0.000606734 1e-05
0.030754 0.000603393 1e-05
0.0309072 0.000600031 1e-05
0.0310605 0.000596649 1e-05
0.0312138 0.000593253 1e-05
0.031367 0.000589845 1e-05
0.0315215 0.000586399 1e-05
0.0316759 0.00058293 1e-05
0.0318304 0.000579442 1e-05
0.0319848 0.00057594 1e-05
0.0321393 0.000572425 1e-05
0.0322949 0.000568872 1e-05
0.0324506 0.000565295 1e-05
0.0326062 0.0005617 1e-05
0.0327619 0.000558091 1e-05
0.0329175 0.000554467 1e-05
[...]
POINT_DATA 10920
 FIELD attributes 2
p 1 10920 float
-4.49952 -4.54963 -4.60968 -4.6703 -4.73148 -4.85679 -4.93005 -5.01003 -5.09 -5.16998 -5.25515 -5.25937 -5.27991 -5.3004 -5.32084 -5.353 -5.34238 -5.35152 -5.36059 -5.36959 -5.3949 -5.39096 -5.40422 -5.41743 -5.43057 -5.45984 -5.45532 -5.46712 -5.47888 -5.4906 -5.51908 -5.51188 -5.52166 -5.53141 -5.54112 -5.56943 -5.56062 -5.57015 -5.57965 -5.58911 -5.61952 -5.60883 -5.61845 -5.62804 -5.63758 -5.67087 -5.65744 -5.66694 -5.67642 -5.68585 -5.72237 -5.70569 -5.71518 -5.72464 -5.73407 -5.7745 -5.75434 -5.76419 -5.77401 -5.78378 -5.8291 -5.80524 -5.81566 -5.82605 -5.83639 -5.88728 -5.85917 -5.87027 -5.88132 -5.89233 -5.94961 -5.91681 -5.92858 -5.9403 -5.95197 -6.01625 -5.97775 -5.99005 -6.00229 -6.01446 -6.08683 -6.04148 -6.0536 -6.06564 -6.07758 -6.15881 -6.09716 -6.10075 -6.10424 -6.10763 -6.1887 -6.0774 -6.0697 -6.06192 -6.05406 -6.16765 -6.04291 -6.03724 -6.03152 -6.02573 -6.15529 -6.0457 -6.04463 -6.04352 -6.05155 -6.16794 -6.08265 -6.07102 -6.07063 -6.09088 -6.18346 -6.11748 -6.0993 -6.10001 -6.12891 -6.20745 -6.1586 -6.13937 -6.14256 -6.17788 -6.24557 -6.20809 -6.18865 -6.19353 -6.23274 -6.29206 -6.26204 -6.24239 -6.2486 -6.29102 -6.34483 -6.32024 -6.30047 -6.308 -6.35341 -6.40353 -6.38279 -6.36256 -6.37172 -6.41918 -6.46655 -6.44848 -6.43049 -6.44162 -6.48686 -6.53199 -6.51577 -6.49968 -6.51188 -6.55531 -6.59861 -6.58379 -6.56912 -6.58205 -6.62392 -6.66564 -6.65195 -6.63842 -6.65184 -6.69228 -6.73255 -6.71981 -6.70722 -6.72094 -6.76007 -6.79904 -6.78713 -6.77538 -6.78924 -6.82714 -6.86488 -6.8538 -6.84289 -6.85677 -6.89339 -6.92985 -6.91962 -6.90954 -6.92363 -6.9586 -6.99374 -6.98434 -6.97761 -6.99155 -7.02257 -7.05637 -7.0478 -7.04447 -7.05794 -7.08525 -7.11772 -7.11001 -7.10982 -7.12286 -7.14667 -7.17783 -7.171 -7.17366 -7.18629 -7.20684 -7.23668 -7.23068 -7.23591 -7.24815 -7.26567 -7.29423 -7.28904 -7.29659 -7.30847 -7.3232 -7.35051 -7.34614 -7.35574 -7.36729 -7.37947 -7.40556 -7.40219 -7.4134 -7.42463 -7.43586 -7.45937 -7.45865 -7.46956 -7.48049 -7.49143 -7.51198 -7.51363 -7.52427 -7.53492 -7.54558 -7.56342 -7.56717 -7.57755 -7.58794 -7.59834 -7.61373 -7.61932 -7.62946 -7.6396 -7.64976 -7.66295 -7.67014 -7.68005 -7.68997 -7.69991 -7.71113 -7.71816 -7.72633 -7.73451 -7.7427 -7.75045 -7.75209 -7.75374 -7.75538 -7.75703 -7.75863 -7.76825 -7.77786 -7.78749 -7.79713 -7.80633 -7.81596 -7.82539 -7.83483 -7.84428 -7.85273 -7.86254 -7.8718 -7.88108 -7.89036 -7.89796 -7.9081 -7.91723 -7.92638 -7.93553 -7.9422 -7.95282 -7.96182 -7.97084 -7.97986 -7.98551 -7.99673 -8.00559 -8.01446 -8.0231 -8.02785 -8.03927 -8.0483 -8.05695 -8.06457 -8.06887 -8.08036 -8.08972 -8.09799 -8.10421 -8.10769 -8.11871 -8.12829 -8.13618 -8.14096 -8.14382 -8.15447 -8.16433 -8.17178 -8.17483 -8.17686 -8.18706 -8.19716 -8.20395 -8.20519 -8.20644 -8.21619 -8.22595 -8.23173 -8.23249 -8.23326 -8.24272 -8.25219 -8.25732 -8.2578 -8.25829 -8.26757 -8.27687 -8.28152 -8.28181 -8.2821 -8.29125 -8.3004 -8.30467 -8.30483 -8.30499 -8.31402 -8.32286 -8.32667 -8.32707 -8.32716 -8.33607 -8.3437 -8.34746 -8.34869 -8.34871 -8.35753 -8.36395 -8.36767 -8.36976 -8.36973 -8.37845 -8.38367 -8.38734 -8.3903 -8.39022 -8.39883 -8.40286 -8.40648 -8.41011 -8.4102 -8.41798 -8.42153 -8.42509 -8.42866 -8.42964 -8.43619 -8.43967 -8.44316 -8.44666 -8.44854 -8.45385 -8.45726 -8.46067 -8.46409 -8.46686 -8.46992 -8.47221 -8.4745 -8.47679 -8.47903 -8.4801 -8.48118 -8.48226 -8.48334 -8.48389 -8.48767 -8.49099 -8.49431 -8.49763 -8.4988 -8.50398 -8.5072 -8.51042 -8.51366 -8.51315 -8.51966 -8.52278 -8.52591 -8.52904 -8.5269 -8.53471 -8.53771 -8.54073 -8.54318 -8.54001 -8.54797 -8.55195 -8.55484 -8.55561 -8.55244 -8.56015 -8.56543 -8.56819 -8.5673 -8.56411 -8.57158 -8.57812 -8.58073 -8.5782 -8.57496 -8.58218 -8.58941 -8.59152 -8.58821 -8.58491 -8.59187 -8.59884 -8.60069 -8.59728 -8.59388 -8.60056 -8.60725 -8.60882 -8.6053 -8.60178 -8.60817 -8.61457 -8.61569 -8.61218 -8.60853 -8.61461 -8.61934 -8.62006 -8.61784 -8.61403 -8.61978 -8.6227 -8.62317 -8.62218 -8.61819 -8.62361 -8.62471 -8.6249 -8.62511 -8.62092 -8.62537 -8.62527 -8.62518 -8.62509 -8.62212 -8.6247 -8.62429 -8.62388 -8.62349 -8.6217 -8.62243 -8.62172 -8.62102 -8.62032 -8.61966 -8.61963 -8.61959 -8.61956 -8.61953 -8.61943 -8.61848 -8.61746 -8.61645 -8.61546 -8.61293 -8.61303 -8.61165 -8.61027 -8.60891 -8.60457 -8.60568 -8.60391 -8.60214 -8.60038 -8.59423 -8.59582 -8.59412 -8.59194 -8.58837 -8.58177 -8.58285 -8.58214 -8.57952 -8.57404 -8.56704 -8.56759 -8.56784 -8.56473 -8.55733 -8.5499 -8.54989 -8.54989 -8.54597 -8.53807 -8.53018 -8.52958 -8.52899 -8.52451 -8.51612 -8.50773 -8.50651 -8.50504 -8.49965 -8.49129 -8.48237 -8.48049 -8.47684 -8.47083 -8.46341 -8.45392 -8.45135 -8.44549 -8.43883 -8.43217 -8.42221 -8.41816 -8.4108 -8.40345 -8.39611 -8.38705 -8.38069 -8.37261 -8.36453 -8.35647 -8.34828 -8.34769 -8.34697 -8.34625 -8.34553 -8.34481 -8.33667 -8.32854 -8.32042 -8.3123 -8.30281 -8.29454 -8.28489 -8.27526 -8.26563 -8.25314 -8.24553 -8.23507 -8.22462 -8.21364 -8.19941 -8.19128 -8.18114 -8.16986 -8.15655 -8.14156 -8.13255 -8.12311 -8.111 -8.09531 -8.07948 -8.06951 -8.05956 -8.04624 -8.02955 -8.01286 -8.0019 -7.99096 -7.97667 -7.95899 -7.94132 -7.92927 -7.91633 -7.90071 -7.88334 -7.86472 -7.85161 -7.83603 -7.8194 -7.80269 -7.78314 -7.76842 -7.75071 -7.73301 -7.71533 -7.69629 -7.6826 -7.66761 -7.65262 -7.63764 -7.6233 -7.61937 -7.61545 -7.61152 -7.60759 -7.60333 -7.58382 -7.56397 -7.54412 -7.52429 -7.50251 -7.48357 -7.46261 -7.44166 -7.42059 -7.39616 -7.37692 -7.35562 -7.33351 -7.30961 -7.28404 -7.26353 -7.24274 -7.21941 -7.19276 -7.16611 -7.14438 -7.12265 -7.09793 -7.07018 -7.04243 -7.01947 -6.99641 -6.97018 -6.94176 -6.91286 -6.88864 -6.86259 -6.83513 -6.80729 -6.77722 -6.7514 -6.7227 -6.69401 -6.66533 -6.6355 -6.61748 -6.59834 -6.57921 -6.56009 -6.5416 -6.53074 -6.51987 -6.50901 -6.49815 -6.48659 -6.45627 -6.42526 -6.39425 -6.36325 -6.32964 -6.30005 -6.26785 -6.23565 -6.20242 -6.16674 -6.13601 -6.10445 -6.07109 -6.03474 -5.99795 -5.966 -5.93406 -5.89919 -5.86135 -5.8235 -5.7904 -5.75718 -5.7208 -5.68247 -5.64362 -5.60941 -5.57316 -5.53573 -5.4983 -5.45851 -5.42249 -5.3841 -5.3457 -5.30731 -5.2685 -5.25994 -5.25095 -5.24196 -5.23296 -5.22404 -5.1938 -5.16356 -5.13333 -5.1031 -5.07162 -5.03277 -4.9928 -4.95283 -4.91268 -4.87011 -4.83119 -4.79129 -4.75068 -4.70834 -4.66522 -4.62564 -4.58607 -4.54459 -4.50107 -4.45755 -4.41746 -4.37738 -4.33518 -4.29154 -4.24777 -4.20733 -4.16569 -4.12313 -4.08048 -4.03663 -3.99562 -3.95302 -3.91042 -3.86782 -3.82496 -3.81407 -3.80286 -3.79165 -3.78045 -3.76922 -3.73792 -3.70662 -3.67532 -3.64402 -3.61165 -3.57025 -3.52805 -3.48585 -3.44351 -3.39908 -3.35863 -3.31745 -3.27579 -3.23276 -3.18905 -3.14922 -3.10939 -3.0682 -3.02543 -2.98267 -2.94371 -2.90476 -2.86431 -2.82271 -2.78113 -2.74331 -2.70481 -2.66544 -2.62584 -2.58568 -2.54924 -2.5114 -2.47357 -2.43574 -2.39752 -2.36992 -2.34178 -2.31364 -2.2855 -2.25558 -2.24796 -2.24034 -2.23271 -2.22509 -2.21747 -2.18307 -2.14874 -2.1144 -2.08007 -2.04587 -2.01335 -1.9812 -1.94906 -1.91695 -1.88515 -1.85487 -1.82491 -1.79514 -1.76562 -1.7363 -1.70855 -1.68084 -1.6536 -1.62685 -1.60012 -1.57505 -1.54998 -1.52539 -1.50128 -1.47719 -1.45484 -1.4325 -1.41065 -1.38921 -1.36777 -1.34814 -1.32865 -1.30958 -1.29066 -1.27183 -1.25484 -1.23818 -1.22173 -1.20529 -1.18889 -1.17437 -1.16028 -1.14621 -1.13215 -1.11793 -1.10569 -1.09365 -1.08162 -1.06959 -1.05733 -1.04682 -1.03631 -1.02581 -1.0153 -1.00475 -1.00363 -1.00249 -1.00135 -1.00021 -0.999089 -0.990561 -0.982032 -0.973502 -0.96497 -0.956228 -0.947415 -0.937872 -0.928327 -0.918781 -0.908499 -0.900209 -0.889847 -0.879487 -0.869057 -0.856995 -0.848065 -0.836639 -0.824378 -0.810954 -0.796214 -0.784855 -0.772764 -0.757342 -0.73856 -0.719609 -0.704346 -0.689093 -0.669006 -0.644053 -0.61907 -0.598038 -0.57619 -0.548819 -0.517857 -0.484721 -0.455705 -0.419936 -0.382915 -0.345896 -0.305367 -0.289143 -0.269563 -0.249985 -0.230408 -0.21352 -0.185209 -0.156939 -0.128709 -0.100519 -0.0666376 -0.0137487 0.0459223 0.105438 0.17177 0.243921 0.31171 0.379405 0.457807 0.546818 0.636622 0.706868 0.785655 0.867937 0.950195 1.01209 1.03247 1.05283 1.07318 1.09488 1.1187 1.22524 1.33535 1.4452 1.56566 1.69142 1.81217 1.93673 2.0688 2.20078 2.32739 2.32887 2.33036 2.33184 2.33342 2.33503 2.47289 2.61067 2.74824 2.89198 3.04049 3.1506 3.26117 3.3748 3.48834 3.58591 3.62439 3.66285 3.7013 3.74086 3.78081 3.9319 4.08278 4.23281 4.38209 4.53543 4.57002 4.6046 4.63764 4.67054 4.70249 4.81818 4.93384 5.04841 5.15555 5.26362 5.34545 5.4273 5.49989 5.57126 5.64853 5.70389 5.75927 5.81445 5.8625 5.90982 6.02756 6.14564 6.24577 6.33821 6.42339 6.45613 6.48433 6.50747 6.53076 6.56483 6.61027 6.65551 6.70055 6.74273 6.77136 6.82505 6.86357 6.90009 6.92644 6.93785 6.95371 6.95696 6.95089 6.94014 6.91452 6.8894 6.84552 6.80152 6.7574 6.71096 6.70443 6.69691 6.6894 6.68188 6.67424 6.61787 6.56147 6.50505 6.44859 6.38625 6.30782 6.23992 6.17491 6.11791 6.06678 6.00537 5.94731 5.92261 5.92848 5.9371 5.93416 5.95464 6.00894 6.06582 6.15416 6.1777 6.21017 6.24979 6.28955 6.31622 6.39013 6.46328 6.53562 6.63299 6.74673 6.87931 7.01187 7.16975 7.32773 7.41719 7.44758 7.47792 7.50998 7.54648 7.58356 7.75488 7.92584 8.1016 8.2797 8.41621 8.43662 8.45703 8.47746 8.49791 8.51848 8.68532 8.85194 9.01204 9.16539 9.30572 9.33192 9.35811 9.38416 9.41011 9.43613 9.57622 9.71631 9.85421 9.9891 10.1266 10.1624 10.1982 10.2313 10.2622 10.293 10.4213 10.5497 10.6686 10.7755 10.8915 10.9259 10.9603 10.9949 11.0298 11.0645 11.1772 11.2898 11.4041 11.5198 11.6568 11.6801 11.7033 11.7247 11.7421 11.7594 11.9011 12.043 12.1585 12.2588 12.3518 12.362 12.3723 12.3798 12.3871 12.3946 12.4831 12.5716 12.661 12.7731 12.8806 12.9324 12.9858 13.0522 13.1184 13.2088 13.2366 13.2645 13.2922 13.3101 13.3231 13.4301 13.5249 13.6123 13.6572 13.7007 13.8036 13.8812 13.9304 13.9802 14.0123 14.0401 14.0569 14.0738 14.0907 14.1116 14.1419 14.1724 14.2029 14.2336 14.2948 14.3181 14.3507 14.3826 14.4277 14.4812 14.4423 14.4013 14.405 14.4554 14.5065 14.4674 14.4528 14.4632 14.4757 14.5241 14.4958 14.4993 14.5027 14.506 14.5115 14.5117 14.512 14.5122 14.5124 14.511 14.5077 14.5029 14.498 14.493 14.4455 14.4654 14.4552 14.4423 14.4023 14.3368 14.3492 14.3631 14.3351 14.2636 14.1905 14.1946 14.2002 14.1631 14.0835 14.0026 13.9978 13.9803 13.9288 13.8598 13.771 13.7576 13.7118 13.653 13.593 13.4964 13.4715 13.4049 13.3384 13.272 13.1769 13.132 13.0569 12.9819 12.9069 12.8105 12.7489 12.6643 12.5798 12.4953 12.3935 12.3169 12.222 12.1272 12.0324 11.9228 11.8321 11.7254 11.6187 11.512 11.3914 11.2865 11.1673 11.048 10.9288 10.7964 10.6769 10.5421 10.4073 10.2726 10.1232 9.98754 9.83808 9.68864 9.53922 9.37638 9.22377 9.05185 8.87997 8.70812 8.51745 8.34278 8.15665 7.97053 7.78441 7.587 7.39381 7.16735 6.941 6.71477 6.45677 6.22351 5.99682 5.77013 5.54343 5.32266 5.0811 4.75044 4.42044 4.09101 3.68197 3.3305 3.08258 2.83553 2.58921 2.43667 2.19486 1.68316 1.17 0.655606 0