# vtk DataFile Version 2.0
track0
ASCII
DATASET POLYDATA
POINTS 10910 double
-0.0205 0.001 1e-05
-0.0202034 0.00100003 1e-05
-0.0199069 0.00100026 1e-05
-0.0196103 0.00100071 1e-05
-0.0193137 0.00100137 1e-05
-0.0190172 0.00100225 1e-05
-0.0187132 0.00100354 1e-05
-0.0184093 0.0010045 1e-05
-0.0181054 0.00100547 1e-05
-0.0178015 0.00100644 1e-05
-0.0174976 0.0010074 1e-05
-0.0172058 0.00100862 1e-05
-0.016914 0.00100939 1e-05
-0.0166222 0.0010101 1e-05
-0.0163305 0.00101076 1e-05
-0.0160387 0.00101135 1e-05
-0.0157586 0.00101219 1e-05
-0.0154784 0.0010126 1e-05
-0.0151983 0.00101297 1e-05
-0.0149182 0.00101329 1e-05
-0.0146381 0.00101356 1e-05
-0.0143692 0.00101411 1e-05
-0.0141002 0.00101425 1e-05
-0.0138313 0.00101436 1e-05
-0.0135624 0.00101443 1e-05
-0.0132934 0.00101447 1e-05
-0.0130353 0.00101482 1e-05
-0.0127771 0.00101476 1e-05
-0.0125189 0.00101467 1e-05
-0.0122607 0.00101456 1e-05
-0.0120025 0.00101442 1e-05
-0.0117547 0.00101463 1e-05
-0.0115068 0.00101442 1e-05
-0.0112589 0.00101419 1e-05
-0.0110111 0.00101393 1e-05
-0.0107632 0.00101366 1e-05
-0.0105252 0.00101378 1e-05
-0.0102873 0.00101346 1e-05
-0.0100493 0.00101311 1e-05
-0.00981133 0.00101275 1e-05
-0.00957337 0.00101236 1e-05
-0.00934491 0.00101243 1e-05
-0.00911645 0.00101202 1e-05
-0.008888 0.00101158 1e-05
-0.00865954 0.00101112 1e-05
-0.00843108 0.00101064 1e-05
-0.00821175 0.00101068 1e-05
-0.00799242 0.00101018 1e-05
-0.00777309 0.00100966 1e-05
-0.00755376 0.00100911 1e-05
-0.00733443 0.00100855 1e-05
-0.00712387 0.00100857 1e-05
-0.0069133 0.00100798 1e-05
-0.00670273 0.00100738 1e-05
-0.00649217 0.00100676 1e-05
-0.0062816 0.00100612 1e-05
-0.00607944 0.00100612 1e-05
-0.00587729 0.00100546 1e-05
-0.00567514 0.00100478 1e-05
-0.00547299 0.00100408 1e-05
-0.00527083 0.00100336 1e-05
-0.00507675 0.00100336 1e-05
-0.00488268 0.00100263 1e-05
-0.0046886 0.00100187 1e-05
-0.00449452 0.00100109 1e-05
-0.00430044 0.00100029 1e-05
-0.00411412 0.00100028 1e-05
-0.0039278 0.000999465 1e-05
-0.00374148 0.000998628 1e-05
-0.00355516 0.000997764 1e-05
-0.00336883 0.000996874 1e-05
-0.00318995 0.000996855 1e-05
-0.00301107 0.000995956 1e-05
-0.0028322 0.000995027 1e-05
-0.00265332 0.000994068 1e-05
-0.00247443 0.000993078 1e-05
-0.0023027 0.000993038 1e-05
-0.00213097 0.000992034 1e-05
-0.00195924 0.000990996 1e-05
-0.00178751 0.000989922 1e-05
-0.00161577 0.000988812 1e-05
-0.0014509 0.000988738 1e-05
-0.00128603 0.000987607 1e-05
-0.00112117 0.000986429 1e-05
-0.000956302 0.000985203 1e-05
-0.000791418 0.000983926 1e-05
-0.000633135 0.000983767 1e-05
-0.000474857 0.000982432 1e-05
-0.000316579 0.000981042 1e-05
-0.000158302 0.000979596 1e-05
0 0.000978093 1e-05
0.000105677 0.000977912 1e-05
0.00021135 0.000976843 1e-05
0.000317022 0.000975739 1e-05
0.000422693 0.000974598 1e-05
0.000528387 0.000973421 1e-05
0.000634886 0.000973233 1e-05
0.000741379 0.000972024 1e-05
0.000847871 0.000970788 1e-05
0.000954363 0.000969525 1e-05
0.00106088 0.000968234 1e-05
0.00116821 0.000968074 1e-05
0.00127553 0.000966783 1e-05
0.00138285 0.000965469 1e-05
0.00149017 0.00096413 1e-05
0.00159752 0.000962849 1e-05
0.00170568 0.000962719 1e-05
0.00181383 0.000961521 1e-05
0.00192199 0.000960171 1e-05
0.00203014 0.000958798 1e-05
0.00213833 0.000957636 1e-05
0.00224733 0.000957538 1e-05
0.00235633 0.000956468 1e-05
0.00246532 0.000955118 1e-05
0.00257431 0.000953746 1e-05
0.00268334 0.000952701 1e-05
0.00279319 0.000952629 1e-05
0.00290303 0.000951673 1e-05
0.00301288 0.000950337 1e-05
0.00312272 0.000948978 1e-05
0.00323259 0.000948035 1e-05
0.00334329 0.000947975 1e-05
0.00345399 0.000947113 1e-05
0.00356469 0.000945796 1e-05
0.00367538 0.000944457 1e-05
0.00378611 0.000943598 1e-05
0.00389767 0.000943537 1e-05
0.00400923 0.00094275 1e-05
0.00412079 0.000941454 1e-05
0.00423235 0.000940134 1e-05
0.00434393 0.000939342 1e-05
0.00445636 0.00093927 1e-05
0.00456879 0.00093854 1e-05
0.00468122 0.000937261 1e-05
0.00479364 0.000935959 1e-05
0.00490609 0.000935216 1e-05
0.0050194 0.000935125 1e-05
0.0051327 0.000934433 1e-05
0.005246 0.000933166 1e-05
0.0053593 0.000931876 1e-05
0.00547262 0.000931165 1e-05
0.00558681 0.000931045 1e-05
0.00570099 0.000930376 1e-05
0.00581517 0.000929163 1e-05
0.00592935 0.000927941 1e-05
0.00604356 0.000927249 1e-05
0.00615863 0.000927092 1e-05
0.0062737 0.000926434 1e-05
0.00638877 0.000925279 1e-05
0.00650384 0.000924113 1e-05
0.00661893 0.000923428 1e-05
0.0067349 0.000923229 1e-05
0.00685087 0.000922572 1e-05
0.00696683 0.000921459 1e-05
0.0070828 0.000920336 1e-05
0.00719878 0.000919649 1e-05
0.00731565 0.000919403 1e-05
0.00743252 0.000918738 1e-05
0.00754939 0.000917655 1e-05
0.00766625 0.000916561 1e-05
0.00778313 0.000915864 1e-05
0.00790091 0.000915567 1e-05
0.00801869 0.000914886 1e-05
0.00813647 0.000913823 1e-05
0.00825424 0.000912747 1e-05
0.00837203 0.000912032 1e-05
0.00849073 0.000911681 1e-05
0.00860942 0.000910977 1e-05
0.00872811 0.000909923 1e-05
0.00884681 0.000908856 1e-05
0.00896551 0.000908117 1e-05
0.00908513 0.000907709 1e-05
0.00920475 0.000906977 1e-05
0.00932436 0.000905924 1e-05
0.00944398 0.000904857 1e-05
0.0095636 0.000904089 1e-05
0.00968415 0.000903621 1e-05
0.0098047 0.000902856 1e-05
0.00992524 0.000901795 1e-05
0.0100458 0.000900721 1e-05
0.0101663 0.000899919 1e-05
0.0102878 0.00089939 1e-05
0.0104093 0.000898586 1e-05
0.0105308 0.000897526 1e-05
0.0106523 0.00089646 1e-05
0.0107738 0.000895619 1e-05
0.0108962 0.000895026 1e-05
0.0110186 0.00089418 1e-05
0.0111411 0.000893128 1e-05
0.0112635 0.000892069 1e-05
0.0113859 0.000891186 1e-05
0.0115093 0.000890526 1e-05
0.0116327 0.000889635 1e-05
0.0117561 0.00088858 1e-05
0.0118794 0.000887518 1e-05
0.0120028 0.000886588 1e-05
0.0121272 0.00088586 1e-05
0.0122515 0.00088492 1e-05
0.0123759 0.000883853 1e-05
0.0125002 0.000882779 1e-05
0.0126245 0.0008818 1e-05
0.0127498 0.000881003 1e-05
0.0128752 0.00088001 1e-05
0.0130005 0.000878924 1e-05
0.0131258 0.000877829 1e-05
0.0132511 0.000876797 1e-05
0.0133774 0.00087593 1e-05
0.0135036 0.000874882 1e-05
0.0136299 0.000873768 1e-05
0.0137562 0.000872646 1e-05
0.0138825 0.000871559 1e-05
0.0140098 0.000870619 1e-05
0.014137 0.000869513 1e-05
0.0142643 0.000868366 1e-05
0.0143915 0.00086721 1e-05
0.0145188 0.000866065 1e-05
0.0146471 0.000865052 1e-05
0.0147753 0.000863886 1e-05
0.0149036 0.000862699 1e-05
0.0150318 0.000861503 1e-05
0.0151601 0.000860297 1e-05
0.0152893 0.00085921 1e-05
0.0154186 0.000857988 1e-05
0.0155478 0.000856756 1e-05
0.0156771 0.000855515 1e-05
0.0158063 0.000854264 1e-05
0.0159366 0.0008531 1e-05
0.0160668 0.000851829 1e-05
0.0161971 0.000850547 1e-05
0.0163273 0.000849256 1e-05
0.0164576 0.000847954 1e-05
0.0165889 0.000846714 1e-05
0.0167201 0.000845389 1e-05
0.0168514 0.000844053 1e-05
0.0169827 0.000842707 1e-05
0.0171139 0.000841351 1e-05
0.0172462 0.000840033 1e-05
0.0173785 0.00083865 1e-05
0.0175108 0.000837257 1e-05
0.0176431 0.000835853 1e-05
0.0177754 0.000834438 1e-05
0.0179087 0.000833042 1e-05
0.018042 0.000831598 1e-05
0.0181753 0.000830143 1e-05
0.0183087 0.000828677 1e-05
0.018442 0.000827201 1e-05
0.0185763 0.000825726 1e-05
0.0187107 0.000824217 1e-05
0.018845 0.000822698 1e-05
0.0189794 0.000821168 1e-05
0.0191137 0.000819626 1e-05
0.0192267 0.000818329 1e-05
0.0193396 0.000817017 1e-05
0.0194526 0.000815696 1e-05
0.0195655 0.000814368 1e-05
0.0196728 0.000813098 1e-05
0.0196964 0.000812818 1e-05
0.01972 0.000812537 1e-05
0.0197436 0.000812256 1e-05
0.0197672 0.000811974 1e-05
0.0197907 0.000811692 1e-05
0.0199272 0.000810057 1e-05
0.0200636 0.000808412 1e-05
0.0202001 0.000806756 1e-05
0.0203365 0.000805087 1e-05
0.020473 0.000803408 1e-05
0.0206105 0.000801693 1e-05
0.020748 0.000799976 1e-05
0.0208855 0.000798247 1e-05
0.021023 0.000796506 1e-05
0.0211606 0.000794753 1e-05
0.0212991 0.000792959 1e-05
0.0214377 0.000791167 1e-05
0.0215763 0.000789364 1e-05
0.0217149 0.000787548 1e-05
0.0218535 0.00078572 1e-05
0.0219931 0.000783846 1e-05
0.0221328 0.000781978 1e-05
0.0222724 0.000780098 1e-05
0.0224121 0.000778205 1e-05
0.0225517 0.0007763 1e-05
0.0226925 0.000774344 1e-05
0.0228332 0.000772398 1e-05
0.022974 0.000770438 1e-05
0.0231147 0.000768466 1e-05
0.0232555 0.00076648 1e-05
0.0233973 0.000764441 1e-05
0.0235391 0.000762411 1e-05
0.023681 0.000760368 1e-05
0.0238228 0.000758312 1e-05
0.0239647 0.000756243 1e-05
0.0241076 0.000754119 1e-05
0.0242505 0.000752003 1e-05
0.0243935 0.000749877 1e-05
0.0245364 0.000747737 1e-05
0.0246794 0.000745581 1e-05
0.0248234 0.000743374 1e-05
0.0249675 0.000741174 1e-05
0.0251115 0.000738965 1e-05
0.0252556 0.000736742 1e-05
0.0253996 0.0007345 1e-05
0.0255448 0.000732208 1e-05
0.02569 0.000729918 1e-05
0.0258351 0.000727622 1e-05
0.0259803 0.00072531 1e-05
0.0261255 0.000722977 1e-05
0.0262718 0.000720597 1e-05
0.0264181 0.000718214 1e-05
0.0265644 0.000715825 1e-05
0.0267107 0.000713421 1e-05
0.026857 0.000710995 1e-05
0.0270044 0.000708525 1e-05
0.0271519 0.000706049 1e-05
0.0272993 0.000703567 1e-05
0.0274468 0.00070107 1e-05
0.0275942 0.000698552 1e-05
0.0277428 0.000695991 1e-05
0.0278914 0.000693423 1e-05
0.0280399 0.000690848 1e-05
0.0281885 0.000688258 1e-05
0.0283371 0.000685648 1e-05
0.0284869 0.000682999 1e-05
0.0286366 0.00068034 1e-05
0.0287863 0.000677672 1e-05
0.0289361 0.000674989 1e-05
0.0290858 0.00067229 1e-05
0.0292367 0.000669553 1e-05
0.0293876 0.000666804 1e-05
0.0295385 0.000664043 1e-05
0.0296894 0.000661269 1e-05
0.0298403 0.000658481 1e-05
0.0299924 0.000655657 1e-05
0.0301445 0.000652819 1e-05
0.0302966 0.000649967 1e-05
0.0304486 0.000647103 1e-05
0.0306007 0.000644226 1e-05
0.030754 0.000641314 1e-05
0.0309072 0.000638387 1e-05
0.0310605 0.000635444 1e-05
0.0312138 0.00063249 1e-05
0.031367 0.000629524 1e-05
0.0315215 0.000626525 1e-05
0.0316759 0.000623508 1e-05
0.0318304 0.000620475 1e-05
0.0319848 0.00061743 1e-05
0.0321393 0.000614375 1e-05
0.0322949 0.000611287 1e-05
0.0324506 0.00060818 1e-05
0.0326062 0.000605056 1e-05
0.0327619 0.000601921 1e-05
0.0329175 0.000598776 1e-05
[...]
POINT_DATA 10910
 FIELD attributes 2
p 1 10910 float
-4.96812 -5.01822 -5.07827 -5.13888 -5.20006 -5.32535 -5.39859 -5.47854 -5.55849 -5.63844 -5.72358 -5.72775 -5.74825 -5.76869 -5.78908 -5.82119 -5.81051 -5.81958 -5.82859 -5.83753 -5.86276 -5.85875 -5.87193 -5.88505 -5.89812 -5.92728 -5.92268 -5.93439 -5.94605 -5.95766 -5.98601 -5.97873 -5.98839 -5.99802 -6.00761 -6.03576 -6.02686 -6.03625 -6.04561 -6.05493 -6.08514 -6.07435 -6.08381 -6.09324 -6.10263 -6.13566 -6.12213 -6.13146 -6.14075 -6.15 -6.18622 -6.16944 -6.17873 -6.18798 -6.1972 -6.23727 -6.21702 -6.22664 -6.23622 -6.24577 -6.29065 -6.26671 -6.27688 -6.287 -6.29708 -6.34745 -6.31928 -6.33008 -6.34083 -6.35154 -6.40821 -6.37537 -6.3868 -6.39817 -6.4095 -6.47305 -6.43452 -6.44642 -6.45825 -6.47002 -6.54151 -6.49613 -6.50775 -6.51927 -6.53071 -6.61085 -6.54909 -6.55204 -6.55489 -6.55764 -6.63737 -6.5262 -6.5177 -6.50912 -6.50046 -6.61201 -6.48714 -6.48068 -6.47416 -6.46757 -6.59536 -6.486 -6.48448 -6.48291 -6.48962 -6.60557 -6.52 -6.50891 -6.50835 -6.52766 -6.6201 -6.55409 -6.53658 -6.53733 -6.56549 -6.64404 -6.59531 -6.57682 -6.58017 -6.61486 -6.68263 -6.64539 -6.62676 -6.63185 -6.67043 -6.72979 -6.70008 -6.6813 -6.68774 -6.72944 -6.78323 -6.759 -6.74019 -6.74795 -6.7925 -6.84254 -6.82221 -6.80303 -6.81184 -6.85883 -6.90602 -6.88836 -6.87078 -6.88188 -6.92685 -6.97172 -6.95594 -6.94027 -6.95238 -6.99549 -7.03845 -7.02407 -7.00982 -7.02263 -7.0641 -7.10542 -7.09216 -7.07905 -7.09229 -7.13226 -7.17208 -7.15976 -7.14759 -7.16108 -7.19968 -7.23813 -7.22662 -7.21529 -7.22888 -7.26618 -7.30333 -7.29263 -7.2821 -7.29567 -7.33165 -7.36748 -7.35759 -7.34786 -7.36129 -7.39591 -7.43038 -7.42128 -7.41357 -7.42724 -7.45878 -7.49189 -7.48359 -7.47914 -7.49231 -7.52022 -7.552 -7.54451 -7.54306 -7.55579 -7.5803 -7.61077 -7.6041 -7.6054 -7.61771 -7.63904 -7.6682 -7.66233 -7.6661 -7.67801 -7.69638 -7.72427 -7.71916 -7.72516 -7.7367 -7.75236 -7.77902 -7.77467 -7.78265 -7.79386 -7.80703 -7.8325 -7.82891 -7.83865 -7.84954 -7.86044 -7.88474 -7.88259 -7.89317 -7.90375 -7.91435 -7.93577 -7.93594 -7.94624 -7.95656 -7.96689 -7.98567 -7.98791 -7.99797 -8.00804 -8.01812 -8.0345 -8.03859 -8.04842 -8.05827 -8.06812 -8.08234 -8.08804 -8.09767 -8.10731 -8.11696 -8.12925 -8.13635 -8.1458 -8.15526 -8.16473 -8.17532 -8.18209 -8.18984 -8.19759 -8.20535 -8.21273 -8.21437 -8.21601 -8.21765 -8.21929 -8.22087 -8.23013 -8.23937 -8.24862 -8.25788 -8.26666 -8.27602 -8.28514 -8.29426 -8.30339 -8.31149 -8.32111 -8.33012 -8.33914 -8.34818 -8.35552 -8.36554 -8.37447 -8.38341 -8.39235 -8.39887 -8.4094 -8.41824 -8.42709 -8.43595 -8.44152 -8.45258 -8.46127 -8.46997 -8.47866 -8.48322 -8.4947 -8.50332 -8.51171 -8.5193 -8.52312 -8.53423 -8.54311 -8.5512 -8.5576 -8.56089 -8.57172 -8.58086 -8.58859 -8.59356 -8.5961 -8.60658 -8.61589 -8.62307 -8.62644 -8.62828 -8.63837 -8.64795 -8.65465 -8.6566 -8.65801 -8.66788 -8.67776 -8.6839 -8.68505 -8.68622 -8.69597 -8.70574 -8.71145 -8.71244 -8.71345 -8.72313 -8.73281 -8.73817 -8.73907 -8.73998 -8.7496 -8.75923 -8.76431 -8.76516 -8.76601 -8.77558 -8.78516 -8.79002 -8.79084 -8.79167 -8.80119 -8.81047 -8.81501 -8.81619 -8.817 -8.82648 -8.83472 -8.83926 -8.84126 -8.84207 -8.85149 -8.85869 -8.86323 -8.86606 -8.86687 -8.87624 -8.8824 -8.88693 -8.89059 -8.89139 -8.90069 -8.90582 -8.91033 -8.91482 -8.91561 -8.92445 -8.92892 -8.9334 -8.93788 -8.93949 -8.94724 -8.95167 -8.9561 -8.96054 -8.96299 -8.96966 -8.97403 -8.97841 -8.9828 -8.98608 -8.99166 -8.99597 -9.00028 -9.00461 -9.0087 -9.01008 -9.0112 -9.01232 -9.01344 -9.01455 -9.01772 -9.02089 -9.02406 -9.02724 -9.02935 -9.03454 -9.03876 -9.04298 -9.04722 -9.04897 -9.05537 -9.0595 -9.06364 -9.06778 -9.06808 -9.07565 -9.07967 -9.08371 -9.08775 -9.08662 -9.09531 -9.09923 -9.10316 -9.10643 -9.10456 -9.11322 -9.11813 -9.12193 -9.12372 -9.12183 -9.13027 -9.13632 -9.13998 -9.14031 -9.13837 -9.14658 -9.15372 -9.15724 -9.15611 -9.15412 -9.16209 -9.17006 -9.17314 -9.17107 -9.169 -9.17672 -9.18444 -9.18728 -9.18511 -9.18294 -9.19039 -9.19785 -9.20044 -9.19815 -9.19586 -9.20303 -9.21022 -9.21255 -9.21012 -9.20769 -9.21457 -9.22083 -9.22264 -9.22092 -9.21833 -9.2249 -9.22953 -9.23109 -9.23046 -9.22769 -9.23394 -9.23693 -9.23823 -9.23866 -9.23568 -9.24159 -9.24295 -9.24396 -9.24498 -9.24222 -9.24677 -9.24748 -9.24819 -9.2489 -9.24719 -9.25005 -9.25042 -9.25081 -9.2512 -9.25051 -9.25164 -9.25166 -9.25169 -9.25173 -9.25177 -9.25179 -9.25182 -9.25184 -9.25187 -9.25165 -9.25163 -9.25137 -9.25113 -9.25089 -9.24912 -9.25 -9.24936 -9.24873 -9.2481 -9.24467 -9.2464 -9.24535 -9.24431 -9.24328 -9.23816 -9.24027 -9.23923 -9.23775 -9.23504 -9.22946 -9.23105 -9.23085 -9.22891 -9.22443 -9.21843 -9.21947 -9.22008 -9.21765 -9.21138 -9.20493 -9.2054 -9.20588 -9.20267 -9.19574 -9.18881 -9.18868 -9.18857 -9.18481 -9.17737 -9.16993 -9.16918 -9.16844 -9.16388 -9.15612 -9.14815 -9.14674 -9.14403 -9.13879 -9.13184 -9.1233 -9.12121 -9.11643 -9.11054 -9.10438 -9.09523 -9.09214 -9.08556 -9.07898 -9.07242 -9.06378 -9.05853 -9.05124 -9.04395 -9.03668 -9.0288 -9.02608 -9.02276 -9.01943 -9.01611 -9.01287 -9.00814 -9.00341 -8.99869 -8.99397 -8.98841 -8.98044 -8.97162 -8.96282 -8.95402 -8.94297 -8.93564 -8.92602 -8.91641 -8.90681 -8.89352 -8.88623 -8.87636 -8.86591 -8.85402 -8.83991 -8.83171 -8.82248 -8.81117 -8.79693 -8.78199 -8.77285 -8.76372 -8.75123 -8.73542 -8.71961 -8.7095 -8.69941 -8.68606 -8.66941 -8.65277 -8.64171 -8.63039 -8.61582 -8.59887 -8.58132 -8.56925 -8.55534 -8.53975 -8.52342 -8.5049 -8.49171 -8.47518 -8.45858 -8.44199 -8.42344 -8.40771 -8.39006 -8.37242 -8.35479 -8.33686 -8.33375 -8.33034 -8.32693 -8.32352 -8.32015 -8.30485 -8.28955 -8.27427 -8.25899 -8.24253 -8.22402 -8.20426 -8.1845 -8.16476 -8.14234 -8.12415 -8.10342 -8.08255 -8.0606 -8.03655 -8.01712 -7.99684 -7.97479 -7.95012 -7.92495 -7.90431 -7.88368 -7.8602 -7.83391 -7.80762 -7.78578 -7.76396 -7.73938 -7.7119 -7.68442 -7.66134 -7.63703 -7.61085 -7.58377 -7.55502 -7.53062 -7.50334 -7.4759 -7.44847 -7.41942 -7.39543 -7.36994 -7.34446 -7.31898 -7.29493 -7.29144 -7.28795 -7.28447 -7.28098 -7.27725 -7.24758 -7.21766 -7.18776 -7.15787 -7.12572 -7.09684 -7.06557 -7.03431 -7.00233 -6.96751 -6.93773 -6.90674 -6.87412 -6.83875 -6.80266 -6.77146 -6.74028 -6.70599 -6.66861 -6.63123 -6.59863 -6.56597 -6.52999 -6.49178 -6.45304 -6.41898 -6.38272 -6.34529 -6.30789 -6.26792 -6.23134 -6.19244 -6.15356 -6.11469 -6.07571 -6.07415 -6.07249 -6.07084 -6.06919 -6.06754 -6.02897 -5.99041 -5.95186 -5.91333 -5.87284 -5.83333 -5.79169 -5.75006 -5.70749 -5.6628 -5.62212 -5.58101 -5.5379 -5.49175 -5.44558 -5.40337 -5.36119 -5.31636 -5.26874 -5.22109 -5.17736 -5.13223 -5.08548 -5.03844 -4.98933 -4.94341 -4.89511 -4.84683 -4.79857 -4.75025 -4.74953 -4.74877 -4.74801 -4.74726 -4.7465 -4.69761 -4.64874 -4.59989 -4.55105 -4.49951 -4.45096 -4.40008 -4.34895 -4.29593 -4.24129 -4.19115 -4.14103 -4.08791 -4.03186 -3.97576 -3.92408 -3.87175 -3.81668 -3.76053 -3.70299 -3.6496 -3.59301 -3.53644 -3.47988 -3.42303 -3.41899 -3.41473 -3.41048 -3.40622 -3.40198 -3.34839 -3.29481 -3.24125 -3.18771 -3.13167 -3.07446 -3.0158 -2.95661 -2.89531 -2.8331 -2.77448 -2.71588 -2.6549 -2.59149 -2.52799 -2.46804 -2.4064 -2.34361 -2.28083 -2.21668 -2.19018 -2.16249 -2.1348 -2.10711 -2.08031 -2.04396 -2.00762 -1.97128 -1.93495 -1.89668 -1.83372 -1.76889 -1.70408 -1.63743 -1.56919 -1.50534 -1.44151 -1.37512 -1.30617 -1.23711 -1.17237 -1.10568 -1.03784 -0.97002 -0.901181 -0.883679 -0.865453 -0.847152 -0.828852 -0.81088 -0.760731 -0.710588 -0.660452 -0.610211 -0.558533 -0.490728 -0.422357 -0.353611 -0.283267 -0.212575 -0.144431 -0.0762794 -0.00655363 0.0636046 0.134264 0.183427 0.233412 0.283553 0.33369 0.381561 0.40154 0.421519 0.441498 0.461607 0.482472 0.551013 0.620453 0.689886 0.760731 0.833155 0.900723 0.968288 1.03784 1.10934 1.18098 1.24023 1.30113 1.36251 1.4239 1.48246 1.49101 1.49956 1.50812 1.51667 1.52525 1.59384 1.66241 1.73099 1.79948 1.86799 1.93544 2.0029 2.06992 2.13652 2.20328 2.25847 2.31309 2.36748 2.42187 2.47426 2.4854 2.49654 2.50769 2.51893 2.53042 2.59359 2.65719 2.7208 2.78531 2.85081 2.91121 2.97161 3.03323 3.09588 3.15873 3.19679 3.23538 3.27423 3.31309 3.35142 3.37223 3.39304 3.41385 3.434 3.45301 3.5126 3.57005 3.62741 3.67991 3.73162 3.78798 3.84291 3.89314 3.94337 3.99156 4.00615 4.01963 4.03245 4.04526 4.05818 4.09274 4.12729 4.16184 4.19682 4.23245 4.27511 4.31774 4.36183 4.4071 4.45207 4.4906 4.53 4.5699 4.60975 4.64953 4.65295 4.65647 4.66002 4.66358 4.66721 4.70044 4.73362 4.76672 4.79825 4.82321 4.86017 4.89681 4.92773 4.95187 4.97578 5.00857 5.03984 5.06505 5.08844 5.10879 5.13693 5.15898 5.18102 5.20304 5.22405 5.22847 5.23213 5.23578 5.23944 5.24345 5.25927 5.27506 5.29081 5.30654 5.32451 5.33957 5.3566 5.37358 5.39051 5.41193 5.42375 5.43815 5.45309 5.46964 5.48911 5.4995 5.51135 5.52494 5.54151 5.55982 5.56958 5.58 5.59313 5.6105 5.62865 5.63872 5.64877 5.66279 5.68191 5.70113 5.71268 5.72425 5.74052 5.76189 5.78342 5.79759 5.81184 5.83171 5.85666 5.88184 5.8999 5.92007 5.94501 5.97189 6.00155 6.02431 6.05412 6.08417 6.11447 6.146 6.14949 6.15377 6.15806 6.16235 6.16644 6.19631 6.22634 6.25652 6.28677 6.31452 6.35446 6.39415 6.43299 6.46863 6.50456 6.5488 6.59166 6.63103 6.67039 6.70859 6.72391 6.73807 6.75177 6.76547 6.77945 6.80649 6.83352 6.86053 6.88875 6.92073 6.95799 6.99681 7.0381 7.08386 7.12901 7.16408 7.19895 7.2393 7.28366 7.32873 7.36407 7.39971 7.4353 7.4708 7.50739 7.53402 7.5651 7.59634 7.62867 7.66478 7.68994 7.71452 7.73835 7.75874 7.77876 7.78628 7.79367 7.81234 7.84365 7.87534 7.89323 7.91034 7.92654 7.94335 7.96126 7.96461 7.99746 8.03166 8.06548 8.12947 8.18178 8.2349 8.2887 8.34405 8.40059 8.4467 8.50482 8.59096 8.67821 8.76837 8.7688 8.76922 8.76969 8.77015 8.77061 8.87058 8.97088 9.0715 9.16732 9.26467 9.31632 9.36799 9.41861 9.46906 9.51551 9.57042 9.62532 9.6823 9.7488 9.81564 9.89207 9.9685 10.0509 10.1357 10.2222 10.26 10.2977 10.3335 10.364 10.3945 10.5057 10.6168 10.7094 10.7935 10.8882 10.8991 10.9101 10.9215 10.9352 10.9488 11.0431 11.1369 11.2414 11.3572 11.4706 11.4884 11.5062 11.5275 11.5492 11.5734 11.6561 11.7383 11.8186 11.8535 11.8874 11.9688 12.0438 12.0738 12.1045 12.1471 12.1525 12.1579 12.1633 12.1715 12.1819 12.1993 12.2242 12.2487 12.2996 12.3667 12.3455 12.3218 12.333 12.3687 12.4092 12.3674 12.3532 12.346 12.3387 12.3266 12.3245 12.3235 12.3227 12.3218 12.3209 12.297 12.273 12.2491 12.2231 12.1367 12.1232 12.0973 12.0531 11.9467 11.8361 11.8002 11.7668 11.6853 11.5559 11.4237 11.365 11.2805 11.1698 11.0551 10.9055 10.8259 10.6954 10.5652 10.4353 10.277 10.1568 10.0094 9.86221 9.71512 9.5513 9.40281 9.23017 9.0577 8.88537 8.69576 8.5181 8.32954 8.14101 7.9525 7.75488 7.5502 7.31915 7.08827 6.85754 6.6026 6.36477 6.13138 5.89799 5.66458 5.43553 5.16628 4.82755 4.48946 4.15191 3.75006 3.40857 3.15152 2.89538 2.64001 2.46349 2.17549 1.6617 1.1461 0.628972 0