# vtk DataFile Version 2.0
track0
ASCII
DATASET POLYDATA
POINTS 10910 double
-0.0205 0.001 1e-05
-0.0202034 0.00100003 1e-05
-0.0199069 0.00100026 1e-05
-0.0196103 0.00100071 1e-05
-0.0193137 0.00100137 1e-05
-0.0190172 0.00100225 1e-05
-0.0187132 0.00100354 1e-05
-0.0184093 0.0010045 1e-05
-0.0181054 0.00100547 1e-05
-0.0178015 0.00100644 1e-05
-0.0174976 0.0010074 1e-05
-0.0172058 0.00100862 1e-05
-0.016914 0.00100939 1e-05
-0.0166222 0.0010101 1e-05
-0.0163305 0.00101076 1e-05
-0.0160387 0.00101135 1e-05
-0.0157586 0.00101219 1e-05
-0.0154784 0.0010126 1e-05
-0.0151983 0.00101297 1e-05
-0.0149182 0.00101329 1e-05
-0.0146381 0.00101356 1e-05
-0.0143692 0.00101411 1e-05
-0.0141002 0.00101425 1e-05
-0.0138313 0.00101436 1e-05
-0.0135624 0.00101443 1e-05
-0.0132934 0.00101447 1e-05
-0.0130353 0.00101482 1e-05
-0.0127771 0.00101476 1e-05
-0.0125189 0.00101467 1e-05
-0.0122607 0.00101456 1e-05
-0.0120025 0.00101442 1e-05
-0.0117547 0.00101463 1e-05
-0.0115068 0.00101442 1e-05
-0.0112589 0.00101419 1e-05
-0.0110111 0.00101393 1e-05
-0.0107632 0.00101366 1e-05
-0.0105252 0.00101378 1e-05
-0.0102873 0.00101346 1e-05
-0.0100493 0.00101311 1e-05
-0.00981133 0.00101275 1e-05
-0.00957337 0.00101236 1e-05
-0.00934491 0.00101243 1e-05
-0.00911645 0.00101202 1e-05
-0.008888 0.00101158 1e-05
-0.00865954 0.00101112 1e-05
-0.00843108 0.00101064 1e-05
-0.00821175 0.00101068 1e-05
-0.00799242 0.00101018 1e-05
-0.00777309 0.00100966 1e-05
-0.00755376 0.00100911 1e-05
-0.00733443 0.00100855 1e-05
-0.00712387 0.00100857 1e-05
-0.0069133 0.00100798 1e-05
-0.00670273 0.00100738 1e-05
-0.00649217 0.00100676 1e-05
-0.0062816 0.00100612 1e-05
-0.00607944 0.00100612 1e-05
-0.00587729 0.00100546 1e-05
-0.00567514 0.00100478 1e-05
-0.00547299 0.00100408 1e-05
-0.00527083 0.00100336 1e-05
-0.00507675 0.00100336 1e-05
-0.00488268 0.00100263 1e-05
-0.0046886 0.00100187 1e-05
-0.00449452 0.00100109 1e-05
-0.00430044 0.00100029 1e-05
-0.00411412 0.00100028 1e-05
-0.0039278 0.000999465 1e-05
-0.00374148 0.000998628 1e-05
-0.00355516 0.000997764 1e-05
-0.00336883 0.000996874 1e-05
-0.00318995 0.000996855 1e-05
-0.00301107 0.000995956 1e-05
-0.0028322 0.000995027 1e-05
-0.00265332 0.000994068 1e-05
-0.00247443 0.000993078 1e-05
-0.0023027 0.000993038 1e-05
-0.00213097 0.000992034 1e-05
-0.00195924 0.000990996 1e-05
-0.00178751 0.000989922 1e-05
-0.00161577 0.000988812 1e-05
-0.0014509 0.000988738 1e-05
-0.00128603 0.000987607 1e-05
-0.00112117 0.000986429 1e-05
-0.000956302 0.000985203 1e-05
-0.000791418 0.000983926 1e-05
-0.000633135 0.000983767 1e-05
-0.000474857 0.000982432 1e-05
-0.000316579 0.000981042 1e-05
-0.000158302 0.000979596 1e-05
0 0.000978093 1e-05
0.000105677 0.000977912 1e-05
0.00021135 0.000976843 1e-05
0.000317022 0.000975739 1e-05
0.000422693 0.000974598 1e-05
0.000528387 0.000973421 1e-05
0.000634886 0.000973233 1e-05
0.000741379 0.000972024 1e-05
0.000847871 0.000970788 1e-05
0.000954363 0.000969525 1e-05
0.00106088 0.000968234 1e-05
0.00116821 0.000968074 1e-05
0.00127553 0.000966783 1e-05
0.00138285 0.000965469 1e-05
0.00149017 0.00096413 1e-05
0.00159752 0.000962849 1e-05
0.00170568 0.000962719 1e-05
0.00181383 0.000961521 1e-05
0.00192199 0.000960171 1e-05
0.00203014 0.000958798 1e-05
0.00213833 0.000957636 1e-05
0.00224733 0.000957538 1e-05
0.00235633 0.000956468 1e-05
0.00246532 0.000955118 1e-05
0.00257431 0.000953746 1e-05
0.00268334 0.000952701 1e-05
0.00279319 0.000952629 1e-05
0.00290303 0.000951673 1e-05
0.00301288 0.000950337 1e-05
0.00312272 0.000948978 1e-05
0.00323259 0.000948035 1e-05
0.00334329 0.000947975 1e-05
0.00345399 0.000947113 1e-05
0.00356469 0.000945796 1e-05
0.00367538 0.000944457 1e-05
0.00378611 0.000943598 1e-05
0.00389767 0.000943537 1e-05
0.00400923 0.00094275 1e-05
0.00412079 0.000941454 1e-05
0.00423235 0.000940134 1e-05
0.00434393 0.000939342 1e-05
0.00445636 0.00093927 1e-05
0.00456879 0.00093854 1e-05
0.00468122 0.000937261 1e-05
0.00479364 0.000935959 1e-05
0.00490609 0.000935216 1e-05
0.0050194 0.000935125 1e-05
0.0051327 0.000934433 1e-05
0.005246 0.000933166 1e-05
0.0053593 0.000931876 1e-05
0.00547262 0.000931165 1e-05
0.00558681 0.000931045 1e-05
0.00570099 0.000930376 1e-05
0.00581517 0.000929163 1e-05
0.00592935 0.000927941 1e-05
0.00604356 0.000927249 1e-05
0.00615863 0.000927092 1e-05
0.0062737 0.000926434 1e-05
0.00638877 0.000925279 1e-05
0.00650384 0.000924113 1e-05
0.00661893 0.000923428 1e-05
0.0067349 0.000923229 1e-05
0.00685087 0.000922572 1e-05
0.00696683 0.000921459 1e-05
0.0070828 0.000920336 1e-05
0.00719878 0.000919649 1e-05
0.00731565 0.000919403 1e-05
0.00743252 0.000918738 1e-05
0.00754939 0.000917655 1e-05
0.00766625 0.000916561 1e-05
0.00778313 0.000915864 1e-05
0.00790091 0.000915567 1e-05
0.00801869 0.000914886 1e-05
0.00813647 0.000913823 1e-05
0.00825424 0.000912747 1e-05
0.00837203 0.000912032 1e-05
0.00849073 0.000911681 1e-05
0.00860942 0.000910977 1e-05
0.00872811 0.000909923 1e-05
0.00884681 0.000908856 1e-05
0.00896551 0.000908117 1e-05
0.00908513 0.000907709 1e-05
0.00920475 0.000906977 1e-05
0.00932436 0.000905924 1e-05
0.00944398 0.000904857 1e-05
0.0095636 0.000904089 1e-05
0.00968415 0.000903621 1e-05
0.0098047 0.000902856 1e-05
0.00992524 0.000901795 1e-05
0.0100458 0.000900721 1e-05
0.0101663 0.000899919 1e-05
0.0102878 0.00089939 1e-05
0.0104093 0.000898586 1e-05
0.0105308 0.000897526 1e-05
0.0106523 0.00089646 1e-05
0.0107738 0.000895619 1e-05
0.0108962 0.000895026 1e-05
0.0110186 0.00089418 1e-05
0.0111411 0.000893128 1e-05
0.0112635 0.000892069 1e-05
0.0113859 0.000891186 1e-05
0.0115093 0.000890526 1e-05
0.0116327 0.000889635 1e-05
0.0117561 0.00088858 1e-05
0.0118794 0.000887518 1e-05
0.0120028 0.000886588 1e-05
0.0121272 0.00088586 1e-05
0.0122515 0.00088492 1e-05
0.0123759 0.000883853 1e-05
0.0125002 0.000882779 1e-05
0.0126245 0.0008818 1e-05
0.0127498 0.000881003 1e-05
0.0128752 0.00088001 1e-05
0.0130005 0.000878924 1e-05
0.0131258 0.000877829 1e-05
0.0132511 0.000876797 1e-05
0.0133774 0.00087593 1e-05
0.0135036 0.000874882 1e-05
0.0136299 0.000873768 1e-05
0.0137562 0.000872646 1e-05
0.0138825 0.000871559 1e-05
0.0140098 0.000870619 1e-05
0.014137 0.000869513 1e-05
0.0142643 0.000868366 1e-05
0.0143915 0.00086721 1e-05
0.0145188 0.000866065 1e-05
0.0146471 0.000865052 1e-05
0.0147753 0.000863886 1e-05
0.0149036 0.000862699 1e-05
0.0150318 0.000861503 1e-05
0.0151601 0.000860297 1e-05
0.0152893 0.00085921 1e-05
0.0154186 0.000857988 1e-05
0.0155478 0.000856756 1e-05
0.0156771 0.000855515 1e-05
0.0158063 0.000854264 1e-05
0.0159366 0.0008531 1e-05
0.0160668 0.000851829 1e-05
0.0161971 0.000850547 1e-05
0.0163273 0.000849256 1e-05
0.0164576 0.000847954 1e-05
0.0165889 0.000846714 1e-05
0.0167201 0.000845389 1e-05
0.0168514 0.000844053 1e-05
0.0169827 0.000842707 1e-05
0.0171139 0.000841351 1e-05
0.0172462 0.000840033 1e-05
0.0173785 0.00083865 1e-05
0.0175108 0.000837257 1e-05
0.0176431 0.000835853 1e-05
0.0177754 0.000834438 1e-05
0.0179087 0.000833042 1e-05
0.018042 0.000831598 1e-05
0.0181753 0.000830143 1e-05
0.0183087 0.000828677 1e-05
0.018442 0.000827201 1e-05
0.0185763 0.000825726 1e-05
0.0187107 0.000824217 1e-05
0.018845 0.000822698 1e-05
0.0189794 0.000821168 1e-05
0.0191137 0.000819626 1e-05
0.0192267 0.000818329 1e-05
0.0193396 0.000817017 1e-05
0.0194526 0.000815696 1e-05
0.0195655 0.000814368 1e-05
0.0196728 0.000813098 1e-05
0.0196964 0.000812818 1e-05
0.01972 0.000812537 1e-05
0.0197436 0.000812256 1e-05
0.0197672 0.000811974 1e-05
0.0197907 0.000811692 1e-05
0.0199272 0.000810057 1e-05
0.0200636 0.000808412 1e-05
0.0202001 0.000806756 1e-05
0.0203365 0.000805087 1e-05
0.020473 0.000803408 1e-05
0.0206105 0.000801693 1e-05
0.020748 0.000799976 1e-05
0.0208855 0.000798247 1e-05
0.021023 0.000796506 1e-05
0.0211606 0.000794753 1e-05
0.0212991 0.000792959 1e-05
0.0214377 0.000791167 1e-05
0.0215763 0.000789364 1e-05
0.0217149 0.000787548 1e-05
0.0218535 0.00078572 1e-05
0.0219931 0.000783846 1e-05
0.0221328 0.000781978 1e-05
0.0222724 0.000780098 1e-05
0.0224121 0.000778205 1e-05
0.0225517 0.0007763 1e-05
0.0226925 0.000774344 1e-05
0.0228332 0.000772398 1e-05
0.022974 0.000770438 1e-05
0.0231147 0.000768466 1e-05
0.0232555 0.00076648 1e-05
0.0233973 0.000764441 1e-05
0.0235391 0.000762411 1e-05
0.023681 0.000760368 1e-05
0.0238228 0.000758312 1e-05
0.0239647 0.000756243 1e-05
0.0241076 0.000754119 1e-05
0.0242505 0.000752003 1e-05
0.0243935 0.000749877 1e-05
0.0245364 0.000747737 1e-05
0.0246794 0.000745581 1e-05
0.0248234 0.000743374 1e-05
0.0249675 0.000741174 1e-05
0.0251115 0.000738965 1e-05
0.0252556 0.000736742 1e-05
0.0253996 0.0007345 1e-05
0.0255448 0.000732208 1e-05
0.02569 0.000729918 1e-05
0.0258351 0.000727622 1e-05
0.0259803 0.00072531 1e-05
0.0261255 0.000722977 1e-05
0.0262718 0.000720597 1e-05
0.0264181 0.000718214 1e-05
0.0265644 0.000715825 1e-05
0.0267107 0.000713421 1e-05
0.026857 0.000710995 1e-05
0.0270044 0.000708525 1e-05
0.0271519 0.000706049 1e-05
0.0272993 0.000703567 1e-05
0.0274468 0.00070107 1e-05
0.0275942 0.000698552 1e-05
0.0277428 0.000695991 1e-05
0.0278914 0.000693423 1e-05
0.0280399 0.000690848 1e-05
0.0281885 0.000688258 1e-05
0.0283371 0.000685648 1e-05
0.0284869 0.000682999 1e-05
0.0286366 0.00068034 1e-05
0.0287863 0.000677672 1e-05
0.0289361 0.000674989 1e-05
0.0290858 0.00067229 1e-05
0.0292367 0.000669553 1e-05
0.0293876 0.000666804 1e-05
0.0295385 0.000664043 1e-05
0.0296894 0.000661269 1e-05
0.0298403 0.000658481 1e-05
0.0299924 0.000655657 1e-05
0.0301445 0.000652819 1e-05
0.0302966 0.000649967 1e-05
0.0304486 0.000647103 1e-05
0.0306007 0.000644226 1e-05
0.030754 0.000641314 1e-05
0.0309072 0.000638387 1e-05
0.0310605 0.000635444 1e-05
0.0312138 0.00063249 1e-05
0.031367 0.000629524 1e-05
0.0315215 0.000626525 1e-05
0.0316759 0.000623508 1e-05
0.0318304 0.000620475 1e-05
0.0319848 0.00061743 1e-05
0.0321393 0.000614375 1e-05
0.0322949 0.000611287 1e-05
0.0324506 0.00060818 1e-05
0.0326062 0.000605056 1e-05
0.0327619 0.000601921 1e-05
0.0329175 0.000598776 1e-05
[...]
POINT_DATA 10910
 FIELD attributes 1
U 3 10910 float
10.0021 	0.0009802 	0 10.0076 	0.00792755 	0 10.013 	0.0151164 	0 10.0184 	0.0223186 	0 10.0239 	0.0295339 	0 10.0305 	0.0425838 	0 10.0339 	0.0319163 	0 10.0371 	0.0319352 	0 10.0403 	0.0319541 	0 10.0435 	0.0319731 	0 10.0462 	0.0419888 	0 10.0442 	0.0264358 	0 10.0432 	0.0244802 	0 10.0422 	0.0224986 	0 10.0412 	0.0204905 	0 10.0402 	0.0301648 	0 10.0367 	0.0146226 	0 10.0344 	0.013037 	0 10.0321 	0.0114239 	0 10.0298 	0.00978283 	0 10.0279 	0.0206369 	0 10.0246 	0.00524678 	0 10.0222 	0.00397211 	0 10.0199 	0.00267125 	0 10.0176 	0.00134364 	0 10.0155 	0.0135437 	0 10.0123 	-0.00223107 	0 10.0099 	-0.0033041 	0 10.0075 	-0.00440175 	0 10.005 	-0.00552458 	0 10.0028 	0.00845513 	0 9.99972 	-0.00839035 	0 9.99721 	-0.0093005 	0 9.9947 	-0.010233 	0 9.99218 	-0.0111883 	0 9.9897 	0.00513178 	0 9.98688 	-0.0135618 	0 9.98439 	-0.0143963 	0 9.9819 	-0.0152521 	0 9.9794 	-0.0161297 	0 9.97671 	0.00301985 	0 9.97422 	-0.018239 	0 9.97178 	-0.0190789 	0 9.96934 	-0.0199406 	0 9.96689 	-0.0208248 	0 9.96395 	0.00162326 	0 9.96183 	-0.0228231 	0 9.95944 	-0.0237059 	0 9.95704 	-0.0246118 	0 9.95464 	-0.0255415 	0 9.95137 	0.000707153 	0 9.94971 	-0.0274879 	0 9.94739 	-0.0284296 	0 9.94507 	-0.0293959 	0 9.94273 	-0.0303875 	0 9.93907 	0.00016047 	0 9.93799 	-0.0323277 	0 9.93576 	-0.0333529 	0 9.93352 	-0.0344046 	0 9.93128 	-0.0354834 	0 9.92714 	-0.000162246 	0 9.92675 	-0.0374848 	0 9.92464 	-0.0386423 	0 9.92252 	-0.0398291 	0 9.9204 	-0.0410459 	0 9.91571 	-0.000507798 	0 9.91614 	-0.0432344 	0 9.91414 	-0.0445692 	0 9.91214 	-0.0459371 	0 9.91013 	-0.0473391 	0 9.90473 	-0.0010721 	0 9.90607 	-0.0498101 	0 9.90419 	-0.051426 	0 9.9023 	-0.0530811 	0 9.90041 	-0.0547762 	0 9.8942 	-0.00229539 	0 9.89667 	-0.0578655 	0 9.89491 	-0.0598375 	0 9.89314 	-0.0618561 	0 9.89135 	-0.0639223 	0 9.88412 	-0.00447444 	0 9.88763 	-0.0677853 	0 9.8856 	-0.0706277 	0 9.88356 	-0.0735349 	0 9.88149 	-0.0765086 	0 9.87241 	-0.00992217 	0 9.87582 	-0.0833199 	1.15027e-21 9.87347 	-0.0867014 	3.88928e-21 9.87111 	-0.0901599 	6.62621e-21 9.86871 	-0.0936969 	9.36101e-21 9.85874 	-0.0169414 	1.09632e-20 9.86283 	-0.0997453 	-1.58095e-20 9.86047 	-0.103033 	-2.04729e-20 9.85808 	-0.106371 	-2.5155e-20 9.85568 	-0.109761 	-2.98559e-20 9.84393 	-0.0174332 	5.5458e-22 9.85171 	-0.111839 	-2.17799e-21 9.84959 	-0.114295 	-4.72886e-21 9.84746 	-0.116789 	-7.27799e-21 9.84532 	-0.11932 	-9.82536e-21 9.82934 	-0.0146913 	-1.09718e-20 9.84306 	-0.118356 	-1.02552e-20 9.84101 	-0.120531 	-6.75528e-21 9.83895 	-0.122739 	-3.25425e-21 9.83549 	-0.117352 	-4.37341e-22 9.81377 	-0.0118141 	-6.61341e-21 9.83218 	-0.108957 	-7.29184e-22 9.83247 	-0.122731 	-9.58059e-21 9.8302 	-0.124712 	-2.05162e-20 9.8226 	-0.105565 	-3.11655e-20 9.79562 	-0.00878661 	-4.08148e-20 9.81803 	-0.0963818 	-6.55682e-20 9.82229 	-0.121696 	-6.77979e-20 9.81978 	-0.123597 	-6.15734e-20 9.80675 	-0.0939452 	-4.51404e-20 9.77473 	-0.0064248 	-1.00245e-20 9.80108 	-0.0852703 	-9.74893e-21 9.81037 	-0.11937 	-3.8443e-21 9.8076 	-0.121316 	6.07601e-21 9.78795 	-0.0839874 	1.68833e-20 9.75093 	-0.00533075 	2.86227e-20 9.78078 	-0.0761152 	8.80677e-20 9.79585 	-0.116548 	1.19804e-19 9.79271 	-0.118523 	1.16434e-19 9.76544 	-0.0757529 	7.49478e-20 9.72369 	-0.00529132 	9.8443e-21 9.75661 	-0.0688176 	-6.75695e-20 9.7781 	-0.113639 	-1.23723e-19 9.77454 	-0.11562 	-1.31322e-19 9.73893 	-0.0691682 	-8.63104e-20 9.69289 	-0.00612384 	-2.33196e-20 9.7285 	-0.0632183 	-1.4595e-20 9.75692 	-0.11096 	-9.43142e-21 9.75292 	-0.112953 	-2.17169e-20 9.70851 	-0.0641822 	-4.33687e-20 9.65866 	-0.00777834 	-6.65256e-20 9.69658 	-0.059214 	-7.919e-20 9.73228 	-0.10878 	-9.1009e-20 9.72783 	-0.110781 	-8.42518e-20 9.67435 	-0.0606874 	-6.11586e-20 9.62115 	-0.0101614 	-3.80127e-20 9.66102 	-0.0565867 	-2.44253e-20 9.70027 	-0.103046 	-1.0769e-20 9.69348 	-0.103713 	-3.62236e-22 9.63678 	-0.0584158 	-3.55254e-21 9.5807 	-0.0130747 	-6.72235e-21 9.62214 	-0.0550282 	-3.6801e-21 9.66298 	-0.0970152 	-6.57841e-22 9.65515 	-0.0977987 	-7.41109e-22 9.59607 	-0.0571034 	-3.93071e-21 9.5376 	-0.016367 	-7.10178e-21 9.58024 	-0.0543151 	-4.05968e-21 9.6223 	-0.0922952 	-1.0358e-21 9.61352 	-0.0931554 	-7.13387e-21 9.55254 	-0.0565722 	-1.74836e-20 9.49214 	-0.0199514 	-2.79072e-20 9.53564 	-0.0543094 	-5.44375e-20 9.57857 	-0.0886978 	-8.08979e-20 9.56895 	-0.0896082 	-8.60631e-20 9.50652 	-0.0567066 	-7.02736e-20 9.44464 	-0.0237706 	-5.45114e-20 9.48867 	-0.0549003 	-1.06069e-19 9.53218 	-0.0860584 	-1.57597e-19 9.52182 	-0.0869967 	-1.48857e-19 9.45834 	-0.0573945 	-7.62825e-20 9.39537 	-0.0277611 	-3.64662e-21 9.43965 	-0.0559814 	-3.09945e-21 9.48341 	-0.0842281 	-2.6032e-21 9.47243 	-0.085177 	2.03581e-21 9.40828 	-0.0585351 	9.14997e-21 9.3446 	-0.031865 	1.6295e-20 9.38883 	-0.0574617 	8.85073e-21 9.43258 	-0.0830828 	1.37702e-21 9.42109 	-0.0840321 	-2.58106e-21 9.3566 	-0.0600521 	-5.74784e-21 9.29257 	-0.0360466 	-8.90352e-21 9.33651 	-0.0592773 	-5.88954e-21 9.37999 	-0.0825304 	-2.88702e-21 9.3681 	-0.0834732 	-2.74646e-22 9.30359 	-0.0618898 	-7.4414e-21 9.23951 	-0.0402833 	-1.46337e-20 9.28294 	-0.0613766 	-7.12226e-21 9.32286 	-0.0813524 	-4.60756e-22 9.30938 	-0.0817068 	-8.87282e-21 9.24955 	-0.0639955 	-2.97535e-20 9.18569 	-0.0445522 	-5.18347e-20 9.22842 	-0.0637127 	-1.41692e-19 9.26108 	-0.0796069 	-2.15431e-19 9.24775 	-0.0800076 	-2.1315e-19 9.19475 	-0.0663261 	-1.35857e-19 9.13134 	-0.0488346 	-3.83357e-20 9.17321 	-0.0662479 	-2.35895e-20 9.19863 	-0.0786509 	-1.08173e-20 9.18547 	-0.0790895 	-2.73858e-21 9.13938 	-0.0688469 	0 9.07663 	-0.0531152 	0 9.11751 	-0.0689485 	0 9.13576 	-0.0783697 	0 9.12277 	-0.0788385 	0 9.08361 	-0.071524 	0 9.02168 	-0.0573788 	0 9.06145 	-0.071782 	0 9.0727 	-0.0786619 	4.58206e-21 9.05987 	-0.079155 	1.30507e-20 9.02759 	-0.0743269 	2.40411e-20 8.96663 	-0.0616135 	3.87647e-20 9.0052 	-0.0747222 	1.35716e-19 9.00962 	-0.0794429 	1.66555e-19 8.99695 	-0.0799557 	1.64242e-19 8.97145 	-0.0772317 	1.36233e-19 8.91157 	-0.0658105 	3.92087e-20 8.94887 	-0.0777472 	2.46047e-20 8.94669 	-0.0806407 	2.25195e-20 8.93418 	-0.0811702 	2.37065e-20 8.91531 	-0.0802193 	2.62196e-20 8.85662 	-0.0699652 	3.70559e-20 8.89259 	-0.0808427 	9.96649e-20 8.88405 	-0.0821976 	9.74798e-20 8.8717 	-0.0827412 	8.97715e-20 8.85929 	-0.0832761 	8.20039e-20 8.80185 	-0.0740753 	1.18766e-20 8.83403 	-0.0835067 	-6.07215e-20 8.82185 	-0.0840616 	-7.94457e-20 8.80965 	-0.0846162 	-9.81631e-20 8.79743 	-0.0851704 	-1.16874e-19 8.7474 	-0.0781329 	-7.83806e-20 8.7723 	-0.0856182 	-1.46392e-19 8.76027 	-0.086181 	-1.38056e-19 8.74821 	-0.0867434 	-1.2971e-19 8.73614 	-0.0873056 	-1.21355e-19 8.69334 	-0.0821284 	-5.22167e-20 8.71126 	-0.08794 	-3.71257e-20 8.69937 	-0.0885079 	-2.62789e-20 8.68745 	-0.0890756 	-1.54335e-20 8.67552 	-0.0896431 	-4.58941e-21 8.63971 	-0.0860557 	0 8.65097 	-0.0904311 	1.28641e-21 8.63921 	-0.0910023 	4.10871e-21 8.62744 	-0.0915734 	6.93135e-21 8.61564 	-0.0921443 	9.75432e-21 8.58658 	-0.0899111 	1.2582e-20 8.59149 	-0.0930579 	1.15983e-20 8.57987 	-0.0936309 	1.17573e-20 8.56822 	-0.0942039 	1.19169e-20 8.55655 	-0.0947767 	1.20773e-20 8.53397 	-0.093693 	1.29897e-20 8.53286 	-0.0957914 	1.64688e-20 8.52136 	-0.0963651 	2.21525e-20 8.50985 	-0.0969388 	2.78376e-20 8.4983 	-0.0975125 	3.35241e-20 8.48192 	-0.0974003 	4.02813e-20 8.477 	-0.0985117 	4.96117e-20 8.46752 	-0.0989898 	4.74157e-20 8.45802 	-0.099468 	4.52116e-20 8.44851 	-0.0999462 	4.29993e-20 8.43944 	-0.100401 	4.08887e-20 8.4374 	-0.100501 	4.05819e-20 8.43536 	-0.100601 	4.02749e-20 8.43332 	-0.100701 	3.99676e-20 8.43127 	-0.100801 	3.96601e-20 8.42888 	-0.100998 	4.05858e-20 8.41779 	-0.101484 	3.47376e-20 8.40626 	-0.102057 	2.88167e-20 8.3947 	-0.10263 	2.28942e-20 8.38312 	-0.103203 	1.69703e-20 8.36935 	-0.10435 	1.25435e-20 8.36059 	-0.104407 	9.46477e-21 8.34917 	-0.104978 	1.15601e-21 8.33773 	-0.10555 	-7.14928e-21 8.32626 	-0.106122 	-1.54511e-20 8.31106 	-0.107613 	-3.21005e-20 8.30439 	-0.107359 	-4.52106e-20 8.29308 	-0.10793 	-4.97282e-20 8.28174 	-0.108502 	-5.42491e-20 8.27039 	-0.109073 	-5.87733e-20 8.25399 	-0.110798 	-5.35911e-20 8.2492 	-0.110336 	-7.94293e-20 8.238 	-0.11091 	-7.25577e-20 8.22677 	-0.111484 	-6.56957e-20 8.21552 	-0.112058 	-5.88436e-20 8.19812 	-0.113922 	-1.12735e-20 8.19503 	-0.113344 	-4.76738e-21 8.18394 	-0.113939 	-8.50154e-21 8.17282 	-0.114534 	-1.22348e-20 8.16167 	-0.115129 	-1.59671e-20 8.14342 	-0.11709 	-2.01857e-20 8.14193 	-0.116518 	-5.24158e-20 8.13089 	-0.11711 	-6.05674e-20 8.11982 	-0.117702 	-6.87224e-20 8.10867 	-0.118301 	-7.66311e-20 8.08965 	-0.120211 	-3.84528e-20 8.08878 	-0.119714 	4.06635e-20 8.07853 	-0.120189 	6.19112e-20 8.06747 	-0.120747 	7.8275e-20 8.05506 	-0.121496 	8.00908e-20 8.03653 	-0.123124 	1.45528e-20 8.03511 	-0.122759 	4.57823e-21 8.02664 	-0.123082 	1.42873e-21 8.0156 	-0.123653 	7.38593e-22 8.00211 	-0.124549 	3.35193e-22 7.98409 	-0.126039 	4.58182e-22 7.98226 	-0.125915 	3.2643e-22 7.97546 	-0.126189 	-4.09995e-21 7.96448 	-0.126798 	-1.2114e-20 7.95003 	-0.127773 	-2.00754e-20 7.93247 	-0.129073 	-2.79895e-20 7.93034 	-0.129146 	-1.94968e-20 7.92512 	-0.12941 	-1.09922e-20 7.9142 	-0.130027 	-2.46552e-21 7.89889 	-0.130982 	0 7.88176 	-0.132074 	0 7.87938 	-0.132303 	0 7.87569 	-0.13259 	-6.74697e-22 7.86485 	-0.133197 	-5.08178e-21 7.84878 	-0.134061 	-9.16087e-21 7.83205 	-0.134955 	-1.32001e-20 7.82947 	-0.135311 	-4.54205e-20 7.82687 	-0.135668 	-7.76404e-20 7.81607 	-0.136258 	-8.3087e-20 7.79976 	-0.136976 	-6.4233e-20 7.78341 	-0.137694 	-4.53785e-20 7.78068 	-0.138158 	-1.33805e-19 7.77792 	-0.138623 	-2.22231e-19 7.76784 	-0.139168 	-2.22245e-19 7.75188 	-0.139735 	-1.3912e-19 7.73589 	-0.140303 	-5.59962e-20 7.73303 	-0.140861 	-1.02765e-19 7.73015 	-0.141419 	-1.49535e-19 7.7208 	-0.141923 	-1.4343e-19 7.70515 	-0.142363 	-8.36341e-20 7.68947 	-0.142804 	-2.38386e-20 7.68652 	-0.143445 	-1.48355e-20 7.68354 	-0.144087 	-5.83361e-21 7.67491 	-0.144557 	0 7.65954 	-0.144891 	0 7.64416 	-0.145225 	0 7.64112 	-0.14594 	0 7.63806 	-0.146656 	0 7.63014 	-0.147099 	0 7.61503 	-0.147344 	0 7.5999 	-0.14759 	0 7.5968 	-0.148373 	0 7.59344 	-0.149138 	0 7.58573 	-0.149554 	0 7.57157 	-0.149751 	0 7.55667 	-0.149923 	0 7.55352 	-0.150768 	0 7.54921 	-0.151504 	0 7.54155 	-0.151922 	0 7.52912 	-0.152132 	0 7.51442 	-0.152244 	0 7.51123 	-0.153144 	0 7.50601 	-0.153826 	0 7.4984 	-0.154247 	0 7.48762 	-0.154505 	0 7.47312 	-0.15457 	0 7.46988 	-0.15552 	0 7.46378 	-0.156124 	0 7.45621 	-0.156553 	0 7.44704 	-0.156887 	0 7.4327 	-0.156914 	0 7.42942 	-0.157909 	0 7.42245 	-0.158418 	0 7.41492 	-0.158855 	0 7.40732 	-0.15929 	-4.08374e-23 7.39312 	-0.159287 	-6.81221e-21 7.38947 	-0.160276 	0 7.38199 	-0.160724 	0 7.37447 	-0.161171 	0 7.36694 	-0.161619 	0 7.35434 	-0.1617 	-5.28367e-21 7.34979 	-0.162594 	0 7.34232 	-0.163052 	0 7.33483 	-0.163511 	0 7.32732 	-0.16397 	0 7.31631 	-0.16416 	0 7.31087 	-0.164944 	1.01406e-22 7.30342 	-0.165415 	3.01563e-22 7.29594 	-0.165886 	5.01748e-22 7.28843 	-0.166357 	7.01961e-22 7.27898 	-0.16667 	-2.04163e-22 7.27266 	-0.167334 	-6.57258e-21 7.26521 	-0.167818 	-5.18393e-21 7.25774 	-0.168302 	-3.7906e-21 7.25024 	-0.168786 	-2.39257e-21 7.24232 	-0.169236 	-1.69991e-22 7.24058 	-0.169406 	-7.43842e-22 7.23862 	-0.169538 	-2.82593e-21 7.23665 	-0.169669 	-4.90809e-21 7.23468 	-0.1698 	-6.99033e-21 7.23273 	-0.16993 	-9.05264e-21 7.22706 	-0.170297 	-1.43523e-20 7.22137 	-0.170664 	-1.96513e-20 7.21567 	-0.171031 	-2.49496e-20 7.20996 	-0.171398 	-3.02473e-20 7.20405 	-0.171596 	-3.69211e-20 7.19706 	-0.172266 	-4.0467e-20 7.18935 	-0.172778 	-4.12825e-20 7.18163 	-0.17329 	-4.21007e-20 7.17387 	-0.173802 	-4.29216e-20 7.16578 	-0.173929 	-3.72145e-20 7.15957 	-0.174816 	-2.61242e-20 7.15186 	-0.175343 	-1.8359e-20 7.14412 	-0.175869 	-1.05926e-20 7.13636 	-0.176396 	-2.82484e-21 7.12821 	-0.176334 	0 7.12268 	-0.177429 	0 7.11495 	-0.177971 	0 7.1072 	-0.178512 	0 7.09942 	-0.179054 	0 7.09132 	-0.178815 	0 7.08634 	-0.18011 	0 7.0786 	-0.180667 	0 7.07082 	-0.181225 	0 7.06301 	-0.181686 	0 7.05503 	-0.181378 	0 7.04994 	-0.182694 	0 7.04277 	-0.183439 	-9.25639e-23 7.03497 	-0.184014 	-2.12635e-22 7.02715 	-0.184292 	-2.57061e-22 7.01932 	-0.184027 	-1.63359e-22 7.01402 	-0.18534 	-2.85064e-20 7.00744 	-0.186292 	-4.3398e-20 6.99962 	-0.186885 	-4.48972e-20 6.99185 	-0.186991 	-2.6189e-20 6.98414 	-0.186768 	6.12108e-21 6.97865 	-0.188081 	2.57216e-21 6.97258 	-0.189234 	1.25306e-21 6.96472 	-0.189847 	7.50429e-21 6.95707 	-0.189789 	1.37485e-20 6.94945 	-0.189607 	1.99916e-20 6.94378 	-0.190922 	1.31024e-20 6.93805 	-0.192237 	6.21087e-21 6.9303 	-0.192832 	5.15167e-21 6.92275 	-0.192691 	3.79937e-21 6.91521 	-0.19255 	2.44677e-21 6.90937 	-0.193869 	2.35647e-21 6.90348 	-0.195187 	2.26096e-21 6.89637 	-0.195802 	2.67814e-21 6.88888 	-0.195701 	4.88733e-21 6.88138 	-0.195601 	7.09634e-21 6.87539 	-0.196925 	3.83597e-21 6.86935 	-0.198249 	5.71828e-22 6.86286 	-0.198883 	1.32072e-22 6.8554 	-0.198822 	2.51541e-21 6.84794 	-0.198761 	4.89849e-21 6.8418 	-0.200092 	1.45353e-21 6.83561 	-0.201423 	-1.99523e-21 6.82973 	-0.202079 	-3.1087e-21 6.82229 	-0.202056 	-6.73748e-21 6.81484 	-0.202034 	-1.03666e-20 6.80857 	-0.203373 	-7.12982e-21 6.80232 	-0.204626 	-3.89235e-21 6.79661 	-0.205265 	-6.41421e-22 6.7895 	-0.205404 	0 6.78205 	-0.205419 	0 6.77565 	-0.206767 	0 6.76947 	-0.207849 	-1.32714e-21 6.76367 	-0.208511 	-4.74404e-21 6.75702 	-0.208865 	-8.16881e-21 6.74955 	-0.208918 	-1.16013e-20 6.74303 	-0.210275 	-8.55458e-21 6.73693 	-0.211191 	-7.64391e-21 6.73104 	-0.211876 	-7.84706e-21 6.7248 	-0.212441 	-7.57726e-21 6.7173 	-0.212529 	-5.44664e-21 6.71066 	-0.213897 	-3.28528e-20 6.70466 	-0.214652 	-3.35421e-20 6.69868 	-0.215361 	-3.22082e-20 6.69267 	-0.21607 	-3.08699e-20 6.68529 	-0.216255 	-2.00715e-21 6.67869 	-0.217501 	-2.82956e-20 6.67265 	-0.218234 	-2.74295e-20 6.66658 	-0.218966 	-2.6559e-20 6.66047 	-0.219698 	-2.5684e-20 6.65349 	-0.220097 	-1.01498e-20 6.647 	-0.22118 	-8.92535e-21 6.64086 	-0.221937 	-2.93008e-21 6.63469 	-0.222693 	3.06518e-21 6.62849 	-0.223449 	9.06041e-21 6.62188 	-0.224057 	1.56877e-20 6.61663 	-0.224841 	1.56306e-20 6.61154 	-0.225479 	1.83767e-20 6.60642 	-0.226118 	2.11244e-20 6.60128 	-0.226756 	2.38736e-20 6.59631 	-0.22737 	2.65189e-20 6.59507 	-0.227516 	2.72337e-20 6.59383 	-0.227663 	2.79488e-20 6.59258 	-0.227809 	2.86639e-20 6.59133 	-0.227956 	2.93792e-20 6.59013 	-0.228068 	2.81124e-20 6.58363 	-0.228906 	2.50918e-20 6.57703 	-0.229709 	2.15209e-20 6.57038 	-0.230512 	1.79474e-20 6.5637 	-0.231315 	1.43715e-20 6.55725 	-0.231902 	1.07607e-20 6.55105 	-0.23295 	1.00281e-20 6.54432 	-0.233779 	7.01971e-21 6.53755 	-0.234608 	4.01049e-21 6.53074 	-0.235436 	1.00042e-21 6.52442 	-0.23587 	4.04113e-21 6.51847 	-0.237127 	6.2263e-22 6.51161 	-0.237983 	3.22949e-21 6.50472 	-0.238838 	5.83545e-21 6.49778 	-0.239694 	8.44051e-21 6.49159 	-0.239977 	2.29106e-20 6.48574 	-0.241378 	3.17107e-20 6.47888 	-0.242325 	3.60631e-20 6.47186 	-0.243208 	3.97985e-20 6.46504 	-0.243918 	3.90723e-20 6.45875 	-0.244224 	2.79365e-20 6.45273 	-0.245646 	3.86451e-20 6.44612 	-0.246808 	4.42642e-20 6.43896 	-0.247718 	4.49427e-20 6.43228 	-0.248273 	3.82806e-20 6.42588 	-0.248614 	2.72076e-20 6.41968 	-0.250056 	3.78385e-20 6.4133 	-0.251433 	4.62927e-20 6.406 	-0.252372 	3.98866e-20 6.39946 	-0.252773 	2.25299e-20 6.39293 	-0.253148 	4.65794e-21 6.38657 	-0.254611 	2.10483e-21 6.38015 	-0.256075 	-4.44342e-22 6.3732 	-0.257009 	-6.80801e-21 6.36657 	-0.257418 	-1.60479e-20 6.3599 	-0.257826 	-2.52867e-20 6.35337 	-0.259313 	-1.46006e-20 6.34678 	-0.260799 	-3.90947e-21 6.34035 	-0.261767 	-5.68696e-21 6.33357 	-0.262209 	-1.77628e-20 6.32676 	-0.26265 	-2.98393e-20 6.32007 	-0.26416 	2.81721e-21 6.31331 	-0.26567 	3.54746e-20 6.30732 	-0.26664 	3.37012e-20 6.30045 	-0.267146 	7.55257e-21 6.29349 	-0.26762 	-2.03097e-20 6.28662 	-0.269155 	-1.3192e-20 6.27998 	-0.270503 	-6.91684e-21 6.27384 	-0.271492 	-2.25797e-21 6.26719 	-0.272232 	0 6.26007 	-0.272737 	0 6.25303 	-0.274298 	0 6.24652 	-0.275475 	0 6.2402 	-0.276492 	0 6.23376 	-0.277467 	0 6.22648 	-0.278004 	0 6.21933 	-0.279549 	3.35789e-24 6.21288 	-0.280595 	4.69612e-23 6.20638 	-0.28164 	9.05806e-23 6.19984 	-0.282684 	1.34216e-22 6.19269 	-0.283422 	-1.06508e-21 6.18567 	-0.28479 	7.41002e-21 6.17904 	-0.285864 	9.47703e-22 6.17236 	-0.286937 	-5.52442e-21 6.16563 	-0.28801 	-1.20064e-20 6.15869 	-0.288992 	-2.21389e-20 6.15577 	-0.289534 	-2.00999e-20 6.15296 	-0.28999 	-1.84499e-20 6.15014 	-0.290445 	-1.68003e-20 6.14732 	-0.290901 	-1.51511e-20 6.14455 	-0.291346 	-1.35398e-20 6.14073 	-0.291996 	-1.24869e-20 6.1369 	-0.292647 	-1.14386e-20 6.13305 	-0.293297 	-1.0395e-20 6.12918 	-0.293947 	-9.35608e-21 6.12518 	-0.294516 	1.62707e-21 6.1191 	-0.295737 	1.41344e-20 6.11247 	-0.296872 	2.13906e-20 6.1058 	-0.298006 	2.86604e-20 6.09908 	-0.29914 	3.59438e-20 6.09197 	-0.30006 	1.24285e-20 6.08657 	-0.301451 	8.24565e-22 6.07975 	-0.302615 	-9.38717e-21 6.07288 	-0.303778 	-1.96068e-20 6.06596 	-0.304941 	-2.98343e-20 6.0584 	-0.305765 	-3.99664e-20 6.05337 	-0.307264 	-6.66956e-20 6.0467 	-0.308513 	-7.47448e-20 6.03963 	-0.309706 	-7.86031e-20 6.03226 	-0.310767 	-6.68328e-20 6.02445 	-0.31163 	-3.1196e-20 6.01923 	-0.313148 	-1.67337e-20 6.0133 	-0.314567 	-4.3172e-21 6.00602 	-0.31579 	4.01551e-21 5.99814 	-0.316757 	8.65222e-21 5.99008 	-0.317662 	1.23826e-20 5.98467 	-0.319205 	4.06454e-20 5.9792 	-0.320746 	6.89055e-20 5.97187 	-0.32198 	6.86384e-20 5.96359 	-0.322924 	3.95924e-20 5.95527 	-0.323867 	1.05405e-20 5.94967 	-0.325439 	6.06838e-21 5.94401 	-0.327009 	1.59396e-21 5.93713 	-0.328281 	-5.52463e-21 5.92857 	-0.329239 	-1.412e-20 5.91996 	-0.330197 	-2.27201e-20 5.91414 	-0.331765 	-1.5635e-20 5.9082 	-0.33331 	-9.2389e-21 5.90143 	-0.334581 	-1.07946e-20 5.89301 	-0.335634 	-1.80271e-20 5.88414 	-0.33663 	-2.67186e-20 5.8781 	-0.338209 	-1.96007e-20 5.87155 	-0.339641 	-8.16637e-21 5.86453 	-0.340941 	7.19684e-21 5.85696 	-0.342178 	2.16066e-20 5.84785 	-0.343231 	3.31886e-20 5.84163 	-0.344854 	5.21107e-20 5.83444 	-0.3462 	5.30692e-20 5.82718 	-0.347539 	5.3601e-20 5.81986 	-0.348876 	5.41254e-20 5.81109 	-0.350039 	4.31459e-20 5.80425 	-0.351579 	4.0747e-20 5.79679 	-0.352958 	3.28662e-20 5.78927 	-0.354336 	2.49837e-20 5.78169 	-0.355712 	1.70993e-20 5.77382 	-0.35706 	8.38439e-21 5.77251 	-0.357342 	5.53527e-21 5.77112 	-0.357598 	4.40311e-21 5.76972 	-0.357854 	3.27142e-21 5.76831 	-0.35811 	2.14021e-21 5.76692 	-0.358363 	1.02156e-21 5.76093 	-0.35952 	-3.28723e-21 5.7549 	-0.360676 	-7.58287e-21 5.74883 	-0.361831 	-1.18653e-20 5.74271 	-0.362985 	-1.61345e-20 5.73655 	-0.363914 	-3.14731e-20 5.72959 	-0.365593 	-7.10125e-20 5.72198 	-0.36703 	-7.84414e-20 5.71431 	-0.368466 	-8.59122e-20 5.70658 	-0.369901 	-9.34252e-20 5.69865 	-0.370843 	-3.19872e-20 5.69214 	-0.372816 	3.28407e-20 5.68431 	-0.374317 	5.50333e-20 5.67634 	-0.375785 	7.45269e-20 5.66823 	-0.37706 	7.35391e-20 5.65992 	-0.377964 	3.31269e-20 5.65315 	-0.379968 	7.25631e-20 5.64587 	-0.381807 	1.01498e-19 5.63759 	-0.383307 	1.08799e-19 5.629 	-0.384329 	7.29272e-20 5.62031 	-0.385257 	2.8737e-20 5.61328 	-0.387268 	1.79189e-20 5.60616 	-0.389277 	7.09328e-21 5.59788 	-0.390761 	5.70923e-21 5.58887 	-0.391735 	1.40123e-20 5.57981 	-0.392709 	2.23127e-20 5.57249 	-0.394731 	6.16587e-20 5.56509 	-0.39675 	1.00996e-19 5.55721 	-0.3983 	8.8452e-20 5.54782 	-0.399332 	3.59588e-20 5.53838 	-0.400363 	-1.65627e-20 5.53077 	-0.402406 	-1.92176e-20 5.52289 	-0.404245 	-2.46392e-20 5.51465 	-0.405776 	-3.42109e-20 5.50582 	-0.407147 	-4.49456e-20 5.49597 	-0.408227 	-5.78005e-20 5.48806 	-0.41029 	-9.84391e-20 5.47955 	-0.411882 	-9.87543e-20 5.47094 	-0.413445 	-9.66718e-20 5.46226 	-0.415005 	-9.45811e-20 5.45254 	-0.416284 	-7.80409e-20 5.445 	-0.417951 	-8.85586e-20 5.43709 	-0.419374 	-8.1571e-20 5.42913 	-0.42079