# vtk DataFile Version 2.0
track0
ASCII
DATASET POLYDATA
POINTS 10880 double
-0.0205 0.001 1e-05
-0.0202034 0.00100003 1e-05
-0.0199069 0.00100026 1e-05
-0.0196103 0.00100071 1e-05
-0.0193137 0.00100137 1e-05
-0.0190172 0.00100225 1e-05
-0.0187132 0.00100354 1e-05
-0.0184093 0.0010045 1e-05
-0.0181054 0.00100547 1e-05
-0.0178015 0.00100644 1e-05
-0.0174976 0.00100741 1e-05
-0.0172058 0.00100863 1e-05
-0.016914 0.00100939 1e-05
-0.0166222 0.00101011 1e-05
-0.0163305 0.00101076 1e-05
-0.0160387 0.00101136 1e-05
-0.0157586 0.0010122 1e-05
-0.0154784 0.00101261 1e-05
-0.0151983 0.00101297 1e-05
-0.0149182 0.00101329 1e-05
-0.0146381 0.00101357 1e-05
-0.0143692 0.00101412 1e-05
-0.0141002 0.00101426 1e-05
-0.0138313 0.00101437 1e-05
-0.0135624 0.00101444 1e-05
-0.0132934 0.00101448 1e-05
-0.0130353 0.00101483 1e-05
-0.0127771 0.00101477 1e-05
-0.0125189 0.00101469 1e-05
-0.0122607 0.00101457 1e-05
-0.0120025 0.00101443 1e-05
-0.0117547 0.00101464 1e-05
-0.0115068 0.00101444 1e-05
-0.0112589 0.00101421 1e-05
-0.0110111 0.00101396 1e-05
-0.0107632 0.00101368 1e-05
-0.0105252 0.0010138 1e-05
-0.0102873 0.00101348 1e-05
-0.0100493 0.00101314 1e-05
-0.00981133 0.00101278 1e-05
-0.00957337 0.0010124 1e-05
-0.00934491 0.00101247 1e-05
-0.00911645 0.00101205 1e-05
-0.008888 0.00101162 1e-05
-0.00865954 0.00101116 1e-05
-0.00843108 0.00101069 1e-05
-0.00821175 0.00101072 1e-05
-0.00799242 0.00101022 1e-05
-0.00777309 0.0010097 1e-05
-0.00755376 0.00100917 1e-05
-0.00733443 0.00100861 1e-05
-0.00712387 0.00100862 1e-05
-0.0069133 0.00100804 1e-05
-0.00670273 0.00100744 1e-05
-0.00649217 0.00100683 1e-05
-0.0062816 0.00100619 1e-05
-0.00607944 0.00100619 1e-05
-0.00587729 0.00100554 1e-05
-0.00567514 0.00100486 1e-05
-0.00547299 0.00100417 1e-05
-0.00527083 0.00100345 1e-05
-0.00507675 0.00100345 1e-05
-0.00488268 0.00100272 1e-05
-0.0046886 0.00100197 1e-05
-0.00449452 0.00100119 1e-05
-0.00430044 0.00100039 1e-05
-0.00411412 0.00100038 1e-05
-0.0039278 0.000999577 1e-05
-0.00374148 0.000998744 1e-05
-0.00355516 0.000997886 1e-05
-0.00336883 0.000997001 1e-05
-0.00318995 0.000996983 1e-05
-0.00301107 0.000996088 1e-05
-0.0028322 0.000995165 1e-05
-0.00265332 0.000994211 1e-05
-0.00247443 0.000993227 1e-05
-0.0023027 0.000993188 1e-05
-0.00213097 0.000992189 1e-05
-0.00195924 0.000991156 1e-05
-0.00178751 0.000990088 1e-05
-0.00161577 0.000988983 1e-05
-0.0014509 0.000988908 1e-05
-0.00128603 0.000987783 1e-05
-0.00112117 0.000986609 1e-05
-0.000956302 0.000985387 1e-05
-0.000791418 0.000984114 1e-05
-0.000633135 0.000983953 1e-05
-0.000474857 0.000982621 1e-05
-0.000316579 0.000981233 1e-05
-0.000158302 0.000979789 1e-05
0 0.000978287 1e-05
0.000105677 0.000978102 1e-05
0.00021135 0.000977033 1e-05
0.000317022 0.000975928 1e-05
0.000422693 0.000974788 1e-05
0.000528387 0.00097361 1e-05
0.000634886 0.000973417 1e-05
0.000741379 0.000972208 1e-05
0.000847871 0.000970972 1e-05
0.000954363 0.00096971 1e-05
0.00106088 0.00096842 1e-05
0.00116821 0.000968257 1e-05
0.00127553 0.000966969 1e-05
0.00138285 0.000965657 1e-05
0.00149017 0.000964322 1e-05
0.00159752 0.000963042 1e-05
0.00170568 0.000962914 1e-05
0.00181383 0.000961719 1e-05
0.00192199 0.000960376 1e-05
0.00203014 0.000959012 1e-05
0.00213833 0.000957855 1e-05
0.00224733 0.000957765 1e-05
0.00235633 0.000956703 1e-05
0.00246532 0.000955365 1e-05
0.00257431 0.000954006 1e-05
0.00268334 0.000952973 1e-05
0.00279319 0.000952914 1e-05
0.00290303 0.000951972 1e-05
0.00301288 0.000950653 1e-05
0.00312272 0.000949313 1e-05
0.00323259 0.000948387 1e-05
0.00334329 0.000948345 1e-05
0.00345399 0.000947503 1e-05
0.00356469 0.00094621 1e-05
0.00367538 0.000944895 1e-05
0.00378611 0.000944058 1e-05
0.00389767 0.000944021 1e-05
0.00400923 0.000943259 1e-05
0.00412079 0.000941992 1e-05
0.00423235 0.000940703 1e-05
0.00434393 0.000939938 1e-05
0.00445636 0.000939897 1e-05
0.00456879 0.000939196 1e-05
0.00468122 0.000937953 1e-05
0.00479364 0.000936687 1e-05
0.00490609 0.000935977 1e-05
0.0050194 0.000935921 1e-05
0.0051327 0.000935264 1e-05
0.005246 0.000934038 1e-05
0.0053593 0.00093279 1e-05
0.00547262 0.000932117 1e-05
0.00558681 0.000932037 1e-05
0.00570099 0.000931408 1e-05
0.00581517 0.000930235 1e-05
0.00592936 0.000929053 1e-05
0.00604356 0.000928404 1e-05
0.00615863 0.000928293 1e-05
0.0062737 0.00092768 1e-05
0.00638877 0.000926569 1e-05
0.00650384 0.000925448 1e-05
0.00661893 0.000924812 1e-05
0.0067349 0.000924665 1e-05
0.00685087 0.000924057 1e-05
0.00696683 0.000922994 1e-05
0.0070828 0.00092192 1e-05
0.00719878 0.000921286 1e-05
0.00731565 0.000921098 1e-05
0.00743252 0.000920488 1e-05
0.00754939 0.000919459 1e-05
0.00766625 0.000918419 1e-05
0.00778313 0.000917781 1e-05
0.00790091 0.000917548 1e-05
0.00801869 0.000916927 1e-05
0.00813647 0.000915922 1e-05
0.00825424 0.000914906 1e-05
0.00837203 0.000914255 1e-05
0.00849073 0.000913974 1e-05
0.00860942 0.000913336 1e-05
0.00872811 0.000912346 1e-05
0.00884681 0.000911343 1e-05
0.00896551 0.000910675 1e-05
0.00908513 0.000910342 1e-05
0.00920475 0.000909683 1e-05
0.00932436 0.000908699 1e-05
0.00944398 0.000907702 1e-05
0.0095636 0.00090701 1e-05
0.00968415 0.000906625 1e-05
0.0098047 0.000905938 1e-05
0.00992524 0.000904953 1e-05
0.0100458 0.000903955 1e-05
0.0101663 0.000903236 1e-05
0.0102878 0.000902794 1e-05
0.0104093 0.000902076 1e-05
0.0105308 0.000901087 1e-05
0.0106523 0.000900093 1e-05
0.0107738 0.000899341 1e-05
0.0108962 0.000898843 1e-05
0.0110186 0.00089809 1e-05
0.0111411 0.000897115 1e-05
0.0112635 0.000896135 1e-05
0.0113859 0.000895348 1e-05
0.0115093 0.000894791 1e-05
0.0116327 0.000893999 1e-05
0.0117561 0.00089303 1e-05
0.0118794 0.000892054 1e-05
0.0120028 0.000891228 1e-05
0.0121272 0.000890611 1e-05
0.0122515 0.000889777 1e-05
0.0123759 0.000888804 1e-05
0.0125002 0.000887824 1e-05
0.0126245 0.000886956 1e-05
0.0127498 0.000886277 1e-05
0.0128752 0.000885399 1e-05
0.0130005 0.000884415 1e-05
0.0131258 0.000883423 1e-05
0.0132511 0.00088251 1e-05
0.0133774 0.000881769 1e-05
0.0135036 0.000880844 1e-05
0.0136299 0.000879841 1e-05
0.0137562 0.00087883 1e-05
0.0138825 0.00087787 1e-05
0.0140098 0.000877065 1e-05
0.014137 0.00087609 1e-05
0.0142643 0.000875063 1e-05
0.0143915 0.000874027 1e-05
0.0145188 0.000873017 1e-05
0.0146471 0.000872148 1e-05
0.0147753 0.000871121 1e-05
0.0149036 0.000870063 1e-05
0.0150318 0.000868997 1e-05
0.0151601 0.000867936 1e-05
0.0152893 0.000867 1e-05
0.0154186 0.00086592 1e-05
0.0155478 0.000864826 1e-05
0.0156771 0.000863725 1e-05
0.0158063 0.000862614 1e-05
0.0159366 0.000861612 1e-05
0.0160668 0.000860487 1e-05
0.0161971 0.000859353 1e-05
0.0163273 0.000858211 1e-05
0.0164576 0.000857059 1e-05
0.0165889 0.00085599 1e-05
0.0167201 0.00085482 1e-05
0.0168514 0.000853642 1e-05
0.0169827 0.000852455 1e-05
0.0171139 0.000851259 1e-05
0.0172462 0.000850121 1e-05
0.0173785 0.000848903 1e-05
0.0175108 0.000847677 1e-05
0.0176431 0.000846441 1e-05
0.0177754 0.000845197 1e-05
0.0179087 0.000843988 1e-05
0.018042 0.00084272 1e-05
0.0181753 0.000841442 1e-05
0.0183087 0.000840154 1e-05
0.018442 0.000838857 1e-05
0.0185763 0.000837579 1e-05
0.0187107 0.000836255 1e-05
0.018845 0.000834923 1e-05
0.0189794 0.00083358 1e-05
0.0191137 0.000832228 1e-05
0.0192491 0.000830878 1e-05
0.0193845 0.000829497 1e-05
0.0195199 0.000828106 1e-05
0.0196553 0.000826706 1e-05
0.0197907 0.000825295 1e-05
0.0199149 0.000824001 1e-05
0.0200391 0.000822691 1e-05
0.0201633 0.000821372 1e-05
0.0202875 0.000820044 1e-05
0.0204053 0.000818777 1e-05
0.0204188 0.00081863 1e-05
0.0204323 0.000818483 1e-05
0.0204459 0.000818337 1e-05
0.0204594 0.00081819 1e-05
0.020473 0.000818043 1e-05
0.0206105 0.000816548 1e-05
0.020748 0.000815044 1e-05
0.0208855 0.00081353 1e-05
0.021023 0.000812005 1e-05
0.0211606 0.00081047 1e-05
0.0212991 0.000808903 1e-05
0.0214377 0.000807334 1e-05
0.0215763 0.000805754 1e-05
0.0217149 0.000804164 1e-05
0.0218535 0.000802562 1e-05
0.0219931 0.000800923 1e-05
0.0221328 0.000799286 1e-05
0.0222724 0.000797638 1e-05
0.0224121 0.000795979 1e-05
0.0225517 0.000794309 1e-05
0.0226925 0.000792596 1e-05
0.0228332 0.000790889 1e-05
0.022974 0.00078917 1e-05
0.0231147 0.00078744 1e-05
0.0232555 0.000785698 1e-05
0.0233973 0.000783909 1e-05
0.0235391 0.000782127 1e-05
0.023681 0.000780334 1e-05
0.0238228 0.000778529 1e-05
0.0239647 0.000776711 1e-05
0.0241076 0.000774844 1e-05
0.0242505 0.000772987 1e-05
0.0243935 0.000771118 1e-05
0.0245364 0.000769237 1e-05
0.0246794 0.000767344 1e-05
0.0248234 0.000765401 1e-05
0.0249675 0.000763469 1e-05
0.0251115 0.000761524 1e-05
0.0252556 0.000759568 1e-05
0.0253996 0.000757596 1e-05
0.0255448 0.000755573 1e-05
0.02569 0.000753557 1e-05
0.0258351 0.000751532 1e-05
0.0259803 0.000749493 1e-05
0.0261255 0.000747435 1e-05
0.0262718 0.000745328 1e-05
0.0264181 0.000743225 1e-05
0.0265644 0.000741113 1e-05
0.0267107 0.000738987 1e-05
0.026857 0.00073684 1e-05
0.0270044 0.000734647 1e-05
0.0271519 0.000732453 1e-05
0.0272993 0.000730253 1e-05
0.0274468 0.000728038 1e-05
0.0275942 0.000725802 1e-05
0.0277428 0.000723521 1e-05
0.0278914 0.000721237 1e-05
0.0280399 0.000718947 1e-05
0.0281885 0.000716642 1e-05
0.0283371 0.000714315 1e-05
0.0284869 0.000711946 1e-05
0.0286366 0.000709572 1e-05
0.0287863 0.00070719 1e-05
0.0289361 0.000704794 1e-05
0.0290858 0.000702377 1e-05
0.0292367 0.00069992 1e-05
0.0293876 0.000697454 1e-05
0.0295385 0.00069498 1e-05
0.0296894 0.000692491 1e-05
0.0298403 0.000689983 1e-05
0.0299924 0.000687436 1e-05
0.0301445 0.000684878 1e-05
0.0302966 0.00068231 1e-05
0.0304486 0.000679727 1e-05
0.0306007 0.000677127 1e-05
0.030754 0.000674489 1e-05
0.0309072 0.000671838 1e-05
0.0310605 0.000669174 1e-05
0.0312138 0.000666495 1e-05
0.031367 0.000663802 1e-05
0.0315215 0.000661071 1e-05
0.0316759 0.000658325 1e-05
0.0318304 0.000655564 1e-05
0.0319848 0.000652788 1e-05
0.0321393 0.000649998 1e-05
0.0322949 0.000647172 1e-05
0.0324506 0.000644329 1e-05
0.0326062 0.000641468 1e-05
0.0327619 0.000638594 1e-05
0.0329175 0.000635705 1e-05
[...]
POINT_DATA 10880
 FIELD attributes 2
p 1 10880 float
-4.29892 -4.34901 -4.40905 -4.46966 -4.53083 -4.65611 -4.72934 -4.80926 -4.88919 -4.96912 -5.05424 -5.05837 -5.07883 -5.09924 -5.11959 -5.15166 -5.14093 -5.14995 -5.1589 -5.16779 -5.19296 -5.1889 -5.20202 -5.21508 -5.22808 -5.25716 -5.2525 -5.26413 -5.27572 -5.28725 -5.3155 -5.30815 -5.31773 -5.32727 -5.33677 -5.3648 -5.35582 -5.36511 -5.37437 -5.38359 -5.41365 -5.40279 -5.41213 -5.42144 -5.43071 -5.46357 -5.44997 -5.45917 -5.46832 -5.47745 -5.51345 -5.49661 -5.50575 -5.51486 -5.52393 -5.56375 -5.54345 -5.55291 -5.56233 -5.57172 -5.61631 -5.59233 -5.60232 -5.61227 -5.62218 -5.67221 -5.64402 -5.65463 -5.6652 -5.67571 -5.73199 -5.69915 -5.71037 -5.72154 -5.73266 -5.79578 -5.75726 -5.76892 -5.78053 -5.79206 -5.86305 -5.81766 -5.82896 -5.84018 -5.85131 -5.93083 -5.86893 -5.87138 -5.87373 -5.87598 -5.95486 -5.8434 -5.83404 -5.8246 -5.81507 -5.92491 -5.7992 -5.79166 -5.78406 -5.77639 -5.90255 -5.7927 -5.79036 -5.78799 -5.79357 -5.90854 -5.82254 -5.81117 -5.81009 -5.82858 -5.92026 -5.85413 -5.83658 -5.83704 -5.86455 -5.94252 -5.89387 -5.87556 -5.8788 -5.91295 -5.98029 -5.94333 -5.92509 -5.93021 -5.96828 -6.02727 -5.99796 -5.97973 -5.98628 -6.02742 -6.08087 -6.05715 -6.03906 -6.04697 -6.09087 -6.14055 -6.1208 -6.10249 -6.11149 -6.15766 -6.20445 -6.18739 -6.1704 -6.18156 -6.22609 -6.27052 -6.25537 -6.24031 -6.25247 -6.29511 -6.33763 -6.32392 -6.31033 -6.32315 -6.36413 -6.40497 -6.39237 -6.37992 -6.39315 -6.43261 -6.47192 -6.4603 -6.44883 -6.46228 -6.50032 -6.53821 -6.52745 -6.51684 -6.53036 -6.56706 -6.60361 -6.59362 -6.58379 -6.59726 -6.63265 -6.66788 -6.65869 -6.64964 -6.66298 -6.69701 -6.73091 -6.72251 -6.71453 -6.72816 -6.76005 -6.79261 -6.785 -6.78016 -6.79331 -6.82169 -6.85292 -6.8461 -6.84412 -6.85683 -6.88196 -6.9119 -6.90587 -6.90651 -6.91884 -6.94095 -6.96965 -6.96443 -6.96746 -6.97943 -6.99874 -7.02623 -7.02178 -7.02695 -7.0386 -7.05535 -7.08167 -7.07797 -7.08506 -7.09641 -7.11082 -7.13603 -7.13308 -7.1419 -7.15297 -7.16525 -7.18937 -7.18715 -7.19747 -7.20829 -7.21911 -7.24169 -7.24123 -7.2518 -7.26238 -7.27297 -7.29304 -7.29461 -7.30497 -7.31535 -7.32573 -7.34352 -7.34691 -7.35709 -7.36728 -7.37747 -7.39321 -7.3982 -7.40821 -7.41823 -7.42826 -7.44215 -7.44855 -7.45842 -7.4683 -7.47818 -7.49042 -7.49807 -7.50781 -7.51756 -7.52732 -7.53812 -7.54598 -7.55475 -7.56353 -7.57231 -7.58065 -7.58161 -7.58258 -7.58355 -7.58452 -7.58545 -7.59509 -7.60473 -7.61437 -7.62401 -7.63322 -7.64305 -7.65262 -7.6622 -7.67179 -7.68043 -7.69057 -7.70009 -7.70962 -7.71916 -7.72716 -7.73772 -7.7472 -7.75668 -7.76617 -7.77344 -7.78445 -7.79383 -7.80321 -7.81261 -7.81905 -7.83062 -7.83975 -7.8489 -7.85805 -7.86326 -7.87505 -7.88396 -7.89287 -7.90134 -7.90584 -7.91744 -7.92659 -7.93521 -7.94256 -7.94639 -7.95771 -7.96699 -7.97513 -7.98112 -7.98431 -7.99532 -8.00481 -8.01253 -8.01727 -8.02007 -8.0309 -8.04082 -8.04828 -8.05193 -8.05451 -8.06527 -8.07574 -8.08303 -8.08569 -8.08813 -8.09883 -8.10954 -8.11646 -8.1188 -8.12116 -8.13182 -8.14249 -8.14916 -8.15145 -8.15375 -8.16438 -8.17501 -8.18148 -8.18374 -8.18601 -8.1966 -8.20721 -8.2135 -8.21574 -8.21798 -8.22853 -8.23909 -8.24524 -8.24745 -8.24967 -8.26017 -8.27034 -8.27623 -8.27887 -8.28107 -8.2915 -8.30071 -8.30657 -8.30998 -8.31215 -8.32249 -8.33072 -8.33655 -8.34072 -8.34286 -8.35311 -8.36035 -8.36612 -8.37107 -8.37316 -8.3833 -8.38955 -8.39526 -8.40097 -8.40301 -8.41266 -8.41828 -8.4239 -8.42954 -8.43235 -8.44094 -8.44646 -8.452 -8.45753 -8.46112 -8.46864 -8.47406 -8.47948 -8.4849 -8.48926 -8.4957 -8.50098 -8.50628 -8.51158 -8.51668 -8.51809 -8.51928 -8.52047 -8.52166 -8.52284 -8.52685 -8.53086 -8.53487 -8.53889 -8.54184 -8.54791 -8.55296 -8.55801 -8.56308 -8.56569 -8.57291 -8.57778 -8.58265 -8.58753 -8.58861 -8.59693 -8.60159 -8.60626 -8.61094 -8.61046 -8.61986 -8.6243 -8.62874 -8.63232 -8.63114 -8.64021 -8.64577 -8.64996 -8.65189 -8.65052 -8.65925 -8.6659 -8.66981 -8.67007 -8.66848 -8.67685 -8.68456 -8.68818 -8.68675 -8.68492 -8.6929 -8.7009 -8.7039 -8.7018 -8.6997 -8.70728 -8.71488 -8.71751 -8.71511 -8.71271 -8.71988 -8.72706 -8.7293 -8.72657 -8.72386 -8.73058 -8.73719 -8.7387 -8.73608 -8.73301 -8.73928 -8.74393 -8.74502 -8.7435 -8.74007 -8.74587 -8.74853 -8.74918 -8.74874 -8.74491 -8.75022 -8.75086 -8.75104 -8.75123 -8.74742 -8.75113 -8.75081 -8.75049 -8.75019 -8.74748 -8.74907 -8.74823 -8.7474 -8.74658 -8.74495 -8.74507 -8.74436 -8.74366 -8.74296 -8.74228 -8.74166 -8.74105 -8.74044 -8.73983 -8.73849 -8.73738 -8.73555 -8.73373 -8.73193 -8.72793 -8.72769 -8.72528 -8.72288 -8.72049 -8.71443 -8.71503 -8.712 -8.70899 -8.70508 -8.69783 -8.69773 -8.69556 -8.69191 -8.68583 -8.67798 -8.67715 -8.67581 -8.67148 -8.66321 -8.65472 -8.65313 -8.65155 -8.6462 -8.63705 -8.62791 -8.62552 -8.62315 -8.61706 -8.60723 -8.59739 -8.5942 -8.59055 -8.58336 -8.5736 -8.56306 -8.55903 -8.55294 -8.54496 -8.53606 -8.5248 -8.51993 -8.51138 -8.50259 -8.49381 -8.48254 -8.47541 -8.4658 -8.4562 -8.4466 -8.43621 -8.43198 -8.42693 -8.42188 -8.41684 -8.41194 -8.40652 -8.40111 -8.3957 -8.39029 -8.38394 -8.37359 -8.36232 -8.35106 -8.33981 -8.3258 -8.31643 -8.30433 -8.29225 -8.27981 -8.26352 -8.25401 -8.24217 -8.22925 -8.21412 -8.19705 -8.18662 -8.17578 -8.16201 -8.14418 -8.12631 -8.11494 -8.10359 -8.08858 -8.06987 -8.05118 -8.03885 -8.02654 -8.01052 -7.99106 -7.9715 -7.95817 -7.94323 -7.92595 -7.90752 -7.88706 -7.87269 -7.85476 -7.83648 -7.81821 -7.7976 -7.78053 -7.76117 -7.74182 -7.72248 -7.70285 -7.70017 -7.6972 -7.69423 -7.69127 -7.68832 -7.67083 -7.65335 -7.63587 -7.61841 -7.59954 -7.57936 -7.55774 -7.53614 -7.51454 -7.48987 -7.46966 -7.44735 -7.42452 -7.40017 -7.37409 -7.35259 -7.33079 -7.3067 -7.27941 -7.25213 -7.22937 -7.20662 -7.18097 -7.15238 -7.12379 -7.09965 -7.07513 -7.04776 -7.01866 -6.98878 -6.96328 -6.93553 -6.9068 -6.87808 -6.84701 -6.81922 -6.78914 -6.75907 -6.72901 -6.69856 -6.69271 -6.68648 -6.68025 -6.67401 -6.66785 -6.64274 -6.61763 -6.59253 -6.56744 -6.54038 -6.50972 -6.47709 -6.44448 -6.41158 -6.37491 -6.3441 -6.31149 -6.27761 -6.24101 -6.20314 -6.17097 -6.13881 -6.10323 -6.06422 -6.02521 -5.99172 -5.95825 -5.92122 -5.88142 -5.84132 -5.80659 -5.76967 -5.73126 -5.69282 -5.65167 -5.6148 -5.57526 -5.53573 -5.49622 -5.45643 -5.45247 -5.44825 -5.44404 -5.43982 -5.43563 -5.3993 -5.36298 -5.32666 -5.29036 -5.25236 -5.2125 -5.17095 -5.1294 -5.08711 -5.04275 -5.00225 -4.96123 -4.91871 -4.87354 -4.82823 -4.78673 -4.74525 -4.70142 -4.65523 -4.60902 -4.56659 -4.52322 -4.47811 -4.43243 -4.38539 -4.34188 -4.29593 -4.24999 -4.20405 -4.15758 -4.14564 -4.13319 -4.12073 -4.10828 -4.09597 -4.06171 -4.02745 -3.99319 -3.95894 -3.92291 -3.87725 -3.82986 -3.78246 -3.73425 -3.6836 -3.6378 -3.5915 -3.54345 -3.49227 -3.44105 -3.39457 -3.34809 -3.29902 -3.24733 -3.19562 -3.14852 -3.09993 -3.0499 -2.99977 -2.94763 -2.903 -2.85633 -2.80966 -2.76299 -2.71794 -2.7138 -2.70967 -2.70554 -2.7014 -2.69714 -2.64642 -2.59557 -2.54473 -2.49389 -2.44132 -2.39164 -2.34078 -2.28961 -2.23721 -2.18401 -2.13404 -2.08407 -2.03237 -1.97896 -1.92552 -1.87532 -1.8247 -1.77255 -1.71977 -1.66613 -1.61566 -1.56332 -1.51099 -1.45866 -1.40601 -1.39811 -1.38996 -1.3818 -1.37364 -1.36554 -1.32118 -1.27682 -1.23246 -1.1881 -1.14193 -1.09117 -1.03857 -0.985908 -0.931907 -0.876662 -0.825704 -0.774748 -0.721538 -0.666153 -0.61073 -0.559537 -0.507738 -0.453997 -0.399571 -0.343894 -0.292649 -0.239131 -0.185615 -0.1321 -0.0813448 -0.0802229 -0.0791009 -0.0779789 -0.076857 -0.0757034 -0.0212967 0.0331477 0.087589 0.142027 0.198207 0.251696 0.30605 0.361049 0.417692 0.47476 0.528899 0.583034 0.638964 0.696894 0.754904 0.809917 0.866654 0.924078 0.981502 1.03987 1.05676 1.07445 1.09214 1.10982 1.12709 1.16808 1.20907 1.25005 1.29104 1.33452 1.39219 1.4519 1.51198 1.57467 1.63859 1.69812 1.75765 1.82024 1.88604 1.95201 2.01365 2.07861 2.14427 2.20993 2.27603 2.27915 2.28244 2.28577 2.28909 2.2924 2.35654 2.42067 2.4848 2.5493 2.61673 2.68475 2.75279 2.82353 2.89691 2.97055 3.04127 3.11351 3.18776 3.26202 3.33783 3.35679 3.37642 3.39629 3.41617 3.43554 3.49221 3.54889 3.60557 3.66316 3.72362 3.80018 3.87693 3.95692 4.04056 4.1246 4.20393 4.28581 4.36969 4.45358 4.53818 4.54178 4.54549 4.54927 4.55305 4.55682 4.63864 4.72046 4.80228 4.88505 4.96942 5.05604 5.14267 5.23091 5.31995 5.40978 5.44642 5.48333 5.52057 5.55781 5.59398 5.64662 5.69926 5.7519 5.80566 5.86049 5.94964 6.0388 6.13009 6.2235 6.31728 6.36765 6.41856 6.47037 6.52218 6.57274 6.61361 6.65449 6.69537 6.73592 6.77635 6.86903 6.96172 7.05347 7.14417 7.23514 7.28759 7.33969 7.39101 7.44233 7.493 7.53217 7.57134 7.6105 7.65049 7.69087 7.77937 7.86786 7.95805 8.04984 8.14162 8.1864 8.23151 8.27737 8.32323 8.3694 8.41287 8.45634 8.4998 8.54136 8.5821 8.67155 8.76101 8.84663 8.92844 9.01011 9.04953 9.0881 9.12474 9.16138 9.19856 9.24323 9.2879 9.33255 9.37885 9.42579 9.50333 9.58079 9.66112 9.74437 9.82711 9.86152 9.89659 9.93291 9.96921 10.007 10.0494 10.0918 10.1342 10.1727 10.2089 10.289 10.3692 10.4416 10.5062 10.5704 10.6168 10.66 10.6994 10.7387 10.7803 10.8058 10.8314 10.8569 10.8844 10.9136 10.9721 11.0328 11.0959 11.1681 11.2395 11.294 11.3531 11.4169 11.4807 11.5451 11.5498 11.555 11.5606 11.5661 11.5718 11.6275 11.6832 11.7388 11.7881 11.826 11.8921 11.9583 12.0105 12.0488 12.0869 12.1492 12.197 12.2409 12.2848 12.328 12.3298 12.3311 12.3324 12.3337 12.3349 12.3753 12.4156 12.4559 12.4975 12.5557 12.5828 12.6125 12.6515 12.7088 12.7657 12.7896 12.8131 12.854 12.9057 12.9596 12.9803 13.0163 13.0555 13.0947 13.1402 13.1487 13.1634 13.1781 13.1928 13.2096 13.2314 13.2532 13.275 13.2968 13.3052 13.3527 13.3881 13.4233 13.4514 13.4602 13.5127 13.5616 13.5943 13.5991 13.6035 13.6519 13.7004 13.7297 13.7389 13.7476 13.8006 13.8448 13.8669 13.8766 13.8725 13.9131 13.9411 13.965 13.9886 13.996 14.0374 14.0406 14.0439 14.0474 14.0517 14.0535 14.0553 14.0571 14.0589 14.0619 14.0471 14.0368 14.0266 14.0164 14.0367 14.0044 13.9915 13.9841 13.9939 14.0195 13.9892 13.958 13.9503 13.9665 13.9835 13.9452 13.9062 13.891 13.9002 13.91 13.8649 13.8254 13.8064 13.801 13.8046 13.7535 13.7213 13.696 13.6708 13.6664 13.6138 13.5808 13.5479 13.515 13.4886 13.4643 13.4462 13.4282 13.4102 13.3882 13.3657 13.3433 13.3209 13.2986 13.265 13.2248 13.1743 13.1238 13.0734 12.9896 12.9547 12.8975 12.836 12.7543 12.6545 12.6058 12.5572 12.4781 12.365 12.2511 12.1875 12.1251 12.0293 11.8999 11.7698 11.6894 11.6021 11.4847 11.3512 11.2045 11.1074 10.9862 10.8528 10.7178 10.5543 10.439 10.2923 10.1456 9.99911 9.83199 9.69683 9.53973 9.38272 9.22578 9.05352 8.90627 8.74567 8.58511 8.42458 8.25344 8.10252 7.93597 7.76948 7.60304 7.42239 7.26537 7.10066 6.93595 6.77123 6.59882 6.43917 6.25012 6.06117 5.8723 5.65456 5.46252 5.27947 5.09643 4.91341 4.73869 4.55012 4.26677 3.98407 3.70194 3.33779 3.01933 2.81233 2.60663 2.40205 2.29517 2.09015 1.60017 1.10833 0.614913 0