# vtk DataFile Version 2.0
track0
ASCII
DATASET POLYDATA
POINTS 10880 double
-0.0205 0.001 1e-05
-0.0202034 0.00100003 1e-05
-0.0199069 0.00100026 1e-05
-0.0196103 0.00100071 1e-05
-0.0193137 0.00100137 1e-05
-0.0190172 0.00100225 1e-05
-0.0187132 0.00100354 1e-05
-0.0184093 0.0010045 1e-05
-0.0181054 0.00100547 1e-05
-0.0178015 0.00100644 1e-05
-0.0174976 0.00100741 1e-05
-0.0172058 0.00100863 1e-05
-0.016914 0.00100939 1e-05
-0.0166222 0.00101011 1e-05
-0.0163305 0.00101076 1e-05
-0.0160387 0.00101136 1e-05
-0.0157586 0.0010122 1e-05
-0.0154784 0.00101261 1e-05
-0.0151983 0.00101297 1e-05
-0.0149182 0.00101329 1e-05
-0.0146381 0.00101357 1e-05
-0.0143692 0.00101412 1e-05
-0.0141002 0.00101426 1e-05
-0.0138313 0.00101437 1e-05
-0.0135624 0.00101444 1e-05
-0.0132934 0.00101448 1e-05
-0.0130353 0.00101483 1e-05
-0.0127771 0.00101477 1e-05
-0.0125189 0.00101469 1e-05
-0.0122607 0.00101457 1e-05
-0.0120025 0.00101443 1e-05
-0.0117547 0.00101464 1e-05
-0.0115068 0.00101444 1e-05
-0.0112589 0.00101421 1e-05
-0.0110111 0.00101396 1e-05
-0.0107632 0.00101368 1e-05
-0.0105252 0.0010138 1e-05
-0.0102873 0.00101348 1e-05
-0.0100493 0.00101314 1e-05
-0.00981133 0.00101278 1e-05
-0.00957337 0.0010124 1e-05
-0.00934491 0.00101247 1e-05
-0.00911645 0.00101205 1e-05
-0.008888 0.00101162 1e-05
-0.00865954 0.00101116 1e-05
-0.00843108 0.00101069 1e-05
-0.00821175 0.00101072 1e-05
-0.00799242 0.00101022 1e-05
-0.00777309 0.0010097 1e-05
-0.00755376 0.00100917 1e-05
-0.00733443 0.00100861 1e-05
-0.00712387 0.00100862 1e-05
-0.0069133 0.00100804 1e-05
-0.00670273 0.00100744 1e-05
-0.00649217 0.00100683 1e-05
-0.0062816 0.00100619 1e-05
-0.00607944 0.00100619 1e-05
-0.00587729 0.00100554 1e-05
-0.00567514 0.00100486 1e-05
-0.00547299 0.00100417 1e-05
-0.00527083 0.00100345 1e-05
-0.00507675 0.00100345 1e-05
-0.00488268 0.00100272 1e-05
-0.0046886 0.00100197 1e-05
-0.00449452 0.00100119 1e-05
-0.00430044 0.00100039 1e-05
-0.00411412 0.00100038 1e-05
-0.0039278 0.000999577 1e-05
-0.00374148 0.000998744 1e-05
-0.00355516 0.000997886 1e-05
-0.00336883 0.000997001 1e-05
-0.00318995 0.000996983 1e-05
-0.00301107 0.000996088 1e-05
-0.0028322 0.000995165 1e-05
-0.00265332 0.000994211 1e-05
-0.00247443 0.000993227 1e-05
-0.0023027 0.000993188 1e-05
-0.00213097 0.000992189 1e-05
-0.00195924 0.000991156 1e-05
-0.00178751 0.000990088 1e-05
-0.00161577 0.000988983 1e-05
-0.0014509 0.000988908 1e-05
-0.00128603 0.000987783 1e-05
-0.00112117 0.000986609 1e-05
-0.000956302 0.000985387 1e-05
-0.000791418 0.000984114 1e-05
-0.000633135 0.000983953 1e-05
-0.000474857 0.000982621 1e-05
-0.000316579 0.000981233 1e-05
-0.000158302 0.000979789 1e-05
0 0.000978287 1e-05
0.000105677 0.000978102 1e-05
0.00021135 0.000977033 1e-05
0.000317022 0.000975928 1e-05
0.000422693 0.000974788 1e-05
0.000528387 0.00097361 1e-05
0.000634886 0.000973417 1e-05
0.000741379 0.000972208 1e-05
0.000847871 0.000970972 1e-05
0.000954363 0.00096971 1e-05
0.00106088 0.00096842 1e-05
0.00116821 0.000968257 1e-05
0.00127553 0.000966969 1e-05
0.00138285 0.000965657 1e-05
0.00149017 0.000964322 1e-05
0.00159752 0.000963042 1e-05
0.00170568 0.000962914 1e-05
0.00181383 0.000961719 1e-05
0.00192199 0.000960376 1e-05
0.00203014 0.000959012 1e-05
0.00213833 0.000957855 1e-05
0.00224733 0.000957765 1e-05
0.00235633 0.000956703 1e-05
0.00246532 0.000955365 1e-05
0.00257431 0.000954006 1e-05
0.00268334 0.000952973 1e-05
0.00279319 0.000952914 1e-05
0.00290303 0.000951972 1e-05
0.00301288 0.000950653 1e-05
0.00312272 0.000949313 1e-05
0.00323259 0.000948387 1e-05
0.00334329 0.000948345 1e-05
0.00345399 0.000947503 1e-05
0.00356469 0.00094621 1e-05
0.00367538 0.000944895 1e-05
0.00378611 0.000944058 1e-05
0.00389767 0.000944021 1e-05
0.00400923 0.000943259 1e-05
0.00412079 0.000941992 1e-05
0.00423235 0.000940703 1e-05
0.00434393 0.000939938 1e-05
0.00445636 0.000939897 1e-05
0.00456879 0.000939196 1e-05
0.00468122 0.000937953 1e-05
0.00479364 0.000936687 1e-05
0.00490609 0.000935977 1e-05
0.0050194 0.000935921 1e-05
0.0051327 0.000935264 1e-05
0.005246 0.000934038 1e-05
0.0053593 0.00093279 1e-05
0.00547262 0.000932117 1e-05
0.00558681 0.000932037 1e-05
0.00570099 0.000931408 1e-05
0.00581517 0.000930235 1e-05
0.00592936 0.000929053 1e-05
0.00604356 0.000928404 1e-05
0.00615863 0.000928293 1e-05
0.0062737 0.00092768 1e-05
0.00638877 0.000926569 1e-05
0.00650384 0.000925448 1e-05
0.00661893 0.000924812 1e-05
0.0067349 0.000924665 1e-05
0.00685087 0.000924057 1e-05
0.00696683 0.000922994 1e-05
0.0070828 0.00092192 1e-05
0.00719878 0.000921286 1e-05
0.00731565 0.000921098 1e-05
0.00743252 0.000920488 1e-05
0.00754939 0.000919459 1e-05
0.00766625 0.000918419 1e-05
0.00778313 0.000917781 1e-05
0.00790091 0.000917548 1e-05
0.00801869 0.000916927 1e-05
0.00813647 0.000915922 1e-05
0.00825424 0.000914906 1e-05
0.00837203 0.000914255 1e-05
0.00849073 0.000913974 1e-05
0.00860942 0.000913336 1e-05
0.00872811 0.000912346 1e-05
0.00884681 0.000911343 1e-05
0.00896551 0.000910675 1e-05
0.00908513 0.000910342 1e-05
0.00920475 0.000909683 1e-05
0.00932436 0.000908699 1e-05
0.00944398 0.000907702 1e-05
0.0095636 0.00090701 1e-05
0.00968415 0.000906625 1e-05
0.0098047 0.000905938 1e-05
0.00992524 0.000904953 1e-05
0.0100458 0.000903955 1e-05
0.0101663 0.000903236 1e-05
0.0102878 0.000902794 1e-05
0.0104093 0.000902076 1e-05
0.0105308 0.000901087 1e-05
0.0106523 0.000900093 1e-05
0.0107738 0.000899341 1e-05
0.0108962 0.000898843 1e-05
0.0110186 0.00089809 1e-05
0.0111411 0.000897115 1e-05
0.0112635 0.000896135 1e-05
0.0113859 0.000895348 1e-05
0.0115093 0.000894791 1e-05
0.0116327 0.000893999 1e-05
0.0117561 0.00089303 1e-05
0.0118794 0.000892054 1e-05
0.0120028 0.000891228 1e-05
0.0121272 0.000890611 1e-05
0.0122515 0.000889777 1e-05
0.0123759 0.000888804 1e-05
0.0125002 0.000887824 1e-05
0.0126245 0.000886956 1e-05
0.0127498 0.000886277 1e-05
0.0128752 0.000885399 1e-05
0.0130005 0.000884415 1e-05
0.0131258 0.000883423 1e-05
0.0132511 0.00088251 1e-05
0.0133774 0.000881769 1e-05
0.0135036 0.000880844 1e-05
0.0136299 0.000879841 1e-05
0.0137562 0.00087883 1e-05
0.0138825 0.00087787 1e-05
0.0140098 0.000877065 1e-05
0.014137 0.00087609 1e-05
0.0142643 0.000875063 1e-05
0.0143915 0.000874027 1e-05
0.0145188 0.000873017 1e-05
0.0146471 0.000872148 1e-05
0.0147753 0.000871121 1e-05
0.0149036 0.000870063 1e-05
0.0150318 0.000868997 1e-05
0.0151601 0.000867936 1e-05
0.0152893 0.000867 1e-05
0.0154186 0.00086592 1e-05
0.0155478 0.000864826 1e-05
0.0156771 0.000863725 1e-05
0.0158063 0.000862614 1e-05
0.0159366 0.000861612 1e-05
0.0160668 0.000860487 1e-05
0.0161971 0.000859353 1e-05
0.0163273 0.000858211 1e-05
0.0164576 0.000857059 1e-05
0.0165889 0.00085599 1e-05
0.0167201 0.00085482 1e-05
0.0168514 0.000853642 1e-05
0.0169827 0.000852455 1e-05
0.0171139 0.000851259 1e-05
0.0172462 0.000850121 1e-05
0.0173785 0.000848903 1e-05
0.0175108 0.000847677 1e-05
0.0176431 0.000846441 1e-05
0.0177754 0.000845197 1e-05
0.0179087 0.000843988 1e-05
0.018042 0.00084272 1e-05
0.0181753 0.000841442 1e-05
0.0183087 0.000840154 1e-05
0.018442 0.000838857 1e-05
0.0185763 0.000837579 1e-05
0.0187107 0.000836255 1e-05
0.018845 0.000834923 1e-05
0.0189794 0.00083358 1e-05
0.0191137 0.000832228 1e-05
0.0192491 0.000830878 1e-05
0.0193845 0.000829497 1e-05
0.0195199 0.000828106 1e-05
0.0196553 0.000826706 1e-05
0.0197907 0.000825295 1e-05
0.0199149 0.000824001 1e-05
0.0200391 0.000822691 1e-05
0.0201633 0.000821372 1e-05
0.0202875 0.000820044 1e-05
0.0204053 0.000818777 1e-05
0.0204188 0.00081863 1e-05
0.0204323 0.000818483 1e-05
0.0204459 0.000818337 1e-05
0.0204594 0.00081819 1e-05
0.020473 0.000818043 1e-05
0.0206105 0.000816548 1e-05
0.020748 0.000815044 1e-05
0.0208855 0.00081353 1e-05
0.021023 0.000812005 1e-05
0.0211606 0.00081047 1e-05
0.0212991 0.000808903 1e-05
0.0214377 0.000807334 1e-05
0.0215763 0.000805754 1e-05
0.0217149 0.000804164 1e-05
0.0218535 0.000802562 1e-05
0.0219931 0.000800923 1e-05
0.0221328 0.000799286 1e-05
0.0222724 0.000797638 1e-05
0.0224121 0.000795979 1e-05
0.0225517 0.000794309 1e-05
0.0226925 0.000792596 1e-05
0.0228332 0.000790889 1e-05
0.022974 0.00078917 1e-05
0.0231147 0.00078744 1e-05
0.0232555 0.000785698 1e-05
0.0233973 0.000783909 1e-05
0.0235391 0.000782127 1e-05
0.023681 0.000780334 1e-05
0.0238228 0.000778529 1e-05
0.0239647 0.000776711 1e-05
0.0241076 0.000774844 1e-05
0.0242505 0.000772987 1e-05
0.0243935 0.000771118 1e-05
0.0245364 0.000769237 1e-05
0.0246794 0.000767344 1e-05
0.0248234 0.000765401 1e-05
0.0249675 0.000763469 1e-05
0.0251115 0.000761524 1e-05
0.0252556 0.000759568 1e-05
0.0253996 0.000757596 1e-05
0.0255448 0.000755573 1e-05
0.02569 0.000753557 1e-05
0.0258351 0.000751532 1e-05
0.0259803 0.000749493 1e-05
0.0261255 0.000747435 1e-05
0.0262718 0.000745328 1e-05
0.0264181 0.000743225 1e-05
0.0265644 0.000741113 1e-05
0.0267107 0.000738987 1e-05
0.026857 0.00073684 1e-05
0.0270044 0.000734647 1e-05
0.0271519 0.000732453 1e-05
0.0272993 0.000730253 1e-05
0.0274468 0.000728038 1e-05
0.0275942 0.000725802 1e-05
0.0277428 0.000723521 1e-05
0.0278914 0.000721237 1e-05
0.0280399 0.000718947 1e-05
0.0281885 0.000716642 1e-05
0.0283371 0.000714315 1e-05
0.0284869 0.000711946 1e-05
0.0286366 0.000709572 1e-05
0.0287863 0.00070719 1e-05
0.0289361 0.000704794 1e-05
0.0290858 0.000702377 1e-05
0.0292367 0.00069992 1e-05
0.0293876 0.000697454 1e-05
0.0295385 0.00069498 1e-05
0.0296894 0.000692491 1e-05
0.0298403 0.000689983 1e-05
0.0299924 0.000687436 1e-05
0.0301445 0.000684878 1e-05
0.0302966 0.00068231 1e-05
0.0304486 0.000679727 1e-05
0.0306007 0.000677127 1e-05
0.030754 0.000674489 1e-05
0.0309072 0.000671838 1e-05
0.0310605 0.000669174 1e-05
0.0312138 0.000666495 1e-05
0.031367 0.000663802 1e-05
0.0315215 0.000661071 1e-05
0.0316759 0.000658325 1e-05
0.0318304 0.000655564 1e-05
0.0319848 0.000652788 1e-05
0.0321393 0.000649998 1e-05
0.0322949 0.000647172 1e-05
0.0324506 0.000644329 1e-05
0.0326062 0.000641468 1e-05
0.0327619 0.000638594 1e-05
0.0329175 0.000635705 1e-05
[...]
POINT_DATA 10880
 FIELD attributes 1
U 3 10880 float
10.0021 	0.000980438 	0 10.0076 	0.00792882 	0 10.013 	0.0151188 	0 10.0184 	0.0223219 	0 10.0239 	0.0295383 	0 10.0305 	0.0425892 	0 10.0339 	0.031923 	0 10.0371 	0.0319431 	0 10.0402 	0.0319632 	0 10.0434 	0.0319835 	0 10.0462 	0.0419996 	0 10.0441 	0.0264489 	0 10.0431 	0.0244947 	0 10.0421 	0.0225145 	0 10.0412 	0.0205078 	0 10.0402 	0.0301806 	0 10.0366 	0.0146433 	0 10.0344 	0.0130594 	0 10.0321 	0.011448 	0 10.0298 	0.0098086 	0 10.0278 	0.0206579 	0 10.0245 	0.00527713 	0 10.0222 	0.00400448 	0 10.0198 	0.00270567 	0 10.0175 	0.00138016 	0 10.0154 	0.0135701 	0 10.0122 	-0.00218883 	0 10.0098 	-0.00325938 	0 10.0074 	-0.00435448 	0 10.0049 	-0.0054747 	0 10.0027 	0.00848728 	0 9.99959 	-0.00833356 	0 9.99708 	-0.00924064 	0 9.99456 	-0.01017 	0 9.99203 	-0.0111221 	0 9.98954 	0.00517002 	0 9.98672 	-0.0134874 	0 9.98422 	-0.0143182 	0 9.98172 	-0.0151701 	0 9.97921 	-0.0160438 	0 9.97651 	0.00306458 	0 9.97401 	-0.0181435 	0 9.97156 	-0.0189789 	0 9.9691 	-0.019836 	0 9.96665 	-0.0207154 	0 9.9637 	0.00167486 	0 9.96157 	-0.0227027 	0 9.95917 	-0.0235801 	0 9.95676 	-0.0244805 	0 9.95435 	-0.0254045 	0 9.95107 	0.000766028 	0 9.94939 	-0.0273384 	0 9.94706 	-0.0282739 	0 9.94472 	-0.0292338 	0 9.94238 	-0.0302187 	0 9.93871 	0.000226707 	0 9.93761 	-0.0321451 	0 9.93537 	-0.0331633 	0 9.93312 	-0.0342078 	0 9.93086 	-0.0352792 	0 9.92671 	-8.97185e-05 	0 9.9263 	-0.0372663 	0 9.92418 	-0.0384163 	0 9.92205 	-0.0395956 	0 9.91991 	-0.0408047 	0 9.91522 	-0.000431851 	0 9.91562 	-0.0429791 	0 9.91361 	-0.0443069 	0 9.91159 	-0.0456678 	0 9.90956 	-0.0470624 	0 9.90416 	-0.000999244 	0 9.90547 	-0.0495228 	0 9.90358 	-0.0511337 	0 9.90168 	-0.0527835 	0 9.89976 	-0.0544733 	0 9.89356 	-0.00223897 	0 9.89599 	-0.0575601 	0 9.89421 	-0.059533 	0 9.89242 	-0.0615524 	0 9.89061 	-0.0636196 	0 9.88339 	-0.00446528 	0 9.88684 	-0.0675035 	0 9.88479 	-0.0703598 	0 9.88271 	-0.0732814 	0 9.88062 	-0.0762697 	0 9.87154 	-0.0100243 	0 9.87488 	-0.0831435 	1.04155e-21 9.87248 	-0.0865574 	3.50658e-21 9.87006 	-0.0900488 	5.96972e-21 9.86761 	-0.0936197 	8.43092e-21 9.8576 	-0.0172472 	9.88183e-21 9.8616 	-0.0997647 	-1.39398e-20 9.85915 	-0.103064 	-1.80912e-20 9.85669 	-0.106413 	-2.22593e-20 9.85421 	-0.109814 	-2.64443e-20 9.84239 	-0.017792 	6.1295e-22 9.85003 	-0.111849 	-1.77506e-21 9.84783 	-0.114269 	-4.07012e-21 9.84561 	-0.116726 	-6.36365e-21 9.84337 	-0.11922 	-8.65561e-21 9.82735 	-0.0148448 	-9.76013e-21 9.84093 	-0.118144 	-9.11939e-21 9.83881 	-0.120253 	-6.00971e-21 9.83668 	-0.122393 	-2.89909e-21 9.8332 	-0.117207 	-3.7666e-22 9.81145 	-0.0116179 	-5.89016e-21 9.82977 	-0.108636 	-6.36949e-22 9.82995 	-0.122061 	-8.56337e-21 9.82764 	-0.123952 	-1.83082e-20 9.82008 	-0.10499 	-2.78012e-20 9.79313 	-0.00814455 	-3.64002e-20 9.81546 	-0.09562 	-5.83631e-20 9.81961 	-0.12056 	-6.02256e-20 9.81708 	-0.122358 	-5.46615e-20 9.80418 	-0.0929029 	-4.01197e-20 9.77228 	-0.00529837 	-8.90916e-21 9.79853 	-0.0840404 	-8.68198e-21 9.80767 	-0.11773 	-3.40391e-21 9.80491 	-0.119567 	5.41975e-21 9.78552 	-0.0824701 	1.50426e-20 9.74872 	-0.00371391 	2.55193e-20 9.77845 	-0.0744254 	7.8501e-20 9.79331 	-0.114413 	1.0649e-19 9.79021 	-0.116278 	1.0347e-19 9.76334 	-0.0737802 	6.67929e-20 9.72191 	-0.00319706 	8.78359e-21 9.75468 	-0.0666792 	-6.03317e-20 9.77586 	-0.111018 	-1.10035e-19 9.77236 	-0.11289 	-1.16794e-19 9.73736 	-0.0667523 	-7.70566e-20 9.69172 	-0.00356443 	-2.08456e-20 9.72717 	-0.0606468 	-1.30521e-20 9.75512 	-0.107875 	-8.6114e-21 9.75121 	-0.109761 	-1.96238e-20 9.70764 	-0.0613419 	-3.89417e-20 9.65827 	-0.00477087 	-5.96914e-20 9.69601 	-0.0562288 	-7.1001e-20 9.73109 	-0.105259 	-8.13638e-20 9.72674 	-0.107156 	-7.53171e-20 9.67436 	-0.057443 	-5.48378e-20 9.62173 	-0.00672333 	-3.41506e-20 9.6614 	-0.053206 	-2.19837e-20 9.70045 	-0.099722 	-9.75514e-21 9.6939 	-0.100305 	-2.88545e-22 9.63783 	-0.054784 	-3.16769e-21 9.5824 	-0.00921964 	-6.02819e-21 9.62362 	-0.051266 	-3.27962e-21 9.66425 	-0.0933452 	-5.49151e-22 9.65672 	-0.0940457 	-6.23006e-22 9.59834 	-0.053094 	-3.50135e-21 9.54057 	-0.0121023 	-6.36281e-21 9.583 	-0.0501783 	-3.6142e-21 9.62485 	-0.0882858 	-8.82078e-22 9.61641 	-0.0890639 	-6.6389e-21 9.55619 	-0.0521919 	-1.59404e-20 9.49654 	-0.0152832 	-2.5309e-20 9.53984 	-0.0498023 	-4.92123e-20 9.58258 	-0.0843512 	-7.30524e-20 9.57334 	-0.0851804 	-7.7565e-20 9.51171 	-0.0519588 	-6.33499e-20 9.45061 	-0.0187036 	-4.91597e-20 9.49447 	-0.0500267 	-9.56008e-20 9.5378 	-0.0813776 	-1.42015e-19 9.52787 	-0.0822354 	-1.33737e-19 9.46521 	-0.0522813 	-6.83703e-20 9.40307 	-0.0222967 	-2.94887e-21 9.44721 	-0.0507338 	-2.46358e-21 9.49084 	-0.0791968 	-2.02435e-21 9.48033 	-0.080065 	2.02943e-21 9.417 	-0.0530471 	8.43608e-21 9.35416 	-0.0260016 	1.48708e-20 9.39831 	-0.0518305 	8.1784e-21 9.44197 	-0.0776833 	1.45916e-21 9.43099 	-0.0785511 	-2.24921e-21 9.36733 	-0.0541776 	-5.12497e-21 9.30412 	-0.029779 	-7.99043e-21 9.34803 	-0.0532537 	-5.24825e-21 9.39148 	-0.0767503 	-2.51658e-21 9.38013 	-0.0776108 	-5.07953e-22 9.31644 	-0.0556183 	-6.98606e-21 9.25317 	-0.0336031 	-1.34877e-20 9.29664 	-0.0549511 	-6.71188e-21 9.33896 	-0.0760512 	-9.64676e-23 9.32596 	-0.07633 	-7.69178e-21 9.26461 	-0.0573183 	-2.71466e-20 9.20154 	-0.0374509 	-4.7133e-20 9.24438 	-0.0568737 	-1.28596e-19 9.27978 	-0.0738651 	-1.99362e-19 9.26695 	-0.0741879 	-1.97377e-19 9.21212 	-0.05923 	-1.23e-19 9.14948 	-0.0413029 	-3.46195e-20 9.19154 	-0.0589836 	-2.1259e-20 9.22003 	-0.0724498 	-9.3771e-21 9.20739 	-0.0728091 	-2.06862e-21 9.15917 	-0.0613231 	0 9.09716 	-0.0451485 	0 9.1383 	-0.0612536 	0 9.15997 	-0.0716999 	0 9.14751 	-0.0720892 	0 9.10592 	-0.06357 	0 9.0447 	-0.0489766 	0 9.08481 	-0.0636546 	0 9.09979 	-0.0715164 	3.67107e-21 9.08751 	-0.0719295 	1.13497e-20 9.05251 	-0.065941 	2.17289e-20 8.99221 	-0.0527756 	3.51318e-20 9.03122 	-0.0661608 	1.23429e-19 9.03967 	-0.0718161 	1.57832e-19 9.02756 	-0.0722485 	1.55839e-19 8.99906 	-0.0684128 	1.23881e-19 8.9398 	-0.0565378 	3.55096e-20 8.97762 	-0.0687507 	2.22078e-20 8.97975 	-0.0725279 	1.92356e-20 8.96782 	-0.0729769 	2.03376e-20 8.94569 	-0.0709674 	2.33806e-20 8.88755 	-0.0602603 	3.32835e-20 8.92414 	-0.0714117 	9.04028e-20 8.92017 	-0.0735969 	9.37828e-20 8.90841 	-0.0740602 	8.68421e-20 8.89248 	-0.0735933 	7.46493e-20 8.83555 	-0.0639423 	1.06358e-20 8.87086 	-0.0741333 	-5.84476e-20 8.86104 	-0.0749744 	-7.75948e-20 8.84945 	-0.0754499 	-9.47865e-20 8.83783 	-0.0759251 	-1.11973e-19 8.78388 	-0.0675821 	-7.07831e-20 8.81392 	-0.0761311 	-1.41375e-19 8.80251 	-0.0766173 	-1.33897e-19 8.79107 	-0.0771031 	-1.26412e-19 8.77961 	-0.0775886 	-1.18919e-19 8.73262 	-0.0711768 	-4.72963e-20 8.75593 	-0.0779901 	-3.28564e-20 8.74467 	-0.0784844 	-2.2916e-20 8.73338 	-0.0789785 	-1.29768e-20 8.72208 	-0.0794724 	-3.0386e-21 8.68184 	-0.0747223 	0 8.6987 	-0.0800371 	8.92949e-22 8.68758 	-0.0805379 	3.50043e-21 8.67644 	-0.0810385 	6.10818e-21 8.66529 	-0.081539 	8.71621e-21 8.63157 	-0.0782158 	1.13298e-20 8.64227 	-0.0822398 	1.00933e-20 8.6313 	-0.082746 	1.02302e-20 8.6203 	-0.083252 	1.03677e-20 8.60928 	-0.083758 	1.05056e-20 8.58184 	-0.0816571 	1.16824e-20 8.58669 	-0.084572 	1.3839e-20 8.57584 	-0.0850828 	1.90174e-20 8.56498 	-0.0855935 	2.4197e-20 8.55409 	-0.0861042 	2.93777e-20 8.53267 	-0.0850477 	3.67e-20 8.53196 	-0.0870117 	5.74024e-20 8.52124 	-0.0875266 	5.51575e-20 8.51051 	-0.0880414 	5.29031e-20 8.49975 	-0.0885562 	5.06392e-20 8.4841 	-0.0883888 	3.73301e-20 8.47907 	-0.089493 	3.19647e-20 8.46943 	-0.0899645 	2.75944e-20 8.45977 	-0.0904359 	2.32252e-20 8.4501 	-0.0909075 	1.88569e-20 8.4409 	-0.0913547 	1.47142e-20 8.43982 	-0.0914062 	1.41794e-20 8.43873 	-0.0914577 	1.36447e-20 8.43765 	-0.0915092 	1.311e-20 8.43656 	-0.0915607 	1.25753e-20 8.4353 	-0.091663 	1.21493e-20 8.4248 	-0.0921387 	4.76157e-21 8.41407 	-0.0926602 	-3.00917e-21 8.40332 	-0.0931818 	-1.07771e-20 8.39254 	-0.0937035 	-1.85421e-20 8.37991 	-0.0947201 	-2.9992e-20 8.37154 	-0.0947983 	-3.79761e-20 8.36092 	-0.0953232 	-4.21745e-20 8.35027 	-0.0958482 	-4.63757e-20 8.3396 	-0.0963733 	-5.05795e-20 8.32569 	-0.0977242 	-4.91782e-20 8.31923 	-0.0975087 	-6.15263e-20 8.30871 	-0.0980392 	-5.49845e-20 8.29817 	-0.0985698 	-4.84508e-20 8.28761 	-0.0991005 	-4.19253e-20 8.2726 	-0.100689 	-8.99903e-21 8.26786 	-0.100277 	-5.81517e-21 8.25745 	-0.100831 	-9.28026e-21 8.24701 	-0.101386 	-1.27446e-20 8.23654 	-0.101941 	-1.62081e-20 8.22062 	-0.103716 	-2.00191e-20 8.21745 	-0.103212 	-4.42914e-20 8.20709 	-0.103769 	-5.1771e-20 8.1967 	-0.104326 	-5.92535e-20 8.18629 	-0.104884 	-6.67389e-20 8.16952 	-0.106718 	-4.04971e-20 8.16773 	-0.10613 	2.34289e-20 8.15738 	-0.106661 	3.84517e-20 8.147 	-0.107193 	5.34854e-20 8.1366 	-0.107724 	6.85302e-20 8.11903 	-0.109553 	1.18185e-20 8.11841 	-0.10889 	2.39468e-21 8.10812 	-0.109438 	1.65714e-21 8.09777 	-0.109991 	9.44515e-22 8.08667 	-0.110668 	3.15206e-22 8.0692 	-0.112439 	4.20798e-22 8.06813 	-0.112035 	3.08376e-22 8.0595 	-0.112454 	-5.8664e-21 8.0492 	-0.113053 	-1.33549e-20 8.0371 	-0.113914 	-2.08209e-20 8.02011 	-0.115496 	-2.8227e-20 8.0187 	-0.115311 	-2.03287e-20 8.01161 	-0.115643 	-1.24108e-20 8.00137 	-0.116261 	-4.48108e-21 7.98838 	-0.11721 	0 7.97183 	-0.118587 	0 7.97012 	-0.118583 	0 7.96451 	-0.118867 	-1.92039e-21 7.95432 	-0.119489 	-6.08935e-21 7.94055 	-0.120451 	-1.00359e-20 7.9244 	-0.121634 	-1.38369e-20 7.92246 	-0.121783 	-4.42514e-20 7.91827 	-0.122062 	-6.79124e-20 7.90815 	-0.122681 	-7.37312e-20 7.89366 	-0.123604 	-6.11698e-20 7.8779 	-0.124613 	-4.33967e-20 7.87576 	-0.124897 	-1.26806e-19 7.87293 	-0.12521 	-2.03105e-19 7.86289 	-0.125826 	-2.02788e-19 7.84775 	-0.126674 	-1.27898e-19 7.83234 	-0.127533 	-4.95222e-20 7.83003 	-0.127939 	-9.35729e-20 7.8277 	-0.128344 	-1.37625e-19 7.81787 	-0.128953 	-1.32821e-19 7.8028 	-0.129684 	-7.64039e-20 7.7877 	-0.130415 	-1.99878e-20 7.78524 	-0.130931 	-1.14296e-20 7.78276 	-0.131447 	-2.87217e-21 7.77358 	-0.132036 	0 7.75878 	-0.13266 	0 7.74394 	-0.133283 	0 7.74136 	-0.1339 	0 7.73875 	-0.134517 	0 7.73021 	-0.135092 	0 7.71563 	-0.135625 	0 7.70103 	-0.136159 	0 7.69834 	-0.136867 	0 7.69562 	-0.137576 	0 7.68769 	-0.138143 	0 7.67331 	-0.138602 	0 7.65891 	-0.139062 	0 7.65613 	-0.139855 	0 7.65331 	-0.140648 	0 7.64598 	-0.141212 	0 7.63177 	-0.141611 	0 7.61754 	-0.14201 	0 7.61466 	-0.142882 	0 7.61144 	-0.143731 	0 7.60419 	-0.144293 	0 7.59094 	-0.144669 	0 7.57685 	-0.14502 	0 7.57389 	-0.145963 	0 7.56976 	-0.146809 	0 7.5625 	-0.147389 	0 7.55077 	-0.147791 	0 7.53679 	-0.148104 	0 7.53376 	-0.149115 	0 7.52873 	-0.149933 	0 7.52145 	-0.150532 	0 7.5112 	-0.15099 	-2.86433e-21 7.49731 	-0.151274 	-9.26355e-21 7.4942 	-0.152347 	-2.2961e-21 7.48828 	-0.153117 	0 7.48097 	-0.153738 	0 7.47217 	-0.154277 	-1.46008e-21 7.45834 	-0.15454 	-7.90024e-21 7.45516 	-0.155672 	-8.74574e-22 7.44835 	-0.156376 	0 7.44101 	-0.157018 	0 7.43362 	-0.157661 	0 7.41985 	-0.15791 	0 7.41624 	-0.159053 	1.59889e-23 7.40888 	-0.159719 	2.0726e-22 7.4015 	-0.160385 	3.98566e-22 7.39408 	-0.161052 	5.89905e-22 7.38177 	-0.16139 	-1.88609e-21 7.37724 	-0.162466 	-1.93149e-20 7.36983 	-0.163156 	-1.80467e-20 7.36239 	-0.163847 	-1.67728e-20 7.35492 	-0.164538 	-1.54931e-20 7.34407 	-0.164986 	-7.63088e-21 7.3386 	-0.165981 	-3.09303e-21 7.33113 	-0.166697 	-1.05299e-20 7.32363 	-0.167413 	-1.79682e-20 7.3161 	-0.16813 	-2.54078e-20 7.30669 	-0.168704 	-3.55856e-20 7.30028 	-0.169606 	-3.7875e-20 7.29275 	-0.170349 	-3.73219e-20 7.28518 	-0.171091 	-3.67661e-20 7.27758 	-0.171834 	-3.62076e-20 7.2696 	-0.172549 	-3.43979e-20 7.26805 	-0.172759 	-3.30269e-20 7.26629 	-0.172937 	-3.14814e-20 7.26453 	-0.173116 	-2.9936e-20 7.26277 	-0.173294 	-2.83906e-20 7.26103 	-0.173471 	-2.6863e-20 7.25499 	-0.174063 	-2.1228e-20 7.24894 	-0.174655 	-1.55921e-20 7.24286 	-0.175247 	-9.95529e-21 7.23676 	-0.175839 	-4.31749e-21 7.2304 	-0.176264 	0 7.22325 	-0.177219 	0 7.21532 	-0.178017 	0 7.20736 	-0.178815 	0 7.19936 	-0.179614 	0 7.19087 	-0.180039 	0 7.18448 	-0.181218 	0 7.17647 	-0.182044 	0 7.16841 	-0.18287 	0 7.16032 	-0.183697 	0 7.15165 	-0.183957 	0 7.1459 	-0.18535 	-2.86316e-23 7.13779 	-0.186205 	-1.33957e-22 7.12964 	-0.18706 	-2.39254e-22 7.12145 	-0.187915 	-3.4452e-22 7.11269 	-0.18802 	-2.66733e-22 7.10746 	-0.189616 	-2.69095e-20 7.09925 	-0.190501 	-2.83709e-20 7.09099 	-0.191385 	-2.97921e-20 7.08264 	-0.192145 	-2.6337e-20 7.07392 	-0.192228 	4.02906e-21 7.06837 	-0.193828 	6.93341e-22 7.06082 	-0.194934 	3.95021e-21 7.05246 	-0.195846 	9.78903e-21 7.04396 	-0.196442 	1.56303e-20 7.03532 	-0.196578 	2.14768e-20 7.02947 	-0.198184 	1.50131e-20 7.02247 	-0.199502 	1.10607e-20 7.01399 	-0.200441 	1.04039e-20 7.00543 	-0.20088 	9.33758e-21 6.99683 	-0.201067 	8.06418e-21 6.9907 	-0.20268 	7.94888e-21 6.98417 	-0.204202 	7.71267e-21 6.97557 	-0.205169 	6.7632e-21 6.967 	-0.205457 	8.58214e-21 6.95841 	-0.205692 	1.06188e-20 6.95201 	-0.207311 	7.56573e-21 6.94554 	-0.208931 	4.50843e-21 6.93721 	-0.209885 	4.01574e-21 6.92864 	-0.210165 	6.2308e-21 6.92005 	-0.210445 	8.44477e-21 6.91339 	-0.212071 	5.19896e-21 6.90666 	-0.213698 	1.94891e-21 6.89891 	-0.214676 	-1.56909e-21 6.89032 	-0.214998 	-4.9458e-21 6.8817 	-0.215321 	-8.32323e-21 6.8748 	-0.216954 	-5.32822e-21 6.86783 	-0.218587 	-2.33477e-21 6.86065 	-0.219588 	0 6.85201 	-0.219951 	0 6.84334 	-0.220313 	0 6.83621 	-0.221954 	0 6.82902 	-0.223577 	-8.35324e-23 6.82221 	-0.224561 	-3.23606e-21 6.81369 	-0.225018 	-6.40126e-21 6.80496 	-0.225419 	-9.56851e-21 6.79761 	-0.227067 	-6.77866e-21 6.79035 	-0.228512 	-4.93574e-21 6.78339 	-0.229519 	-5.15001e-21 6.77536 	-0.230197 	-4.12293e-21 6.76655 	-0.230635 	-2.18731e-21 6.75899 	-0.23229 	-2.73836e-20 6.7517 	-0.233563 	-3.64426e-20 6.74457 	-0.234591 	-3.51259e-20 6.73699 	-0.235485 	-2.69872e-20 6.72809 	-0.235959 	2.42164e-21 6.72032 	-0.237622 	-2.81719e-20 6.71303 	-0.238728 	-3.01967e-20 6.70574 	-0.239777 	-2.93146e-20 6.69841 	-0.240826 	-2.84268e-20 6.68957 	-0.241389 	-6.92564e-21 6.68174 	-0.242934 	-8.17578e-21 6.67434 	-0.244004 	-2.71949e-21 6.66689 	-0.245075 	2.73677e-21 6.6594 	-0.246145 	8.19298e-21 6.65099 	-0.246927 	1.4832e-20 6.64318 	-0.2483 	1.26584e-20 6.63561 	-0.249392 	1.57439e-20 6.628 	-0.250484 	1.88324e-20 6.62034 	-0.251576 	2.19238e-20 6.61234 	-0.252571 	2.63849e-20 6.60832 	-0.253233 	2.67709e-20 6.60439 	-0.2538 	2.49412e-20 6.60045 	-0.254368 	2.31102e-20 6.5965 	-0.254935 	2.1278e-20 6.59265 	-0.255486 	1.94989e-20 6.58865 	-0.256034 	1.78737e-20 6.58463 	-0.256582 	1.62477e-20 6.5806 	-0.25713 	1.4621e-20 6.57656 	-0.257678 	1.29935e-20 6.57263 	-0.258108 	1.13587e-20 6.5647 	-0.259361 	9.57051e-21 6.55647 	-0.260494 	6.83133e-21 6.54819 	-0.261626 	4.09113e-21 6.53987 	-0.262759 	1.34989e-21 6.53186 	-0.263531 	2.75989e-21 6.52421 	-0.265052 	9.50597e-22 6.5158 	-0.266206 	3.25652e-21 6.50732 	-0.26736 	5.56136e-21 6.4988 	-0.268514 	7.8651e-21 6.49089 	-0.269062 	1.94764e-20 6.48349 	-0.270855 	2.73841e-20 6.47487 	-0.27203 	3.08093e-20 6.4662 	-0.273205 	3.424e-20 6.45765 	-0.274229 	3.48227e-20 6.44969 	-0.274699 	2.48914e-20 6.44205 	-0.27651 	3.43647e-20 6.4337 	-0.277962 	3.8716e-20 6.42483 	-0.279158 	3.93874e-20 6.41639 	-0.279946 	3.39805e-20 6.40825 	-0.280437 	2.41246e-20 6.40038 	-0.282264 	3.35061e-20 6.39228 	-0.284 	4.06975e-20 6.3832 	-0.285214 	3.51894e-20 6.37487 	-0.28576 	1.99716e-20 6.36655 	-0.28627 	4.23526e-21 6.35845 	-0.288111 	2.03747e-21 6.35027 	-0.289951 	-1.55834e-22 6.34157 	-0.291134 	-5.60929e-21 6.33309 	-0.291662 	-1.36516e-20 6.32458 	-0.292189 	-2.16927e-20 6.31625 	-0.294042 	-1.21915e-20 6.30784 	-0.295895 	-2.68466e-21 6.29973 	-0.2971 	-4.75838e-21 6.29104 	-0.297641 	-1.52737e-20 6.28233 	-0.298183 	-2.57899e-20 6.27377 	-0.300046 	2.74711e-21 6.26523 	-0.301828 	2.77178e-20 6.25737 	-0.30299 	2.54211e-20 6.24871 	-0.303686 	6.27221e-21 6.23979 	-0.304239 	-1.80502e-20 6.231 	-0.306109 	-1.18875e-20 6.22258 	-0.307613 	-6.86151e-21 6.2145 	-0.308782 	-2.87771e-21 6.2061 	-0.309782 	0 6.19695 	-0.310345 	0 6.18795 	-0.312219 	0 6.17965 	-0.313437 	0 6.17134 	-0.31461 	0 6.16298 	-0.315782 	0 6.15383 	-0.316488 	0 6.1449 	-0.318112 	1.8512e-23 6.13643 	-0.319288 	7.01535e-23 6.1279 	-0.320462 	1.21818e-22 6.11931 	-0.321636 	1.73505e-22 6.11043 	-0.322657 	-1.92736e-22 6.10609 	-0.323373 	2.01745e-21 6.10189 	-0.323942 	-7.68953e-22 6.09769 	-0.324511 	-3.55771e-21 6.09347 	-0.32508 	-6.34881e-21 6.08936 	-0.325633 	-9.06518e-21 6.08504 	-0.326246 	-1.16457e-20 6.08071 	-0.32686 	-1.42277e-20 6.07636 	-0.327473 	-1.68113e-20 6.07199 	-0.328086 	-1.93964e-20 6.06752 	-0.328641 	-1.68128e-20 6.05962 	-0.329889 	-2.44399e-20 6.05116 	-0.331073 	-2.32979e-20 6.04265 	-0.332257 	-2.21694e-20 6.03408 	-0.333439 	-2.10544e-20 6.02514 	-0.334456 	5.03937e-21 6.01804 	-0.335824 	2.47194e-20 6.00936 	-0.337011 	3.12499e-20 6.00064 	-0.338198 	3.77939e-20 5.99181 	-0.339362 	4.05729e-20 5.98244 	-0.340298 	3.65379e-21 5.97557 	-0.341714 	-6.81104e-21 5.96731 	-0.342979 	-1.61467e-20 5.95837 	-0.344172 	-2.49527e-20 5.94908 	-0.345234 	-3.36734e-20 5.93946 	-0.346181 	-4.23213e-20 5.93239 	-0.347603 	-6.49135e-20 5.92502 	-0.348997 	-8.51514e-20 5.91588 	-0.350201 	-8.89139e-20 5.90606 	-0.351167 	-5.95373e-20 5.89619 	-0.352129 	-2.97778e-20 5.88894 	-0.353563 	-1.77634e-20 5.88163 	-0.354996 	-5.75251e-21 5.87286 	-0.356204 	1.69565e-21 5.86278 	-0.357187 	4.764e-21 5.85265 	-0.358169 	7.8312e-21 5.84521 	-0.359624 	3.12121e-20 5.83771 	-0.361078 	5.45905e-20 5.82949 	-0.362315 	5.36332e-20 5.81922 	-0.363329 	3.01725e-20 5.80882 	-0.364337 	6.03811e-21 5.80119 	-0.365821 	2.25706e-21 5.79318 	-0.367207 	-2.90759e-21 5.78466 	-0.368457 	-1.00409e-20 5.77534 	-0.369628 	-1.71782e-20 5.76466 	-0.370666 	-2.43211e-20 5.75684 	-0.372185 	-1.86216e-20 5.7482 	-0.373492 	-1.94264e-20 5.73942 	-0.374777 	-2.09056e-20 5.73057 	-0.37606 	-2.23925e-20 5.72014 	-0.377187 	-2.81281e-20 5.71173 	-0.37865 	-1.96108e-20 5.70274 	-0.379974 	-7.08636e-21 5.69368 	-0.381298 	5.4376e-21 5.68456 	-0.38262 	1.79611e-20 5.67517 	-0.383921 	3.01943e-20 5.67391 	-0.384136 	3.13774e-20 5.67257 	-0.384334 	3.14142e-20 5.67123 	-0.384531 	3.14509e-20 5.66989 	-0.384729 	3.14874e-20 5.66856 	-0.384925 	3.15234e-20 5.66104 	-0.386096 	3.38396e-20 5.65347 	-0.387265 	3.61608e-20 5.64586 	-0.388434 	3.8487e-20 5.63819 	-0.389602 	4.08182e-20 5.63054 	-0.390443 	2.99248e-20 5.62215 	-0.392196 	2.63575e-20 5.61304 	-0.393602 	1.91734e-20 5.60385 	-0.395007 	1.19837e-20 5.5946 	-0.39641 	4.78822e-21 5.58533 	-0.397115 	8.36185e-21 5.57724 	-0.399183 	2.71429e-20 5.56805 	-0.400744 	2.78405e-20 5.55854 	-0.402179 	2.41201e-20 5.54894 	-0.403271 	9.25614e-21 5.53926 	-0.40398 	-1.80256e-20 5.5309 	-0.406057 	-7.84798e-20 5.52229 	-0.408054 	-1.3229e-19 5.51243 	-0.409494 	-1.38536e-19 5.50236 	-0.410216 	-8.04095e-20 5.49225 	-0.410937 	-2.22637e-20 5.48357 	-0.412981 	2.91774e-20 5.4748 	-0.415022 	8.06189e-20 5.46528 	-0.416428 	9.03606e-20 5.45482 	-0.417185 	5.84061e-20 5.44431 	-0.417942 	2.64417e-20 5.43535 	-0.419972 	5.7517e-20 5.42626 	-0.421919 	8.3589e-20 5.41685 	-0.423277 	7.36128e-20 5.40641 	-0.424238 	4.63061e-20 5.39549 	-0.425024 	1.13439e-20 5.38625 	-0.427058 	2.67754e-21 5.37667 	-0.428623 	7.53655e-23 5.3669 	-0.429983 	1.21997e-22 5.35706 	-0.431341 	1.68681e-22 5.34576 	-0.432155 	6.14516e-21 5.3361 	-0.433982 	2.35668e-20 5.32602 	-0.435319 	7.84526e-21 5.31587 	-0.436654 	-7.91125e-21 5.30565 	-0.437987 	-2.37029e-20 5.2951 	-0.439225 	-4.35494e-20 5.2931 	-0.439561 	-4.44484e-20 5.29103 	-0.439818 	-4.59932e-20 5.28896 	-0.440074 	-4.75387e-20 5.28689 	-0.440331 	-4.90849e-20 5.28484 	-0.440584 	-5.06141e-20 5.27685 	-0.441638 	-5.97939e-20 5.26882 	-0.442691 	-6.89973e-20 5.26075 	-0.443742 	-7.82245e-20 5.25262 	-0.444792 	-8.74755e-20 5.24462 	-0.445773 	-5.91191e-20 5.23487 	-0.447163 	-5.0154e-20 5.22452 	