# vtk DataFile Version 2.0
track0
ASCII
DATASET POLYDATA
POINTS 10885 double
-0.0205 0.001 1e-05
-0.0202034 0.00100022 1e-05
-0.0199069 0.00100067 1e-05
-0.0196103 0.00100131 1e-05
-0.0193137 0.00100215 1e-05
-0.0190172 0.00100319 1e-05
-0.0187132 0.0010046 1e-05
-0.0184093 0.00100572 1e-05
-0.0181054 0.00100681 1e-05
-0.0178015 0.00100786 1e-05
-0.0174976 0.00100887 1e-05
-0.0172058 0.00101003 1e-05
-0.016914 0.00101084 1e-05
-0.0166222 0.00101163 1e-05
-0.0163305 0.0010124 1e-05
-0.0160387 0.00101313 1e-05
-0.0157586 0.001014 1e-05
-0.0154784 0.0010147 1e-05
-0.0151983 0.00101543 1e-05
-0.0149182 0.0010162 1e-05
-0.0146381 0.001017 1e-05
-0.0143692 0.00101793 1e-05
-0.0141002 0.00101879 1e-05
-0.0138313 0.0010197 1e-05
-0.0135624 0.00102067 1e-05
-0.0132934 0.00102168 1e-05
-0.0130463 0.00102271 1e-05
-0.0127992 0.00102373 1e-05
-0.012552 0.00102478 1e-05
-0.0123049 0.00102587 1e-05
-0.0120966 0.00102682 1e-05
-0.0120778 0.0010269 1e-05
-0.012059 0.00102699 1e-05
-0.0120402 0.00102708 1e-05
-0.0120213 0.00102717 1e-05
-0.0120025 0.00102726 1e-05
-0.0117547 0.00102843 1e-05
-0.0115068 0.00102962 1e-05
-0.0112589 0.00103084 1e-05
-0.0110111 0.00103208 1e-05
-0.0107632 0.00103334 1e-05
-0.0105252 0.00103457 1e-05
-0.0102873 0.00103582 1e-05
-0.0100493 0.00103709 1e-05
-0.00981133 0.00103837 1e-05
-0.00957337 0.00103966 1e-05
-0.00934491 0.0010409 1e-05
-0.00911645 0.00104216 1e-05
-0.008888 0.00104343 1e-05
-0.00865954 0.00104471 1e-05
-0.00843108 0.00104599 1e-05
-0.00821175 0.00104721 1e-05
-0.00799242 0.00104845 1e-05
-0.00777309 0.00104969 1e-05
-0.00755376 0.00105094 1e-05
-0.00733443 0.00105219 1e-05
-0.00712387 0.00105337 1e-05
-0.0069133 0.00105457 1e-05
-0.00670273 0.00105577 1e-05
-0.00649217 0.00105697 1e-05
-0.0062816 0.00105817 1e-05
-0.00607944 0.0010593 1e-05
-0.00587729 0.00106044 1e-05
-0.00567514 0.00106158 1e-05
-0.00547298 0.00106272 1e-05
-0.00527083 0.00106386 1e-05
-0.00507675 0.00106493 1e-05
-0.00488267 0.00106601 1e-05
-0.0046886 0.00106709 1e-05
-0.00449452 0.00106816 1e-05
-0.00430044 0.00106924 1e-05
-0.00411412 0.00107024 1e-05
-0.0039278 0.00107126 1e-05
-0.00374147 0.00107227 1e-05
-0.00355515 0.00107327 1e-05
-0.00336883 0.00107427 1e-05
-0.00318995 0.00107521 1e-05
-0.00301107 0.00107615 1e-05
-0.00283219 0.00107709 1e-05
-0.00265331 0.00107802 1e-05
-0.00247443 0.00107895 1e-05
-0.0023027 0.00107981 1e-05
-0.00213097 0.00108068 1e-05
-0.00195924 0.00108154 1e-05
-0.0017875 0.0010824 1e-05
-0.00161577 0.00108324 1e-05
-0.0014509 0.00108403 1e-05
-0.00128603 0.00108481 1e-05
-0.00112116 0.00108559 1e-05
-0.000956289 0.00108634 1e-05
-0.000791418 0.00108709 1e-05
-0.000633135 0.00108778 1e-05
-0.000474851 0.00108846 1e-05
-0.000316567 0.00108912 1e-05
-0.000158283 0.00108976 1e-05
0 0.00109038 1e-05
0.000105677 0.00109078 1e-05
0.000211355 0.00109116 1e-05
0.000317032 0.00109154 1e-05
0.00042271 0.0010919 1e-05
0.000528387 0.00109225 1e-05
0.000634886 0.00109259 1e-05
0.000741385 0.00109293 1e-05
0.000847885 0.00109325 1e-05
0.000954384 0.00109357 1e-05
0.00106088 0.00109387 1e-05
0.00116821 0.00109417 1e-05
0.00127554 0.00109446 1e-05
0.00138286 0.00109474 1e-05
0.00149019 0.00109502 1e-05
0.00159752 0.00109528 1e-05
0.00170568 0.00109553 1e-05
0.00181384 0.00109578 1e-05
0.001922 0.00109602 1e-05
0.00203016 0.00109625 1e-05
0.00213833 0.00109647 1e-05
0.00224733 0.00109668 1e-05
0.00235633 0.00109689 1e-05
0.00246533 0.00109709 1e-05
0.00257434 0.00109728 1e-05
0.00268334 0.00109746 1e-05
0.00279319 0.00109763 1e-05
0.00290304 0.00109781 1e-05
0.00301289 0.00109797 1e-05
0.00312274 0.00109814 1e-05
0.00323259 0.00109829 1e-05
0.00334329 0.00109843 1e-05
0.003454 0.00109858 1e-05
0.0035647 0.00109872 1e-05
0.0036754 0.00109886 1e-05
0.00378611 0.00109899 1e-05
0.00389767 0.00109911 1e-05
0.00400924 0.00109923 1e-05
0.0041208 0.00109935 1e-05
0.00423237 0.00109946 1e-05
0.00434393 0.00109957 1e-05
0.00445636 0.00109967 1e-05
0.00456879 0.00109976 1e-05
0.00468123 0.00109986 1e-05
0.00479366 0.00109995 1e-05
0.00490609 0.00110004 1e-05
0.0050194 0.00110011 1e-05
0.0051327 0.00110019 1e-05
0.00524601 0.00110026 1e-05
0.00535931 0.00110033 1e-05
0.00547262 0.00110039 1e-05
0.00558681 0.00110045 1e-05
0.005701 0.00110051 1e-05
0.00581518 0.00110056 1e-05
0.00592937 0.0011006 1e-05
0.00604356 0.00110065 1e-05
0.00612618 0.00110067 1e-05
0.0062088 0.0011007 1e-05
0.00629142 0.00110072 1e-05
0.00637404 0.00110074 1e-05
0.00645492 0.00110076 1e-05
0.00648772 0.00110077 1e-05
0.00652052 0.00110077 1e-05
0.00655333 0.00110078 1e-05
0.00658613 0.00110079 1e-05
0.00661893 0.00110079 1e-05
0.0067349 0.00110081 1e-05
0.00685087 0.00110082 1e-05
0.00696684 0.00110083 1e-05
0.00708281 0.00110083 1e-05
0.00719878 0.00110083 1e-05
0.00731565 0.00110082 1e-05
0.00743252 0.00110081 1e-05
0.00754939 0.0011008 1e-05
0.00766626 0.00110078 1e-05
0.00778313 0.00110076 1e-05
0.00790091 0.00110072 1e-05
0.00801869 0.00110069 1e-05
0.00813647 0.00110065 1e-05
0.00825425 0.00110061 1e-05
0.00837203 0.00110056 1e-05
0.00849073 0.0011005 1e-05
0.00860942 0.00110044 1e-05
0.00872812 0.00110038 1e-05
0.00884682 0.00110031 1e-05
0.00896551 0.00110024 1e-05
0.00908513 0.00110014 1e-05
0.00920475 0.00110006 1e-05
0.00932437 0.00109997 1e-05
0.00944398 0.00109988 1e-05
0.0095636 0.00109978 1e-05
0.00968415 0.00109966 1e-05
0.0098047 0.00109955 1e-05
0.00992525 0.00109943 1e-05
0.0100458 0.00109931 1e-05
0.0101663 0.00109919 1e-05
0.0102878 0.00109903 1e-05
0.0104093 0.00109889 1e-05
0.0105308 0.00109874 1e-05
0.0106523 0.00109859 1e-05
0.0107738 0.00109844 1e-05
0.0108962 0.00109825 1e-05
0.0110186 0.00109808 1e-05
0.0111411 0.0010979 1e-05
0.0112635 0.00109772 1e-05
0.0113859 0.00109754 1e-05
0.0115093 0.00109731 1e-05
0.0116327 0.00109711 1e-05
0.0117561 0.0010969 1e-05
0.0118795 0.00109669 1e-05
0.0120028 0.00109647 1e-05
0.0121272 0.00109621 1e-05
0.0122515 0.00109597 1e-05
0.0123759 0.00109573 1e-05
0.0125002 0.00109549 1e-05
0.0126245 0.00109523 1e-05
0.0127498 0.00109493 1e-05
0.0128752 0.00109466 1e-05
0.0130005 0.00109439 1e-05
0.0131258 0.00109411 1e-05
0.0132511 0.00109382 1e-05
0.0133774 0.00109348 1e-05
0.0135036 0.00109317 1e-05
0.0136299 0.00109286 1e-05
0.0137562 0.00109254 1e-05
0.0138825 0.00109221 1e-05
0.0140098 0.00109183 1e-05
0.014137 0.00109148 1e-05
0.0142643 0.00109113 1e-05
0.0143915 0.00109077 1e-05
0.0145188 0.0010904 1e-05
0.0146471 0.00108999 1e-05
0.0147753 0.00108959 1e-05
0.0149036 0.0010892 1e-05
0.0150318 0.0010888 1e-05
0.0151601 0.00108839 1e-05
0.0152893 0.00108793 1e-05
0.0154186 0.00108749 1e-05
0.0155478 0.00108706 1e-05
0.0156771 0.00108662 1e-05
0.0158063 0.00108616 1e-05
0.0159366 0.00108566 1e-05
0.0160668 0.00108518 1e-05
0.0161971 0.0010847 1e-05
0.0163274 0.00108421 1e-05
0.0164576 0.00108371 1e-05
0.0165889 0.00108317 1e-05
0.0167201 0.00108264 1e-05
0.0168514 0.00108212 1e-05
0.0169827 0.00108159 1e-05
0.0171139 0.00108104 1e-05
0.0172462 0.00108045 1e-05
0.0173785 0.00107988 1e-05
0.0175108 0.00107931 1e-05
0.0176431 0.00107873 1e-05
0.0177754 0.00107813 1e-05
0.0179087 0.00107751 1e-05
0.018042 0.00107689 1e-05
0.0181753 0.00107627 1e-05
0.0183087 0.00107564 1e-05
0.018442 0.00107499 1e-05
0.0185763 0.00107433 1e-05
0.0187107 0.00107366 1e-05
0.018845 0.00107299 1e-05
0.0189794 0.00107231 1e-05
0.0191137 0.00107162 1e-05
0.0192491 0.0010709 1e-05
0.0193845 0.00107018 1e-05
0.0195199 0.00106946 1e-05
0.0196553 0.00106873 1e-05
0.0197907 0.00106799 1e-05
0.0199272 0.00106723 1e-05
0.0200636 0.00106646 1e-05
0.0202001 0.00106569 1e-05
0.0203365 0.00106491 1e-05
0.020473 0.00106411 1e-05
0.0206105 0.00106331 1e-05
0.020748 0.00106249 1e-05
0.0208855 0.00106166 1e-05
0.021023 0.00106083 1e-05
0.0211606 0.00105999 1e-05
0.0212991 0.00105913 1e-05
0.0214377 0.00105826 1e-05
0.0215763 0.00105738 1e-05
0.0217149 0.00105649 1e-05
0.0218535 0.0010556 1e-05
0.0219931 0.0010547 1e-05
0.0221328 0.00105378 1e-05
0.0222724 0.00105284 1e-05
0.0224121 0.0010519 1e-05
0.0225517 0.00105096 1e-05
0.0226925 0.00105001 1e-05
0.0228332 0.00104904 1e-05
0.022974 0.00104805 1e-05
0.0231147 0.00104705 1e-05
0.0232555 0.00104606 1e-05
0.0233973 0.00104506 1e-05
0.0235391 0.00104403 1e-05
0.023681 0.00104299 1e-05
0.0238228 0.00104194 1e-05
0.0239647 0.00104089 1e-05
0.0241076 0.00103984 1e-05
0.0242505 0.00103877 1e-05
0.0243935 0.00103767 1e-05
0.0245364 0.00103657 1e-05
0.0246794 0.00103547 1e-05
0.0248234 0.00103437 1e-05
0.0249675 0.00103325 1e-05
0.0251115 0.00103209 1e-05
0.0252556 0.00103093 1e-05
0.0253996 0.00102978 1e-05
0.0255448 0.00102864 1e-05
0.02569 0.00102746 1e-05
0.0258351 0.00102625 1e-05
0.0259803 0.00102504 1e-05
0.0261255 0.00102384 1e-05
0.0262718 0.00102264 1e-05
0.0264181 0.00102141 1e-05
0.0265644 0.00102015 1e-05
0.0267107 0.00101889 1e-05
0.026857 0.00101764 1e-05
0.0270044 0.00101638 1e-05
0.0271519 0.0010151 1e-05
0.0272993 0.00101379 1e-05
0.0274468 0.00101248 1e-05
0.0275942 0.00101117 1e-05
0.0277428 0.00100987 1e-05
0.0278914 0.00100853 1e-05
0.0280399 0.00100717 1e-05
0.0281885 0.00100581 1e-05
0.0283371 0.00100444 1e-05
0.0284869 0.00100308 1e-05
0.0286366 0.00100169 1e-05
0.0287863 0.00100028 1e-05
0.0289361 0.000998866 1e-05
0.0290858 0.000997448 1e-05
0.0292367 0.000996033 1e-05
0.0293876 0.000994584 1e-05
0.0295385 0.000993123 1e-05
0.0296894 0.000991656 1e-05
0.0298403 0.000990182 1e-05
0.0299924 0.000988711 1e-05
0.0301445 0.000987205 1e-05
0.0302966 0.000985692 1e-05
0.0304486 0.000984171 1e-05
0.0306007 0.000982642 1e-05
0.030754 0.000981115 1e-05
0.0309072 0.000979555 1e-05
0.0310605 0.000977988 1e-05
0.0312138 0.000976413 1e-05
0.031367 0.00097483 1e-05
0.0315215 0.000973244 1e-05
0.0316759 0.00097163 1e-05
0.0318304 0.000970008 1e-05
0.0319848 0.000968378 1e-05
0.0321393 0.000966739 1e-05
0.0322949 0.000965094 1e-05
0.0324506 0.000963424 1e-05
0.0326062 0.000961745 1e-05
0.0327619 0.000960058 1e-05
0.0329175 0.000958363 1e-05
0.0330744 0.000956656 1e-05
0.0332313 0.000954928 1e-05
0.0333881 0.000953192 1e-05
0.033545 0.000951446 1e-05
[...]
POINT_DATA 10885
 FIELD attributes 2
p 1 10885 float
-5.18257 -5.17783 -5.17001 -5.16209 -5.15408 -5.14106 -5.14691 -5.15815 -5.16939 -5.18063 -5.20578 -5.2254 -5.25808 -5.29076 -5.32345 -5.36293 -5.37739 -5.40299 -5.42859 -5.4542 -5.48498 -5.50394 -5.52895 -5.55399 -5.57904 -5.60656 -5.6293 -5.65403 -5.67877 -5.70352 -5.72439 -5.72628 -5.72816 -5.73005 -5.73193 -5.73376 -5.75666 -5.77952 -5.80239 -5.82526 -5.84725 -5.86697 -5.88614 -5.9053 -5.92446 -5.94224 -5.96001 -5.97693 -5.99385 -6.01077 -6.02613 -6.04282 -6.05851 -6.0742 -6.0899 -6.10396 -6.11982 -6.13459 -6.14937 -6.16415 -6.17731 -6.19242 -6.20648 -6.22054 -6.2346 -6.24716 -6.26172 -6.27535 -6.28897 -6.30259 -6.31489 -6.32917 -6.34268 -6.35619 -6.3697 -6.38205 -6.3963 -6.40997 -6.42364 -6.43731 -6.44992 -6.46437 -6.47859 -6.49281 -6.50703 -6.52023 -6.53497 -6.54972 -6.56447 -6.57923 -6.59252 -6.60573 -6.6181 -6.63047 -6.64284 -6.65294 -6.66062 -6.66649 -6.67237 -6.67825 -6.68271 -6.68632 -6.68782 -6.68932 -6.69082 -6.69157 -6.69388 -6.6953 -6.69672 -6.69814 -6.69951 -6.70381 -6.70636 -6.70891 -6.71147 -6.71278 -6.71752 -6.71946 -6.7214 -6.72334 -6.72306 -6.72692 -6.72814 -6.72936 -6.73058 -6.72959 -6.73275 -6.73391 -6.73508 -6.73625 -6.73565 -6.73824 -6.7394 -6.74056 -6.74172 -6.74163 -6.74347 -6.74433 -6.7452 -6.74607 -6.74618 -6.74725 -6.74776 -6.74827 -6.74879 -6.74895 -6.74951 -6.74982 -6.75014 -6.75046 -6.75067 -6.75091 -6.75108 -6.75125 -6.75142 -6.75159 -6.75166 -6.75173 -6.7518 -6.75186 -6.75192 -6.75213 -6.75232 -6.75251 -6.7527 -6.75281 -6.75306 -6.75323 -6.75341 -6.75358 -6.75365 -6.75391 -6.75412 -6.75433 -6.75454 -6.75472 -6.75493 -6.7552 -6.75548 -6.75576 -6.75622 -6.75626 -6.75662 -6.75698 -6.75735 -6.75822 -6.75796 -6.75842 -6.75887 -6.75932 -6.76074 -6.76009 -6.76064 -6.7612 -6.76175 -6.76383 -6.7627 -6.76336 -6.76403 -6.76469 -6.76755 -6.76587 -6.76666 -6.76745 -6.76824 -6.77195 -6.7697 -6.77062 -6.77154 -6.77247 -6.77708 -6.77425 -6.77531 -6.77637 -6.77743 -6.78294 -6.77971 -6.78072 -6.78192 -6.78359 -6.78955 -6.78627 -6.78698 -6.78835 -6.79071 -6.79704 -6.79391 -6.79429 -6.79583 -6.79888 -6.80543 -6.80248 -6.80252 -6.80421 -6.80791 -6.81457 -6.81183 -6.81155 -6.81338 -6.81771 -6.82445 -6.82202 -6.82148 -6.82349 -6.82843 -6.83521 -6.83321 -6.83252 -6.83471 -6.84018 -6.8469 -6.84538 -6.84462 -6.84698 -6.85284 -6.85941 -6.85835 -6.85758 -6.86009 -6.86626 -6.87264 -6.87205 -6.87146 -6.8742 -6.88038 -6.88657 -6.88645 -6.88634 -6.88923 -6.89521 -6.90119 -6.90155 -6.90191 -6.90495 -6.91072 -6.9165 -6.91732 -6.91814 -6.92133 -6.9269 -6.93248 -6.93375 -6.93502 -6.93833 -6.94372 -6.9491 -6.95079 -6.95249 -6.95593 -6.96114 -6.96634 -6.96843 -6.97052 -6.97409 -6.97913 -6.98418 -6.98663 -6.98909 -6.99277 -6.99768 -7.00258 -7.00537 -7.0082 -7.01203 -7.01674 -7.02153 -7.02462 -7.02785 -7.03177 -7.0363 -7.04099 -7.04434 -7.0479 -7.05191 -7.05632 -7.06094 -7.06453 -7.06835 -7.07245 -7.07679 -7.08136 -7.08515 -7.08917 -7.09336 -7.09767 -7.10222 -7.10619 -7.11037 -7.11464 -7.11896 -7.1235 -7.12765 -7.13195 -7.13629 -7.14063 -7.14517 -7.14949 -7.15389 -7.15829 -7.16269 -7.16718 -7.17164 -7.17609 -7.18055 -7.18501 -7.18948 -7.194 -7.1985 -7.203 -7.2075 -7.21198 -7.21654 -7.22107 -7.2256 -7.23014 -7.23464 -7.23922 -7.24377 -7.24833 -7.25288 -7.25741 -7.262 -7.26656 -7.27113 -7.2757 -7.28025 -7.28404 -7.28782 -7.2916 -7.29539 -7.29905 -7.29986 -7.30067 -7.30148 -7.30229 -7.30311 -7.30767 -7.31223 -7.31679 -7.32136 -7.32596 -7.33047 -7.33501 -7.33954 -7.34408 -7.34869 -7.35315 -7.35764 -7.36214 -7.36664 -7.37123 -7.37563 -7.38007 -7.38452 -7.38897 -7.39351 -7.39784 -7.40222 -7.4066 -7.41097 -7.41545 -7.41971 -7.424 -7.42829 -7.43259 -7.43697 -7.44115 -7.44534 -7.44952 -7.45372 -7.45798 -7.46207 -7.46614 -7.4702 -7.47429 -7.4784 -7.48236 -7.48631 -7.49023 -7.49417 -7.49812 -7.50194 -7.50575 -7.50951 -7.51327 -7.51704 -7.5207 -7.52435 -7.52792 -7.53148 -7.53504 -7.53851 -7.54198 -7.54534 -7.54867 -7.552 -7.55525 -7.5585 -7.56165 -7.56473 -7.56782 -7.57083 -7.57385 -7.57677 -7.57957 -7.58238 -7.58514 -7.5879 -7.59054 -7.59305 -7.59556 -7.59803 -7.60049 -7.60285 -7.60504 -7.60723 -7.60938 -7.61153 -7.61356 -7.61541 -7.61725 -7.61906 -7.62083 -7.6225 -7.62402 -7.62547 -7.6269 -7.62825 -7.62952 -7.63069 -7.63172 -7.63274 -7.63364 -7.63448 -7.63527 -7.63585 -7.63643 -7.63684 -7.63722 -7.6376 -7.63771 -7.6378 -7.63768 -7.63757 -7.63746 -7.63713 -7.63666 -7.63602 -7.63538 -7.63475 -7.63396 -7.63287 -7.63167 -7.63047 -7.62928 -7.62802 -7.62668 -7.6253 -7.62391 -7.62253 -7.62121 -7.62081 -7.6204 -7.61999 -7.61958 -7.61915 -7.6168 -7.61442 -7.61205 -7.60968 -7.60719 -7.60431 -7.60128 -7.59825 -7.59522 -7.59195 -7.58854 -7.58481 -7.58109 -7.57737 -7.57327 -7.56929 -7.56484 -7.56039 -7.55588 -7.55096 -7.54627 -7.54119 -7.53598 -7.53057 -7.52485 -7.51939 -7.5137 -7.50769 -7.50132 -7.49478 -7.48851 -7.48219 -7.47536 -7.46798 -7.46058 -7.45347 -7.44635 -7.43865 -7.43036 -7.42208 -7.41409 -7.4061 -7.39752 -7.38831 -7.37912 -7.37021 -7.36132 -7.35182 -7.34167 -7.33152 -7.32168 -7.31169 -7.30118 -7.29027 -7.27914 -7.26833 -7.25713 -7.24563 -7.23395 -7.22182 -7.21 -7.19754 -7.18501 -7.17249 -7.1594 -7.14637 -7.13278 -7.1192 -7.10562 -7.09175 -7.07738 -7.06271 -7.04805 -7.03339 -7.01872 -7.01762 -7.0165 -7.01537 -7.01425 -7.01313 -6.99861 -6.9841 -6.96959 -6.95509 -6.94034 -6.92384 -6.9071 -6.89036 -6.87364 -6.85636 -6.83902 -6.82114 -6.80326 -6.78525 -6.76666 -6.74819 -6.72942 -6.71038 -6.69088 -6.67111 -6.65147 -6.63183 -6.61155 -6.59058 -6.5696 -6.54877 -6.52794 -6.50643 -6.48424 -6.46205 -6.44001 -6.41797 -6.39514 -6.3718 -6.34838 -6.32512 -6.30146 -6.27739 -6.25317 -6.22851 -6.20401 -6.1787 -6.15338 -6.12807 -6.10237 -6.07622 -6.04963 -6.02306 -5.99649 -5.97001 -5.96999 -5.96998 -5.96996 -5.96994 -5.96992 -5.94216 -5.9144 -5.88666 -5.85893 -5.83088 -5.8021 -5.77309 -5.74409 -5.71507 -5.68546 -5.65554 -5.62538 -5.59511 -5.5645 -5.53362 -5.50243 -5.47125 -5.43965 -5.40751 -5.37535 -5.3429 -5.31046 -5.2775 -5.24409 -5.21068 -5.17696 -5.14309 -5.10876 -5.07426 -5.03959 -5.00463 -4.96912 -4.93354 -4.89796 -4.86214 -4.82985 -4.79723 -4.76461 -4.73199 -4.70123 -4.69667 -4.69211 -4.68755 -4.68299 -4.67838 -4.64045 -4.60251 -4.56457 -4.52664 -4.48823 -4.44938 -4.41023 -4.3711 -4.33175 -4.29192 -4.2519 -4.21182 -4.1715 -4.13054 -4.08953 -4.04833 -4.00715 -3.96546 -3.92331 -3.88115 -3.83881 -3.79629 -3.7533 -3.7102 -3.66692 -3.62345 -3.57937 -3.53527 -3.49119 -3.44696 -3.42523 -3.40329 -3.38136 -3.35942 -3.33813 -3.31481 -3.29149 -3.26818 -3.24486 -3.2213 -3.17529 -3.12916 -3.08304 -3.03688 -2.99009 -2.94318 -2.89617 -2.84904 -2.80142 -2.75363 -2.70573 -2.65785 -2.60955 -2.56083 -2.5121 -2.46325 -2.41425 -2.36482 -2.31533 -2.2657 -2.21592 -2.1656 -2.1153 -2.065 -2.01464 -2.00309 -1.99145 -1.97981 -1.96817 -1.95668 -1.91719 -1.8777 -1.83822 -1.79875 -1.75891 -1.70716 -1.65529 -1.60342 -1.55135 -1.49891 -1.44641 -1.39392 -1.34122 -1.2881 -1.23495 -1.18174 -1.12853 -1.07485 -1.02109 -0.967271 -0.91339 -0.859124 -0.8048 -0.750486 -0.696099 -0.677367 -0.658514 -0.639661 -0.62081 -0.602307 -0.566183 -0.530064 -0.49395 -0.45784 -0.421457 -0.366065 -0.310637 -0.255219 -0.199642 -0.143793 -0.0879095 -0.0320376 0.0239405 0.0801628 0.136423 0.192727 0.249079 0.305679 0.36227 0.418899 0.474888 0.531117 0.587336 0.643546 0.696965 0.698249 0.699533 0.700816 0.7021 0.703391 0.760667 0.817934 0.87519 0.932437 0.989986 1.04754 1.10506 1.16255 1.22024 1.278 1.33576 1.3935 1.45139 1.50923 1.56712 1.62502 1.68301 1.74102 1.79903 1.85704 1.87048 1.88394 1.8974 1.91086 1.92417 1.96887 2.01357 2.05826 2.10295 2.14775 2.20601 2.26417 2.3223 2.38047 2.4387 2.49692 2.55512 2.61331 2.67138 2.72949 2.7876 2.84567 2.90372 2.96177 3.01981 3.03017 3.04051 3.05084 3.06118 3.07144 3.1191 3.16676 3.21441 3.26205 3.30969 3.36763 3.42546 3.4832 3.54084 3.59853 3.65618 3.71381 3.7713 3.82863 3.88596 3.93651 3.9869 4.03727 4.08763 4.13629 4.14338 4.15048 4.15757 4.16466 4.17173 4.22866 4.28553 4.34239 4.3992 4.45589 4.51252 4.56913 4.62546 4.68158 4.73775 4.79385 4.84981 4.9056 4.96139 5.01703 5.03776 5.05838 5.07899 5.09959 5.11995 5.15476 5.18956 5.22437 5.25915 5.29378 5.34886 5.40375 5.45857 5.5131 5.56762 5.62202 5.67642 5.73044 5.78431 5.8381 5.87645 5.91456 5.95261 5.99066 6.02806 6.0435 6.05895 6.0744 6.08982 6.10517 6.15815 6.21096 6.26377 6.31638 6.36882 6.4211 6.47337 6.5253 6.57686 6.62845 6.67674 6.72469 6.77254 6.8204 6.86762 6.87088 6.87414 6.87741 6.88066 6.8839 6.93438 6.98482 7.03526 7.08554 7.13549 7.18531 7.23512 7.28452 7.3335 7.3825 7.42936 7.47583 7.52216 7.56849 7.61469 7.61672 7.61874 7.62077 7.62279 7.62479 7.67256 7.7203 7.76804 7.8156 7.86277 7.9098 7.95683 8.00342 8.04957 8.0957 8.13716 8.17822 8.21913 8.26005 8.30138 8.30582 8.31027 8.31471 8.31915 8.32354 8.36839 8.41317 8.45795 8.50249 8.54665 8.59065 8.63466 8.67821 8.7213 8.76436 8.80006 8.83539 8.87058 8.90578 8.94177 8.94878 8.95578 8.96279 8.96977 8.97667 9.01841 9.06003 9.10164 9.14298 9.18395 9.22473 9.26552 9.30585 9.34572 9.38555 9.41818 9.45044 9.48257 9.5147 9.54804 9.55476 9.56149 9.56821 9.57491 9.58153 9.61996 9.65826 9.69657 9.73462 9.77229 9.80973 9.84716 9.88416 9.9207 9.9572 9.99204 10.0264 10.0607 10.095 10.1315 10.1324 10.1334 10.1343 10.1353 10.1362 10.1712 10.2061 10.241 10.2758 10.3101 10.3441 10.3781 10.4117 10.4449 10.478 10.5108 10.5434 10.5757 10.608 10.64 10.6527 10.6652 10.6777 10.6902 10.7032 10.7219 10.7406 10.7593 10.7781 10.7965 10.8271 10.8574 10.8877 10.9177 10.9476 10.9772 11.0067 11.0356 11.0636 11.0915 11.1191 11.1474 11.1761 11.2047 11.2336 11.2467 11.2569 11.2671 11.2773 11.2886 11.3011 11.3136 11.3261 11.3386 11.3483 11.3683 11.3933 11.4184 11.4462 11.4832 11.5194 11.5557 11.5771 11.584 11.5908 11.5968 11.6067 11.619 11.6314 11.6446 11.6466 11.6485 11.6504 11.6522 11.6542 11.6664 11.6786 11.6908 11.7028 11.7141 11.7264 11.7386 11.749 11.7579 11.7667 11.7745 11.7817 11.788 11.7942 11.7995 11.8012 11.8022 11.8032 11.8041 11.8051 11.8069 11.8088 11.8106 11.8123 11.8132 11.8133 11.812 11.8105 11.8078 11.8044 11.7992 11.794 11.7869 11.7777 11.7684 11.7573 11.7442 11.7304 11.7165 11.7015 11.6954 11.6882 11.6811 11.674 11.6662 11.6534 11.6407 11.6279 11.615 11.6006 11.5753 11.5478 11.5201 11.491 11.4602 11.4262 11.3922 11.3549 11.3146 11.2742 11.2303 11.1856 11.1376 11.0879 11.0366 10.9815 10.922 10.8623 10.8026 10.7413 10.714 10.6851 10.6563 10.6274 10.5951 10.5529 10.5106 10.4683 10.4259 10.3815 10.2984 10.2128 10.1271 10.0409 9.9497 9.85301 9.75324 9.65075 9.54324 9.43372 9.31811 9.20243 9.08117 8.95468 8.82807 8.69488 8.56161 8.41769 8.26294 8.10805 7.94563 7.78238 7.61805 7.4531 7.28694 7.11296 6.91056 6.70567 6.50084 6.27708 6.04826 5.83774 5.62716 5.41653 5.21064 5.11994 5.00878 4.89769 4.78666 4.65972 4.46759 4.27526 4.08273 3.89 3.66538 3.35251 3.09778 2.84231 2.58613 2.4726 2.3731 1.94516 1.52249 0.942218 0