# vtk DataFile Version 2.0
track0
ASCII
DATASET POLYDATA
POINTS 10885 double
-0.0205 0.001 1e-05
-0.0202034 0.00100022 1e-05
-0.0199069 0.00100067 1e-05
-0.0196103 0.00100131 1e-05
-0.0193137 0.00100215 1e-05
-0.0190172 0.00100319 1e-05
-0.0187132 0.0010046 1e-05
-0.0184093 0.00100572 1e-05
-0.0181054 0.00100681 1e-05
-0.0178015 0.00100786 1e-05
-0.0174976 0.00100887 1e-05
-0.0172058 0.00101003 1e-05
-0.016914 0.00101084 1e-05
-0.0166222 0.00101163 1e-05
-0.0163305 0.0010124 1e-05
-0.0160387 0.00101313 1e-05
-0.0157586 0.001014 1e-05
-0.0154784 0.0010147 1e-05
-0.0151983 0.00101543 1e-05
-0.0149182 0.0010162 1e-05
-0.0146381 0.001017 1e-05
-0.0143692 0.00101793 1e-05
-0.0141002 0.00101879 1e-05
-0.0138313 0.0010197 1e-05
-0.0135624 0.00102067 1e-05
-0.0132934 0.00102168 1e-05
-0.0130463 0.00102271 1e-05
-0.0127992 0.00102373 1e-05
-0.012552 0.00102478 1e-05
-0.0123049 0.00102587 1e-05
-0.0120966 0.00102682 1e-05
-0.0120778 0.0010269 1e-05
-0.012059 0.00102699 1e-05
-0.0120402 0.00102708 1e-05
-0.0120213 0.00102717 1e-05
-0.0120025 0.00102726 1e-05
-0.0117547 0.00102843 1e-05
-0.0115068 0.00102962 1e-05
-0.0112589 0.00103084 1e-05
-0.0110111 0.00103208 1e-05
-0.0107632 0.00103334 1e-05
-0.0105252 0.00103457 1e-05
-0.0102873 0.00103582 1e-05
-0.0100493 0.00103709 1e-05
-0.00981133 0.00103837 1e-05
-0.00957337 0.00103966 1e-05
-0.00934491 0.0010409 1e-05
-0.00911645 0.00104216 1e-05
-0.008888 0.00104343 1e-05
-0.00865954 0.00104471 1e-05
-0.00843108 0.00104599 1e-05
-0.00821175 0.00104721 1e-05
-0.00799242 0.00104845 1e-05
-0.00777309 0.00104969 1e-05
-0.00755376 0.00105094 1e-05
-0.00733443 0.00105219 1e-05
-0.00712387 0.00105337 1e-05
-0.0069133 0.00105457 1e-05
-0.00670273 0.00105577 1e-05
-0.00649217 0.00105697 1e-05
-0.0062816 0.00105817 1e-05
-0.00607944 0.0010593 1e-05
-0.00587729 0.00106044 1e-05
-0.00567514 0.00106158 1e-05
-0.00547298 0.00106272 1e-05
-0.00527083 0.00106386 1e-05
-0.00507675 0.00106493 1e-05
-0.00488267 0.00106601 1e-05
-0.0046886 0.00106709 1e-05
-0.00449452 0.00106816 1e-05
-0.00430044 0.00106924 1e-05
-0.00411412 0.00107024 1e-05
-0.0039278 0.00107126 1e-05
-0.00374147 0.00107227 1e-05
-0.00355515 0.00107327 1e-05
-0.00336883 0.00107427 1e-05
-0.00318995 0.00107521 1e-05
-0.00301107 0.00107615 1e-05
-0.00283219 0.00107709 1e-05
-0.00265331 0.00107802 1e-05
-0.00247443 0.00107895 1e-05
-0.0023027 0.00107981 1e-05
-0.00213097 0.00108068 1e-05
-0.00195924 0.00108154 1e-05
-0.0017875 0.0010824 1e-05
-0.00161577 0.00108324 1e-05
-0.0014509 0.00108403 1e-05
-0.00128603 0.00108481 1e-05
-0.00112116 0.00108559 1e-05
-0.000956289 0.00108634 1e-05
-0.000791418 0.00108709 1e-05
-0.000633135 0.00108778 1e-05
-0.000474851 0.00108846 1e-05
-0.000316567 0.00108912 1e-05
-0.000158283 0.00108976 1e-05
0 0.00109038 1e-05
0.000105677 0.00109078 1e-05
0.000211355 0.00109116 1e-05
0.000317032 0.00109154 1e-05
0.00042271 0.0010919 1e-05
0.000528387 0.00109225 1e-05
0.000634886 0.00109259 1e-05
0.000741385 0.00109293 1e-05
0.000847885 0.00109325 1e-05
0.000954384 0.00109357 1e-05
0.00106088 0.00109387 1e-05
0.00116821 0.00109417 1e-05
0.00127554 0.00109446 1e-05
0.00138286 0.00109474 1e-05
0.00149019 0.00109502 1e-05
0.00159752 0.00109528 1e-05
0.00170568 0.00109553 1e-05
0.00181384 0.00109578 1e-05
0.001922 0.00109602 1e-05
0.00203016 0.00109625 1e-05
0.00213833 0.00109647 1e-05
0.00224733 0.00109668 1e-05
0.00235633 0.00109689 1e-05
0.00246533 0.00109709 1e-05
0.00257434 0.00109728 1e-05
0.00268334 0.00109746 1e-05
0.00279319 0.00109763 1e-05
0.00290304 0.00109781 1e-05
0.00301289 0.00109797 1e-05
0.00312274 0.00109814 1e-05
0.00323259 0.00109829 1e-05
0.00334329 0.00109843 1e-05
0.003454 0.00109858 1e-05
0.0035647 0.00109872 1e-05
0.0036754 0.00109886 1e-05
0.00378611 0.00109899 1e-05
0.00389767 0.00109911 1e-05
0.00400924 0.00109923 1e-05
0.0041208 0.00109935 1e-05
0.00423237 0.00109946 1e-05
0.00434393 0.00109957 1e-05
0.00445636 0.00109967 1e-05
0.00456879 0.00109976 1e-05
0.00468123 0.00109986 1e-05
0.00479366 0.00109995 1e-05
0.00490609 0.00110004 1e-05
0.0050194 0.00110011 1e-05
0.0051327 0.00110019 1e-05
0.00524601 0.00110026 1e-05
0.00535931 0.00110033 1e-05
0.00547262 0.00110039 1e-05
0.00558681 0.00110045 1e-05
0.005701 0.00110051 1e-05
0.00581518 0.00110056 1e-05
0.00592937 0.0011006 1e-05
0.00604356 0.00110065 1e-05
0.00612618 0.00110067 1e-05
0.0062088 0.0011007 1e-05
0.00629142 0.00110072 1e-05
0.00637404 0.00110074 1e-05
0.00645492 0.00110076 1e-05
0.00648772 0.00110077 1e-05
0.00652052 0.00110077 1e-05
0.00655333 0.00110078 1e-05
0.00658613 0.00110079 1e-05
0.00661893 0.00110079 1e-05
0.0067349 0.00110081 1e-05
0.00685087 0.00110082 1e-05
0.00696684 0.00110083 1e-05
0.00708281 0.00110083 1e-05
0.00719878 0.00110083 1e-05
0.00731565 0.00110082 1e-05
0.00743252 0.00110081 1e-05
0.00754939 0.0011008 1e-05
0.00766626 0.00110078 1e-05
0.00778313 0.00110076 1e-05
0.00790091 0.00110072 1e-05
0.00801869 0.00110069 1e-05
0.00813647 0.00110065 1e-05
0.00825425 0.00110061 1e-05
0.00837203 0.00110056 1e-05
0.00849073 0.0011005 1e-05
0.00860942 0.00110044 1e-05
0.00872812 0.00110038 1e-05
0.00884682 0.00110031 1e-05
0.00896551 0.00110024 1e-05
0.00908513 0.00110014 1e-05
0.00920475 0.00110006 1e-05
0.00932437 0.00109997 1e-05
0.00944398 0.00109988 1e-05
0.0095636 0.00109978 1e-05
0.00968415 0.00109966 1e-05
0.0098047 0.00109955 1e-05
0.00992525 0.00109943 1e-05
0.0100458 0.00109931 1e-05
0.0101663 0.00109919 1e-05
0.0102878 0.00109903 1e-05
0.0104093 0.00109889 1e-05
0.0105308 0.00109874 1e-05
0.0106523 0.00109859 1e-05
0.0107738 0.00109844 1e-05
0.0108962 0.00109825 1e-05
0.0110186 0.00109808 1e-05
0.0111411 0.0010979 1e-05
0.0112635 0.00109772 1e-05
0.0113859 0.00109754 1e-05
0.0115093 0.00109731 1e-05
0.0116327 0.00109711 1e-05
0.0117561 0.0010969 1e-05
0.0118795 0.00109669 1e-05
0.0120028 0.00109647 1e-05
0.0121272 0.00109621 1e-05
0.0122515 0.00109597 1e-05
0.0123759 0.00109573 1e-05
0.0125002 0.00109549 1e-05
0.0126245 0.00109523 1e-05
0.0127498 0.00109493 1e-05
0.0128752 0.00109466 1e-05
0.0130005 0.00109439 1e-05
0.0131258 0.00109411 1e-05
0.0132511 0.00109382 1e-05
0.0133774 0.00109348 1e-05
0.0135036 0.00109317 1e-05
0.0136299 0.00109286 1e-05
0.0137562 0.00109254 1e-05
0.0138825 0.00109221 1e-05
0.0140098 0.00109183 1e-05
0.014137 0.00109148 1e-05
0.0142643 0.00109113 1e-05
0.0143915 0.00109077 1e-05
0.0145188 0.0010904 1e-05
0.0146471 0.00108999 1e-05
0.0147753 0.00108959 1e-05
0.0149036 0.0010892 1e-05
0.0150318 0.0010888 1e-05
0.0151601 0.00108839 1e-05
0.0152893 0.00108793 1e-05
0.0154186 0.00108749 1e-05
0.0155478 0.00108706 1e-05
0.0156771 0.00108662 1e-05
0.0158063 0.00108616 1e-05
0.0159366 0.00108566 1e-05
0.0160668 0.00108518 1e-05
0.0161971 0.0010847 1e-05
0.0163274 0.00108421 1e-05
0.0164576 0.00108371 1e-05
0.0165889 0.00108317 1e-05
0.0167201 0.00108264 1e-05
0.0168514 0.00108212 1e-05
0.0169827 0.00108159 1e-05
0.0171139 0.00108104 1e-05
0.0172462 0.00108045 1e-05
0.0173785 0.00107988 1e-05
0.0175108 0.00107931 1e-05
0.0176431 0.00107873 1e-05
0.0177754 0.00107813 1e-05
0.0179087 0.00107751 1e-05
0.018042 0.00107689 1e-05
0.0181753 0.00107627 1e-05
0.0183087 0.00107564 1e-05
0.018442 0.00107499 1e-05
0.0185763 0.00107433 1e-05
0.0187107 0.00107366 1e-05
0.018845 0.00107299 1e-05
0.0189794 0.00107231 1e-05
0.0191137 0.00107162 1e-05
0.0192491 0.0010709 1e-05
0.0193845 0.00107018 1e-05
0.0195199 0.00106946 1e-05
0.0196553 0.00106873 1e-05
0.0197907 0.00106799 1e-05
0.0199272 0.00106723 1e-05
0.0200636 0.00106646 1e-05
0.0202001 0.00106569 1e-05
0.0203365 0.00106491 1e-05
0.020473 0.00106411 1e-05
0.0206105 0.00106331 1e-05
0.020748 0.00106249 1e-05
0.0208855 0.00106166 1e-05
0.021023 0.00106083 1e-05
0.0211606 0.00105999 1e-05
0.0212991 0.00105913 1e-05
0.0214377 0.00105826 1e-05
0.0215763 0.00105738 1e-05
0.0217149 0.00105649 1e-05
0.0218535 0.0010556 1e-05
0.0219931 0.0010547 1e-05
0.0221328 0.00105378 1e-05
0.0222724 0.00105284 1e-05
0.0224121 0.0010519 1e-05
0.0225517 0.00105096 1e-05
0.0226925 0.00105001 1e-05
0.0228332 0.00104904 1e-05
0.022974 0.00104805 1e-05
0.0231147 0.00104705 1e-05
0.0232555 0.00104606 1e-05
0.0233973 0.00104506 1e-05
0.0235391 0.00104403 1e-05
0.023681 0.00104299 1e-05
0.0238228 0.00104194 1e-05
0.0239647 0.00104089 1e-05
0.0241076 0.00103984 1e-05
0.0242505 0.00103877 1e-05
0.0243935 0.00103767 1e-05
0.0245364 0.00103657 1e-05
0.0246794 0.00103547 1e-05
0.0248234 0.00103437 1e-05
0.0249675 0.00103325 1e-05
0.0251115 0.00103209 1e-05
0.0252556 0.00103093 1e-05
0.0253996 0.00102978 1e-05
0.0255448 0.00102864 1e-05
0.02569 0.00102746 1e-05
0.0258351 0.00102625 1e-05
0.0259803 0.00102504 1e-05
0.0261255 0.00102384 1e-05
0.0262718 0.00102264 1e-05
0.0264181 0.00102141 1e-05
0.0265644 0.00102015 1e-05
0.0267107 0.00101889 1e-05
0.026857 0.00101764 1e-05
0.0270044 0.00101638 1e-05
0.0271519 0.0010151 1e-05
0.0272993 0.00101379 1e-05
0.0274468 0.00101248 1e-05
0.0275942 0.00101117 1e-05
0.0277428 0.00100987 1e-05
0.0278914 0.00100853 1e-05
0.0280399 0.00100717 1e-05
0.0281885 0.00100581 1e-05
0.0283371 0.00100444 1e-05
0.0284869 0.00100308 1e-05
0.0286366 0.00100169 1e-05
0.0287863 0.00100028 1e-05
0.0289361 0.000998866 1e-05
0.0290858 0.000997448 1e-05
0.0292367 0.000996033 1e-05
0.0293876 0.000994584 1e-05
0.0295385 0.000993123 1e-05
0.0296894 0.000991656 1e-05
0.0298403 0.000990182 1e-05
0.0299924 0.000988711 1e-05
0.0301445 0.000987205 1e-05
0.0302966 0.000985692 1e-05
0.0304486 0.000984171 1e-05
0.0306007 0.000982642 1e-05
0.030754 0.000981115 1e-05
0.0309072 0.000979555 1e-05
0.0310605 0.000977988 1e-05
0.0312138 0.000976413 1e-05
0.031367 0.00097483 1e-05
0.0315215 0.000973244 1e-05
0.0316759 0.00097163 1e-05
0.0318304 0.000970008 1e-05
0.0319848 0.000968378 1e-05
0.0321393 0.000966739 1e-05
0.0322949 0.000965094 1e-05
0.0324506 0.000963424 1e-05
0.0326062 0.000961745 1e-05
0.0327619 0.000960058 1e-05
0.0329175 0.000958363 1e-05
0.0330744 0.000956656 1e-05
0.0332313 0.000954928 1e-05
0.0333881 0.000953192 1e-05
0.033545 0.000951446 1e-05
[...]
POINT_DATA 10885
 FIELD attributes 1
U 3 10885 float
10.0005 	0.00747993 	0 10.0024 	0.0150393 	0 10.0042 	0.0217229 	0 10.0061 	0.0283621 	0 10.0079 	0.0349572 	0 10.0139 	0.0465082 	0 10.0154 	0.0369694 	0 10.0201 	0.0357908 	0 10.0248 	0.0346151 	0 10.0295 	0.0334425 	0 10.0381 	0.039821 	0 10.0403 	0.0281242 	0 10.0456 	0.0271879 	0 10.0509 	0.0262488 	0 10.0563 	0.0253071 	0 10.0639 	0.0313176 	0 10.0663 	0.0249424 	0 10.0708 	0.0262859 	0 10.0753 	0.027635 	0 10.0798 	0.02899 	0 10.0854 	0.0348031 	0 10.0884 	0.032325 	0 10.0923 	0.0342611 	0 10.0961 	0.036205 	0 10.1 	0.0381567 	0 10.1041 	0.041969 	0 10.1072 	0.0416471 	0 10.1103 	0.0430841 	0 10.1135 	0.0445258 	0 10.1166 	0.0459722 	0 10.1192 	0.0471952 	0 10.1195 	0.0473058 	0 10.1197 	0.0474165 	0 10.12 	0.0475272 	0 10.1202 	0.0476379 	0 10.1205 	0.0477098 	0 10.123 	0.0487348 	0 10.1255 	0.0497337 	0 10.128 	0.0507352 	0 10.1306 	0.0517393 	0 10.1333 	0.0522422 	0 10.1349 	0.0532437 	0 10.1367 	0.0538852 	0 10.1384 	0.0545279 	0 10.1402 	0.055172 	0 10.1424 	0.0549852 	0 10.1433 	0.0559556 	0 10.1445 	0.0563337 	0 10.1456 	0.0567124 	0 10.1468 	0.0570917 	0 10.1486 	0.0564474 	0 10.149 	0.0573546 	0 10.1497 	0.0575288 	0 10.1504 	0.0577032 	0 10.1511 	0.0578778 	0 10.1524 	0.0569449 	0 10.1527 	0.0577659 	0 10.153 	0.0577857 	0 10.1533 	0.0578055 	0 10.1536 	0.0578253 	0 10.1543 	0.0567306 	0 10.1548 	0.0574548 	0 10.1548 	0.057358 	0 10.1548 	0.0572612 	0 10.1548 	0.0571644 	0 10.1548 	0.0559898 	0 10.1557 	0.0566086 	0 10.1555 	0.0564177 	0 10.1552 	0.0562267 	0 10.1549 	0.0560355 	0 10.1541 	0.0548265 	0 10.1558 	0.0553313 	0 10.1553 	0.0550503 	0 10.1549 	0.0547692 	0 10.1545 	0.054488 	0 10.1527 	0.0532517 	0 10.1552 	0.0536233 	0 10.1547 	0.0532423 	0 10.1541 	0.0528612 	0 10.1536 	0.05248 	0 10.1507 	0.0512062 	0 10.1544 	0.0514155 	0 10.1538 	0.0508919 	0 10.1532 	0.0503681 	0 10.1526 	0.0498442 	0 10.1485 	0.0484672 	0 10.1535 	0.0483997 	0 10.1528 	0.0475734 	0 10.1521 	0.0467469 	0 10.1514 	0.0459203 	0 10.1459 	0.0442702 	0 10.1521 	0.0436868 	1.29578e-21 10.1512 	0.0423587 	7.04389e-21 10.1504 	0.0410303 	1.27935e-20 10.1496 	0.0397018 	1.85447e-20 10.1426 	0.0378383 	1.63238e-20 10.1493 	0.0373297 	1.03324e-19 10.1482 	0.0361137 	9.53858e-20 10.147 	0.0348976 	8.7431e-20 10.1459 	0.0336813 	7.94599e-20 10.1382 	0.032062 	-1.67701e-20 10.1446 	0.0318726 	-4.46097e-20 10.1432 	0.0309554 	-4.97131e-20 10.1419 	0.0300381 	-5.4811e-20 10.1405 	0.0291206 	-5.99034e-20 10.1328 	0.027673 	-2.56489e-20 10.1388 	0.0276909 	-2.22149e-20 10.1374 	0.0267599 	-1.56052e-20 10.136 	0.0258287 	-8.99632e-21 10.1346 	0.0248972 	-2.38825e-21 10.127 	0.0232972 	7.12479e-21 10.1327 	0.0235109 	-7.92434e-21 10.1313 	0.0225835 	-2.88349e-20 10.1298 	0.0216558 	-4.97479e-20 10.1284 	0.0207276 	-7.06636e-20 10.121 	0.0189562 	-9.90475e-20 10.1263 	0.0194219 	-1.32565e-19 10.1247 	0.0186732 	-1.18621e-19 10.1231 	0.0179242 	-1.0467e-19 10.1215 	0.0171748 	-9.07103e-20 10.1144 	0.0154289 	-3.47144e-20 10.119 	0.016049 	2.78173e-20 10.1172 	0.0154921 	4.27362e-20 10.1155 	0.0149349 	5.76474e-20 10.1137 	0.0143775 	7.25509e-20 10.1069 	0.0127955 	4.13366e-20 10.1108 	0.0133793 	-3.36274e-20 10.1089 	0.0129248 	-4.00801e-20 10.1069 	0.0124701 	-4.65226e-20 10.105 	0.0120152 	-5.29551e-20 10.0987 	0.0106519 	-5.73946e-22 10.1017 	0.0110665 	4.70792e-20 10.0996 	0.010649 	3.66203e-20 10.0975 	0.0102314 	2.61521e-20 10.0954 	0.00981356 	1.56747e-20 10.0895 	0.00869159 	-3.4009e-20 10.0915 	0.00889861 	-8.27296e-20 10.0892 	0.00850025 	-1.06717e-19 10.0869 	0.00810171 	-1.30701e-19 10.0846 	0.00770297 	-1.54681e-19 10.0793 	0.00682704 	-1.55005e-19 10.0801 	0.00683845 	-1.62412e-19 10.0776 	0.00645565 	-1.48799e-19 10.075 	0.00607269 	-1.35183e-19 10.0724 	0.00568957 	-1.21565e-19 10.0678 	0.00503841 	-9.59882e-20 10.0673 	0.00488109 	-7.87201e-20 10.0644 	0.00450622 	-5.87568e-20 10.0615 	0.00413122 	-3.87945e-20 10.0586 	0.00375608 	-1.88332e-20 10.0548 	0.0032843 	6.15425e-22 10.0536 	0.00309306 	0 10.0513 	0.00282296 	0 10.049 	0.00255279 	0 10.0467 	0.00228255 	0 10.0445 	0.00201796 	0 10.0436 	0.00191004 	0 10.0426 	0.00180211 	0 10.0417 	0.00169417 	0 10.0408 	0.00158622 	0 10.0374 	0.00141667 	-1.00694e-22 10.0362 	0.00109981 	-1.90259e-20 10.0326 	0.000716069 	-3.85191e-20 10.0291 	0.00033221 	-5.80113e-20 10.0255 	-5.17724e-05 	-7.75023e-20 10.0102 	-0.000779219 	-9.68736e-20 10.0175 	-0.000815112 	-1.02965e-19 10.0136 	-0.00120533 	-1.05078e-19 10.0096 	-0.00159566 	-1.07191e-19 10.0057 	-0.00198611 	-1.09305e-19 9.98025 	-0.00307307 	-1.06665e-19 9.99652 	-0.00277648 	-9.75034e-20 9.99217 	-0.00317312 	-6.6803e-20 9.98782 	-0.00356988 	-3.61087e-20 9.98346 	-0.00396676 	-5.42056e-21 9.94749 	-0.00544762 	4.83489e-20 9.97297 	-0.00480025 	4.90179e-20 9.9682 	-0.00520204 	5.03529e-20 9.96342 	-0.00560396 	5.16864e-20 9.95864 	-0.00600602 	5.30186e-20 9.91193 	-0.00788253 	5.8361e-20 9.9467 	-0.00689369 	4.55415e-20 9.94148 	-0.00730019 	3.27207e-20 9.93626 	-0.00770683 	1.98991e-20 9.93104 	-0.00811363 	7.07676e-21 9.87363 	-0.010363 	-1.86492e-21 9.91755 	-0.00906188 	-6.513e-21 9.91188 	-0.00947289 	-1.86514e-20 9.90621 	-0.00988407 	-3.0789e-20 9.90053 	-0.0102954 	-4.29258e-20 9.83268 	-0.0128768 	-5.50868e-20 9.88542 	-0.0113064 	-5.16738e-20 9.87929 	-0.0117218 	-5.96981e-20 9.87315 	-0.0121374 	-6.77204e-20 9.86701 	-0.0125531 	-7.57405e-20 9.78921 	-0.0154127 	-9.98736e-20 9.85022 	-0.0136244 	-1.82432e-19 9.84363 	-0.0140442 	-1.72527e-19 9.83703 	-0.0144643 	-1.62631e-19 9.83043 	-0.0148845 	-1.52744e-19 9.74338 	-0.0179613 	-4.56072e-20 9.81194 	-0.0160122 	-2.75493e-20 9.80489 	-0.0164369 	-1.891e-20 9.79783 	-0.0168618 	-1.02702e-20 9.79077 	-0.017287 	-1.62988e-21 9.69536 	-0.020515 	0 9.77059 	-0.0184655 	0 9.76309 	-0.0188961 	0 9.75559 	-0.0193271 	0 9.74807 	-0.0197583 	0 9.64535 	-0.023071 	0 9.72625 	-0.0209822 	4.80785e-22 9.71831 	-0.0214199 	8.57557e-21 9.71036 	-0.0218579 	1.66698e-20 9.70221 	-0.0223019 	2.47888e-20 9.59356 	-0.0256247 	4.57938e-20 9.6753 	-0.0236578 	1.87537e-19 9.67066 	-0.024003 	1.96247e-19 9.66229 	-0.0244481 	1.99237e-19 9.64436 	-0.02515 	1.87795e-19 9.54016 	-0.028168 	4.5962e-20 9.61675 	-0.0264891 	2.51539e-20 9.62027 	-0.0266348 	1.61676e-20 9.61149 	-0.0270877 	9.16911e-21 9.58468 	-0.0279903 	6.53516e-21 9.48536 	-0.0306996 	2.14505e-20 9.55653 	-0.029307 	1.13977e-19 9.56736 	-0.0293079 	1.37666e-19 9.5582 	-0.0297705 	1.38575e-19 9.52351 	-0.0308164 	1.0818e-19 9.42938 	-0.0332205 	4.89521e-21 9.49498 	-0.0321099 	-1.05107e-19 9.51218 	-0.0320197 	-1.51502e-19 9.50265 	-0.0324928 	-1.6282e-19 9.46117 	-0.0336229 	-1.40831e-19 9.37244 	-0.0357249 	-6.96099e-20 9.4324 	-0.034894 	-1.9367e-19 9.45497 	-0.0347668 	-2.52317e-19 9.44511 	-0.0352506 	-2.54258e-19 9.39796 	-0.0364047 	-1.86763e-19 9.31472 	-0.038208 	-5.2141e-20 9.36906 	-0.0376542 	-2.82632e-20 9.39602 	-0.0375447 	-1.1115e-20 9.38584 	-0.0380386 	-3.08842e-21 9.33413 	-0.0391569 	0 9.25642 	-0.0406669 	0 9.30524 	-0.0403729 	0 9.33562 	-0.0403268 	0 9.32515 	-0.0408304 	0 9.26998 	-0.0418629 	2.61104e-21 9.19772 	-0.0430985 	6.21874e-21 9.24121 	-0.043046 	2.77178e-21 9.27409 	-0.0431045 	0 9.26335 	-0.0436198 	0 9.20575 	-0.0445238 	3.01335e-21 9.13882 	-0.0455064 	6.62551e-21 9.17721 	-0.0456906 	3.17788e-21 9.21174 	-0.0459017 	5.72795e-22 9.20076 	-0.0464296 	7.89342e-21 9.14169 	-0.0471548 	2.70662e-20 9.07987 	-0.0478923 	4.69065e-20 9.11345 	-0.0483053 	1.80651e-19 9.14702 	-0.0487186 	3.14396e-19 9.1349 	-0.0492498 	3.14936e-19 9.07798 	-0.0497498 	1.81166e-19 9.02104 	-0.0502508 	4.73966e-20 9.05012 	-0.0508809 	2.7808e-20 9.07917 	-0.0515115 	8.21974e-21 9.06716 	-0.0520246 	6.13099e-22 9.01482 	-0.0523003 	4.07356e-21 8.96247 	-0.0525767 	7.53436e-21 8.98738 	-0.0534092 	4.2416e-21 9.01226 	-0.0542425 	9.49232e-22 9.00043 	-0.0547337 	8.46759e-22 8.95237 	-0.0548002 	-3.62566e-21 8.90428 	-0.0548672 	-8.09901e-21 8.92538 	-0.0558856 	-5.41166e-20 8.94644 	-0.0569051 	-1.00136e-19 8.93487 	-0.0573717 	-1.01877e-19 8.89074 	-0.0572462 	-5.97911e-20 8.84661 	-0.0571209 	-1.77053e-20 8.86423 	-0.0583072 	8.85399e-20 8.88181 	-0.0594948 	1.94781e-19 8.87057 	-0.0599351 	2.04467e-19 8.83006 	-0.0596364 	1.16088e-19 8.78956 	-0.0593376 	2.77083e-20 8.80404 	-0.060673 	1.57603e-20 8.81848 	-0.0620098 	3.80933e-21 8.80764 	-0.0624227 	-7.08866e-22 8.77042 	-0.0619704 	3.93024e-21 8.73322 	-0.0615179 	8.56998e-21 8.74489 	-0.0629828 	3.00121e-21 8.75652 	-0.0644493 	-2.57202e-21 8.74612 	-0.0648346 	-2.1169e-20 8.71189 	-0.0642491 	-7.43412e-20 8.67767 	-0.0636632 	-1.27515e-19 8.68685 	-0.0652387 	-2.67584e-19 8.69597 	-0.066816 	-4.07648e-19 8.68606 	-0.0671737 	-3.90562e-19 8.65452 	-0.0664749 	-2.2983e-19 8.623 	-0.0657755 	-6.90999e-20 8.62996 	-0.0674426 	6.25904e-20 8.63608 	-0.0690491 	1.88134e-19 8.62601 	-0.0693572 	1.85532e-19 8.59836 	-0.0686503 	9.66e-20 8.56926 	-0.0678577 	4.28467e-22 8.57426 	-0.0695992 	-9.50229e-20 8.57658 	-0.0710874 	-1.75323e-19 8.56671 	-0.0713936 	-1.85322e-19 8.54345 	-0.0707802 	-1.22661e-19 8.51652 	-0.0699131 	-3.99836e-20 8.5198 	-0.0717115 	-2.77913e-20 8.51903 	-0.0730474 	-1.57754e-20 8.50935 	-0.0733532 	-4.14611e-21 8.4898 	-0.0728688 	1.39491e-20 8.46481 	-0.071946 	3.56293e-20 8.46658 	-0.0737873 	1.27167e-20 8.46332 	-0.0749461 	-2.77503e-21 8.45383 	-0.0752528 	-9.00998e-21 8.43743 	-0.0749241 	-4.31251e-21 8.41417 	-0.0739618 	1.12781e-20 8.41463 	-0.0758312 	-5.94426e-21 8.40939 	-0.0767933 	-1.72059e-20 8.40007 	-0.0771016 	-2.41726e-20 8.38633 	-0.0769485 	-3.6874e-20 8.36462 	-0.0759618 	-5.99241e-20 8.36392 	-0.0778446 	5.56428e-20 8.35715 	-0.0785978 	9.00277e-20 8.348 	-0.0789098 	9.27007e-20 8.33649 	-0.0789478 	7.39955e-20 8.31617 	-0.0779548 	-2.50098e-20 8.31448 	-0.0798483 	7.25812e-20 8.30653 	-0.0803894 	8.95972e-20 8.29754 	-0.0807075 	9.33218e-20 8.28791 	-0.0809447 	9.17701e-20 8.26883 	-0.0799518 	1.04802e-20 8.26627 	-0.0818516 	-1.05398e-21 8.25746 	-0.0821767 	-7.18206e-22 8.24862 	-0.082501 	-3.74245e-22 8.23977 	-0.0828256 	-3.03123e-23 8.22259 	-0.081953 	1.91706e-20 8.21855 	-0.0836253 	0 8.20988 	-0.0839561 	0 8.20119 	-0.0842872 	0 8.19248 	-0.0846185 	0 8.17747 	-0.0839608 	1.61055e-20 8.17226 	-0.0853989 	0 8.16372 	-0.0857392 	0 8.15517 	-0.0860797 	0 8.1466 	-0.0864205 	0 8.13345 	-0.085987 	0 8.12732 	-0.0871939 	0 8.11891 	-0.0875466 	0 8.11049 	-0.0878995 	0 8.10205 	-0.0882528 	0 8.0905 	-0.088045 	-9.27808e-21 8.08367 	-0.0890292 	0 8.07539 	-0.0893967 	0 8.06709 	-0.0897645 	0 8.05877 	-0.0901325 	0 8.0486 	-0.0901464 	-1.20688e-20 8.04124 	-0.0909188 	0 8.03308 	-0.0913029 	0 8.0249 	-0.0916873 	0 8.0167 	-0.0920719 	0 8.00772 	-0.0923008 	-5.44792e-21 8.00136 	-0.0928045 	-7.73231e-21 7.99469 	-0.0931376 	-1.68353e-20 7.98801 	-0.0934709 	-2.5939e-20 7.98132 	-0.0938044 	-3.50434e-20 7.97482 	-0.0941279 	-4.387e-20 7.97335 	-0.0941998 	-4.56961e-20 7.97187 	-0.0942717 	-4.75223e-20 7.9704 	-0.0943436 	-4.93484e-20 7.96892 	-0.0944155 	-5.11744e-20 7.96762 	-0.0944544 	-5.30018e-20 7.9594 	-0.0949085 	-5.20669e-20 7.95124 	-0.0953332 	-5.14389e-20 7.94305 	-0.0957582 	-5.08084e-20 7.93484 	-0.0961835 	-5.01756e-20 7.92779 	-0.0963942 	-5.16222e-20 7.91926 	-0.0970336 	-4.05307e-20 7.91118 	-0.0974794 	-2.94286e-20 7.90309 	-0.0979255 	-1.83253e-20 7.89498 	-0.0983719 	-7.22074e-21 7.88898 	-0.0984304 	0 7.88014 	-0.099249 	-3.23082e-21 7.87215 	-0.0997173 	-8.38152e-21 7.86414 	-0.100186 	-1.35316e-20 7.85611 	-0.100655 	-1.8681e-20 7.85113 	-0.10057 	-2.37811e-20 7.84197 	-0.101563 	-5.36223e-20 7.83406 	-0.102055 	-7.46145e-20 7.82613 	-0.102547 	-9.5608e-20 7.81817 	-0.103039 	-1.16603e-19 7.81417 	-0.10282 	-1.11413e-19 7.80471 	-0.103982 	-8.88732e-20 7.79686 	-0.104499 	-7.71451e-20 7.789 	-0.105016 	-6.54114e-20 7.78111 	-0.105534 	-5.36721e-20 7.77804 	-0.105188 	-7.38212e-20 7.76828 	-0.106514 	-8.55812e-20 7.76049 	-0.107057 	-6.58766e-20 7.75268 	-0.1076 	-4.61763e-20 7.74494 	-0.108129 	-2.62424e-20 7.74268 	-0.10768 	9.30782e-21 7.73281 	-0.109092 	1.41107e-20 7.72489 	-0.109736 	9.66837e-21 7.71713 	-0.110307 	4.33755e-21 7.71037 	-0.110698 	0 7.70804 	-0.110302 	0 7.69827 	-0.11172 	0 7.69 	-0.112543 	0 7.68229 	-0.113142 	0 7.67647 	-0.113403 	0 7.67406 	-0.113061 	0 7.66438 	-0.114486 	0 7.65577 	-0.115483 	-1.01716e-20 7.64809 	-0.116113 	-2.90673e-20 7.64318 	-0.11625 	-4.8007e-20 7.64068 	-0.115962 	-6.6987e-20 7.63108 	-0.117398 	-4.66458e-20 7.62214 	-0.118565 	-2.47357e-20 7.61447 	-0.119225 	1.26883e-22 7.61043 	-0.119246 	1.03629e-20 7.60783 	-0.119013 	1.47559e-20 7.59831 	-0.120459 	4.95686e-20 7.58904 	-0.121792 	8.22021e-20 7.58139 	-0.122484 	1.02597e-19 7.57817 	-0.122396 	9.04258e-20 7.57546 	-0.122217 	7.4462e-20 7.56601 	-0.123677 	4.90142e-20 7.5565 	-0.125138 	2.35575e-20 7.54915 	-0.12583 	8.50157e-22 7.54633 	-0.125705 	1.08667e-20 7.54352 	-0.125581 	2.08834e-20 7.53412 	-0.127057 	8.85836e-20 7.52467 	-0.128534 	1.56287e-19 7.51781 	-0.129252 	1.56937e-19 7.51487 	-0.129181 	8.9829e-20 7.51193 	-0.129111 	2.27192e-20 7.50258 	-0.130605 	1.34729e-20 7.49317 	-0.132099 	4.23028e-21 7.48679 	-0.132844 	4.46546e-21 7.48372 	-0.132828 	1.42474e-20 7.48065 	-0.132812 	2.40297e-20 7.47134 	-0.134325 	9.02249e-20 7.46196 	-0.135838 	1.56424e-19 7.45603 	-0.136612 	1.57105e-19 7.45283 	-0.136652 	9.15277e-20 7.44962 	-0.136691 	2.59486e-20 7.44032 	-0.138224 	1.6959e-20 7.43097 	-0.139757 	7.97325e-21 7.42547 	-0.140563 	0 7.42213 	-0.140658 	0 7.41878 	-0.140753 	0 7.40949 	-0.142307 	0 7.40036 	-0.143824 	0 7.39523 	-0.144633 	0 7.39157 	-0.144851 	0 7.38807 	-0.145003 	0 7.37878 	-0.146578 	0 7.3705 	-0.147968 	0 7.36527 	-0.148817 	0 7.36111 	-0.149234 	1.15466e-20 7.35745 	-0.149443 	2.86446e-20 7.34815 	-0.151041 	9.98235e-21 7.34068 	-0.15231 	4.27205e-21 7.33535 	-0.1532 	1.34559e-20 7.33069 	-0.153813 	2.47005e-20 7.32687 	-0.15408 	3.85051e-20 7.31755 	-0.155702 	1.31304e-19 7.31086 	-0.156855 	1.64716e-19 7.30541 	-0.157787 	1.70002e-19 7.30025 	-0.158592 	1.50289e-19 7.29627 	-0.158917 	3.69796e-20 7.28691 	-0.160564 	1.52818e-19 7.28097 	-0.161608 	1.53748e-19 7.2754 	-0.162582 	1.41403e-19 7.2698 	-0.163557 	1.29039e-19 7.2656 	-0.163958 	3.94051e-20 7.25664 	-0.165554 	2.84826e-20 7.25097 	-0.166571 	2.89425e-20 7.24527 	-0.167588 	2.9407e-20 7.23953 	-0.168605 	2.98762e-20 7.2348 	-0.169206 	5.99789e-20 7.22662 	-0.170686 	7.47086e-20 7.22081 	-0.171746 	7.23033e-20 7.21497 	-0.172806 	6.98833e-20 7.20909 	-0.173867 	6.74488e-20 7.20383 	-0.174664 	4.42373e-20 7.19639 	-0.176032 	1.72376e-20 7.19044 	-0.177135 	1.07856e-20 7.18444 	-0.178239 	4.34614e-21 7.17841 	-0.179342 	-2.0806e-21 7.17262 	-0.180333 	-1.08484e-21 7.16728 	-0.181332 	-2.22573e-22 7.16256 	-0.182218 	-1.8248e-22 7.15783 	-0.183103 	-1.42398e-22 7.15306 	-0.183989 	-1.02326e-22 7.14851 	-0.184831 	-6.42561e-23 7.14701 	-0.1851 	-5.07235e-23 7.1455 	-0.18537 	-3.71898e-23 7.14399 	-0.185639 	-2.36552e-23 7.14248 	-0.185908 	-1.01196e-23 7.14126 	-0.186146 	0 7.13467 	-0.187365 	-1.40473e-20 7.12822 	-0.188553 	-2.90775e-20 7.12172 	-0.189741 	-4.41023e-20 7.11518 	-0.190929 	-5.91216e-20 7.11016 	-0.191956 	-7.28405e-20 7.10264 	-0.193347 	-5.76503e-20 7.09601 	-0.194578 	-4.12316e-20 7.08933 	-0.195809 	-2.48073e-20 7.0826 	-0.197039 	-8.37724e-21 7.07868 	-0.197982 	3.17836e-21 7.07021 	-0.199544 	4.0503e-21 7.06338 	-0.200818 	1.92773e-20 7.05651 	-0.202091 	3.44985e-20 7.0496 	-0.203364 	4.97139e-20 7.04677 	-0.204223 	7.15785e-20 7.03731 	-0.205955 	4.80667e-20 7.03029 	-0.20727 	3.15254e-20 7.02322 	-0.208585 	1.49781e-20 7.01667 	-0.209843 	-4.53915e-23 7.01437 	-0.210676 	-3.68291e-21 7.00458 	-0.212466 	-6.00708e-20 6.99668 	-0.213934 	-7.71714e-20 6.98939 	-0.21529 	-8.07046e-20 6.98399 	-0.216458 	-6.51376e-20 6.98144 	-0.217341 	-2.07083e-20 6.97145 	-0.219164 	-6.56596e-20 6.9625 	-0.220807 	-9.32291e-20 6.95499 	-0.222203 	-9.69876e-20 6.95072 	-0.223281 	-6.57028e-20 6.94793 	-0.224212 	-1.82975e-20 6.93773 	-0.226067 	-6.57923e-20 6.9277 	-0.227885 	-1.09356e-19 6.91996 	-0.229322 	-1.13321e-19 6.91684 	-0.230309 	-6.07414e-20 6.91379 	-0.231287 	-6.9049e-21 6.90336 	-0.233174 	-3.79602e-21 6.89287 	-0.235062 	-6.89346e-22 6.88556 	-0.236515 	0 6.88228 	-0.237538 	0 6.87896 	-0.238561 	0 6.86831 	-0.24048 	0 6.85759 	-0.242399 	0 6.85057 	-0.243896 	0 6.84701 	-0.244962 	0 6.84342 	-0.246029 	0 6.83252 	-0.247978 	0 6.82155 	-0.249928 	0 6.81482 	-0.251469 	-2.68021e-21 6.81098 	-0.252577 	6.53308e-21 6.80709 	-0.253686 	1.57418e-20 6.79595 	-0.255665 	-4.83259e-20 6.78579 	-0.257545 	-9.70144e-20 6.77914 	-0.259092 	-9.38895e-20 6.77414 	-0.260376 	-5.19675e-20 6.76996 	-0.261525 	9.94618e-21 6.75855 	-0.263532 	-1.76468e-21 6.74967 	-0.2653 	-1.46473e-21 6.74274 	-0.26688 	8.21187e-21 6.73645 	-0.268353 	1.37798e-20 6.73197 	-0.26954 	8.42007e-21 6.7203 	-0.271575 	6.67263e-20 6.71269 	-0.273228 	7.29447e-20 6.70547 	-0.27484 	7.35134e-20 6.6982 	-0.276452 	7.40643e-20 6.69308 	-0.277724 	2.8491e-20 6.68228 	-0.27968 	3.21357e-20 6.67482 	-0.281321 	3.00405e-20 6.66731 	-0.282963 	2.79535e-20 6.65974 	-0.284604 	2.58746e-20 6.65327 	-0.286069 	2.26024e-20 6.64379 	-0.287901 	2.03809e-20 6.63603 	-0.289571 	1.18215e-20 6.62821 	-0.29124 	3.26399e-21 6.62034 	-0.292909 	-5.2916e-21 6.61247 	-0.294565 	-1.36781e-20 6.61178 	-0.294697 	-1.48317e-20 6.61121 	-0.294818 	-1.48314e-20 6.61064 	-0.294938 	-1.4831e-20 6.61007 	-0.295059 	-1.48304e-20 6.6095 	-0.295179 	-1.48298e-20 6.60155 	-0.29675 	-1.69642e-20 6.59353 	-0.298321 	-1.90941e-20 6.58546 	-0.299891 	-2.12195e-20 6.57733 	-0.301462 	-2.33403e-20 6.5703 	-0.302907 	-2.43966e-20 6.56078 	-0.304761 	-2.02891e-20 6.55182 	-0.306476 	-1.39858e-20 6.54279 	-0.30819 	-7.67896e-21 6.53369 	-0.309904 	-1.36857e-21 6.52695 	-0.311357 	4.63756e-21 6.51636 	-0.313385 	0 6.50704 	-0.31512 	0 6.49764 	-0.316856 	0 6.48882 	-0.318523 	0 6.4824 	-0.319929 	0 6.47135 	-0.32199 	0 6.46101 	-0.323885 	0 6.45124 	-0.325639 	0 6.44339 	-0.327184 	0 6.43661 	-0.32861 	0 6.42518 	-0.330685 	0 6.41368 	-0.332757 	0 6.40378 	-0.334501 	4.24252e-22 6.39669 	-0.335945 	5.65256e-21 6.38955 	-0.337389 	1.08845e-20 6.37773 	-0.339475 	6.61249e-21 6.36582 	-0.34156 	2.34456e-21 6.35617 	-0.343336 	1.77437e-21 6.34871 	-0.344795 	4.74259e-21 6.34119 	-0.346255 	7.71543e-21 6.32897 	-0.348349 	-1.30251e-20 6.31668 	-0.350441 	-3.3683e-20 6.30743 	-0.352213 	-4.09034e-20 6.2994 	-0.353723 	-3.12755e-20 6.29149 	-0.355195 	-1.92198e-20 6.27886 	-0.357295 	-1.24716e-20 6.26768 	-0.359239 	-7.12819e-21 6.25805 	-0.361018 	-3.26801e-21 6.24874 	-0.362715 	-1.61408e-21 6.24043 	-0.364197 	-5.79615e-21 6.22739 	-0.3663 	-6.71404e-22 6.21736 	-0.368091 	-4.66311e-21 6.20733 	-0.369874 	-8.85017e-21 6.19722 	-0.371656 	-1.30402e-20 6.188 	-0.373248 	-1.99344e-20 6.17607 	-0.375198 	-1.83452e-20 6.16571 	-0.376983 	-2.40968e-20 6.15527 	-0.378768 	-2.98577e-20 6.14475 	-0.380551 	-3.56279e-20 6.13419 	-0.382329 	-4.13882e-20 6.13419 	-0.38233 	-4.13957e-20 6.13418 	-0.382331 	-4.14031e-20 6.13417 	-0.382333 	-4.14106e-20 6.13416 	-0.382334 	-4.14181e-20 6.13416 	-0.382335 	-4.13975e-20 6.12386 	-0.384123 	-3.23897e-20 6.11349 	-0.385911 	-2.33728e-20 6.10304 	-0.387698 	-1.43497e-20 6.09252 	-0.389484 	-5.32041e-21 6.0822 	-0.391106 	5.58739e-21 6.07186 	-0.393082 	1.99267e-20 6.06108 	-0.394865 	2.35506e-20 6.05023 	-0.396648 	2.71983e-20 6.03931 	-0.398418 	3.00664e-20 6.02884 	-0.39988 	1.17773e-20 6.01829 	-0.401951 	2.43839e-21 6.00727 	-0.403821 	3.81111e-21 5.996 	-0.405596 	1.01504e-20 5.98495 	-0.407189 	2.55025e-20 5.97405 	-0.408644 	4.75722e-20 5.96308 	-0.410702 	8.31881e-20 5.95203 	-0.412759 	1.18809e-19 5.9404 	-0.414491 	1.24915e-19 5.92914 	-0.415937 	9.27201e-20 5.91781 	-0.417384 	6.05139e-20 5.90642 	-0.419426 	1.15811e-19 5.89494 	-0.421467 	1.71103e-19 5.88358 	-0.423217 	1.59128e-19 5.87189 	-0.424652 	8.19862e-20 5.86012 	-0.426086 	4.81403e-21 5.8483 	-0.428109 	-2.56009e-22 5.8365