# vtk DataFile Version 2.0
track0
ASCII
DATASET POLYDATA
POINTS 10975 double
-0.0205 0.001 1e-05
-0.0202034 0.00100003 1e-05
-0.0199069 0.00100026 1e-05
-0.0196103 0.00100071 1e-05
-0.0193137 0.00100137 1e-05
-0.0190172 0.00100225 1e-05
-0.0187132 0.00100354 1e-05
-0.0184093 0.0010045 1e-05
-0.0181054 0.00100547 1e-05
-0.0178015 0.00100644 1e-05
-0.0174976 0.0010074 1e-05
-0.0172058 0.00100862 1e-05
-0.016914 0.00100939 1e-05
-0.0166222 0.0010101 1e-05
-0.0163305 0.00101076 1e-05
-0.0160387 0.00101135 1e-05
-0.0157586 0.00101219 1e-05
-0.0154784 0.0010126 1e-05
-0.0151983 0.00101296 1e-05
-0.0149182 0.00101328 1e-05
-0.0146381 0.00101356 1e-05
-0.0143692 0.00101411 1e-05
-0.0141002 0.00101425 1e-05
-0.0138313 0.00101436 1e-05
-0.0135624 0.00101443 1e-05
-0.0132934 0.00101446 1e-05
-0.0130353 0.00101481 1e-05
-0.0127771 0.00101475 1e-05
-0.0125189 0.00101467 1e-05
-0.0122607 0.00101455 1e-05
-0.0120025 0.00101441 1e-05
-0.0117547 0.00101462 1e-05
-0.0115068 0.00101441 1e-05
-0.0112589 0.00101418 1e-05
-0.0110111 0.00101392 1e-05
-0.0107632 0.00101365 1e-05
-0.0105252 0.00101377 1e-05
-0.0102873 0.00101344 1e-05
-0.0100493 0.0010131 1e-05
-0.00981133 0.00101273 1e-05
-0.00957337 0.00101235 1e-05
-0.00934491 0.00101242 1e-05
-0.00911645 0.001012 1e-05
-0.008888 0.00101156 1e-05
-0.00865954 0.0010111 1e-05
-0.00843108 0.00101062 1e-05
-0.00821175 0.00101065 1e-05
-0.00799242 0.00101015 1e-05
-0.00777309 0.00100963 1e-05
-0.00755376 0.00100908 1e-05
-0.00733443 0.00100852 1e-05
-0.00712387 0.00100853 1e-05
-0.0069133 0.00100794 1e-05
-0.00670273 0.00100734 1e-05
-0.00649217 0.00100671 1e-05
-0.0062816 0.00100607 1e-05
-0.00607944 0.00100607 1e-05
-0.00587729 0.00100541 1e-05
-0.00567514 0.00100472 1e-05
-0.00547299 0.00100402 1e-05
-0.00527083 0.00100329 1e-05
-0.00507675 0.00100328 1e-05
-0.00488268 0.00100255 1e-05
-0.0046886 0.00100178 1e-05
-0.00449453 0.001001 1e-05
-0.00430044 0.00100019 1e-05
-0.00411412 0.00100017 1e-05
-0.0039278 0.000999355 1e-05
-0.00374148 0.000998508 1e-05
-0.00355516 0.000997636 1e-05
-0.00336883 0.000996736 1e-05
-0.00318995 0.000996711 1e-05
-0.00301107 0.0009958 1e-05
-0.0028322 0.00099486 1e-05
-0.00265332 0.000993888 1e-05
-0.00247443 0.000992884 1e-05
-0.0023027 0.000992836 1e-05
-0.00213097 0.000991816 1e-05
-0.00195924 0.00099076 1e-05
-0.00178751 0.000989667 1e-05
-0.00161577 0.000988537 1e-05
-0.0014509 0.000988449 1e-05
-0.00128603 0.000987295 1e-05
-0.00112117 0.00098609 1e-05
-0.000956302 0.000984835 1e-05
-0.000791418 0.000983526 1e-05
-0.000633135 0.000983344 1e-05
-0.000474857 0.00098197 1e-05
-0.00031658 0.000980538 1e-05
-0.000158303 0.000979046 1e-05
0 0.000977492 1e-05
0.000105677 0.000977285 1e-05
0.000211349 0.000976177 1e-05
0.000317021 0.000975031 1e-05
0.000422692 0.000973847 1e-05
0.000528387 0.000972623 1e-05
0.000634886 0.000972401 1e-05
0.000741378 0.000971143 1e-05
0.00084787 0.000969857 1e-05
0.000954361 0.000968542 1e-05
0.00106088 0.000967198 1e-05
0.00116821 0.000966999 1e-05
0.00127553 0.000965655 1e-05
0.00138285 0.000964285 1e-05
0.00149017 0.00096289 1e-05
0.00159752 0.000961571 1e-05
0.00170568 0.0009614 1e-05
0.00181383 0.000960164 1e-05
0.00192199 0.000958757 1e-05
0.00203014 0.000957328 1e-05
0.00213833 0.000956127 1e-05
0.00224733 0.000955988 1e-05
0.00235632 0.000954882 1e-05
0.00246532 0.000953476 1e-05
0.00257431 0.000952048 1e-05
0.00268334 0.000950967 1e-05
0.00279319 0.000950855 1e-05
0.00290303 0.000949865 1e-05
0.00301287 0.000948476 1e-05
0.00312272 0.000947065 1e-05
0.00323259 0.000946089 1e-05
0.00334329 0.00094599 1e-05
0.00345399 0.000945097 1e-05
0.00356469 0.000943731 1e-05
0.00367538 0.000942343 1e-05
0.00378611 0.000941454 1e-05
0.00389767 0.000941358 1e-05
0.00400923 0.000940543 1e-05
0.00412079 0.000939202 1e-05
0.00423235 0.000937838 1e-05
0.00434393 0.000937019 1e-05
0.00445636 0.000936916 1e-05
0.00456879 0.00093616 1e-05
0.00468122 0.000934841 1e-05
0.00479364 0.000933499 1e-05
0.00490609 0.000932732 1e-05
0.0050194 0.000932612 1e-05
0.0051327 0.000931898 1e-05
0.005246 0.000930596 1e-05
0.0053593 0.000929286 1e-05
0.00547262 0.000928555 1e-05
0.00558681 0.000928409 1e-05
0.00570099 0.000927721 1e-05
0.00581517 0.000926495 1e-05
0.00592935 0.000925261 1e-05
0.00604356 0.000924552 1e-05
0.00615863 0.000924373 1e-05
0.0062737 0.000923699 1e-05
0.00638877 0.000922534 1e-05
0.00650384 0.000921359 1e-05
0.00661893 0.000920661 1e-05
0.0067349 0.000920444 1e-05
0.00685087 0.000919774 1e-05
0.00696683 0.000918656 1e-05
0.0070828 0.000917526 1e-05
0.00719878 0.00091683 1e-05
0.00731565 0.00091657 1e-05
0.00743252 0.000915896 1e-05
0.00754939 0.000914811 1e-05
0.00766625 0.000913715 1e-05
0.00778313 0.000913012 1e-05
0.00790091 0.000912706 1e-05
0.00801869 0.000912021 1e-05
0.00813647 0.000910959 1e-05
0.00825424 0.000909885 1e-05
0.00837203 0.000909169 1e-05
0.00849073 0.000908814 1e-05
0.00860942 0.000908111 1e-05
0.00872811 0.000907062 1e-05
0.00884681 0.000906001 1e-05
0.00896551 0.000905266 1e-05
0.00908513 0.00090486 1e-05
0.00920475 0.000904133 1e-05
0.00932436 0.00090309 1e-05
0.00944398 0.000902034 1e-05
0.0095636 0.000901276 1e-05
0.00968415 0.000900815 1e-05
0.0098047 0.000900061 1e-05
0.00992524 0.000899016 1e-05
0.0100458 0.000897958 1e-05
0.0101663 0.000897172 1e-05
0.0102878 0.000896655 1e-05
0.0104093 0.00089587 1e-05
0.0105308 0.000894839 1e-05
0.0106523 0.000893803 1e-05
0.0107738 0.000892984 1e-05
0.0108962 0.000892411 1e-05
0.0110186 0.000891589 1e-05
0.0111411 0.000890571 1e-05
0.0112635 0.000889547 1e-05
0.0113859 0.000888692 1e-05
0.0115093 0.00088806 1e-05
0.0116327 0.000887199 1e-05
0.0117561 0.000886184 1e-05
0.0118794 0.000885163 1e-05
0.0120028 0.000884268 1e-05
0.0121272 0.000883576 1e-05
0.0122515 0.000882674 1e-05
0.0123759 0.000881653 1e-05
0.0125002 0.000880625 1e-05
0.0126245 0.000879688 1e-05
0.0127498 0.000878934 1e-05
0.0128752 0.000877987 1e-05
0.0130005 0.000876953 1e-05
0.0131258 0.000875912 1e-05
0.0132511 0.00087493 1e-05
0.0133774 0.000874113 1e-05
0.0135036 0.000873119 1e-05
0.0136299 0.000872065 1e-05
0.0137562 0.000871003 1e-05
0.0138825 0.000869974 1e-05
0.0140098 0.000869094 1e-05
0.014137 0.00086805 1e-05
0.0142643 0.000866969 1e-05
0.0143915 0.00086588 1e-05
0.0145188 0.000864802 1e-05
0.0146471 0.000863857 1e-05
0.0147753 0.000862761 1e-05
0.0149036 0.000861648 1e-05
0.0150318 0.000860527 1e-05
0.0151601 0.000859398 1e-05
0.0152893 0.000858388 1e-05
0.0154186 0.000857246 1e-05
0.0155478 0.000856096 1e-05
0.0156771 0.000854937 1e-05
0.0158063 0.000853771 1e-05
0.0159366 0.000852693 1e-05
0.0160668 0.000851509 1e-05
0.0161971 0.000850317 1e-05
0.0163273 0.000849116 1e-05
0.0164576 0.000847907 1e-05
0.0165889 0.000846761 1e-05
0.0167201 0.000845531 1e-05
0.0168514 0.000844293 1e-05
0.0169827 0.000843045 1e-05
0.0171139 0.000841789 1e-05
0.0172462 0.000840573 1e-05
0.0173785 0.000839294 1e-05
0.0175108 0.000838005 1e-05
0.0176431 0.000836706 1e-05
0.0177754 0.000835398 1e-05
0.0179087 0.000834112 1e-05
0.018042 0.000832779 1e-05
0.0181753 0.000831435 1e-05
0.0183087 0.000830082 1e-05
0.018442 0.000828719 1e-05
0.0185763 0.000827362 1e-05
0.0187107 0.000825971 1e-05
0.018845 0.000824569 1e-05
0.0189794 0.000823158 1e-05
0.0191137 0.000821737 1e-05
0.0192491 0.000820306 1e-05
0.0193845 0.000818854 1e-05
0.0195199 0.000817392 1e-05
0.0196553 0.000815919 1e-05
0.0197907 0.000814436 1e-05
0.0197953 0.000814386 1e-05
0.0197998 0.000814336 1e-05
0.0198043 0.000814287 1e-05
0.0198088 0.000814237 1e-05
0.0198133 0.000814187 1e-05
0.0199452 0.00081273 1e-05
0.0200772 0.000811263 1e-05
0.0202091 0.000809785 1e-05
0.0203411 0.000808298 1e-05
0.020473 0.000806801 1e-05
0.0206105 0.000805221 1e-05
0.020748 0.000803638 1e-05
0.0208855 0.000802044 1e-05
0.021023 0.000800438 1e-05
0.0211606 0.000798822 1e-05
0.0212991 0.000797167 1e-05
0.0214377 0.000795514 1e-05
0.0215763 0.000793849 1e-05
0.0217149 0.000792173 1e-05
0.0218535 0.000790485 1e-05
0.0219931 0.000788753 1e-05
0.0221328 0.000787027 1e-05
0.0222724 0.000785288 1e-05
0.0224121 0.000783538 1e-05
0.0225517 0.000781776 1e-05
0.0226925 0.000779965 1e-05
0.0228332 0.000778163 1e-05
0.022974 0.000776347 1e-05
0.0231147 0.000774519 1e-05
0.0232555 0.000772678 1e-05
0.0233973 0.000770785 1e-05
0.0235391 0.0007689 1e-05
0.023681 0.000767003 1e-05
0.0238228 0.000765091 1e-05
0.0239647 0.000763167 1e-05
0.0241076 0.000761189 1e-05
0.0242505 0.00075922 1e-05
0.0243935 0.000757239 1e-05
0.0245364 0.000755243 1e-05
0.0246794 0.000753233 1e-05
0.0248234 0.00075117 1e-05
0.0249675 0.000749114 1e-05
0.0251115 0.000747048 1e-05
0.0252556 0.000744968 1e-05
0.0253996 0.000742868 1e-05
0.0255448 0.000740717 1e-05
0.02569 0.000738568 1e-05
0.0258351 0.00073641 1e-05
0.0259803 0.000734237 1e-05
0.0261255 0.000732041 1e-05
0.0262718 0.000729797 1e-05
0.0264181 0.00072755 1e-05
0.0265644 0.000725294 1e-05
0.0267107 0.000723023 1e-05
0.026857 0.000720728 1e-05
0.0270044 0.000718386 1e-05
0.0271519 0.000716038 1e-05
0.0272993 0.000713682 1e-05
0.0274468 0.00071131 1e-05
0.0275942 0.000708914 1e-05
0.0277428 0.000706473 1e-05
0.0278914 0.000704024 1e-05
0.0280399 0.000701565 1e-05
0.0281885 0.00069909 1e-05
0.0283371 0.000696592 1e-05
0.0284869 0.000694051 1e-05
0.0286366 0.000691499 1e-05
0.0287863 0.000688936 1e-05
0.0289361 0.000686356 1e-05
0.0290858 0.000683755 1e-05
0.0292367 0.000681113 1e-05
0.0293876 0.000678457 1e-05
0.0295385 0.000675787 1e-05
0.0296894 0.000673101 1e-05
0.0298403 0.000670396 1e-05
0.0299924 0.000667651 1e-05
0.0301445 0.000664889 1e-05
0.0302966 0.000662112 1e-05
0.0304486 0.000659317 1e-05
0.0306007 0.000656506 1e-05
0.030754 0.000653656 1e-05
0.0309072 0.000650787 1e-05
0.0310605 0.000647899 1e-05
0.0312138 0.000644995 1e-05
0.031367 0.000642075 1e-05
0.0315215 0.000639116 1e-05
0.0316759 0.000636136 1e-05
0.0318304 0.000633135 1e-05
0.0319848 0.000630118 1e-05
0.0321393 0.000627086 1e-05
0.0322949 0.000624016 1e-05
0.0324506 0.000620922 1e-05
0.0326062 0.000617806 1e-05
0.0327619 0.000614673 1e-05
0.0329175 0.000611525 1e-05
[...]
POINT_DATA 10975
 FIELD attributes 1
U 3 10975 float
10.0021 	0.000980137 	0 10.0076 	0.00792715 	0 10.013 	0.0151157 	0 10.0184 	0.0223174 	0 10.0239 	0.0295324 	0 10.0305 	0.0425819 	0 10.0339 	0.031914 	0 10.0371 	0.0319324 	0 10.0403 	0.0319508 	0 10.0435 	0.0319693 	0 10.0462 	0.0419849 	0 10.0442 	0.0264308 	0 10.0432 	0.0244746 	0 10.0422 	0.0224924 	0 10.0412 	0.0204836 	0 10.0402 	0.0301583 	0 10.0367 	0.0146139 	0 10.0344 	0.0130274 	0 10.0321 	0.0114134 	0 10.0299 	0.00977141 	0 10.0279 	0.0206271 	0 10.0246 	0.00523277 	0 10.0223 	0.00395681 	0 10.0199 	0.00265463 	0 10.0176 	0.00132568 	0 10.0156 	0.0135296 	0 10.0124 	-0.00225271 	0 10.0099 	-0.00332759 	0 10.0075 	-0.00442712 	0 10.0051 	-0.00555187 	0 10.0028 	0.00843531 	0 9.99978 	-0.00842276 	0 9.99728 	-0.00933553 	0 9.99477 	-0.0102707 	0 9.99225 	-0.0112288 	0 9.98977 	0.00510424 	0 9.98697 	-0.0136094 	0 9.98448 	-0.0144476 	0 9.982 	-0.0153072 	0 9.9795 	-0.0161887 	0 9.97682 	0.00298175 	0 9.97433 	-0.0183077 	0 9.9719 	-0.0191529 	0 9.96947 	-0.0200201 	0 9.96703 	-0.0209098 	0 9.9641 	0.00157044 	0 9.96199 	-0.0229217 	0 9.95961 	-0.023812 	0 9.95722 	-0.0247256 	0 9.95483 	-0.0256632 	0 9.95157 	0.000633373 	0 9.94992 	-0.0276287 	0 9.94762 	-0.0285812 	0 9.94531 	-0.0295585 	0 9.94299 	-0.0305614 	0 9.93933 	5.63123e-05 	0 9.93827 	-0.0325288 	0 9.93606 	-0.0335695 	0 9.93384 	-0.034637 	0 9.93162 	-0.0357321 	0 9.92748 	-0.00031125 	0 9.92712 	-0.0377728 	0 9.92504 	-0.0389529 	0 9.92294 	-0.0401629 	0 9.92084 	-0.0414036 	0 9.91616 	-0.000724172 	0 9.91664 	-0.0436498 	0 9.91467 	-0.0450189 	0 9.9127 	-0.046422 	0 9.91071 	-0.04786 	0 9.90532 	-0.00139538 	0 9.90672 	-0.0504203 	0 9.90489 	-0.0520895 	0 9.90304 	-0.0537991 	0 9.90118 	-0.0555501 	0 9.89497 	-0.0027928 	0 9.89753 	-0.0587828 	0 9.89582 	-0.0608442 	0 9.89409 	-0.0629543 	0 9.89235 	-0.0651142 	0 9.8851 	-0.00528274 	0 9.88873 	-0.0692264 	0 9.88675 	-0.0722273 	0 9.88475 	-0.0752967 	0 9.88272 	-0.0784362 	0 9.87359 	-0.0113255 	0 9.8771 	-0.0857409 	9.76713e-22 9.87475 	-0.0893684 	3.3342e-21 9.87237 	-0.0930785 	5.68976e-21 9.86997 	-0.096873 	8.04336e-21 9.85985 	-0.0193071 	9.40856e-21 9.86399 	-0.103444 	-1.3734e-20 9.86153 	-0.106937 	-1.7724e-20 9.85905 	-0.110485 	-2.1731e-20 9.85656 	-0.114086 	-2.57551e-20 9.84451 	-0.0205785 	6.40228e-22 9.85231 	-0.116354 	-1.62803e-21 9.85004 	-0.118947 	-3.82129e-21 9.84775 	-0.121579 	-6.01296e-21 9.84545 	-0.124251 	-8.20303e-21 9.82905 	-0.0182194 	-9.25175e-21 9.84289 	-0.123308 	-8.6736e-21 9.84068 	-0.125577 	-5.69716e-21 9.83846 	-0.12788 	-2.71976e-21 9.83451 	-0.120868 	-4.59214e-22 9.8126 	-0.0155221 	-5.74431e-21 9.8309 	-0.112353 	-7.14377e-22 9.83142 	-0.12786 	-7.96935e-21 9.829 	-0.129897 	-1.72586e-20 9.82078 	-0.108997 	-2.62838e-20 9.79365 	-0.012494 	-3.44857e-20 9.81593 	-0.099649 	-5.54126e-20 9.82058 	-0.12668 	-5.78351e-20 9.81795 	-0.128601 	-5.25433e-20 9.80417 	-0.0971619 	-3.80738e-20 9.77207 	-0.00998324 	-8.30478e-21 9.79826 	-0.088305 	-8.08559e-21 9.80812 	-0.12405 	-3.27991e-21 9.80525 	-0.12599 	5.138e-21 9.78472 	-0.0869165 	1.43643e-20 9.74773 	-0.00865482 	2.43617e-20 9.77738 	-0.078874 	7.48288e-20 9.7932 	-0.120844 	1.0324e-19 9.78998 	-0.122796 	1.0041e-19 9.76172 	-0.0783757 	6.38267e-20 9.7201 	-0.00834206 	8.57601e-21 9.75279 	-0.0712855 	-5.72675e-20 9.77516 	-0.117512 	-1.06803e-19 9.77156 	-0.119459 	-1.1329e-19 9.73487 	-0.0714816 	-7.33161e-20 9.68905 	-0.0088808 	-1.97734e-20 9.72439 	-0.0653934 	-1.23514e-20 9.75381 	-0.114397 	-7.38615e-21 9.74978 	-0.116348 	-1.78484e-20 9.70423 	-0.0661911 	-3.66072e-20 9.65469 	-0.0102316 	-5.63742e-20 9.6923 	-0.0610994 	-6.71207e-20 9.7291 	-0.111785 	-7.77058e-20 9.72342 	-0.112443 	-7.16071e-20 9.66999 	-0.0623958 	-5.18497e-20 9.6172 	-0.0123015 	-3.21499e-20 9.65672 	-0.0581812 	-2.05496e-20 9.69563 	-0.104095 	-8.8915e-21 9.68871 	-0.10471 	-4.04179e-22 9.6325 	-0.0598205 	-3.15701e-21 9.57692 	-0.0148872 	-5.89233e-21 9.61798 	-0.0563231 	-3.2684e-21 9.65844 	-0.0977919 	-6.61515e-22 9.65051 	-0.0985155 	-7.3322e-22 9.59201 	-0.0581963 	-3.48533e-21 9.5341 	-0.0178365 	-6.2216e-21 9.57633 	-0.0552992 	-3.59768e-21 9.618 	-0.0927934 	-9.89264e-22 9.60916 	-0.0935859 	-5.69928e-21 9.54882 	-0.0573414 	-1.45398e-20 9.48904 	-0.0210599 	-2.34431e-20 9.53212 	-0.0549665 	-4.6197e-20 9.57465 	-0.0889028 	-6.88919e-20 9.56501 	-0.0897382 	-7.35348e-20 9.50326 	-0.0571344 	-5.99704e-20 9.44205 	-0.0244969 	-4.64292e-20 9.48567 	-0.0552092 	-9.05454e-20 9.52876 	-0.0859494 	-1.34637e-19 9.51843 	-0.0868055 	-1.27681e-19 9.45567 	-0.0574593 	-6.55643e-20 9.39342 	-0.0280825 	-3.39587e-21 9.43728 	-0.0559193 	-2.95525e-21 9.48065 	-0.0837817 	-2.55743e-21 9.46973 	-0.084642 	1.51582e-21 9.40633 	-0.0582137 	7.59704e-21 9.34339 	-0.0317577 	1.37044e-20 9.38724 	-0.0570031 	7.34145e-21 9.43061 	-0.0822721 	9.53596e-22 9.41922 	-0.0831269 	-2.33276e-21 9.3555 	-0.0593199 	-5.07894e-21 9.29223 	-0.0354879 	-7.81554e-21 9.33581 	-0.0583978 	-5.20128e-21 9.37895 	-0.0813294 	-2.59682e-21 9.3672 	-0.0821731 	-1.82462e-23 9.30346 	-0.0607251 	-6.16295e-21 9.24014 	-0.0392546 	-1.23295e-20 9.28326 	-0.0600566 	-5.89161e-21 9.3211 	-0.0790769 	-6.32205e-22 9.30793 	-0.0793427 	-7.85194e-21 9.25055 	-0.0623794 	-2.54004e-20 9.18745 	-0.0430367 	-4.43798e-20 9.22991 	-0.0619321 	-1.2178e-19 9.2607 	-0.0770108 	-1.82831e-19 9.2477 	-0.0773202 	-1.80902e-19 9.19698 	-0.0642401 	-1.16983e-19 9.13433 	-0.046817 	-3.30126e-20 9.17599 	-0.063988 	-2.03203e-20 9.19978 	-0.0757003 	-9.49874e-21 9.18695 	-0.0760456 	-2.55907e-21 9.14295 	-0.0662745 	0 9.08094 	-0.0505831 	0 9.12167 	-0.0661967 	0 9.13856 	-0.0750401 	0 9.12591 	-0.0754146 	0 9.08863 	-0.0684558 	0 9.02742 	-0.0543249 	0 9.0671 	-0.0685296 	0 9.07725 	-0.0749323 	4.12685e-21 9.06478 	-0.07533 	1.14277e-20 9.03415 	-0.0707555 	2.07887e-20 8.97389 	-0.0580327 	3.35229e-20 9.01244 	-0.0709629 	1.17414e-19 9.01603 	-0.0752954 	1.42323e-19 9.00373 	-0.0757123 	1.40379e-19 8.97965 	-0.0731523 	1.17857e-19 8.92044 	-0.0617008 	3.38987e-20 8.95778 	-0.0734769 	2.12636e-20 8.95504 	-0.076061 	1.97193e-20 8.94292 	-0.0764952 	2.0769e-20 8.92523 	-0.0756313 	2.2829e-20 8.86717 	-0.0653302 	3.22271e-20 8.90326 	-0.0760639 	8.64714e-20 8.89443 	-0.0771797 	8.37945e-20 8.88248 	-0.0776302 	7.71786e-20 8.87051 	-0.0780803 	7.05576e-20 8.81417 	-0.0689269 	1.03908e-20 8.84611 	-0.0781441 	-5.21672e-20 8.83434 	-0.07861 	-6.848e-20 8.82255 	-0.0790756 	-8.47878e-20 8.81074 	-0.0795408 	-1.01091e-19 8.76156 	-0.0724925 	-6.81165e-20 8.78652 	-0.079831 	-1.26928e-19 8.77491 	-0.0803104 	-1.19786e-19 8.76328 	-0.0807895 	-1.12637e-19 8.75164 	-0.0812684 	-1.0548e-19 8.7094 	-0.0760263 	-4.54577e-20 8.72768 	-0.0817502 	-3.23026e-20 8.71622 	-0.0822417 	-2.28526e-20 8.70474 	-0.0827331 	-1.34036e-20 8.69325 	-0.0832243 	-3.95559e-21 8.65773 	-0.0795286 	0 8.66962 	-0.0838684 	1.11935e-21 8.65831 	-0.0843713 	3.60557e-21 8.64698 	-0.084874 	6.09204e-21 8.63562 	-0.0853766 	8.57878e-21 8.60658 	-0.0830016 	1.10698e-20 8.61239 	-0.086158 	1.01692e-20 8.60122 	-0.0866714 	1.03033e-20 8.59002 	-0.0871848 	1.04379e-20 8.57881 	-0.0876981 	1.0573e-20 8.55599 	-0.0864473 	1.14138e-20 8.55602 	-0.0885949 	1.43006e-20 8.54497 	-0.0891183 	1.92392e-20 8.53391 	-0.0896417 	2.41788e-20 8.52282 	-0.0901651 	2.91196e-20 8.50596 	-0.0898681 	3.51869e-20 8.50052 	-0.0911584 	4.5065e-20 8.4896 	-0.0916914 	4.28644e-20 8.47866 	-0.0922243 	4.06544e-20 8.4677 	-0.0927573 	3.84349e-20 8.45653 	-0.093266 	3.58113e-20 8.45635 	-0.0933064 	3.56248e-20 8.45599 	-0.0933243 	3.54738e-20 8.45563 	-0.0933422 	3.53228e-20 8.45528 	-0.0933602 	3.51718e-20 8.45492 	-0.093378 	3.50211e-20 8.44424 	-0.0939026 	3.006e-20 8.43354 	-0.0944273 	2.50977e-20 8.42282 	-0.094952 	2.01344e-20 8.41208 	-0.0954767 	1.51698e-20 8.39959 	-0.0964667 	1.12338e-20 8.39074 	-0.0966007 	7.51736e-21 8.37979 	-0.0971527 	1.57996e-22 8.36881 	-0.0977047 	-7.19846e-21 8.35781 	-0.0982569 	-1.4552e-20 8.34355 	-0.0996333 	-2.83025e-20 8.33671 	-0.0994549 	-3.88696e-20 8.32586 	-0.100018 	-4.28612e-20 8.31499 	-0.10058 	-4.68556e-20 8.30409 	-0.101143 	-5.08527e-20 8.28864 	-0.102782 	-4.71678e-20 8.28362 	-0.102392 	-6.69037e-20 8.27287 	-0.102969 	-6.07563e-20 8.2621 	-0.103546 	-5.46173e-20 8.2513 	-0.104124 	-4.84868e-20 8.23484 	-0.105936 	-9.57201e-21 8.23147 	-0.105424 	-4.64405e-21 8.22082 	-0.106036 	-7.97403e-21 8.21014 	-0.106648 	-1.13032e-20 8.19943 	-0.10726 	-1.46316e-20 8.18212 	-0.109204 	-1.8362e-20 8.18028 	-0.108684 	-4.52951e-20 8.16967 	-0.109308 	-5.24744e-20 8.15903 	-0.109932 	-5.96569e-20 8.14836 	-0.110556 	-6.68424e-20 8.13022 	-0.112499 	-3.56578e-20 8.12973 	-0.111966 	3.43513e-20 8.11911 	-0.112572 	4.87628e-20 8.10847 	-0.113178 	6.3186e-20 8.09708 	-0.113895 	7.07238e-20 8.07887 	-0.115671 	1.23683e-20 8.07788 	-0.115284 	3.44847e-21 8.06893 	-0.115744 	1.3798e-21 8.05829 	-0.11638 	7.32855e-22 8.04579 	-0.117283 	2.82045e-22 8.02807 	-0.118933 	3.82143e-22 8.02666 	-0.118807 	2.75259e-22 8.01932 	-0.119208 	-4.36367e-21 8.00872 	-0.119898 	-1.14847e-20 7.99523 	-0.120927 	-1.85717e-20 7.97794 	-0.1224 	-2.5614e-20 7.9762 	-0.122494 	-1.80802e-20 7.9704 	-0.122874 	-1.05326e-20 7.95984 	-0.12359 	-2.96834e-21 7.94545 	-0.124648 	0 7.92855 	-0.125927 	0 7.92653 	-0.1262 	0 7.92222 	-0.126596 	-1.06863e-21 7.9117 	-0.12732 	-5.03206e-21 7.89649 	-0.128334 	-8.73974e-21 7.87997 	-0.129428 	-1.23764e-20 7.87773 	-0.129854 	-4.13134e-20 7.87485 	-0.130301 	-6.84955e-20 7.86439 	-0.131027 	-7.40358e-20 7.84844 	-0.13195 	-5.78668e-20 7.83225 	-0.132881 	-4.09226e-20 7.82983 	-0.133439 	-1.20183e-19 7.82739 	-0.133996 	-1.99444e-19 7.81715 	-0.134712 	-1.97999e-19 7.80131 	-0.135503 	-1.23463e-19 7.78543 	-0.136295 	-4.89274e-20 7.78285 	-0.136971 	-9.08018e-20 7.78025 	-0.137647 	-1.32678e-19 7.77068 	-0.138341 	-1.27559e-19 7.7551 	-0.139017 	-7.39848e-20 7.73949 	-0.139694 	-2.0411e-20 7.73678 	-0.140478 	-1.23419e-20 7.73404 	-0.141262 	-4.27415e-21 7.72513 	-0.141942 	0 7.70978 	-0.142523 	0 7.6944 	-0.143104 	0 7.69157 	-0.143988 	0 7.68872 	-0.144872 	0 7.68045 	-0.145544 	0 7.66529 	-0.146049 	0 7.65011 	-0.146554 	0 7.64719 	-0.14753 	0 7.64423 	-0.148507 	0 7.63659 	-0.149177 	0 7.6216 	-0.14962 	0 7.60658 	-0.150063 	0 7.60357 	-0.151126 	0 7.59995 	-0.152142 	0 7.59223 	-0.152814 	0 7.57863 	-0.153257 	0 7.56375 	-0.153651 	0 7.56064 	-0.154793 	0 7.55601 	-0.155788 	0 7.54829 	-0.156482 	0 7.53633 	-0.156972 	0 7.52156 	-0.157328 	0 7.51836 	-0.158542 	0 7.51273 	-0.15949 	0 7.50498 	-0.160205 	0 7.49463 	-0.160776 	0 7.47994 	-0.161102 	0 7.47665 	-0.162381 	0 7.47002 	-0.163257 	0 7.46223 	-0.163994 	0 7.45347 	-0.164672 	-8.39587e-22 7.43883 	-0.164977 	-6.87936e-21 7.43545 	-0.166314 	-2.59049e-22 7.42782 	-0.167096 	0 7.41998 	-0.167856 	0 7.41211 	-0.168616 	0 7.39817 	-0.168952 	-5.47681e-21 7.39391 	-0.170232 	0 7.38605 	-0.171013 	0 7.37816 	-0.171794 	0 7.37023 	-0.172576 	0 7.35791 	-0.173026 	0 7.3526 	-0.174207 	6.3106e-23 7.34467 	-0.175008 	2.20013e-22 7.33671 	-0.17581 	3.76954e-22 7.32871 	-0.176612 	5.33928e-22 7.318 	-0.177197 	-6.39115e-22 7.31162 	-0.178261 	-8.65311e-21 7.30362 	-0.179082 	-7.3495e-21 7.29558 	-0.179903 	-6.03943e-21 7.28751 	-0.180724 	-4.72288e-21 7.27838 	-0.18146 	-1.61253e-21 7.2741 	-0.182064 	-2.58561e-21 7.2692 	-0.182573 	-6.81277e-21 7.26429 	-0.183082 	-1.10405e-20 7.25936 	-0.183591 	-1.52688e-20 7.25457 	-0.184085 	-1.93656e-20 7.25123 	-0.184418 	-2.18749e-20 7.24788 	-0.184752 	-2.4384e-20 7.24453 	-0.185085 	-2.68928e-20 7.24117 	-0.185419 	-2.94013e-20 7.23768 	-0.185657 	-3.26125e-20 7.22969 	-0.186604 	-3.47713e-20 7.22125 	-0.18746 	-3.55407e-20 7.21277 	-0.188317 	-3.63137e-20 7.20426 	-0.189174 	-3.70905e-20 7.19539 	-0.189706 	-3.28816e-20 7.18821 	-0.190887 	-2.34539e-20 7.17968 	-0.191759 	-1.65629e-20 7.1711 	-0.192631 	-9.67019e-21 7.16249 	-0.193503 	-2.77571e-21 7.15344 	-0.193833 	0 7.14696 	-0.195237 	0 7.13832 	-0.196123 	0 7.12965 	-0.19701 	0 7.12093 	-0.197897 	0 7.11181 	-0.198031 	0 7.1059 	-0.199649 	0 7.09717 	-0.200549 	0 7.08839 	-0.201449 	0 7.07954 	-0.202252 	0 7.07045 	-0.202297 	0 7.06438 	-0.203942 	0 7.0562 	-0.205033 	-6.03281e-23 7.04732 	-0.205947 	-1.40103e-22 7.03837 	-0.206545 	-1.50779e-22 7.02934 	-0.206628 	-4.8233e-23 7.02299 	-0.208264 	-2.48339e-20 7.01542 	-0.209576 	-3.89785e-20 7.00643 	-0.210503 	-4.04335e-20 6.99745 	-0.210907 	-2.26391e-20 6.98847 	-0.211026 	5.61613e-21 6.98186 	-0.212655 	2.52822e-21 6.97483 	-0.214182 	7.07163e-22 6.96574 	-0.215124 	6.09628e-21 6.95678 	-0.21534 	1.15134e-20 6.94783 	-0.215495 	1.69326e-20 6.94098 	-0.217121 	1.08782e-20 6.93406 	-0.218748 	4.82112e-21 6.92529 	-0.219664 	3.15557e-21 6.91635 	-0.219854 	1.94581e-21 6.90741 	-0.220045 	7.34536e-22 6.90033 	-0.221672 	5.25347e-22 6.89319 	-0.2233 	3.10499e-22 6.8851 	-0.224232 	1.0695e-21 6.87616 	-0.224461 	2.93252e-21 6.8672 	-0.224689 	4.79453e-21 6.85992 	-0.226322 	1.89384e-21 6.85258 	-0.227955 	-1.01096e-21 6.84516 	-0.228907 	-1.41552e-21 6.83619 	-0.229175 	6.16008e-22 6.8272 	-0.229443 	2.64645e-21 6.81973 	-0.231087 	-4.36618e-22 6.81224 	-0.232684 	-3.34817e-21 6.80517 	-0.233615 	-3.71669e-21 6.79642 	-0.234014 	-6.46174e-21 6.78739 	-0.234324 	-9.60036e-21 6.77975 	-0.235981 	-6.84895e-21 6.77225 	-0.237385 	-4.09376e-21 6.76505 	-0.238345 	-1.33061e-21 6.75687 	-0.238991 	0 6.74777 	-0.239345 	0 6.73996 	-0.24102 	0 6.73249 	-0.242239 	-1.95119e-21 6.72516 	-0.24323 	-4.87652e-21 6.71748 	-0.244119 	-7.80478e-21 6.70831 	-0.244518 	-1.0744e-20 6.70034 	-0.246213 	-8.18548e-21 6.69291 	-0.247252 	-8.34956e-21 6.68545 	-0.248275 	-8.58222e-21 6.67794 	-0.249298 	-8.81672e-21 6.66899 	-0.249849 	-7.42085e-21 6.66105 	-0.251374 	-2.36168e-20 6.65349 	-0.252429 	-2.23151e-20 6.64589 	-0.253485 	-2.10078e-20 6.63824 	-0.25454 	-1.9695e-20 6.62979 	-0.255339 	-6.76999e-21 6.6219 	-0.25668 	-1.72981e-20 6.6142 	-0.257767 	-1.6394e-20 6.60645 	-0.258853 	-1.54842e-20 6.59865 	-0.259939 	-1.45687e-20 6.59068 	-0.260983 	-1.20579e-20 6.58909 	-0.261247 	-1.15772e-20 6.58754 	-0.261468 	-1.05781e-20 6.58599 	-0.26169 	-9.5791e-21 6.58443 	-0.261911 	-8.58007e-21 6.58289 	-0.26213 	-7.59247e-21 6.57637 	-0.263022 	-3.55721e-21 6.56981 	-0.263914 	4.78024e-22 6.56322 	-0.264806 	4.51323e-21 6.55659 	-0.265697 	8.5484e-21 6.55012 	-0.266397 	1.18979e-20 6.5423 	-0.26773 	1.96625e-20 6.53399 	-0.268868 	2.29797e-20 6.52562 	-0.270006 	2.63022e-20 6.5172 	-0.271143 	2.96301e-20 6.50917 	-0.271848 	1.4417e-20 6.5017 	-0.273448 	1.64223e-20 6.4932 	-0.274608 	1.33423e-20 6.48465 	-0.275768 	1.02592e-20 6.47605 	-0.276927 	7.17297e-21 6.4681 	-0.277412 	4.05336e-21 6.46077 	-0.279187 	6.05183e-21 6.45228 	-0.280455 	4.1952e-21 6.44354 	-0.281632 	1.65244e-21 6.435 	-0.28257 	1.76367e-21 6.4269 	-0.283066 	6.7992e-21 6.41935 	-0.284849 	2.51068e-21 6.4112 	-0.286387 	8.72415e-22 6.40227 	-0.287577 	2.97761e-21 6.39382 	-0.288277 	1.23615e-20 6.38554 	-0.288789 	2.45322e-20 6.37777 	-0.290576 	3.18716e-20 6.36992 	-0.292363 	3.92153e-20 6.36091 	-0.293512 	4.13076e-20 6.35247 	-0.294036 	3.21718e-20 6.344 	-0.29456 	2.30348e-20 6.33602 	-0.296347 	3.17474e-20 6.32795 	-0.298134 	4.04601e-20 6.31958 	-0.299295 	4.0324e-20 6.31095 	-0.299826 	3.12585e-20 6.30228 	-0.300357 	2.21918e-20 6.29409 	-0.302141 	3.08175e-20 6.28582 	-0.303924 	3.94431e-20 6.27809 	-0.305095 	3.92663e-20 6.26925 	-0.30563 	2.48394e-20 6.26038 	-0.306164 	1.04124e-20 6.25198 	-0.307941 	8.43364e-21 6.24372 	-0.30952 	5.84945e-21 6.23589 	-0.310632 	1.82609e-21 6.22738 	-0.31143 	-4.00483e-21 6.21831 	-0.311965 	-1.13391e-20 6.2097 	-0.313732 	-2.54191e-21 6.20152 	-0.315029 	-3.09215e-21 6.19349 	-0.316134 	-7.44179e-21 6.18535 	-0.317213 	-1.20341e-20 6.17607 	-0.317748 	-2.16893e-20 6.16736 	-0.319415 	7.67669e-22 6.15917 	-0.320513 	-1.51012e-21 6.15093 	-0.32161 	-3.79921e-21 6.14264 	-0.322706 	-6.09967e-21 6.13369 	-0.323503 	-1.9052e-20 6.12507 	-0.324878 	-1.45335e-20 6.11668 	-0.325966 	-1.08969e-20 6.10824 	-0.327054 	-7.26228e-21 6.09974 	-0.328141 	-3.62959e-21 6.09119 	-0.329227 	0 6.09118 	-0.329228 	0 6.09117 	-0.329229 	0 6.09116 	-0.32923 	0 6.09116 	-0.329231 	0 6.09115 	-0.329231 	0 6.08309 	-0.330318 	0 6.07497 	-0.331405 	0 6.06681 	-0.33249 	0 6.05859 	-0.333575 	0 6.05011 	-0.334488 	0 6.04289 	-0.33575 	1.90976e-23 6.03458 	-0.336828 	5.83361e-23 6.02622 	-0.337906 	9.7554e-23 6.0178 	-0.338983 	1.36751e-22 6.00885 	-0.339723 	-1.5345e-21 6.00245 	-0.341139 	-1.44183e-20 5.99403 	-0.342226 	-1.94056e-20 5.98548 	-0.343296 	-2.405e-20 5.97669 	-0.344251 	-2.21221e-20 5.96742 	-0.344937 	-4.981e-21 5.96085 	-0.34634 	-3.44929e-20 5.95338 	-0.347603 	-5.14204e-20 5.94465 	-0.348669 	-5.05488e-20 5.93534 	-0.349451 	-2.29123e-20 5.92583 	-0.350138 	1.35852e-20 5.91911 	-0.35153 	3.5068e-20 5.91233 	-0.352921 	5.65545e-20 5.90356 	-0.353956 	5.65585e-20 5.89385 	-0.354649 	2.25099e-20 5.88409 	-0.355341 	-1.15487e-20 5.87723 	-0.356729 	-2.12414e-20 5.8703 	-0.358117 	-3.09406e-20 5.86218 	-0.359167 	-4.01316e-20 5.85223 	-0.359867 	-4.81944e-20 5.84224 	-0.360567 	-5.62642e-20 5.83522 	-0.361957 	-7.71351e-20 5.82802 	-0.363291 	-9.33591e-20 5.82002 	-0.364313 	-8.33679e-20 5.81048 	-0.36511 	-6.13291e-20 5.80024 	-0.365809 	-3.3975e-20 5.79306 	-0.367187 	-2.2941e-20 5.78524 	-0.368334 	-1.41662e-20 5.77703 	-0.369347 	-6.69514e-21 5.76858 	-0.370331 	3.51794e-22 5.75812 	-0.371037 	3.15944e-21 5.75069 	-0.372361 	2.1624e-20 5.74235 	-0.373384 	1.88678e-20 5.73395 	-0.374405 	1.6099e-20 5.7255 	-0.375425 	1.33177e-20 5.71599 	-0.376313 	1.38568e-21 5.71011 	-0.377225 	-2.35954e-21 5.70379 	-0.378006 	-7.26959e-21 5.69745 	-0.378786 	-1.21813e-20 5.69108 	-0.379566 	-1.70946e-20 5.6849 	-0.380318 	-2.1836e-20 5.68275 	-0.380595 	-2.32304e-20 5.68059 	-0.380872 	-2.46247e-20 5.67843 	-0.381149 	-2.60187e-20 5.67627 	-0.381426 	-2.74125e-20 5.67412 	-0.38162 	-3.05503e-20 5.66614 	-0.382789 	-3.87475e-20 5.65791 	-0.383872 	-4.27481e-20 5.64963 	-0.384954 	-4.67671e-20 5.6413 	-0.386035 	-5.08045e-20 5.63292 	-0.386715 	-2.9934e-20 5.62557 	-0.38823 	-1.80075e-20 5.61715 	-0.389333 	-6.36286e-21 5.60867 	-0.390435 	5.28168e-21 5.60012 	-0.391453 	1.5664e-20 5.59144 	-0.391925 	1.76395e-20 5.58426 	-0.393577 	3.65868e-20 5.57621 	-0.394926 	4.6041e-20 5.56753 	-0.396055 	4.85968e-20 5.55868 	-0.396777 	3.28635e-20 5.5497 	-0.397276 	7.03177e-21 5.54238 	-0.398938 	6.48918e-21 5.53498 	-0.400599 	5.93582e-21 5.52617 	-0.401698 	1.51385e-21 5.51697 	-0.402251 	5.3757e-21 5.50773 	-0.402802 	9.23894e-21 5.50026 	-0.404482 	2.66093e-20 5.49272 	-0.406159 	4.39799e-20 5.48451 	-0.407314 	4.10813e-20 5.47504 	-0.407934 	1.58596e-20 5.46553 	-0.408553 	-9.36633e-21 5.45792 	-0.410263 	-6.53029e-20 5.45013 	-0.411833 	-1.06547e-19 5.44195 	-0.412975 	-1.02402e-19 5.4329 	-0.413871 	-7.11709e-20 5.42311 	-0.41456 	-1.73433e-20 5.41536 	-0.416315 	3.03019e-20 5.40713 	-0.417632 	4.245e-20 5.39874 	-0.418838 	4.56125e-20 5.39028 	-0.420041 	4.87517e-20 5.38049 	-0.420886 	2.48531e-20 5.37238 	-0.422513 	3.98796e-20 5.36382 	-0.423797 	3.0581e-20 5.3552 	-0.425077 	2.12605e-20 5.34652 	-0.426356 	1.19178e-20 5.33763 	-0.427598 	6.33882e-22 5.33672 	-0.427781 	1.22839e-22 5.33577 	-0.427931 	1.2801e-22 5.33481 	-0.428081 	1.33182e-22 5.33386 	-0.42823 	1.38355e-22 5.33291 	-0.428379 	1.43497e-22 5.32554 	-0.429603 	1.65976e-22 5.31812 	-0.430825 	1.88409e-22 5.31065 	-0.432046 	2.10796e-22 5.30312 	-0.433264 	2.33136e-22 5.29568 	-0.434369 	-2.28707e-21 5.28777 	-0.435959 	-2.73853e-20 5.27923 	-0.437431 	-3.95722e-20 5.27063 	-0.438901 	-5.17785e-20 5.26196 	-0.440351 	-6.16065e-20 5.2534 	-0.441586 	-4.31894e-20 5.24561 	-0.443359 	-9.53754e-20 5.23721 	-0.445021 	-1.22992e-19 5.22834 	-0.446606 	-1.33766e-19 5.21946 	-0.44803 	-9.52992e-20 5.21053 	-0.449372 	-3.20873e-20 5.20256 	-0.45128 	-2.10517e-20 5.1945 	-0.453184 	-1.00018e-20 5.18555 	-0.454867 	-4.72131e-21 5.1