# vtk DataFile Version 2.0
track0
ASCII
DATASET POLYDATA
POINTS 10975 double
-0.0205 0.001 1e-05
-0.0202034 0.00100003 1e-05
-0.0199069 0.00100026 1e-05
-0.0196103 0.00100071 1e-05
-0.0193137 0.00100137 1e-05
-0.0190172 0.00100225 1e-05
-0.0187132 0.00100354 1e-05
-0.0184093 0.0010045 1e-05
-0.0181054 0.00100547 1e-05
-0.0178015 0.00100644 1e-05
-0.0174976 0.0010074 1e-05
-0.0172058 0.00100862 1e-05
-0.016914 0.00100939 1e-05
-0.0166222 0.0010101 1e-05
-0.0163305 0.00101076 1e-05
-0.0160387 0.00101135 1e-05
-0.0157586 0.00101219 1e-05
-0.0154784 0.0010126 1e-05
-0.0151983 0.00101296 1e-05
-0.0149182 0.00101328 1e-05
-0.0146381 0.00101356 1e-05
-0.0143692 0.00101411 1e-05
-0.0141002 0.00101425 1e-05
-0.0138313 0.00101436 1e-05
-0.0135624 0.00101443 1e-05
-0.0132934 0.00101446 1e-05
-0.0130353 0.00101481 1e-05
-0.0127771 0.00101475 1e-05
-0.0125189 0.00101467 1e-05
-0.0122607 0.00101455 1e-05
-0.0120025 0.00101441 1e-05
-0.0117547 0.00101462 1e-05
-0.0115068 0.00101441 1e-05
-0.0112589 0.00101418 1e-05
-0.0110111 0.00101392 1e-05
-0.0107632 0.00101365 1e-05
-0.0105252 0.00101377 1e-05
-0.0102873 0.00101344 1e-05
-0.0100493 0.0010131 1e-05
-0.00981133 0.00101273 1e-05
-0.00957337 0.00101235 1e-05
-0.00934491 0.00101242 1e-05
-0.00911645 0.001012 1e-05
-0.008888 0.00101156 1e-05
-0.00865954 0.0010111 1e-05
-0.00843108 0.00101062 1e-05
-0.00821175 0.00101065 1e-05
-0.00799242 0.00101015 1e-05
-0.00777309 0.00100963 1e-05
-0.00755376 0.00100908 1e-05
-0.00733443 0.00100852 1e-05
-0.00712387 0.00100853 1e-05
-0.0069133 0.00100794 1e-05
-0.00670273 0.00100734 1e-05
-0.00649217 0.00100671 1e-05
-0.0062816 0.00100607 1e-05
-0.00607944 0.00100607 1e-05
-0.00587729 0.00100541 1e-05
-0.00567514 0.00100472 1e-05
-0.00547299 0.00100402 1e-05
-0.00527083 0.00100329 1e-05
-0.00507675 0.00100328 1e-05
-0.00488268 0.00100255 1e-05
-0.0046886 0.00100178 1e-05
-0.00449453 0.001001 1e-05
-0.00430044 0.00100019 1e-05
-0.00411412 0.00100017 1e-05
-0.0039278 0.000999355 1e-05
-0.00374148 0.000998508 1e-05
-0.00355516 0.000997636 1e-05
-0.00336883 0.000996736 1e-05
-0.00318995 0.000996711 1e-05
-0.00301107 0.0009958 1e-05
-0.0028322 0.00099486 1e-05
-0.00265332 0.000993888 1e-05
-0.00247443 0.000992884 1e-05
-0.0023027 0.000992836 1e-05
-0.00213097 0.000991816 1e-05
-0.00195924 0.00099076 1e-05
-0.00178751 0.000989667 1e-05
-0.00161577 0.000988537 1e-05
-0.0014509 0.000988449 1e-05
-0.00128603 0.000987295 1e-05
-0.00112117 0.00098609 1e-05
-0.000956302 0.000984835 1e-05
-0.000791418 0.000983526 1e-05
-0.000633135 0.000983344 1e-05
-0.000474857 0.00098197 1e-05
-0.00031658 0.000980538 1e-05
-0.000158303 0.000979046 1e-05
0 0.000977492 1e-05
0.000105677 0.000977285 1e-05
0.000211349 0.000976177 1e-05
0.000317021 0.000975031 1e-05
0.000422692 0.000973847 1e-05
0.000528387 0.000972623 1e-05
0.000634886 0.000972401 1e-05
0.000741378 0.000971143 1e-05
0.00084787 0.000969857 1e-05
0.000954361 0.000968542 1e-05
0.00106088 0.000967198 1e-05
0.00116821 0.000966999 1e-05
0.00127553 0.000965655 1e-05
0.00138285 0.000964285 1e-05
0.00149017 0.00096289 1e-05
0.00159752 0.000961571 1e-05
0.00170568 0.0009614 1e-05
0.00181383 0.000960164 1e-05
0.00192199 0.000958757 1e-05
0.00203014 0.000957328 1e-05
0.00213833 0.000956127 1e-05
0.00224733 0.000955988 1e-05
0.00235632 0.000954882 1e-05
0.00246532 0.000953476 1e-05
0.00257431 0.000952048 1e-05
0.00268334 0.000950967 1e-05
0.00279319 0.000950855 1e-05
0.00290303 0.000949865 1e-05
0.00301287 0.000948476 1e-05
0.00312272 0.000947065 1e-05
0.00323259 0.000946089 1e-05
0.00334329 0.00094599 1e-05
0.00345399 0.000945097 1e-05
0.00356469 0.000943731 1e-05
0.00367538 0.000942343 1e-05
0.00378611 0.000941454 1e-05
0.00389767 0.000941358 1e-05
0.00400923 0.000940543 1e-05
0.00412079 0.000939202 1e-05
0.00423235 0.000937838 1e-05
0.00434393 0.000937019 1e-05
0.00445636 0.000936916 1e-05
0.00456879 0.00093616 1e-05
0.00468122 0.000934841 1e-05
0.00479364 0.000933499 1e-05
0.00490609 0.000932732 1e-05
0.0050194 0.000932612 1e-05
0.0051327 0.000931898 1e-05
0.005246 0.000930596 1e-05
0.0053593 0.000929286 1e-05
0.00547262 0.000928555 1e-05
0.00558681 0.000928409 1e-05
0.00570099 0.000927721 1e-05
0.00581517 0.000926495 1e-05
0.00592935 0.000925261 1e-05
0.00604356 0.000924552 1e-05
0.00615863 0.000924373 1e-05
0.0062737 0.000923699 1e-05
0.00638877 0.000922534 1e-05
0.00650384 0.000921359 1e-05
0.00661893 0.000920661 1e-05
0.0067349 0.000920444 1e-05
0.00685087 0.000919774 1e-05
0.00696683 0.000918656 1e-05
0.0070828 0.000917526 1e-05
0.00719878 0.00091683 1e-05
0.00731565 0.00091657 1e-05
0.00743252 0.000915896 1e-05
0.00754939 0.000914811 1e-05
0.00766625 0.000913715 1e-05
0.00778313 0.000913012 1e-05
0.00790091 0.000912706 1e-05
0.00801869 0.000912021 1e-05
0.00813647 0.000910959 1e-05
0.00825424 0.000909885 1e-05
0.00837203 0.000909169 1e-05
0.00849073 0.000908814 1e-05
0.00860942 0.000908111 1e-05
0.00872811 0.000907062 1e-05
0.00884681 0.000906001 1e-05
0.00896551 0.000905266 1e-05
0.00908513 0.00090486 1e-05
0.00920475 0.000904133 1e-05
0.00932436 0.00090309 1e-05
0.00944398 0.000902034 1e-05
0.0095636 0.000901276 1e-05
0.00968415 0.000900815 1e-05
0.0098047 0.000900061 1e-05
0.00992524 0.000899016 1e-05
0.0100458 0.000897958 1e-05
0.0101663 0.000897172 1e-05
0.0102878 0.000896655 1e-05
0.0104093 0.00089587 1e-05
0.0105308 0.000894839 1e-05
0.0106523 0.000893803 1e-05
0.0107738 0.000892984 1e-05
0.0108962 0.000892411 1e-05
0.0110186 0.000891589 1e-05
0.0111411 0.000890571 1e-05
0.0112635 0.000889547 1e-05
0.0113859 0.000888692 1e-05
0.0115093 0.00088806 1e-05
0.0116327 0.000887199 1e-05
0.0117561 0.000886184 1e-05
0.0118794 0.000885163 1e-05
0.0120028 0.000884268 1e-05
0.0121272 0.000883576 1e-05
0.0122515 0.000882674 1e-05
0.0123759 0.000881653 1e-05
0.0125002 0.000880625 1e-05
0.0126245 0.000879688 1e-05
0.0127498 0.000878934 1e-05
0.0128752 0.000877987 1e-05
0.0130005 0.000876953 1e-05
0.0131258 0.000875912 1e-05
0.0132511 0.00087493 1e-05
0.0133774 0.000874113 1e-05
0.0135036 0.000873119 1e-05
0.0136299 0.000872065 1e-05
0.0137562 0.000871003 1e-05
0.0138825 0.000869974 1e-05
0.0140098 0.000869094 1e-05
0.014137 0.00086805 1e-05
0.0142643 0.000866969 1e-05
0.0143915 0.00086588 1e-05
0.0145188 0.000864802 1e-05
0.0146471 0.000863857 1e-05
0.0147753 0.000862761 1e-05
0.0149036 0.000861648 1e-05
0.0150318 0.000860527 1e-05
0.0151601 0.000859398 1e-05
0.0152893 0.000858388 1e-05
0.0154186 0.000857246 1e-05
0.0155478 0.000856096 1e-05
0.0156771 0.000854937 1e-05
0.0158063 0.000853771 1e-05
0.0159366 0.000852693 1e-05
0.0160668 0.000851509 1e-05
0.0161971 0.000850317 1e-05
0.0163273 0.000849116 1e-05
0.0164576 0.000847907 1e-05
0.0165889 0.000846761 1e-05
0.0167201 0.000845531 1e-05
0.0168514 0.000844293 1e-05
0.0169827 0.000843045 1e-05
0.0171139 0.000841789 1e-05
0.0172462 0.000840573 1e-05
0.0173785 0.000839294 1e-05
0.0175108 0.000838005 1e-05
0.0176431 0.000836706 1e-05
0.0177754 0.000835398 1e-05
0.0179087 0.000834112 1e-05
0.018042 0.000832779 1e-05
0.0181753 0.000831435 1e-05
0.0183087 0.000830082 1e-05
0.018442 0.000828719 1e-05
0.0185763 0.000827362 1e-05
0.0187107 0.000825971 1e-05
0.018845 0.000824569 1e-05
0.0189794 0.000823158 1e-05
0.0191137 0.000821737 1e-05
0.0192491 0.000820306 1e-05
0.0193845 0.000818854 1e-05
0.0195199 0.000817392 1e-05
0.0196553 0.000815919 1e-05
0.0197907 0.000814436 1e-05
0.0197953 0.000814386 1e-05
0.0197998 0.000814336 1e-05
0.0198043 0.000814287 1e-05
0.0198088 0.000814237 1e-05
0.0198133 0.000814187 1e-05
0.0199452 0.00081273 1e-05
0.0200772 0.000811263 1e-05
0.0202091 0.000809785 1e-05
0.0203411 0.000808298 1e-05
0.020473 0.000806801 1e-05
0.0206105 0.000805221 1e-05
0.020748 0.000803638 1e-05
0.0208855 0.000802044 1e-05
0.021023 0.000800438 1e-05
0.0211606 0.000798822 1e-05
0.0212991 0.000797167 1e-05
0.0214377 0.000795514 1e-05
0.0215763 0.000793849 1e-05
0.0217149 0.000792173 1e-05
0.0218535 0.000790485 1e-05
0.0219931 0.000788753 1e-05
0.0221328 0.000787027 1e-05
0.0222724 0.000785288 1e-05
0.0224121 0.000783538 1e-05
0.0225517 0.000781776 1e-05
0.0226925 0.000779965 1e-05
0.0228332 0.000778163 1e-05
0.022974 0.000776347 1e-05
0.0231147 0.000774519 1e-05
0.0232555 0.000772678 1e-05
0.0233973 0.000770785 1e-05
0.0235391 0.0007689 1e-05
0.023681 0.000767003 1e-05
0.0238228 0.000765091 1e-05
0.0239647 0.000763167 1e-05
0.0241076 0.000761189 1e-05
0.0242505 0.00075922 1e-05
0.0243935 0.000757239 1e-05
0.0245364 0.000755243 1e-05
0.0246794 0.000753233 1e-05
0.0248234 0.00075117 1e-05
0.0249675 0.000749114 1e-05
0.0251115 0.000747048 1e-05
0.0252556 0.000744968 1e-05
0.0253996 0.000742868 1e-05
0.0255448 0.000740717 1e-05
0.02569 0.000738568 1e-05
0.0258351 0.00073641 1e-05
0.0259803 0.000734237 1e-05
0.0261255 0.000732041 1e-05
0.0262718 0.000729797 1e-05
0.0264181 0.00072755 1e-05
0.0265644 0.000725294 1e-05
0.0267107 0.000723023 1e-05
0.026857 0.000720728 1e-05
0.0270044 0.000718386 1e-05
0.0271519 0.000716038 1e-05
0.0272993 0.000713682 1e-05
0.0274468 0.00071131 1e-05
0.0275942 0.000708914 1e-05
0.0277428 0.000706473 1e-05
0.0278914 0.000704024 1e-05
0.0280399 0.000701565 1e-05
0.0281885 0.00069909 1e-05
0.0283371 0.000696592 1e-05
0.0284869 0.000694051 1e-05
0.0286366 0.000691499 1e-05
0.0287863 0.000688936 1e-05
0.0289361 0.000686356 1e-05
0.0290858 0.000683755 1e-05
0.0292367 0.000681113 1e-05
0.0293876 0.000678457 1e-05
0.0295385 0.000675787 1e-05
0.0296894 0.000673101 1e-05
0.0298403 0.000670396 1e-05
0.0299924 0.000667651 1e-05
0.0301445 0.000664889 1e-05
0.0302966 0.000662112 1e-05
0.0304486 0.000659317 1e-05
0.0306007 0.000656506 1e-05
0.030754 0.000653656 1e-05
0.0309072 0.000650787 1e-05
0.0310605 0.000647899 1e-05
0.0312138 0.000644995 1e-05
0.031367 0.000642075 1e-05
0.0315215 0.000639116 1e-05
0.0316759 0.000636136 1e-05
0.0318304 0.000633135 1e-05
0.0319848 0.000630118 1e-05
0.0321393 0.000627086 1e-05
0.0322949 0.000624016 1e-05
0.0324506 0.000620922 1e-05
0.0326062 0.000617806 1e-05
0.0327619 0.000614673 1e-05
0.0329175 0.000611525 1e-05
[...]
POINT_DATA 10975
 FIELD attributes 2
p 1 10975 float
-3.94928 -3.99937 -4.05942 -4.12004 -4.18122 -4.30651 -4.37976 -4.45972 -4.53968 -4.61963 -4.70479 -4.70897 -4.72948 -4.74994 -4.77035 -4.80248 -4.79182 -4.80091 -4.80994 -4.8189 -4.84416 -4.84018 -4.85339 -4.86655 -4.87965 -4.90885 -4.90428 -4.91603 -4.92773 -4.93939 -4.96779 -4.96055 -4.97027 -4.97995 -4.9896 -5.01782 -5.00896 -5.01843 -5.02786 -5.03725 -5.06756 -5.05683 -5.06638 -5.0759 -5.08538 -5.11855 -5.10509 -5.11453 -5.12394 -5.13331 -5.1697 -5.15301 -5.16245 -5.17185 -5.18122 -5.22152 -5.20139 -5.2112 -5.22098 -5.23071 -5.27591 -5.25211 -5.26252 -5.27289 -5.28322 -5.33401 -5.30601 -5.31714 -5.32822 -5.33925 -5.39649 -5.36385 -5.37571 -5.38752 -5.39926 -5.46359 -5.42531 -5.43775 -5.45012 -5.46243 -5.53497 -5.48981 -5.502 -5.51409 -5.5261 -5.60759 -5.54567 -5.54883 -5.5519 -5.55486 -5.63576 -5.523 -5.51365 -5.50421 -5.49468 -5.60602 -5.47795 -5.46972 -5.46142 -5.45306 -5.58021 -5.46807 -5.46482 -5.46152 -5.46831 -5.58182 -5.49559 -5.48155 -5.47946 -5.49876 -5.58868 -5.52218 -5.50211 -5.50148 -5.52956 -5.60575 -5.5567 -5.53615 -5.53833 -5.57295 -5.63867 -5.60134 -5.5811 -5.58526 -5.62375 -5.68128 -5.65158 -5.63152 -5.63717 -5.67874 -5.73086 -5.70671 -5.68684 -5.69389 -5.73826 -5.78674 -5.76651 -5.74643 -5.75555 -5.80131 -5.84701 -5.82944 -5.81194 -5.82263 -5.86616 -5.9096 -5.89389 -5.87829 -5.88999 -5.93173 -5.97334 -5.95904 -5.94486 -5.95724 -5.99741 -6.03743 -6.02424 -6.01118 -6.02398 -6.06271 -6.10129 -6.08903 -6.07692 -6.08996 -6.12738 -6.16465 -6.15322 -6.14194 -6.15509 -6.19128 -6.22732 -6.21671 -6.20625 -6.21939 -6.25435 -6.28916 -6.27938 -6.26975 -6.28278 -6.31647 -6.35001 -6.34106 -6.33417 -6.3474 -6.3775 -6.40979 -6.40167 -6.39795 -6.41078 -6.43747 -6.46854 -6.46127 -6.46048 -6.47295 -6.49645 -6.52632 -6.51992 -6.5218 -6.53396 -6.55451 -6.58321 -6.57767 -6.582 -6.59387 -6.6117 -6.63927 -6.63457 -6.64109 -6.65271 -6.66807 -6.69455 -6.69068 -6.69919 -6.7106 -6.72371 -6.74915 -6.74611 -6.7564 -6.76761 -6.77883 -6.80311 -6.8017 -6.81274 -6.82378 -6.83482 -6.85647 -6.85738 -6.86827 -6.87917 -6.89008 -6.90932 -6.91233 -6.9231 -6.93388 -6.94467 -6.96174 -6.96661 -6.97728 -6.98796 -6.99865 -7.01377 -7.0203 -7.03089 -7.04148 -7.05208 -7.06546 -7.07346 -7.08398 -7.09451 -7.10504 -7.1169 -7.12618 -7.13665 -7.14713 -7.15761 -7.16814 -7.16845 -7.16879 -7.16914 -7.16948 -7.16983 -7.17999 -7.19016 -7.20034 -7.21053 -7.22039 -7.23106 -7.24155 -7.25206 -7.26257 -7.27229 -7.28327 -7.29376 -7.30426 -7.31477 -7.32393 -7.33534 -7.34583 -7.35634 -7.36685 -7.37535 -7.38731 -7.3978 -7.40829 -7.4188 -7.42655 -7.43906 -7.44947 -7.45989 -7.47033 -7.47722 -7.4904 -7.50058 -7.51077 -7.52057 -7.52653 -7.53944 -7.54989 -7.55984 -7.56861 -7.57409 -7.58679 -7.59751 -7.60715 -7.61468 -7.61945 -7.63184 -7.64273 -7.65186 -7.65793 -7.66204 -7.67409 -7.68523 -7.69391 -7.69867 -7.70236 -7.71421 -7.72581 -7.73421 -7.73781 -7.74125 -7.753 -7.76476 -7.77267 -7.77594 -7.77921 -7.79089 -7.80257 -7.81017 -7.81331 -7.81647 -7.82808 -7.83969 -7.84703 -7.85009 -7.85316 -7.8647 -7.87624 -7.88336 -7.88635 -7.88935 -7.9008 -7.91227 -7.91918 -7.92211 -7.92504 -7.9364 -7.94721 -7.95383 -7.95735 -7.9602 -7.97146 -7.98119 -7.98774 -7.99202 -7.99479 -8.00592 -8.01455 -8.021 -8.02605 -8.02872 -8.0397 -8.04721 -8.05354 -8.05936 -8.06192 -8.07272 -8.07908 -8.08527 -8.09147 -8.09428 -8.10406 -8.11008 -8.11611 -8.12216 -8.12573 -8.13429 -8.14013 -8.14599 -8.15186 -8.1562 -8.16352 -8.16917 -8.17484 -8.18051 -8.18562 -8.18955 -8.19286 -8.19617 -8.19949 -8.2027 -8.2049 -8.20711 -8.20932 -8.21152 -8.21312 -8.21901 -8.22433 -8.22966 -8.235 -8.2382 -8.24531 -8.25041 -8.25552 -8.26063 -8.2621 -8.27041 -8.27527 -8.28015 -8.28503 -8.28478 -8.29426 -8.29889 -8.30352 -8.30749 -8.30621 -8.31561 -8.32121 -8.32561 -8.3278 -8.32636 -8.33542 -8.34224 -8.34639 -8.34681 -8.3452 -8.35392 -8.36193 -8.36582 -8.36447 -8.36268 -8.37105 -8.37945 -8.38273 -8.38073 -8.37874 -8.38676 -8.3948 -8.39775 -8.39552 -8.3933 -8.40096 -8.40863 -8.41121 -8.40873 -8.40626 -8.41352 -8.42046 -8.42233 -8.42023 -8.41746 -8.42432 -8.42923 -8.43072 -8.42984 -8.42675 -8.43316 -8.43601 -8.43709 -8.4374 -8.43394 -8.43987 -8.44061 -8.44123 -8.44186 -8.43883 -8.44269 -8.4428 -8.44293 -8.44306 -8.4412 -8.44282 -8.44239 -8.44197 -8.44157 -8.44084 -8.44098 -8.44078 -8.44057 -8.44037 -8.44017 -8.43946 -8.43875 -8.43806 -8.43737 -8.43539 -8.43515 -8.43365 -8.43217 -8.4307 -8.42634 -8.42702 -8.42488 -8.42276 -8.42065 -8.41404 -8.41504 -8.4128 -8.41001 -8.40564 -8.39834 -8.39856 -8.39725 -8.39376 -8.38704 -8.37909 -8.37852 -8.37796 -8.37342 -8.36479 -8.35617 -8.35478 -8.35341 -8.34809 -8.33878 -8.32947 -8.32725 -8.32506 -8.31893 -8.30891 -8.2989 -8.29585 -8.29156 -8.28429 -8.27513 -8.26441 -8.26052 -8.25365 -8.24559 -8.23738 -8.22594 -8.22064 -8.21177 -8.2029 -8.19405 -8.18344 -8.17554 -8.16586 -8.15619 -8.14653 -8.13688 -8.13687 -8.13686 -8.13685 -8.13684 -8.13683 -8.12632 -8.11582 -8.10532 -8.09484 -8.08257 -8.07299 -8.06167 -8.05036 -8.03906 -8.02419 -8.01538 -8.00339 -7.99126 -7.97791 -7.96171 -7.95201 -7.94096 -7.92802 -7.91206 -7.8951 -7.88449 -7.87389 -7.85976 -7.84203 -7.82432 -7.8128 -7.8013 -7.78631 -7.76782 -7.74934 -7.7369 -7.72391 -7.70771 -7.68941 -7.67019 -7.65688 -7.64121 -7.62418 -7.6069 -7.58692 -7.57224 -7.55439 -7.53654 -7.51871 -7.49954 -7.487 -7.4731 -7.45921 -7.44533 -7.43194 -7.42703 -7.42212 -7.41721 -7.41231 -7.40697 -7.38782 -7.36826 -7.3487 -7.32916 -7.30759 -7.28928 -7.26888 -7.2485 -7.22769 -7.20402 -7.18539 -7.16523 -7.14397 -7.12062 -7.09611 -7.07656 -7.05703 -7.03457 -7.00926 -6.98394 -6.96352 -6.94311 -6.91984 -6.89363 -6.86742 -6.84604 -6.82392 -6.79942 -6.77353 -6.74648 -6.72418 -6.69942 -6.67404 -6.64868 -6.62123 -6.59689 -6.57058 -6.54427 -6.51798 -6.49148 -6.48869 -6.48571 -6.48273 -6.47975 -6.47679 -6.45252 -6.42827 -6.40403 -6.37979 -6.35375 -6.32749 -6.29931 -6.27114 -6.24271 -6.21102 -6.18479 -6.15681 -6.12766 -6.09617 -6.0635 -6.03616 -6.00884 -5.97826 -5.94455 -5.91084 -5.88236 -5.8539 -5.82241 -5.78769 -5.75293 -5.72329 -5.69191 -5.65886 -5.62544 -5.58953 -5.5581 -5.5238 -5.4895 -5.45522 -5.42024 -5.41147 -5.40209 -5.39271 -5.38333 -5.37413 -5.34793 -5.32175 -5.29557 -5.2694 -5.24164 -5.20659 -5.1697 -5.13282 -5.09542 -5.05522 -5.01967 -4.983 -4.94463 -4.90336 -4.86158 -4.82443 -4.78731 -4.74707 -4.70361 -4.66013 -4.62126 -4.58131 -4.53892 -4.49557 -4.45028 -4.40931 -4.36498 -4.32067 -4.27638 -4.23145 -4.22366 -4.21534 -4.20702 -4.1987 -4.19052 -4.15268 -4.11486 -4.07705 -4.03927 -3.99876 -3.95364 -3.90543 -3.85725 -3.80715 -3.75468 -3.70742 -3.66018 -3.60909 -3.55435 -3.49955 -3.44988 -3.39953 -3.34553 -3.29005 -3.23284 -3.18042 -3.12385 -3.06731 -3.01079 -2.95412 -2.95313 -2.95205 -2.95098 -2.94991 -2.94884 -2.89126 -2.8337 -2.77617 -2.71868 -2.65716 -2.59889 -2.53911 -2.47801 -2.41317 -2.34765 -2.28678 -2.22594 -2.16143 -2.09386 -2.02589 -1.96252 -1.89544 -1.82787 -1.76032 -1.69232 -1.68809 -1.68362 -1.67912 -1.67462 -1.67015 -1.60521 -1.5403 -1.47542 -1.41035 -1.34109 -1.27216 -1.20257 -1.13087 -1.05505 -0.979059 -0.908072 -0.836358 -0.761177 -0.685418 -0.607747 -0.565074 -0.520419 -0.475395 -0.430378 -0.387353 -0.355297 -0.323245 -0.291197 -0.25893 -0.2253 -0.149068 -0.0712137 0.00661861 0.0866793 0.168192 0.245533 0.322855 0.402905 0.484832 0.56724 0.62684 0.688206 0.750108 0.812002 0.870888 0.89096 0.911032 0.931103 0.95138 0.972412 1.05321 1.13503 1.21684 1.30056 1.38616 1.46673 1.5473 1.63052 1.71575 1.80139 1.85783 1.91576 1.97435 2.03293 2.08927 2.11505 2.14083 2.16661 2.19261 2.21918 2.30207 2.3858 2.46952 2.55482 2.64107 2.72344 2.80584 2.89027 2.97504 3.0606 3.09858 3.13711 3.17594 3.21478 3.25272 3.29791 3.3431 3.3883 3.43387 3.48028 3.56247 3.64502 3.72817 3.81307 3.89822 3.97935 4.06124 4.14403 4.22683 4.31011 4.31815 4.32627 4.33445 4.34263 4.35077 4.42478 4.49879 4.57282 4.64671 4.72064 4.8015 4.88237 4.96282 5.043 5.12346 5.16064 5.19766 5.23449 5.27133 5.30727 5.34966 5.39206 5.43446 5.47708 5.51999 5.59717 5.67437 5.75211 5.8303 5.90885 5.95817 6.00762 6.05727 6.10694 6.15459 6.18158 6.20858 6.23559 6.26214 6.28846 6.36389 6.43917 6.51359 6.58627 6.65955 6.70651 6.75303 6.79845 6.8439 6.88646 6.91325 6.94004 6.96685 6.99375 7.02078 7.09065 7.16061 7.2309 7.3014 7.37288 7.39985 7.42682 7.45379 7.48078 7.50628 7.5488 7.59137 7.63399 7.67358 7.7133 7.77923 7.84501 7.9053 7.96564 8.01737 8.02176 8.02615 8.03054 8.03495 8.03937 8.10085 8.16267 8.22457 8.28648 8.34959 8.36755 8.38551 8.40334 8.42116 8.43838 8.48057 8.52282 8.56369 8.59775 8.63207 8.666 8.69995 8.72772 8.75407 8.77966 8.79931 8.81895 8.8388 8.85964 8.88034 8.91635 8.95227 8.99006 9.02818 9.06989 9.07407 9.07825 9.08224 9.08466 9.08707 9.12896 9.16854 9.20159 9.21992 9.2375 9.24904 9.26026 9.26453 9.26881 9.27335 9.28388 9.29434 9.30473 9.32141 9.33855 9.34098 9.34299 9.35597 9.36948 9.3868 9.38478 9.38379 9.38458 9.38536 9.38618 9.3916 9.39683 9.40186 9.39366 9.37572 9.38313 9.39055 9.37713 9.34377 9.31022 9.30873 9.28974 9.2654 9.24118 9.21156 9.20719 9.20282 9.19845 9.19439 9.19461 9.15297 9.11729 9.08173 9.05122 9.04666 8.98189 8.9228 8.88342 8.87815 8.87371 8.80765 8.74108 8.71037 8.71556 8.72069 8.66761 8.61406 8.59803 8.61895 8.63969 8.60957 8.57897 8.58181 8.61622 8.65062 8.6409 8.63057 8.64366 8.68336 8.7234 8.72282 8.73828 8.75952 8.78065 8.80227 8.80225 8.80228 8.80234 8.80239 8.80245 8.82101 8.83938 8.85756 8.86403 8.85776 8.87551 8.88689 8.8737 8.85847 8.85022 8.8477 8.84512 8.84319 8.84349 8.84378 8.81344 8.78113 8.76586 8.75802 8.75477 8.75352 8.75226 8.74806 8.74277 8.73738 8.72717 8.71674 8.70134 8.67099 8.64312 8.62643 8.60972 8.59807 8.58793 8.57818 8.55608 8.53412 8.51554 8.50617 8.49591 8.48216 8.46886 8.45385 8.43742 8.42271 8.41343 8.40496 8.39411 8.38265 8.36568 8.35918 8.35292 8.34689 8.34497 8.34404 8.32975 8.31957 8.32254 8.34391 8.36653 8.37994 8.39828 8.42649 8.46007 8.49958 8.5299 8.5733 8.62286 8.68017 8.74908 8.80911 8.87045 8.93506 9.00248 9.07124 9.13133 9.19322 9.27856 9.37137 9.47373 9.50988 9.54464 9.57597 9.60732 9.63617 9.69576 9.75553 9.81549 9.86437 9.91028 9.99399 10.0779 10.1702 10.2626 10.3565 10.362 10.3674 10.3721 10.3769 10.3816 10.4731 10.5645 10.6558 10.7505 10.845 10.8972 10.9492 11.0044 11.0595 11.119 11.1596 11.2002 11.2407 11.2741 11.3073 11.4061 11.5048 11.5864 11.663 11.735 11.7474 11.7595 11.7686 11.7778 11.7873 11.8513 11.915 11.9784 12.0488 12.1199 12.172 12.2246 12.2822 12.3397 12.4191 12.4232 12.4273 12.4314 12.4341 12.4361 12.4983 12.5566 12.6143 12.6425 12.6616 12.7137 12.7535 12.769 12.7845 12.7922 12.7979 12.7994 12.799 12.7985 12.798 12.8012 12.8041 12.8068 12.8127 12.8331 12.8055 12.7797 12.7634 12.7663 12.7701 12.722 12.6725 12.6407 12.621 12.6043 12.5365 12.4825 12.432 12.3815 12.3394 12.298 12.2644 12.2308 12.1972 12.1496 12.1182 12.0868 12.0553 12.0239 11.9777 11.9056 11.821 11.7364 11.6438 11.5204 11.4389 11.3516 11.2489 11.1084 10.9666 10.8655 10.7657 10.6349 10.4731 10.3105 10.1873 10.0552 9.89939 9.73386 9.55395 9.41286 9.24179 9.06318 8.8848 8.67928 8.50412 8.30718 8.11033 7.91354 7.70339 7.50123 7.26824 7.0355 6.803 6.54972 6.30593 6.06203 5.81809 5.57412 5.33044 5.05047 4.72084 4.39179 4.06323 3.69438 3.36625 3.09208 2.81828 2.5448 2.31958 1.98626 1.50896 1.03053 0.551148 0