/*--------------------------------*- C++ -*----------------------------------*\
| =========                 |                                                 |
| \\      /  F ield         | OpenFOAM: The Open Source CFD Toolbox           |
|  \\    /   O peration     | Version:  v1906                                 |
|   \\  /    A nd           | Web:      www.OpenFOAM.com                      |
|    \\/     M anipulation  |                                                 |
\*---------------------------------------------------------------------------*/
FoamFile
{
    version     2.0;
    format      ascii;
    class       surfaceScalarField;
    location    "283";
    object      phi;
}
// * * * * * * * * * * * * * * * * * * * * * * * * * * * * * * * * * * * * * //

dimensions      [0 3 -1 0 0 0 0];
oriented        oriented;


internalField   nonuniform List<scalar> 
24170
(
3.11644e-06
7.19615e-08
3.01269e-06
1.0376e-07
2.91728e-06
9.54095e-08
2.82625e-06
9.10258e-08
2.74024e-06
8.60091e-08
2.66274e-06
7.75056e-08
2.59485e-06
6.78874e-08
2.53594e-06
5.89089e-08
2.4849e-06
5.1045e-08
2.44063e-06
4.42657e-08
2.40218e-06
3.84453e-08
2.36874e-06
3.34409e-08
2.33964e-06
2.91047e-08
2.31432e-06
2.53142e-08
2.2925e-06
2.18289e-08
2.27367e-06
1.88251e-08
2.25764e-06
1.60307e-08
1.26593e-08
2.24498e-06
3.46686e-06
2.23488e-08
3.48677e-06
8.38527e-08
3.49349e-06
8.86959e-08
3.49229e-06
9.22286e-08
3.48432e-06
9.39759e-08
3.47072e-06
9.11097e-08
3.45278e-06
8.58247e-08
3.43174e-06
7.99507e-08
3.4087e-06
7.40825e-08
3.38457e-06
6.83969e-08
3.36005e-06
6.29626e-08
3.33566e-06
5.78367e-08
3.31176e-06
5.30032e-08
3.28862e-06
4.84497e-08
3.26644e-06
4.4007e-08
3.24544e-06
3.98261e-08
3.22639e-06
3.50815e-08
2.88323e-08
3.21022e-06
3.66722e-06
1.76451e-08
3.68039e-06
7.06832e-08
3.69009e-06
7.89932e-08
3.70005e-06
8.22706e-08
3.70916e-06
8.48644e-08
3.71624e-06
8.40282e-08
3.7212e-06
8.08631e-08
3.72425e-06
7.69097e-08
3.7256e-06
7.27279e-08
3.72553e-06
6.84712e-08
3.72427e-06
6.42167e-08
3.72207e-06
6.00378e-08
3.71912e-06
5.59492e-08
3.71563e-06
5.19392e-08
3.71174e-06
4.79029e-08
3.70779e-06
4.37758e-08
3.7038e-06
3.90671e-08
3.32136e-08
3.69942e-06
3.92502e-06
1.80142e-08
3.93555e-06
6.01499e-08
3.94312e-06
7.14297e-08
3.95015e-06
7.52391e-08
3.95683e-06
7.81851e-08
3.96262e-06
7.82394e-08
3.96758e-06
7.59023e-08
3.97191e-06
7.25837e-08
3.97569e-06
6.8943e-08
3.97899e-06
6.51679e-08
3.98187e-06
6.13403e-08
3.98438e-06
5.75289e-08
3.98658e-06
5.37518e-08
3.98853e-06
4.99896e-08
3.99028e-06
4.6153e-08
3.99192e-06
4.21335e-08
3.9933e-06
3.76844e-08
3.25038e-08
3.99401e-06
4.20803e-06
1.71106e-08
4.21607e-06
5.21064e-08
4.22223e-06
6.52701e-08
4.22774e-06
6.97355e-08
4.23318e-06
7.27422e-08
4.23821e-06
7.32107e-08
4.24273e-06
7.13748e-08
4.24686e-06
6.84603e-08
4.25065e-06
6.51535e-08
4.25415e-06
6.16649e-08
4.25741e-06
5.80825e-08
4.26046e-06
5.44734e-08
4.26335e-06
5.08608e-08
4.26612e-06
4.72265e-08
4.26877e-06
4.34998e-08
4.27131e-06
3.9591e-08
4.27363e-06
3.5364e-08
3.06846e-08
4.27545e-06
4.51074e-06
1.54581e-08
4.51711e-06
4.57311e-08
4.52281e-06
5.9579e-08
4.52795e-06
6.45921e-08
4.53309e-06
6.76035e-08
4.53795e-06
6.83507e-08
4.54238e-06
6.69455e-08
4.54643e-06
6.44078e-08
4.55018e-06
6.14023e-08
4.55369e-06
5.81603e-08
4.55699e-06
5.47815e-08
4.56012e-06
5.13362e-08
4.56313e-06
4.78555e-08
4.56603e-06
4.43285e-08
4.56882e-06
4.07073e-08
4.57148e-06
3.69294e-08
4.57392e-06
3.29263e-08
2.86652e-08
4.57594e-06
4.83439e-06
1.3792e-08
4.83991e-06
4.02066e-08
4.84553e-06
5.39624e-08
4.85064e-06
5.94736e-08
4.85571e-06
6.2541e-08
4.86054e-06
6.35196e-08
4.86498e-06
6.24986e-08
4.86908e-06
6.03149e-08
4.87288e-06
5.75948e-08
4.87646e-06
5.45864e-08
4.87984e-06
5.14025e-08
4.88305e-06
4.81178e-08
4.88614e-06
4.47721e-08
4.8891e-06
4.13648e-08
4.89194e-06
3.78706e-08
4.89461e-06
3.42544e-08
4.89704e-06
3.04951e-08
2.66171e-08
4.89909e-06
5.1811e-06
1.22686e-08
5.18607e-06
3.52383e-08
5.19158e-06
4.84565e-08
5.1967e-06
5.4349e-08
5.20176e-06
5.74833e-08
5.20664e-06
5.86409e-08
5.21118e-06
5.79535e-08
5.2154e-06
5.61001e-08
5.21934e-06
5.36564e-08
5.22304e-06
5.08811e-08
5.22655e-06
4.7897e-08
5.22988e-06
4.47839e-08
5.23306e-06
4.15895e-08
5.2361e-06
3.83258e-08
5.23899e-06
3.49873e-08
5.24168e-06
3.15632e-08
5.24411e-06
2.80623e-08
2.45323e-08
5.24619e-06
5.55276e-06
1.085e-08
5.55723e-06
3.07604e-08
5.56253e-06
4.31619e-08
5.56763e-06
4.92421e-08
5.57271e-06
5.24112e-08
5.57766e-06
5.36881e-08
5.58233e-06
5.32798e-08
5.5867e-06
5.17304e-08
5.5908e-06
4.95538e-08
5.59467e-06
4.70124e-08
5.59833e-06
4.42364e-08
5.60181e-06
4.13097e-08
5.60511e-06
3.82871e-08
5.60824e-06
3.51929e-08
5.61119e-06
3.20383e-08
5.61392e-06
2.88314e-08
5.61639e-06
2.55975e-08
2.23937e-08
5.61853e-06
5.95111e-06
9.51513e-09
5.95514e-06
2.67272e-08
5.96018e-06
3.81251e-08
5.96524e-06
4.41813e-08
5.97031e-06
4.73368e-08
5.97532e-06
4.8678e-08
5.98011e-06
4.84899e-08
5.98463e-06
4.72101e-08
5.9889e-06
4.52853e-08
5.99294e-06
4.29742e-08
5.99677e-06
4.04117e-08
6.00039e-06
3.76846e-08
6.00382e-06
3.48532e-08
6.00706e-06
3.19525e-08
6.0101e-06
2.90059e-08
6.01289e-06
2.60355e-08
6.01542e-06
2.30739e-08
2.018e-08
6.01763e-06
6.37806e-06
8.26491e-09
6.38171e-06
2.30822e-08
6.38648e-06
3.33556e-08
6.39146e-06
3.91918e-08
6.39652e-06
4.22778e-08
6.40157e-06
4.36352e-08
6.40645e-06
4.36084e-08
6.4111e-06
4.25585e-08
6.41552e-06
4.08659e-08
6.41971e-06
3.87775e-08
6.4237e-06
3.64303e-08
6.42747e-06
3.39127e-08
6.43103e-06
3.12884e-08
6.43438e-06
2.86004e-08
6.43751e-06
2.58807e-08
6.44038e-06
2.31597e-08
6.44299e-06
2.04722e-08
1.78747e-08
6.44529e-06
5.74183e-06
7.2674e-09
5.74464e-06
2.0269e-08
5.74847e-06
2.953e-08
5.75262e-06
3.50435e-08
5.75687e-06
3.80233e-08
5.76114e-06
3.93632e-08
5.76532e-06
3.94294e-08
5.76934e-06
3.85414e-08
5.77318e-06
3.70289e-08
5.77683e-06
3.51221e-08
5.78031e-06
3.29565e-08
5.7836e-06
3.06212e-08
5.7867e-06
2.81815e-08
5.78962e-06
2.56844e-08
5.79233e-06
2.31667e-08
5.79483e-06
2.06624e-08
5.7971e-06
1.82057e-08
1.58506e-08
5.79912e-06
6.99922e-06
6.20012e-09
7.00221e-06
1.72785e-08
7.00637e-06
2.53741e-08
7.011e-06
3.04062e-08
7.01584e-06
3.31909e-08
7.02073e-06
3.4466e-08
7.02557e-06
3.45956e-08
7.03025e-06
3.38587e-08
7.03475e-06
3.25322e-08
7.03904e-06
3.08242e-08
7.04314e-06
2.88654e-08
7.04701e-06
2.67433e-08
7.05067e-06
2.45233e-08
7.0541e-06
2.22546e-08
7.05729e-06
1.99765e-08
7.06023e-06
1.77244e-08
7.06291e-06
1.55299e-08
1.34428e-08
7.06531e-06
8.53198e-06
5.071e-09
8.53511e-06
1.41407e-08
8.53957e-06
2.09178e-08
8.54469e-06
2.52897e-08
8.55011e-06
2.77643e-08
8.55567e-06
2.89084e-08
8.56121e-06
2.90564e-08
8.56662e-06
2.84474e-08
8.57185e-06
2.73057e-08
8.57686e-06
2.58106e-08
8.58164e-06
2.40835e-08
8.58618e-06
2.22073e-08
8.59046e-06
2.02446e-08
8.59447e-06
1.82442e-08
8.5982e-06
1.62451e-08
8.60164e-06
1.42813e-08
8.60479e-06
1.23806e-08
1.0587e-08
8.60764e-06
1.04004e-05
3.89102e-09
1.04037e-05
1.08787e-08
1.04084e-05
1.61867e-08
1.0414e-05
1.97079e-08
1.042e-05
2.17325e-08
1.04263e-05
2.26589e-08
1.04325e-05
2.27645e-08
1.04387e-05
2.22463e-08
1.04448e-05
2.12783e-08
1.04506e-05
2.00054e-08
1.04561e-05
1.85326e-08
1.04614e-05
1.69345e-08
1.04664e-05
1.52673e-08
1.0471e-05
1.35756e-08
1.04754e-05
1.1895e-08
1.04794e-05
1.02558e-08
1.04831e-05
8.6804e-09
7.2063e-09
1.04865e-05
1.2678e-05
2.66773e-09
1.26814e-05
7.49103e-09
1.26864e-05
1.11833e-08
1.26924e-05
1.36615e-08
1.26991e-05
1.50756e-08
1.27061e-05
1.56758e-08
1.27132e-05
1.56635e-08
1.27202e-05
1.51865e-08
1.27272e-05
1.43703e-08
1.27338e-05
1.33213e-08
1.27403e-05
1.21215e-08
1.27464e-05
1.0831e-08
1.27521e-05
9.49561e-09
1.27576e-05
8.15164e-09
1.27626e-05
6.82815e-09
1.27673e-05
5.54908e-09
1.27717e-05
4.33077e-09
3.20363e-09
1.27757e-05
1.54545e-05
1.39275e-09
1.5458e-05
3.93473e-09
1.54633e-05
5.85348e-09
1.54699e-05
7.09511e-09
1.54773e-05
7.72491e-09
1.54851e-05
7.87298e-09
1.54931e-05
7.65522e-09
1.55011e-05
7.16144e-09
1.5509e-05
6.46739e-09
1.55167e-05
5.63825e-09
1.55241e-05
4.72591e-09
1.55311e-05
3.76981e-09
1.55378e-05
2.80032e-09
1.55441e-05
1.84164e-09
1.55501e-05
9.12966e-10
1.55556e-05
2.99001e-11
1.55607e-05
-7.9808e-10
-1.54818e-09
1.55655e-05
1.8839e-05
2.67134e-11
1.88429e-05
8.51557e-11
1.88487e-05
2.09255e-11
1.8856e-05
-1.87128e-10
1.88642e-05
-5.24714e-10
1.88731e-05
-9.62115e-10
1.88822e-05
-1.47529e-09
1.88914e-05
-2.04215e-09
1.89005e-05
-2.64052e-09
1.89094e-05
-3.25088e-09
1.8918e-05
-3.85786e-09
1.89262e-05
-4.44924e-09
1.8934e-05
-5.01501e-09
1.89414e-05
-5.54691e-09
1.89483e-05
-6.03834e-09
1.89549e-05
-6.48378e-09
1.89609e-05
-6.88133e-09
-7.21636e-09
1.89666e-05
2.29649e-05
-1.53193e-09
2.29693e-05
-4.35281e-09
2.29761e-05
-6.74937e-09
2.29846e-05
-8.6889e-09
2.29943e-05
-1.01893e-08
2.30046e-05
-1.13367e-08
2.30154e-05
-1.22203e-08
2.30262e-05
-1.28944e-08
2.3037e-05
-1.33958e-08
2.30475e-05
-1.37598e-08
2.30577e-05
-1.4017e-08
2.30674e-05
-1.41894e-08
2.30767e-05
-1.42924e-08
2.30855e-05
-1.43369e-08
2.30938e-05
-1.43316e-08
2.31016e-05
-1.42825e-08
2.31089e-05
-1.41958e-08
-1.40654e-08
2.31157e-05
1.68119e-05
-2.73745e-09
1.68153e-05
-7.76527e-09
1.68205e-05
-1.19707e-08
1.68271e-05
-1.52077e-08
1.68344e-05
-1.75187e-08
1.68422e-05
-1.91367e-08
1.68502e-05
-2.02554e-08
1.68583e-05
-2.09744e-08
1.68663e-05
-2.13711e-08
1.6874e-05
-2.15256e-08
1.68815e-05
-2.15034e-08
1.68887e-05
-2.13511e-08
1.68955e-05
-2.11019e-08
1.69019e-05
-2.07812e-08
1.6908e-05
-2.0408e-08
1.69137e-05
-1.9996e-08
1.69191e-05
-1.95562e-08
-1.90877e-08
1.69241e-05
1.46357e-05
-3.87383e-09
1.4639e-05
-1.1037e-08
1.4644e-05
-1.70159e-08
1.46502e-05
-2.14104e-08
1.46571e-05
-2.4359e-08
1.46643e-05
-2.63347e-08
1.46716e-05
-2.7612e-08
1.4679e-05
-2.83096e-08
1.46861e-05
-2.85546e-08
1.46931e-05
-2.8478e-08
1.46998e-05
-2.81753e-08
1.47061e-05
-2.77102e-08
1.47121e-05
-2.71304e-08
1.47178e-05
-2.64735e-08
1.47232e-05
-2.57674e-08
1.47282e-05
-2.50313e-08
1.4733e-05
-2.42802e-08
-2.3517e-08
1.47374e-05
1.27412e-05
-4.90194e-09
1.27444e-05
-1.42916e-08
1.27495e-05
-2.21368e-08
1.27556e-05
-2.74612e-08
1.27621e-05
-3.08272e-08
1.27688e-05
-3.30785e-08
1.27756e-05
-3.44594e-08
1.27824e-05
-3.50693e-08
1.2789e-05
-3.51094e-08
1.27953e-05
-3.47712e-08
1.28012e-05
-3.41737e-08
1.28069e-05
-3.33938e-08
1.28123e-05
-3.24922e-08
1.28173e-05
-3.15167e-08
1.28221e-05
-3.0501e-08
1.28265e-05
-2.94677e-08
1.28307e-05
-2.84319e-08
-2.73977e-08
1.28345e-05
1.10917e-05
-5.69189e-09
1.1095e-05
-1.75695e-08
1.11004e-05
-2.75386e-08
1.11064e-05
-3.34477e-08
1.11125e-05
-3.69814e-08
1.11189e-05
-3.9423e-08
1.11253e-05
-4.08311e-08
1.11315e-05
-4.12903e-08
1.11375e-05
-4.10974e-08
1.11432e-05
-4.04888e-08
1.11486e-05
-3.95938e-08
1.11537e-05
-3.85018e-08
1.11585e-05
-3.72875e-08
1.1163e-05
-3.60085e-08
1.11672e-05
-3.47037e-08
1.11711e-05
-3.33988e-08
1.11748e-05
-3.21122e-08
-3.08524e-08
1.11783e-05
9.65567e-06
-6.14848e-09
9.65906e-06
-2.0963e-08
9.66466e-06
-3.31317e-08
9.67045e-06
-3.92396e-08
9.67637e-06
-4.29021e-08
9.68243e-06
-4.54864e-08
9.68839e-06
-4.67852e-08
9.69409e-06
-4.69983e-08
9.69954e-06
-4.65405e-08
9.70471e-06
-4.56596e-08
9.70959e-06
-4.44757e-08
9.71418e-06
-4.30872e-08
9.71847e-06
-4.15808e-08
9.72248e-06
-4.00222e-08
9.72623e-06
-3.84534e-08
9.72973e-06
-3.69009e-08
9.733e-06
-3.53777e-08
-3.38784e-08
9.73602e-06
8.40505e-06
-5.84202e-09
8.40934e-06
-2.52549e-08
8.41475e-06
-3.85414e-08
8.41986e-06
-4.43521e-08
8.42544e-06
-4.84829e-08
8.43131e-06
-5.13604e-08
8.43704e-06
-5.25149e-08
8.44248e-06
-5.24375e-08
8.44763e-06
-5.16838e-08
8.45247e-06
-5.05029e-08
8.457e-06
-4.90113e-08
8.46124e-06
-4.73183e-08
8.46518e-06
-4.55204e-08
8.46884e-06
-4.36887e-08
8.47226e-06
-4.18675e-08
8.47544e-06
-4.0086e-08
8.47843e-06
-3.83683e-08
-3.67247e-08
8.48128e-06
7.31386e-06
-2.4149e-09
7.32071e-06
-3.2108e-08
7.3265e-06
-4.43325e-08
7.33132e-06
-4.91753e-08
7.33671e-06
-5.38722e-08
7.34239e-06
-5.70321e-08
7.34793e-06
-5.80586e-08
7.35325e-06
-5.77574e-08
7.35832e-06
-5.67544e-08
7.3631e-06
-5.52827e-08
7.36756e-06
-5.34758e-08
7.37171e-06
-5.14641e-08
7.37555e-06
-4.93607e-08
7.3791e-06
-4.72413e-08
7.38239e-06
-4.51557e-08
7.38544e-06
-4.31336e-08
7.38826e-06
-4.11859e-08
-3.92613e-08
7.39079e-06
6.36063e-06
7.02383e-09
6.37028e-06
-4.17649e-08
6.37818e-06
-5.22235e-08
6.38526e-06
-5.62593e-08
6.39239e-06
-6.10005e-08
6.39901e-06
-6.36533e-08
6.405e-06
-6.40543e-08
6.41056e-06
-6.33127e-08
6.41577e-06
-6.19621e-08
6.42062e-06
-6.01382e-08
6.42511e-06
-5.79666e-08
6.42924e-06
-5.5589e-08
6.43301e-06
-5.31336e-08
6.43645e-06
-5.06775e-08
6.43957e-06
-4.82787e-08
6.44242e-06
-4.59782e-08
6.44504e-06
-4.38076e-08
-4.17936e-08
6.44757e-06
5.53889e-06
1.35963e-08
5.54754e-06
-5.04128e-08
5.5559e-06
-6.05873e-08
5.56614e-06
-6.64978e-08
5.57735e-06
-7.22042e-08
5.58784e-06
-7.41499e-08
5.59706e-06
-7.32751e-08
5.60503e-06
-7.12749e-08
5.6118e-06
-6.87363e-08
5.61746e-06
-6.57995e-08
5.62208e-06
-6.25882e-08
5.62575e-06
-5.92574e-08
5.62856e-06
-5.59426e-08
5.6306e-06
-5.27183e-08
5.63196e-06
-4.96362e-08
5.63275e-06
-4.67654e-08
5.63305e-06
-4.41163e-08
-4.17817e-08
5.63304e-06
4.87081e-06
-2.96045e-08
4.8865e-06
-6.61087e-08
4.89726e-06
-7.13398e-08
4.906e-06
-7.52398e-08
4.91305e-06
-7.92583e-08
4.91734e-06
-7.84327e-08
4.91817e-06
-7.41113e-08
4.91544e-06
-6.85452e-08
4.90946e-06
-6.27543e-08
4.90074e-06
-5.70792e-08
4.88984e-06
-5.16906e-08
4.87727e-06
-4.66881e-08
4.86348e-06
-4.21532e-08
4.84884e-06
-3.8078e-08
4.83366e-06
-3.44488e-08
4.81818e-06
-3.12889e-08
4.80268e-06
-2.86139e-08
-2.69205e-08
4.78782e-06
4.17307e-06
4.10696e-06
4.03562e-06
3.96038e-06
3.88113e-06
3.80269e-06
3.72858e-06
3.66004e-06
3.59728e-06
3.5402e-06
3.48851e-06
3.44182e-06
3.39967e-06
3.36159e-06
3.32714e-06
3.29585e-06
3.26724e-06
3.24032e-06
5.8194e-09
-5.82243e-09
1.76347e-08
-1.18197e-08
3.13658e-08
-1.37354e-08
4.46538e-08
-1.32916e-08
5.61378e-08
-1.14879e-08
6.51489e-08
-9.01455e-09
7.14604e-08
-6.31549e-09
7.51029e-08
-3.64598e-09
7.62456e-08
-1.1469e-09
7.51663e-08
1.07568e-09
7.22323e-08
2.92949e-09
6.78281e-08
4.40041e-09
6.22621e-08
5.56122e-09
5.57436e-08
6.51433e-09
4.83728e-08
7.36558e-09
4.0162e-08
8.20636e-09
3.10562e-08
9.10013e-09
2.09663e-08
1.0085e-08
9.79254e-09
1.11676e-08
-2.56513e-09
1.23526e-08
-1.63308e-08
1.37595e-08
-3.17193e-08
1.53838e-08
-4.88624e-08
1.71372e-08
-6.79155e-08
1.90487e-08
-8.90376e-08
2.11163e-08
-1.12363e-07
2.33206e-08
-1.37999e-07
2.56302e-08
-1.66008e-07
2.80044e-08
-1.96409e-07
3.0395e-08
-2.29162e-07
3.27476e-08
-2.64171e-07
3.50028e-08
-3.01291e-07
3.71149e-08
-3.40348e-07
3.90518e-08
-3.81142e-07
4.07897e-08
-4.23459e-07
4.23127e-08
-4.67072e-07
4.36083e-08
-5.1175e-07
4.46739e-08
-5.5727e-07
4.55158e-08
-6.0342e-07
4.61467e-08
-6.50007e-07
4.65833e-08
-6.96856e-07
4.68453e-08
-7.43813e-07
4.69543e-08
-7.90748e-07
4.69323e-08
-8.37552e-07
4.68009e-08
-8.84135e-07
4.65809e-08
-9.30433e-07
4.62949e-08
-9.76407e-07
4.59719e-08
-1.02206e-06
4.56473e-08
-1.0674e-06
4.53419e-08
-1.11246e-06
4.50526e-08
-1.15723e-06
4.47755e-08
-1.20175e-06
4.45085e-08
-1.246e-06
4.42498e-08
-1.29e-06
4.39977e-08
-1.33375e-06
4.37504e-08
-1.37726e-06
4.35058e-08
-1.42053e-06
4.32617e-08
-1.46355e-06
4.30153e-08
-1.50632e-06
4.27642e-08
-1.54883e-06
4.25052e-08
-1.59107e-06
4.22356e-08
-1.63302e-06
4.19521e-08
-1.67468e-06
4.16519e-08
-1.71601e-06
4.13319e-08
-1.757e-06
4.09894e-08
-1.79763e-06
4.06215e-08
-1.83786e-06
4.02257e-08
-1.87766e-06
3.97994e-08
-1.917e-06
3.93406e-08
-1.95585e-06
3.88468e-08
-1.99417e-06
3.83164e-08
-2.03192e-06
3.77474e-08
-2.06906e-06
3.71385e-08
-2.10556e-06
3.64881e-08
-2.14135e-06
3.57953e-08
-2.17642e-06
3.50587e-08
-2.2107e-06
3.4278e-08
-2.24416e-06
3.34524e-08
-2.27674e-06
3.25816e-08
-2.30841e-06
3.16651e-08
-2.33912e-06
3.07032e-08
-2.36882e-06
2.96954e-08
-2.39746e-06
2.86426e-08
-2.42501e-06
2.75443e-08
-2.45141e-06
2.64015e-08
-2.47663e-06
2.52142e-08
-2.50062e-06
2.39837e-08
-2.52333e-06
2.27099e-08
-2.54472e-06
2.13936e-08
-2.56476e-06
2.00349e-08
-2.58339e-06
1.86335e-08
-2.60058e-06
1.71889e-08
-2.61628e-06
1.56998e-08
-2.63045e-06
1.4164e-08
-2.64303e-06
1.25775e-08
-2.65397e-06
1.09351e-08
-2.6632e-06
9.23009e-09
-2.67066e-06
7.45237e-09
-2.67625e-06
5.5857e-09
-2.67986e-06
3.61262e-09
-2.68142e-06
1.55047e-09
-2.68094e-06
-4.83744e-10
-2.67863e-06
-2.31835e-09
-2.67465e-06
-3.99009e-09
-2.66903e-06
-5.63012e-09
-2.66178e-06
-7.26357e-09
-2.65288e-06
-8.90059e-09
-2.64235e-06
-1.05429e-08
-2.63017e-06
-1.21891e-08
-2.61634e-06
-1.38383e-08
-2.60085e-06
-1.54879e-08
-2.58372e-06
-1.71367e-08
-2.56494e-06
-1.87818e-08
-2.54453e-06
-2.0422e-08
-2.52247e-06
-2.20543e-08
-2.4988e-06
-2.36776e-08
-2.47351e-06
-2.52888e-08
-2.44663e-06
-2.68867e-08
-2.41816e-06
-2.84685e-08
-2.38813e-06
-3.00332e-08
-2.35655e-06
-3.15782e-08
-2.32345e-06
-3.31022e-08
-2.28886e-06
-3.46019e-08
-2.25279e-06
-3.60758e-08
-2.21527e-06
-3.75205e-08
-2.17634e-06
-3.8935e-08
-2.13602e-06
-4.03165e-08
-2.09435e-06
-4.16644e-08
-2.05137e-06
-4.29763e-08
-2.00712e-06
-4.42527e-08
-1.96162e-06
-4.54917e-08
-1.91491e-06
-4.6693e-08
-1.86705e-06
-4.78538e-08
-1.81806e-06
-4.89757e-08
-1.76799e-06
-5.00528e-08
-1.71689e-06
-5.10793e-08
-1.66482e-06
-5.20595e-08
-1.6118e-06
-5.2997e-08
-1.5579e-06
-5.38859e-08
-1.50316e-06
-5.47238e-08
-1.44763e-06
-5.55103e-08
-1.39137e-06
-5.62453e-08
-1.33443e-06
-5.69285e-08
-1.27686e-06
-5.75594e-08
-1.21871e-06
-5.81378e-08
-1.16004e-06
-5.86634e-08
-1.1009e-06
-5.91368e-08
-1.04134e-06
-5.95577e-08
-9.81412e-07
-5.99271e-08
-9.21167e-07
-6.0245e-08
-8.60657e-07
-6.05129e-08
-7.99931e-07
-6.07313e-08
-7.39036e-07
-6.09018e-08
-6.78019e-07
-6.10254e-08
-6.16926e-07
-6.11039e-08
-5.55799e-07
-6.11387e-08
-4.94681e-07
-6.11321e-08
-4.33611e-07
-6.10852e-08
-3.72627e-07
-6.10002e-08
-3.11768e-07
-6.0877e-08
-2.51069e-07
-6.07178e-08
-1.90568e-07
-6.0521e-08
-1.30296e-07
-6.02927e-08
-7.02761e-08
-6.00408e-08
-1.06008e-08
-5.9697e-08
4.87482e-08
-5.93708e-08
1.07773e-07
-5.90456e-08
1.66362e-07
-5.86109e-08
2.24504e-07
-5.81617e-08
2.82197e-07
-5.7713e-08
3.39428e-07
-5.72513e-08
3.96159e-07
-5.67506e-08
4.5231e-07
-5.61694e-08
5.07727e-07
-5.54357e-08
5.62123e-07
-5.44149e-08
6.14926e-07
-5.28203e-08
6.64932e-07
-5.00221e-08
7.0916e-07
-4.42441e-08
7.40618e-07
-3.14715e-08
1.08183e-08
7.29788e-07
1.13831e-08
-1.72088e-08
2.3298e-08
-2.37387e-08
3.19697e-08
-2.24102e-08
3.7557e-08
-1.88811e-08
4.06233e-08
-1.45564e-08
4.15472e-08
-9.94035e-09
4.05521e-08
-5.32258e-09
3.77944e-08
-8.90175e-10
3.34018e-08
3.24345e-09
2.74584e-08
7.0171e-09
1.99749e-08
1.04106e-08
1.09275e-08
1.34457e-08
2.95786e-10
1.61905e-08
-1.19411e-08
1.8749e-08
-2.58148e-08
2.12369e-08
-4.13711e-08
2.37604e-08
-5.86794e-08
2.6406e-08
-7.78289e-08
2.92324e-08
-9.89337e-08
3.22702e-08
-1.22118e-07
3.55353e-08
-1.47403e-07
3.90422e-08
-1.74806e-07
4.27849e-08
-2.04406e-07
4.67351e-08
-2.36214e-07
5.08544e-08
-2.70187e-07
5.50867e-08
-3.06229e-07
5.93603e-08
-3.44194e-07
6.35925e-08
-3.83889e-07
6.76973e-08
-4.25091e-07
7.1595e-08
-4.67569e-07
7.5223e-08
-5.111e-07
7.85311e-08
-5.55462e-07
8.14741e-08
-6.00435e-07
8.40222e-08
-6.4581e-07
8.61621e-08
-6.91395e-07
8.78955e-08
-7.37021e-07
8.92322e-08
-7.82543e-07
9.01939e-08
-8.27844e-07
9.08144e-08
-8.72832e-07
9.11329e-08
-9.17442e-07
9.11907e-08
-9.61628e-07
9.10293e-08
-1.00536e-06
9.06892e-08
-1.04864e-06
9.02083e-08
-1.09146e-06
8.96214e-08
-1.13385e-06
8.89606e-08
-1.17581e-06
8.82561e-08
-1.21737e-06
8.75367e-08
-1.25855e-06
8.68261e-08
-1.29935e-06
8.61364e-08
-1.33977e-06
8.54694e-08
-1.37982e-06
8.4824e-08
-1.41951e-06
8.41984e-08
-1.45885e-06
8.35892e-08
-1.49785e-06
8.29927e-08
-1.53651e-06
8.24044e-08
-1.57482e-06
8.18194e-08
-1.61279e-06
8.12326e-08
-1.65042e-06
8.06384e-08
-1.68769e-06
8.00314e-08
-1.72459e-06
7.9406e-08
-1.76112e-06
7.87565e-08
-1.79724e-06
7.80775e-08
-1.83296e-06
7.73635e-08
-1.86824e-06
7.66094e-08
-1.90306e-06
7.58103e-08
-1.9374e-06
7.49614e-08
-1.97124e-06
7.40584e-08
-2.00454e-06
7.30972e-08
-2.03727e-06
7.20741e-08
-2.06942e-06
7.09857e-08
-2.10093e-06
6.98287e-08
-2.13178e-06
6.86006e-08
-2.16195e-06
6.72988e-08
-2.19138e-06
6.59212e-08
-2.22005e-06
6.44661e-08
-2.24793e-06
6.2932e-08
-2.27497e-06
6.13179e-08
-2.30115e-06
5.96228e-08
-2.32641e-06
5.78465e-08
-2.35074e-06
5.59885e-08
-2.37409e-06
5.40489e-08
-2.39642e-06
5.20279e-08
-2.41771e-06
4.9926e-08
-2.43791e-06
4.77437e-08
-2.45699e-06
4.5482e-08
-2.47492e-06
4.3142e-08
-2.49166e-06
4.07249e-08
-2.50719e-06
3.82317e-08
-2.52146e-06
3.56637e-08
-2.53444e-06
3.30218e-08
-2.54612e-06
3.03069e-08
-2.55645e-06
2.75197e-08
-2.56541e-06
2.4661e-08
-2.57298e-06
2.17314e-08
-2.57914e-06
1.87316e-08
-2.58387e-06
1.56626e-08
-2.58717e-06
1.25264e-08
-2.58904e-06
9.32668e-09
-2.58953e-06
6.07161e-09
-2.58871e-06
2.78559e-09
-2.58668e-06
-4.8493e-10
-2.58346e-06
-3.7034e-09
-2.57889e-06
-6.89472e-09
-2.57279e-06
-1.00967e-08
-2.56512e-06
-1.3313e-08
-2.55584e-06
-1.6543e-08
-2.54496e-06
-1.97873e-08
-2.53247e-06
-2.30439e-08
-2.51835e-06
-2.63096e-08
-2.50261e-06
-2.95808e-08
-2.48525e-06
-3.28536e-08
-2.46627e-06
-3.61241e-08
-2.44566e-06
-3.93879e-08
-2.42345e-06
-4.26411e-08
-2.39962e-06
-4.58794e-08
-2.3742e-06
-4.90989e-08
-2.3472e-06
-5.22953e-08
-2.31862e-06
-5.54644e-08
-2.28849e-06
-5.86024e-08
-2.25681e-06
-6.17056e-08
-2.22362e-06
-6.477e-08
-2.18894e-06
-6.77919e-08
-2.15278e-06
-7.07663e-08
-2.11517e-06
-7.36889e-08
-2.07614e-06
-7.6555e-08
-2.03571e-06
-7.9361e-08
-1.99393e-06
-8.21025e-08
-1.95081e-06
-8.47767e-08
-1.90641e-06
-8.738e-08
-1.86075e-06
-8.99107e-08
-1.81387e-06
-9.23666e-08
-1.76581e-06
-9.47467e-08
-1.7166e-06
-9.70486e-08
-1.6663e-06
-9.92708e-08
-1.61494e-06
-1.01404e-07
-1.56257e-06
-1.03439e-07
-1.50924e-06
-1.05382e-07
-1.45499e-06
-1.07237e-07
-1.39987e-06
-1.08996e-07
-1.34393e-06
-1.10653e-07
-1.28722e-06
-1.12208e-07
-1.2298e-06
-1.1366e-07
-1.17171e-06
-1.15008e-07
-1.11302e-06
-1.16252e-07
-1.05376e-06
-1.1739e-07
-9.93995e-07
-1.18424e-07
-9.33777e-07
-1.19352e-07
-8.73157e-07
-1.20176e-07
-8.12187e-07
-1.20897e-07
-7.50919e-07
-1.21515e-07
-6.89402e-07
-1.22032e-07
-6.27686e-07
-1.2245e-07
-5.6582e-07
-1.22772e-07
-5.0385e-07
-1.23e-07
-4.41821e-07
-1.23138e-07
-3.79777e-07
-1.23189e-07
-3.1776e-07
-1.23156e-07
-2.5581e-07
-1.23044e-07
-1.93963e-07
-1.22855e-07
-1.32258e-07
-1.22592e-07
-7.0726e-08
-1.22259e-07
-9.39823e-09
-1.21859e-07
5.17039e-08
-1.21405e-07
1.12549e-07
-1.20896e-07
1.73149e-07
-1.20308e-07
2.33412e-07
-1.19644e-07
2.93246e-07
-1.1889e-07
3.52687e-07
-1.18063e-07
4.11731e-07
-1.17216e-07
4.70363e-07
-1.16356e-07
5.28556e-07
-1.15456e-07
5.86263e-07
-1.14468e-07
6.43397e-07
-1.13313e-07
6.99802e-07
-1.11852e-07
7.552e-07
-1.09823e-07
8.0909e-07
-1.06721e-07
8.60474e-07
-1.01416e-07
9.078e-07
-9.15798e-08
9.47588e-07
-7.12685e-08
-2.24765e-08
9.80876e-07
9.23916e-09
-2.64506e-08
1.5154e-08
-2.96567e-08
1.73232e-08
-2.45815e-08
1.67523e-08
-1.83118e-08
1.41137e-08
-1.19192e-08
9.7975e-09
-5.62549e-09
4.00333e-09
4.70207e-10
-3.18628e-09
6.29819e-09
-1.17587e-08
1.18145e-08
-2.17473e-08
1.70045e-08
-3.32198e-08
2.18817e-08
-4.62636e-08
2.64882e-08
-6.09695e-08
3.0895e-08
-7.74165e-08
3.51947e-08
-9.56685e-08
3.94875e-08
-1.15775e-07
4.38661e-08
-1.37775e-07
4.84044e-08
-1.61694e-07
5.31501e-08
-1.87549e-07
5.81234e-08
-2.15332e-07
6.33175e-08
-2.44997e-07
6.87051e-08
-2.76454e-07
7.42408e-08
-3.09582e-07
7.98623e-08
-3.44222e-07
8.54931e-08
-3.80183e-07
9.10464e-08
-4.17255e-07
9.64305e-08
-4.5522e-07
1.01556e-07
-4.93868e-07
1.06344e-07
-5.33004e-07
1.10729e-07
-5.72444e-07
1.14662e-07
-6.12023e-07
1.18109e-07
-6.51604e-07
1.21053e-07
-6.91072e-07
1.23489e-07
-7.30337e-07
1.25426e-07
-7.69329e-07
1.26886e-07
-8.08007e-07
1.27909e-07
-8.46357e-07
1.28542e-07
-8.84376e-07
1.28831e-07
-9.22069e-07
1.28825e-07
-9.5945e-07
1.28571e-07
-9.96537e-07
1.28114e-07
-1.03335e-06
1.27499e-07
-1.06991e-06
1.26765e-07
-1.10623e-06
1.25945e-07
-1.14234e-06
1.2507e-07
-1.17825e-06
1.24166e-07
-1.21397e-06
1.23255e-07
-1.2495e-06
1.22353e-07
-1.28483e-06
1.21468e-07
-1.31997e-06
1.20603e-07
-1.3549e-06
1.19758e-07
-1.38964e-06
1.18932e-07
-1.42417e-06
1.18119e-07
-1.45849e-06
1.17315e-07
-1.4926e-06
1.16514e-07
-1.5265e-06
1.1571e-07
-1.56016e-06
1.14894e-07
-1.59358e-06
1.14061e-07
-1.62675e-06
1.13202e-07
-1.65966e-06
1.1231e-07
-1.69228e-06
1.11377e-07
-1.7246e-06
1.10396e-07
-1.7566e-06
1.09361e-07
-1.78826e-06
1.08263e-07
-1.81955e-06
1.07097e-07
-1.85044e-06
1.05857e-07
-1.88092e-06
1.04535e-07
-1.91095e-06
1.03128e-07
-1.94051e-06
1.0163e-07
-1.96956e-06
1.00035e-07
-1.99808e-06
9.83411e-08
-2.02602e-06
9.65432e-08
-2.05336e-06
9.46382e-08
-2.08006e-06
9.26234e-08
-2.1061e-06
9.04963e-08
-2.13142e-06
8.82549e-08
-2.156e-06
8.58977e-08
-2.1798e-06
8.34236e-08
-2.20279e-06
8.0832e-08
-2.22493e-06
7.81223e-08
-2.24617e-06
7.52947e-08
-2.2665e-06
7.23496e-08
-2.28586e-06
6.92877e-08
-2.30423e-06
6.61099e-08
-2.32157e-06
6.28178e-08
-2.33784e-06
5.94128e-08
-2.35301e-06
5.58969e-08
-2.36705e-06
5.22721e-08
-2.37993e-06
4.85408e-08
-2.39161e-06
4.47051e-08
-2.40207e-06
4.07674e-08
-2.41128e-06
3.67306e-08
-2.41922e-06
3.25979e-08
-2.42587e-06
2.83729e-08
-2.4312e-06
2.40602e-08
-2.4352e-06
1.96656e-08
-2.43787e-06
1.51968e-08
-2.43921e-06
1.06636e-08
-2.43922e-06
6.0797e-09
-2.43791e-06
1.46573e-09
-2.43524e-06
-3.15664e-09
-2.43116e-06
-7.78501e-09
-2.42562e-06
-1.24435e-08
-2.41857e-06
-1.71465e-08
-2.41e-06
-2.18876e-08
-2.39989e-06
-2.66602e-08
-2.38822e-06
-3.1459e-08
-2.37499e-06
-3.62781e-08
-2.36019e-06
-4.11121e-08
-2.34382e-06
-4.59547e-08
-2.32588e-06
-5.08004e-08
-2.30636e-06
-5.56426e-08
-2.28528e-06
-6.04755e-08
-2.26262e-06
-6.52927e-08
-2.23842e-06
-7.00883e-08
-2.21266e-06
-7.4856e-08
-2.18537e-06
-7.95899e-08
-2.15655e-06
-8.42836e-08
-2.12622e-06
-8.89314e-08
-2.0944e-06
-9.35277e-08
-2.0611e-06
-9.80667e-08
-2.02635e-06
-1.02542e-07
-1.99018e-06
-1.06948e-07
-1.95259e-06
-1.11278e-07
-1.91362e-06
-1.15524e-07
-1.8733e-06
-1.19682e-07
-1.83166e-06
-1.23745e-07
-1.78873e-06
-1.27709e-07
-1.74454e-06
-1.31567e-07
-1.69913e-06
-1.35317e-07
-1.65254e-06
-1.38955e-07
-1.6048e-06
-1.4248e-07
-1.55595e-06
-1.4589e-07
-1.50604e-06
-1.49179e-07
-1.4551e-06
-1.52337e-07
-1.40318e-06
-1.55354e-07
-1.35032e-06
-1.58233e-07
-1.29658e-06
-1.60978e-07
-1.24199e-06
-1.63579e-07
-1.1866e-06
-1.66031e-07
-1.13047e-06
-1.6833e-07
-1.07365e-06
-1.70476e-07
-1.01619e-06
-1.72468e-07
-9.58134e-07
-1.74303e-07
-8.99539e-07
-1.75982e-07
-8.40457e-07
-1.77504e-07
-7.80938e-07
-1.7887e-07
-7.21034e-07
-1.80079e-07
-6.60796e-07
-1.81134e-07
-6.00274e-07
-1.82036e-07
-5.39519e-07
-1.82787e-07
-4.78578e-07
-1.83391e-07
-4.175e-07
-1.83851e-07
-3.5633e-07
-1.84172e-07
-2.95112e-07
-1.84358e-07
-2.3389e-07
-1.84413e-07
-1.72704e-07
-1.84345e-07
-1.11593e-07
-1.84158e-07
-5.05923e-08
-1.83859e-07
1.02665e-08
-1.83454e-07
7.09495e-08
-1.82945e-07
1.31425e-07
-1.82338e-07
1.9166e-07
-1.81643e-07
2.51627e-07
-1.80867e-07
3.11323e-07
-1.80007e-07
3.70722e-07
-1.79046e-07
4.29798e-07
-1.77969e-07
4.88539e-07
-1.76807e-07
5.46923e-07
-1.75603e-07
6.0492e-07
-1.74357e-07
6.62498e-07
-1.73036e-07
7.19604e-07
-1.71577e-07
7.76151e-07
-1.69864e-07
8.31998e-07
-1.67702e-07
8.86902e-07
-1.6473e-07
9.40461e-07
-1.60282e-07
9.92043e-07
-1.53e-07
1.04079e-06
-1.40335e-07
1.08619e-06
-1.16661e-07
-6.90299e-08
1.13274e-06
3.7337e-09
-3.01866e-08
2.76511e-09
-2.86907e-08
-8.31242e-10
-2.09869e-08
-6.20152e-09
-1.29428e-08
-1.30006e-08
-5.12129e-09
-2.1062e-08
2.43493e-09
-3.03207e-08
9.72782e-09
-4.07783e-08
1.67549e-08
-5.24816e-08
2.35167e-08
-6.55038e-08
3.00258e-08
-7.9934e-08
3.6311e-08
-9.58654e-08
4.24186e-08
-1.13383e-07
4.84115e-08
-1.32552e-07
5.43627e-08
-1.53411e-07
6.03456e-08
-1.75969e-07
6.64235e-08
-2.00207e-07
7.26404e-08
-2.26073e-07
7.90152e-08
-2.5349e-07
8.55396e-08
-2.82353e-07
9.21793e-08
-3.12526e-07
9.88773e-08
-3.43848e-07
1.05562e-07
-3.76137e-07
1.1215e-07
-4.09199e-07
1.18555e-07
-4.42842e-07
1.24688e-07
-4.76881e-07
1.30468e-07
-5.1115e-07
1.35824e-07
-5.45506e-07
1.40699e-07
-5.7983e-07
1.45052e-07
-6.1403e-07
1.4886e-07
-6.48031e-07
1.5211e-07
-6.81787e-07
1.54808e-07
-7.15271e-07
1.56972e-07
-7.48479e-07
1.58632e-07
-7.81424e-07
1.5983e-07
-8.14129e-07
1.60613e-07
-8.46618e-07
1.61031e-07
-8.7892e-07
1.61132e-07
-9.11063e-07
1.60967e-07
-9.43074e-07
1.60581e-07
-9.74977e-07
1.60016e-07
-1.00679e-06
1.59314e-07
-1.03854e-06
1.58507e-07
-1.07022e-06
1.57627e-07
-1.10185e-06
1.567e-07
-1.13343e-06
1.55746e-07
-1.16496e-06
1.54782e-07
-1.19643e-06
1.5382e-07
-1.22783e-06
1.52868e-07
-1.25915e-06
1.51928e-07
-1.29039e-06
1.50999e-07
-1.32154e-06
1.50079e-07
-1.35259e-06
1.49164e-07
-1.38352e-06
1.48248e-07
-1.41433e-06
1.47323e-07
-1.44501e-06
1.46383e-07
-1.47553e-06
1.45418e-07
-1.50589e-06
1.44421e-07
-1.53607e-06
1.43382e-07
-1.56606e-06
1.42293e-07
-1.59583e-06
1.41144e-07
-1.62536e-06
1.39927e-07
-1.65463e-06
1.38633e-07
-1.68362e-06
1.37254e-07
-1.71231e-06
1.35782e-07
-1.74066e-06
1.34208e-07
-1.76866e-06
1.32527e-07
-1.79626e-06
1.30732e-07
-1.82345e-06
1.28815e-07
-1.85018e-06
1.26772e-07
-1.87644e-06
1.24597e-07
-1.90218e-06
1.22285e-07
-1.92738e-06
1.19833e-07
-1.95199e-06
1.17237e-07
-1.97599e-06
1.14493e-07
-1.99934e-06
1.116e-07
-2.022e-06
1.08555e-07
-2.04393e-06
1.05357e-07
-2.06511e-06
1.02005e-07
-2.08548e-06
9.84995e-08
-2.10503e-06
9.48394e-08
-2.12371e-06
9.10257e-08
-2.14148e-06
8.70595e-08
-2.15831e-06
8.29421e-08
-2.17417e-06
7.86755e-08
-2.18902e-06
7.4262e-08
-2.20283e-06
6.97043e-08
-2.21557e-06
6.50054e-08
-2.22719e-06
6.01687e-08
-2.23769e-06
5.51978e-08
-2.24702e-06
5.00966e-08
-2.25516e-06
4.48699e-08
-2.26208e-06
3.95227e-08
-2.26777e-06
3.40611e-08
-2.2722e-06
2.8492e-08
-2.27536e-06
2.28235e-08
-2.27723e-06
1.70652e-08
-2.2778e-06
1.12279e-08
-2.27705e-06
5.32434e-09
-2.27495e-06
-6.31938e-10
-2.27148e-06
-6.63129e-09
-2.26659e-06
-1.26761e-08
-2.26026e-06
-1.87782e-08
-2.25247e-06
-2.49412e-08
-2.24321e-06
-3.11579e-08
-2.23245e-06
-3.74195e-08
-2.22019e-06
-4.37179e-08
-2.20643e-06
-5.00446e-08
-2.19115e-06
-5.63917e-08
-2.17436e-06