/*--------------------------------*- C++ -*----------------------------------*\
| =========                 |                                                 |
| \\      /  F ield         | OpenFOAM: The Open Source CFD Toolbox           |
|  \\    /   O peration     | Version:  v1906                                 |
|   \\  /    A nd           | Web:      www.OpenFOAM.com                      |
|    \\/     M anipulation  |                                                 |
\*---------------------------------------------------------------------------*/
FoamFile
{
    version     2.0;
    format      ascii;
    class       volScalarField;
    location    "1700";
    object      epsilon;
}
// * * * * * * * * * * * * * * * * * * * * * * * * * * * * * * * * * * * * * //

dimensions      [0 2 -3 0 0 0 0];


internalField   nonuniform List<scalar> 
12225
(
8534.34
8358.79
8007.1
7626.07
7271.49
6954.17
6674.79
6429.67
6213.8
6025.26
5856.06
5711.77
5598.06
5506.88
5425.81
5367.35
5300.59
5275.51
613.287
1491.93
1695.89
1687.52
1643.34
1583.15
1532.24
1488.49
1450.86
1417.37
1389.24
1363.54
1343.41
1325.45
1310.13
1297.54
1280.29
1269.89
136.159
458.046
618.077
686.275
715.029
720.453
717.927
711.37
701.524
690.726
680.41
669.957
660.412
651.342
642.817
635.556
626.777
621.9
58.5087
195.961
292.237
349.057
382.993
401.91
412.193
417.426
418.73
418.078
416.327
413.341
409.878
406.201
402.329
398.791
394.201
392.101
35.9875
104.726
162.904
203.312
231.12
249.907
262.576
271.162
276.685
280.117
282.151
283.086
283.073
282.736
281.932
280.913
279.21
278.924
26.8394
65.6079
102.204
130.48
151.701
167.444
179.111
187.812
194.238
198.958
202.42
204.911
206.591
207.733
208.421
208.777
208.787
209.177
22.305
46.1191
70.0859
90.0636
106.011
118.573
128.442
136.223
142.353
147.182
150.995
154.001
156.342
158.168
159.574
160.647
161.401
162.354
19.7661
35.2989
51.5655
65.9118
77.9235
87.8083
95.9029
102.538
107.98
112.451
116.133
119.17
121.671
123.732
125.43
126.826
127.96
129.139
18.2254
28.7908
40.16
50.6295
59.7391
67.4991
74.0599
79.5995
84.2789
88.2365
91.591
94.4404
96.8629
98.9253
100.684
102.185
103.475
104.726
17.2357
24.6383
32.774
40.5279
47.4952
53.6038
58.9057
63.492
67.4568
70.8866
73.8583
76.4375
78.6796
80.6317
82.3346
83.8233
85.1374
86.3735
16.5722
21.8694
27.7999
33.6161
38.9893
43.8193
48.1072
51.8937
55.2311
58.1721
60.7658
63.056
65.0811
66.8744
68.4653
69.8805
71.1507
72.3299
16.1504
20.1193
24.6319
29.1575
33.432
37.3527
40.8974
44.0801
46.929
49.4762
51.7538
53.7916
55.6167
57.2531
58.7228
60.0461
61.246
62.3555
15.8386
18.8321
22.2879
25.8274
29.2414
32.4339
35.371
38.0501
40.483
42.6876
44.6837
46.4909
48.1279
49.6118
50.9584
52.1832
53.3029
54.3386
15.5804
17.7743
20.3509
23.0506
25.7147
28.2588
30.6442
32.8575
34.8986
36.7746
38.4954
40.0725
41.5175
42.8415
44.0555
45.1702
46.1971
47.1493
15.375
16.9412
18.8164
20.831
22.8693
24.8614
26.7683
28.5707
30.2607
31.8373
33.3033
34.6638
35.9246
37.0924
38.1739
39.1761
40.1062
40.9724
15.2205
16.3212
17.6681
19.1553
20.7018
22.2517
23.7692
25.2322
26.6283
27.9511
29.1983
30.3703
31.4689
32.497
33.4582
34.3565
35.1961
35.9812
15.1157
15.9042
16.8914
18.0126
19.2112
20.4431
21.6765
22.8889
24.0656
25.197
26.2777
27.3049
28.2777
29.1966
30.0629
30.8785
31.6458
32.3664
15.0632
15.6965
16.5024
17.4359
18.4532
19.5173
20.599
21.6764
22.734
23.7611
24.7505
25.6979
26.6013
27.4596
28.2732
29.0428
29.7703
30.4576
15.0795
15.76
16.6199
17.608
18.6773
19.789
20.9136
22.0295
23.1213
24.1789
25.1956
26.1676
27.0929
27.9709
28.8019
29.5868
30.3267
31.0226
15.1994
16.2352
17.5047
18.9118
20.3818
21.8625
23.3192
24.7303
26.083
27.3701
28.5886
29.738
30.8195
31.835
32.7871
33.6784
34.5113
35.2868
15.4079
17.0693
19.0463
21.1589
23.2879
25.3624
27.3441
29.2146
30.9669
32.6012
34.1208
35.5315
36.8399
38.0526
39.1764
40.2169
41.1785
42.0622
15.7679
18.5278
21.718
25.0031
28.1933
31.1979
33.9816
36.5383
38.8756
41.0076
42.9506
44.7213
46.3359
47.8093
49.1552
50.3848
51.507
52.5209
16.3875
21.0684
26.3243
31.5253
36.38
40.7904
44.747
48.2764
51.4181
54.214
56.7043
58.9254
60.9098
62.6861
64.2801
65.7128
67.0013
68.1382
17.4994
25.6612
34.5359
42.9079
50.3695
56.8758
62.5027
67.3552
71.54
75.155
78.2843
80.9998
83.3618
85.4214
87.2245
88.807
90.2055
91.3977
19.648
34.5713
50.1049
63.8451
75.4011
84.9821
92.897
99.4276
104.827
109.306
113.03
116.135
118.726
120.893
122.716
124.247
125.57
126.626
24.3005
53.8825
82.3914
105.374
123.241
137.071
147.77
156.015
162.393
167.35
171.188
174.155
176.422
178.141
179.457
180.41
181.182
181.63
36.4962
103.239
158.408
197.15
223.885
242.407
255.101
263.544
269.191
272.907
275.134
276.331
276.682
276.53
276.1
275.238
274.406
273.265
81.6393
262.165
371.717
432.689
465.693
483.25
490.77
491.986
490.976
488.419
484.383
479.808
475.049
470.079
465.435
460.545
456.511
452.004
390.391
972.803
1158.19
1204.49
1196.94
1173.39
1136.62
1105.29
1078.12
1054.36
1033.29
1014.44
997.794
982.609
969.535
957.042
947.122
936.449
6457.37
6263.49
6000.46
5747.81
5516.05
5307.71
5121.51
4955.82
4808.12
4676.1
4557.54
4450.69
4354.13
4266.33
4186.75
4113.51
4047.24
3985.04
4.5794
4.21821
6.62962
7.90956
8.97836
9.70278
10.3146
10.766
11.1406
11.4267
11.6503
11.8084
11.9152
11.969
11.9723
11.9517
11.8924
11.7556
11.4778
10.9088
10.0841
9.06968
7.93928
6.76418
5.8467
5.35777
5.1617
5.09774
5.02946
4.88435
4.65498
4.46133
4.50122
4.95626
5.63631
6.55628
7.80846
9.55992
11.6983
13.9231
16.2307
18.6086
21.0459
23.5349
26.0666
28.6289
31.2281
33.8722
36.5747
39.3542
42.2346
45.1823
48.176
51.2326
54.3574
57.5585
60.8436
64.2201
67.6952
71.2761
74.9695
78.7818
82.7191
86.7872
90.991
95.3354
99.8242
104.46
109.246
114.182
119.269
124.502
129.88
135.394
141.035
146.79
152.643
158.573
164.556
170.562
176.557
182.505
188.37
194.134
199.818
205.49
211.217
217.011
222.869
228.781
234.729
240.687
246.622
252.482
258.2
263.687
268.826
273.463
277.385
279.978
281.429
281.857
278.321
275.913
274.084
271.635
270.173
270.868
269.791
265.238
256.57
244.994
231.464
215.826
199.519
182.707
162.49
138.111
109.226
80.6925
49.8026
37.875
43.6862
51.2298
36.9883
21.5088
59.2818
216.077
338.868
455.279
554.322
639.841
712.279
771.884
818.882
854.042
881.511
897.777
905.964
908.502
903.092
893.966
877.28
854.735
824.028
779.105
745.14
711.4
682.735
657.744
637.05
620.455
608.302
602.225
601.014
602.139
610.483
625.389
646.441
660.156
675.435
688.508
698.792
705.704
709.431
709.897
706.108
698.605
688.08
674.904
659.469
641.871
622.788
602.173
581.569
559.227
539.153
514.088
495.931
441.168
12.2226
7.86138
6.65712
6.42288
6.34745
6.38259
6.43003
6.49186
6.54427
6.60068
6.65819
6.72017
6.78219
6.84351
6.90415
6.98197
7.12688
7.40729
7.81093
8.30855
8.86886
9.45317
10.0493
10.7296
11.5048
12.3758
13.3089
14.2306
15.0455
15.6749
16.1052
16.3994
16.6395
16.875
17.1271
17.4193
17.7735
18.2011
18.6963
19.2507
19.8635
20.5343
21.2615
22.0432
22.8626
23.7267
24.6359
25.5894
26.5861
27.6246
28.7027
29.8172
30.9668
32.152
33.373
34.6305
35.9249
37.2567
38.6264
40.0346
41.4817
42.968
44.4939
46.0595
47.6648
49.3096
50.9937
52.7165
54.4773
56.275
58.1085
59.9763
61.8769
63.8087
65.7703
67.7607
69.78
71.8299
73.9151
76.0448
78.2355
80.5155
82.9313
85.5552
88.5013
91.7516
95.2934
98.9843
102.812
106.768
110.845
115.031
119.308
123.652
128.034
132.415
136.746
140.964
144.985
148.701
152.046
154.959
157.197
159.25
160.877
161.695
161.203
159.035
155.325
150.21
143.633
135.836
127.28
118.175
108.646
99.5615
92.3225
84.7806
79.2078
79.6464
80.5494
88.6413
119.891
197.562
256.711
242.951
242.573
270.294
287.215
297.921
306.848
314.923
322.49
328.324
335.78
347.01
356.326
361.666
363.808
364.067
362.119
358.422
352.347
344.752
335.652
326.029
318.321
311.189
305.286
300.411
296.689
294.349
293.261
293.217
294.282
296.404
300.091
304.746
308.341
309.141
309.973
310.452
310.09
308.642
305.804
301.837
296.552
290.058
282.523
274.077
264.927
255.278
245.301
235.066
224.807
214.368
204.492
193.37
186.85
181.154
23.2611
11.8779
9.29913
8.19078
7.65063
7.38396
7.2264
7.17076
7.15522
7.1909
7.26362
7.38094
7.54344
7.76639
8.05213
8.40433
8.83429
9.35401
9.97683
10.7088
11.551
12.4953
13.5107
14.5178
15.4703
16.3189
17.006
17.4891
17.754
17.8462
17.8299
17.7445
17.6518
17.607
17.6247
17.7208
17.9074
18.1878
18.5585
19.0126
19.5451
20.1477
20.8122
21.5305
22.303
23.1198
23.9743
24.8615
25.7777
26.7201
27.6869
28.677
29.6904
30.7275
31.789
32.8757
33.9887
35.1288
36.2971
37.4943
38.7215
39.9795
41.2692
42.5914
43.947
45.3368
46.7619
48.2231
49.7216
51.2588
52.8362
54.4557
56.1198
57.8313
59.5942
61.4132
63.2945
65.246
67.2777
69.402
71.6344
73.9932
76.501
79.1838
82.066
85.158
88.4389
91.8849
95.4922
99.2605
103.189
107.274
111.503
115.858
120.32
124.86
129.444
134.024
138.538
142.905
147.039
150.846
154.171
156.935
158.886
159.723
159.235
157.311
153.7
148.307
141.198
132.733
123.753
114.686
105.479
97.4857
92.4333
91.0333
94.2562
106.406
135.932
202.401
330.809
399.841
333.065
274.979
256.329
255.066
255.065
256.606
257.128
257.581
259.562
263.956
271.428
279.902
285.803
289.187
290.485
290.57
289.115
286.29
282.067
276.925
271.239
265.614
260.634
256.483
252.885
249.854
247.48
245.798
244.787
244.33
244.293
244.78
245.612
246.192
245.93
245.144
244.32
242.975
240.844
237.823
233.862
229.063
223.411
217.014
209.987
202.45
194.687
186.958
179.268
171.616
164.079
156.659
149.596
142.559
136.898
132.696
32.9002
15.806
11.8637
10.1611
9.36471
8.90441
8.68638
8.59062
8.60317
8.6954
8.86346
9.09055
9.36844
9.68478
10.0319
10.403
10.7986
11.2244
11.6887
12.1954
12.7413
13.3159
13.9055
14.4904
15.0461
15.5204
15.8797
16.1211
16.2604
16.329
16.3649
16.4049
16.4812
16.6183
16.8315
17.1296
17.5121
17.9739
18.5095
19.1093
19.7684
20.4815
21.242
22.0437
22.8808
23.7483
24.6425
25.5607
26.5014
27.464
28.4486
29.4558
30.4867
31.5425
32.6246
33.7344
34.8732
36.0423
37.2431
38.4769
39.7449
41.0483
42.3885
43.7668
45.1846
46.6435
48.1451
49.6913
51.2842
52.9262
54.6202
56.3694
58.1776
60.0496
61.9907
64.0075
66.1078
68.3009
70.598
73.0125
75.5604
78.2606
81.1359
84.214
87.5306
91.1364
95.0319
99.1679
103.541
108.158
113.026
118.147
123.496
129.037
134.737
140.56
146.459
152.378
158.242
163.962
169.426
174.499
179.011
182.756
185.439
186.761
186.648
184.778
180.861
174.829
166.768
156.989
146.135
135.028
124.506
116.429
115.319
120.343
134.999
168.954
243.654
368.584
437.252
391.22
305.604
260.888
246.118
242.403
241.51
240.693
240.329
241.864
246.123
252.737
260.998
268.438
274.185
278.397
281.107
282.292
282.181
280.568
277.538
273.479
268.782
263.87
259.04
254.42
250.08
246.138
242.679
239.735
237.29
235.276
233.629
232.256
230.888
229.307
227.491
225.526
223.337
220.633
217.298
213.284
208.588
203.252
197.302
190.826
183.924
176.726
169.575
162.767
156.072
149.459
142.953
136.586
130.429
124.444
119.027
114.614
44.6837
19.9468
14.51
12.1918
11.1645
10.5714
10.2742
10.1313
10.1075
10.1657
10.2934
10.4687
10.6788
10.9098
11.1525
11.3995
11.6477
11.8971
12.151
12.4131
12.6884
12.976
13.2646
13.5434
13.8022
14.0479
14.2857
14.5167
14.748
14.9909
15.2585
15.564
15.9158
16.3188
16.7748
17.2822
17.8484
18.476
19.1626
19.9024
20.6861
21.5064
22.3583
23.2382
24.1437
25.0736
26.0274
27.0055
28.0086
29.0377
30.0941
31.1793
32.295
33.4427
34.6242
35.841
37.0949
38.3876
39.7206
41.0958
42.5149
43.9796
45.492
47.0539
48.6677
50.3356
52.0602
53.8443
55.691
57.6038
59.5866
61.6436
63.78
66.0011
68.3134
70.7241
73.2414
75.875
78.6355
81.5353
84.5884
87.8107
91.2205
94.8376
98.6825
102.775
107.131
111.771
116.723
122.013
127.677
133.8
140.306
147.124
154.211
161.529
169.03
176.657
184.333
191.958
199.396
206.471
212.956
218.547
222.888
225.466
226.166
224.488
220.02
212.621
202.431
189.89
175.973
162.48
152.011
148.13
154.792
173.746
210.212
276.886
374.825
432.827
413.279
331.654
272.055
248.098
240.755
238.798
238.235
238.446
240.498
244.797
251.514
259.9
268.937
277.565
285.323
291.822
296.624
299.098
299.794
298.698
295.88
291.707
286.581
280.888
274.928
268.927
263.077
257.536
252.407
247.74
243.538
239.763
236.342
233.159
230.083
226.965
223.763
220.55
217.201
213.512
209.363
204.702
199.521
193.835
187.676
181.108
174.225
167.169
160.154
153.293
146.565
139.991
133.617
127.473
121.644
116.12
111.152
106.873
50.8017
22.8465
16.446
13.7283
12.4954
11.7781
11.4035
11.2037
11.133
11.136
11.1967
11.2916
11.4082
11.5334
11.6604
11.7851
11.9079
12.0313
12.1596
12.2965
12.4451
12.6089
12.7927
12.9981
13.2269
13.4815
13.7642
14.0772
14.4227
14.803
15.2198
15.6735
16.1719
16.7207
17.3239
17.9818
18.6872
19.4339
20.218
21.0382
21.8922
22.7782
23.6946
24.6404
25.6154
26.6195
27.6535
28.7181
29.8147
30.9445
32.1093
33.3108
34.5508
35.8312
37.1541
38.5214
39.9352
41.3975
42.9105
44.4765
46.0976
47.7763
49.5149
51.3163
53.1833
55.1188
57.1263
59.2093
61.3717
63.6178
65.9524
68.3805
70.908
73.5412
76.2873
79.1541
82.1507
85.287
88.5741
92.0247
95.6528
99.4741
103.506
107.77
112.29
117.095
122.22
127.72
133.68
140.094
146.943
154.24
161.987
170.177
178.765
187.703
196.94
206.416
216.052
225.736
235.314
244.579
253.255
260.963
267.234
271.432
273.159
272.02
267.291
258.761
246.603
231.509
214.99
199.816
190.095
190.909
207.736
243.822
300.928
370.81
410.418
404.965
342.193
283.043
252.873
241.465
238.318
237.9
238.798
241.195
245.841
252.837
261.681
271.847
282.718
293.563
303.626
312.166
318.582
322.142
323.359
322.422
319.307
314.43
308.242
301.179
293.613
285.86
278.178
270.763
263.745
257.204
251.165
245.607
240.472
235.679
231.142
226.792
222.594
218.438
214.159
209.673
204.882
199.733
194.2
188.281
181.993
175.382
168.529
161.561
154.62
147.786
141.093
134.586
128.319
122.331
116.684
111.392
106.585
102.214
58.8093
25.3238
17.8629
14.742
13.2982
12.4541
11.9937
11.7319
11.6115
11.5726
11.5897
11.6398
11.7107
11.7908
11.8745
11.9581
12.0428
12.1322
12.2318
12.3474
12.4837
12.6455
12.8367
13.0609
13.3208
13.6189
13.9574
14.3384
14.7638
15.2359
15.7565
16.3267
16.943
17.6025
18.3024
19.0421
19.8211
20.6381
21.492
22.3819
23.3069
24.2666
25.2607
26.2894
27.3532
28.4529
29.5895
30.7645
31.9794
33.236
34.5363
35.8824
37.2764
38.7207
40.2178
41.7699
43.3798
45.0501
46.7835
48.5829
50.4514
52.392
54.4082
56.5036
58.6819
60.9473
63.3041
65.757
68.3109
70.9714
73.7442
76.6355
79.6524
82.8021
86.093
89.5339
93.1345
96.9057
100.859
105.008
109.367
113.95
118.777
123.864
129.234
134.908
140.915
147.284
154.045
161.22
168.84
176.962
185.674
195.067
204.994
215.37
226.132
237.215
248.538
259.973
271.347
282.429
292.922
302.424
310.403
316.212
319.059
318.786
314.378
305.571
292.616
276.467
259.063
243.677
235.128
240.058
265.263
307.158
354.136
379.833
380.312
336.309
287.822
256.847
242.957
238.575
238.117
239.629
243.023
248.441
255.845
265.149
276.163
288.513
301.605
314.645
326.751
337.034
344.781
349.186
350.739
349.667
345.942
340.05
332.517
323.85
314.503
304.858
295.227
285.846
276.88
268.437
260.565
253.265
246.504
240.226
234.364
228.85
223.6
218.5
213.452
208.367
203.112
197.625
191.866
185.811
179.461
172.842
166.022
159.115
152.232
145.443
138.799
132.352
126.166
120.275
114.727
109.528
104.754
100.303
61.4686
26.5221
18.6
15.2748
13.7213
12.8007
12.2849
11.9788
11.8242
11.7602
11.7573
11.7925
11.8541
11.9318
12.0207
12.117
12.2209
12.3339
12.4602
12.6056
12.7762
12.9776
13.2144
13.4905
13.8088
14.171
14.5784
15.0314
15.5299
16.0731
16.6602
17.2912
17.9655
18.6822
19.4406
20.2402
21.0806
21.9616
22.8828
23.844
24.845
25.886
26.9676
28.0904
29.2555
30.4642
31.7179
33.0185
34.3679
35.7683
37.222
38.7315
40.2995
41.9288
43.6223
45.383
47.2143
49.1193
51.1018
53.1653
55.3138
57.5515
59.8827
62.3121
64.8443
67.4847
70.2386
73.1117
76.1102
79.2403
82.5091
85.9238
89.4922
93.2228
97.1248
101.208
105.483
109.961
114.655
119.579
124.746
130.173
135.877
141.876
148.19
154.842
161.854
169.249
177.051
185.287
193.994
203.22
213.024
223.492
234.579
246.165
258.185
270.582
283.284
296.134
308.921
321.387
333.215
344.001
353.205
360.2
363.957
364.475
360.671
352.12
339.077
322.569
304.655
288.602
279.45
281.912
301.232
327.705
345.405
345.642
317.119
282.518
256.123
242.573
237.88
237.524
239.814
244.182
250.271
257.938
267.256
278.263
290.913
304.983
319.967
334.984
348.941
360.783
369.676
374.763
376.525
375.146
370.673
363.671
354.743
344.473
333.382
321.913
310.424
299.191
288.414
278.224
268.703
259.875
251.723
244.202
237.24
230.747
224.623
218.774
213.131
207.568
201.956
196.235
190.345
184.24
177.895
171.308
164.547
157.714
150.907
144.182
137.599
131.215
125.092
119.264
113.761
108.593
103.801
99.2255
64.1477
27.1318
18.8951
15.4565
13.8531
12.9028
12.3691
12.0507
11.8901
11.8252
11.8277
11.8749
11.956
12.0606
12.1847
12.325
12.4808
12.6523
12.8419
13.0525
13.2882
13.553
13.8512
14.1861
14.5608
14.9772
15.4366
15.94
16.4877
17.08
17.717
18.3987
19.125
19.8959
20.7111
21.5708
22.4752
23.4244
24.4189
25.459
26.5452
27.6782
28.8592
30.0894
31.3705
32.7041
34.0922
35.5371
37.0412
38.6071
40.2375
41.9356
43.7045
45.5476
47.4684
49.4708
51.5587
53.7364
56.0082
58.3788
60.8531
63.4363
66.1337
68.9512
71.8945
74.9701
78.1843
81.5441
85.0567
88.7296
92.5708
96.5888
100.793
105.192
109.797
114.619
119.67
124.962
130.51
136.327
142.429
148.833
155.555
162.613
170.024
177.808
185.983
194.571
203.597
213.087
223.066
233.559
244.586
256.152
268.237
280.817
293.88
307.421
321.469
335.761
350.019
363.956
377.227
389.395
399.898
408.046
412.745
413.84
410.395
401.847
388.399
371.024
351.635
333.081
319.839
315.689
316.797
317.553
310.034
292.121
269.538
250.389
239.482
235.597
235.97
238.999
244.176
250.999
259.088
268.469
279.307
291.775
305.946
321.66
338.346
355.028
370.501
383.583
393.335
398.869
400.664
398.807
393.491
385.345
375.043
363.234
350.499
337.331
324.129
311.206
298.797
287.061
276.089
265.927
256.568
247.965
240.036
232.687
225.815
219.336
213.219
207.291
201.433
195.576
189.637
183.543
177.246
170.723
164.056
157.328
150.622
143.973
137.455
131.132
125.065
119.282
113.81
108.65
103.816
99.1678
64.5206
27.1538
18.8725
15.4429
13.8371
12.8891
12.362
12.0525
11.904
11.8529
11.8753
11.948
12.0613
12.2045
12.3742
12.5667
12.7815
13.0182
13.2772
13.5595
13.8673
14.2029
14.5689
14.9679
15.4027
15.8756
16.3886
16.9434
17.5412
18.1832
18.8702
19.6031
20.3828
21.2098
22.0849
23.0085
23.9816
25.0049
26.0794
27.2063
28.3869
29.6224
30.9147
32.2656
33.6773
35.1519
36.6921
38.3005
39.9801
41.7341
43.5659
45.4791
47.4775
49.5653
51.7467
54.0265
56.4093
58.9002
61.5047
64.2281
67.0765
70.0559
73.1727
76.4335
79.8453
83.4152
87.1507
91.0596
95.15
99.4302
103.909
108.596
113.502
118.635
124.009
129.634
135.524
141.693
148.155
154.927
162.024
169.465
177.268
185.451
194.035
203.041
212.492
222.41
232.815
243.731
255.177
267.173
279.735
292.871
306.587
320.882
335.747
351.156
367.037
383.249
399.609
415.863
431.651
446.465
459.623
470.288
477.274
479.852
477.369
469.049
455.078
436.414
414.806
392.449
371.186
351.373
331.604
310.584
287.344
265.572
248.59
238.56
234.73
234.824
237.748
243.185
250.538
259.069
268.589
279.18
291.069
304.512
319.689
336.549
354.541
372.562
389.241
403.258
413.58
419.358
421.006
418.563
412.38
403.142
391.581
378.401
364.231
349.607
334.965
320.647
306.908
293.922
281.791
270.564
260.233
250.746
242.025
233.981
226.516
219.584
213.115
206.905
200.891
194.978
189.058
183.032
176.832
170.433
163.878
157.263
150.656
144.091
137.649
131.393
125.376
119.627
114.175
109.013
104.151
99.4375
64.3712
26.9184
18.7331
15.3847
13.7797
12.8456
12.338
12.0502
11.9261
11.8994
11.9508
12.0561
12.2068
12.3921
12.6089
12.8531
13.1243
13.4215
13.7454
14.0961
14.4748
14.8821
15.3194
15.7881
16.2902
16.8275
17.4025
18.0171
18.6734
19.3734
20.1189
20.9116
21.7532
22.6454
23.5897
24.5876
25.6407
26.7507
27.9193
29.1485
30.4404
31.7971
33.2212
34.7151
36.2817
37.924
39.645
41.4483
43.3375
45.3164
47.3893
49.5604
51.8345
54.2163
56.7111
59.3242
62.0611
64.9278
67.9303
71.0749
74.3683
77.817
81.4283
85.2094
89.1677
93.3111
97.6476
102.185
106.933
111.9
117.095
122.529
128.212
134.155
140.371
146.874
153.678
160.799
168.253
176.058
184.234
192.798
201.772
211.176
221.03
231.355
242.174
253.51
265.389
277.836
290.878
304.538
318.84
333.805
349.447
365.776
382.787
400.454
418.722
437.492
456.613
475.852
494.857
513.117
529.927
544.37
555.389
561.437
562.086
556.019
542.838
522.802
496.823
466.15
432.021
395.747
358.809
323.346
292.806
268.474
251.479
242.077
238.666
239.369
243.618
250.494
258.866
268.263
278.536
289.797
302.334
316.471
332.463
350.276
369.267
388.227
405.675
420.195
430.696
436.447
437.706
434.584
427.528
417.271
404.603
390.268
374.921
359.121
343.33
327.912
313.133
299.17
286.124
274.045
262.922
252.676
243.295
234.695
226.837
219.587
212.792
206.396
200.31
194.414
188.576
182.672
176.615
170.373
163.957
157.483
150.981
144.52
138.173
132
126.049
120.348
114.928
109.775
104.889
100.143
63.727
26.5512
18.5218
15.2835
13.7017
12.7985
12.3242
12.0691
11.9782
11.9841
12.0713
12.2145
12.4061
12.6353
12.8995
13.1943
13.5195
13.874
14.2586
14.6736
15.1195
15.5963
16.1047
16.6456
17.2203
17.8303
18.4774
19.1636
19.8913
20.663
21.4812
22.3484
23.2672
24.2404
25.2707
26.3609
27.5135
28.7313
30.0171
31.3737
32.8041
34.3114
35.899
37.5703
39.329
41.1789
43.124
45.1687
47.3173
49.5747
51.9459
54.436
57.0504
59.7947
62.6748
65.6967
68.8664
72.1904
75.6752
79.3273
83.1536
87.1612
91.3571
95.7487
100.344
105.149
110.174
115.426
120.914
126.647
132.634
138.886
145.414
152.23
159.346
166.779
174.542
182.655
191.135
200.001
209.276
218.979
229.133
239.761
250.886
262.535
274.735
287.515
300.902
314.926
329.619
345.013
361.139
378.026
395.699
414.172
433.447
453.506
474.3
495.744
517.694
539.923
562.085
583.678
604.001
622.123
636.889
646.771
650.554
646.985
634.736
613.301
582.846
544.243
499.194
450.506
401.729
356.282
317.943
288.796
268.916
257.283
252.278
251.997
255.636
261.78
269.682
278.832
289.019
300.327
313.032
327.446
343.84
362.189
381.777
401.251
419.028
433.622
443.914
449.35
449.974
446.195
438.317
427.196
413.652
398.441
382.232
365.592
348.991
332.793
317.261
302.57
288.816
276.079
264.359
253.568
243.784
234.829
226.597
218.988
211.976
205.491
199.415
193.604
187.901
182.16
176.281
170.218
163.972
157.637
151.264
144.93
138.698
132.622
126.751
121.112
115.734
110.601
105.718
100.96
62.6042
26.0033
18.2394
15.1513
13.6261
12.7725
12.3395
12.1247
12.073
12.1194
12.2491
12.4362
12.6742
12.952
13.2674
13.616
13.998
14.412
14.8592
15.3395
15.8537
16.4019
16.9849
17.6031
18.2575
18.9496
19.6812
20.4539
21.2705
22.1336
23.0465
24.0123
25.0346
26.1171
27.2639
28.479
29.7665
31.1303
32.5742
34.1023
35.7186
37.4275
39.2334
41.1411
43.1551
45.2803
47.522
49.8854
52.376
54.9994
57.7614
60.6679
63.7249
66.9386
70.3151
73.8605
77.5811
81.4831
85.5729
89.8567
94.3409
99.0319
103.936
109.06
114.411
119.996
125.821
131.894
138.224
144.818
151.685
158.837
166.283
174.037
182.113
190.525
199.291
208.43
217.964
227.913
238.3
249.148
260.481
272.322
284.697
297.633
311.158
325.306
340.11
355.611
371.848
388.862
406.695
425.386
444.966
465.459
486.87
509.186
532.362
556.31
580.881
605.839
630.825
655.323
678.614
699.743
717.488
730.374
736.737
735.117
723.756
701.602
668.342
624.675
572.716
516.235
459.903
408.129
364.272
329.838
304.786
288.141
278.513
274.473
274.673
278.142
283.984
291.575
300.627
311.193
323.515
337.839
354.355
372.908
392.641
412.11
429.697
443.906
453.639
458.347
458.173
453.691
445.039
433.24
419.092
403.3
386.529
369.35
352.226
335.512
319.472
304.289
290.085
276.935
264.902
253.791
243.648
234.254
225.628
217.766
210.629
204.135
198.15
192.488
186.968
181.431
175.76
169.904
163.867
157.693
151.464
145.289
139.198
133.246
127.48
121.928
116.615
111.527
106.663
101.922
61.0481
25.3578
17.9144
15.0015
13.5594
12.7773
12.3885
12.2189
12.2132
12.3083
12.4896
12.73
13.0243
13.3607
13.7377
14.1505
14.5999
15.0843
15.6053
16.1626
16.7574
17.39
18.0617
18.7728
19.5248
20.3188
21.1562
22.0399
22.9734
23.96
25.0033
26.107
27.2758
28.5148
29.8293
31.2249
32.7071
34.2812
35.9523
37.7259
39.6075
41.6029
43.7181
45.959
48.3317
50.8422
53.4968
56.3019
59.2637
62.3885
65.6828
69.1527
72.8042
76.6435
80.6761
84.9078
89.344
93.9899
98.8507
103.931
109.237
114.772
120.541
126.55
132.802
139.304
146.061
153.078
160.362
167.92
175.76
183.89
192.323
201.069
210.142
219.56
229.339
239.501
250.066
261.057
272.497
284.41
296.82
309.752
323.234
337.299
351.981
367.32
383.357
400.137
417.706
436.114
455.411
475.644
496.853
519.069
542.303
566.546
591.757
617.85
644.67
671.969
699.366
726.31
752.038
775.55
795.585
810.645
819.029
818.952
808.683
786.853
752.873
707.297
652.287
591.819
530.834
473.921
424.415
383.953
352.73
330.008
314.619
305.31
300.887
300.3
302.672
307.383
314.17
323.112
334.385
348.074
364.193
382.415
401.744
420.671
437.571
450.955
459.603
463.202
462.245
457.129
447.928
435.722
421.297
405.232
388.205
370.792
353.439
336.497
320.233
304.828
290.399
277.008
264.633
253.112
242.502
232.762
223.89
215.883
208.698
202.247
196.388
190.921
185.628
180.324
174.888
169.261
163.446
157.489
151.452
145.436
139.498
133.692
128.054
122.611
117.385
112.363
107.552
102.853
59.3408
24.6496
17.5601
14.833
13.4934
12.7962
12.4674
12.3543
12.4085
12.5655
12.8126
13.1222
13.4901
13.9037
14.3625
14.8611
15.4008
15.9801
16.6007
17.2628
17.968
18.7172
19.512
20.3534
21.2429
22.182
23.1732
24.2196
25.3257
26.4958
27.7347
29.0479
30.4411
31.9208
33.4946
35.1693
36.9521
38.8499
40.8695
43.0182
45.3033
47.7325
50.3131
53.0527
55.9586
59.0378
62.2977
65.7451
69.3868
73.2291
77.278
81.5392
86.0178
90.7185
95.6456
100.803
106.193
111.821
117.687
123.794
130.145
136.741
143.584
150.676
158.019
165.614
173.464
181.571
189.94
198.576
207.483
216.67
226.146
235.922
246.014
256.436
267.209
278.353
289.889
301.842
314.233
327.085
340.422
354.269
368.657
383.62
399.2
415.44
432.39
450.102
468.631
488.035
508.372
529.696
552.057
575.491
600.019
625.639
652.32
679.984
708.485
737.571
766.851
795.742
823.437
848.88
870.757
887.529
897.502
898.857
890.162
869.727
836.847
791.879
736.698
674.97
611.387
550.457
495.653
448.987
411.104
381.663
359.782
344.364
334.297
328.562
326.342
327.085
330.612
337.087
346.531
358.876
373.952
391.225
409.548
427.365
443.047
454.94
462.171
464.809
463.305
457.749
448.232
435.817
421.248
405.08
387.998
370.538
353.134
336.129
319.773
304.232
289.601
275.913
263.155
251.326
240.435
230.475
221.45
213.365
206.184
199.82
194.122
188.865
183.819
178.779
173.602
168.229
162.662
156.944
151.145
145.339
139.58
133.936
128.455
123.151
118.041
113.115
108.378
103.748
57.0591
23.8301
17.1545
14.6412
13.4282
12.838
12.5928
12.5627
12.696
12.938
13.2782
13.6873
14.1627
14.6907
15.272
15.9006
16.5787
17.3047
18.0812
18.9087
19.7901
20.727
21.7219
22.7769
23.8946
25.0779
26.3306
27.6571
29.0608
30.5461
32.1208
33.7925
35.5693
37.4607
39.4765
41.6261
43.9183
46.3616
48.965
51.7375
54.6887
57.8278
61.1639
64.7051
68.4597
72.4352
76.6386
81.0766
85.7549
90.6784
95.8513
101.277
106.957
112.894
119.088
125.539
132.246
139.208
146.423
153.889
161.602
169.56
177.759
186.198
194.871
203.778
212.915
222.281
231.878
241.705
251.766
262.068
272.618
283.427
294.51
305.883
317.566
329.578
341.941
354.675
367.802
381.342
395.319
409.761
424.703
440.189
456.266
472.983
490.394
508.556
527.529
547.38
568.173
589.971
612.83
636.795
661.898
688.151
715.542
744.012
773.432
803.563
834.017
864.209
893.322
920.27
943.694
962.006
973.49
976.376
969.603
951.364
920.781
878.089
824.717
763.721
699.255
635.58
576.277
523.763
479.204
442.74
413.845
391.641
375.137
363.397
355.71
351.705
351.349
354.322
360.965
371.001
384.187
399.788
416.428
432.445
446.218
456.287
462.186
463.7
461.58
455.424
445.544
432.938
418.273
402.178
385.233
367.932
350.684
333.808
317.532
302.003
287.304
273.476
260.546
248.539
237.481
227.388
218.281
210.175
203.039
196.803
191.291
186.259
181.465
176.7
171.805
166.71
161.416
155.966
150.425
144.861
139.336
133.898
128.589
123.438
118.472
113.666
109.033
104.498
54.8938
22.9609
16.7315
14.4486
13.3948
12.9375
12.8087
12.899
13.1536
13.526
14.0092
14.5729
15.2173
15.9282
16.7078
17.5503
18.4594
19.4338
20.4779
21.5935
22.7853
24.0565
25.4122
26.8564
28.3946
30.0323
31.7758
33.6298
35.5989
37.6895
39.9069
42.2562
44.7496
47.4053
50.2365
53.2525
56.462
59.8766
63.5074
67.3653
71.4606
75.8025
80.3997
85.2595
90.3889
95.7937
101.479
107.447
113.702
120.244
127.071
134.183
141.575
149.243
157.18
165.382
173.839
182.545
191.49
200.665
210.06
219.667
229.475
239.474
249.657
260.013
270.537
281.223
292.066
303.065
314.221
325.538
337.024
348.69
360.551
372.625
384.93
397.488
410.318
423.439
436.868
450.626
464.737
479.234
494.158
509.555
525.473
541.965
559.089
576.909
595.495
614.923
635.266
656.595
678.975
702.464
727.109
752.951
780.004
808.239
837.551
867.717
898.358
928.906
958.566
986.282
1010.71
1030.26
1043.17
1047.69
1042.87
1027.2
999.429
959.806
909.353
850.488
786.726
721.931
659.634
602.51
552.166
509.214
473.525
444.509
421.368
403.33
389.842
380.651
375.681
374.933
377.857
384.809
395.334
408.418
422.546
436.058
447.41
455.482
459.739
459.991
457.164
450.271
440.079
427.404
412.848
396.985
380.337
363.358
346.422
329.818
313.75
298.351
283.703
269.864
256.879
244.799
233.668
223.524
214.406
206.337
199.297
193.216
187.901
183.1
178.563
174.072
169.469
164.672
159.676
154.52
149.265
143.976
138.711
133.514
128.426
123.464
118.659
113.999
109.497
105.084
52.1976
22.089
16.3228
14.2984
13.4319
13.1437
13.1732
13.4353
13.8675
14.4355
15.134
15.9343
16.8408
17.8391
18.9355
20.1248
21.4142
22.8039
24.3019
25.9121
27.6431
29.5012
31.4956
33.6345
35.9286
38.3877
41.0209
43.835
46.8363
50.0304
53.4211
57.0106
60.8058
64.8261
69.0809
73.582
78.345
83.3803
88.6981
94.3068
100.213
106.422
112.94
119.769
126.913
134.373
142.147
150.233
158.626
167.319
176.302
185.566
195.098
204.886
214.915
225.171
235.639
246.302
257.144
268.149
279.301
290.584
301.98
313.476
325.055
336.707
348.42
360.185
371.995
383.847
395.74
407.678
419.671
431.729
443.868
456.109
468.471
480.975
493.638
506.479
519.516
532.77
546.269
560.049
574.154
588.632
603.534
618.916
634.842
651.383
668.616
686.625
705.49
725.293