/*--------------------------------*- C++ -*----------------------------------*\
| =========                 |                                                 |
| \\      /  F ield         | OpenFOAM: The Open Source CFD Toolbox           |
|  \\    /   O peration     | Version:  v1906                                 |
|   \\  /    A nd           | Web:      www.OpenFOAM.com                      |
|    \\/     M anipulation  |                                                 |
\*---------------------------------------------------------------------------*/
FoamFile
{
    version     2.0;
    format      ascii;
    class       volScalarField;
    location    "1700";
    object      k;
}
// * * * * * * * * * * * * * * * * * * * * * * * * * * * * * * * * * * * * * //

dimensions      [0 2 -2 0 0 0 0];


internalField   nonuniform List<scalar> 
12225
(
2.2588
2.22771
2.16478
2.09555
2.03008
1.97058
1.91744
1.87021
1.82811
1.79094
1.75725
1.72826
1.70525
1.68668
1.67009
1.65807
1.64429
1.6391
2.25089
2.14399
1.999
1.8892
1.80209
1.73416
1.67964
1.63405
1.59654
1.5641
1.53798
1.51365
1.49596
1.47711
1.46602
1.45044
1.44364
1.4285
2.25785
2.21948
2.14545
2.07335
2.0064
1.94666
1.89407
1.84729
1.80625
1.7696
1.73762
1.70842
1.68343
1.65987
1.64049
1.62101
1.60644
1.59045
2.2584
2.23556
2.18865
2.13683
2.08598
2.03838
1.99481
1.95497
1.91889
1.88604
1.85641
1.82924
1.80489
1.78234
1.76227
1.74333
1.72704
1.71015
2.25893
2.24471
2.21551
2.18075
2.1448
2.10948
2.07576
2.04391
2.01413
1.98635
1.96063
1.93668
1.91459
1.89401
1.87508
1.85737
1.84146
1.82574
2.25905
2.24845
2.22782
2.20229
2.17486
2.1471
2.11991
2.09371
2.06874
2.04509
2.02283
2.00186
1.98222
1.96378
1.94654
1.93037
1.91535
1.90069
2.25919
2.25084
2.2358
2.21686
2.19601
2.17444
2.15285
2.13166
2.11112
2.09137
2.0725
2.05452
2.03746
2.02128
2.006
1.99156
1.97803
1.96495
2.25923
2.25214
2.24043
2.22562
2.20904
2.1916
2.17388
2.15624
2.13893
2.12211
2.10586
2.09024
2.07528
2.06098
2.04737
2.03441
2.0221
2.01024
2.25928
2.25314
2.24374
2.23193
2.21861
2.20444
2.18987
2.17522
2.16069
2.14642
2.13252
2.11904
2.10603
2.09351
2.08151
2.07002
2.05905
2.04847
2.25929
2.25379
2.24591
2.23616
2.22512
2.21328
2.20101
2.18855
2.1761
2.16379
2.15169
2.13989
2.12843
2.11733
2.10663
2.09632
2.0864
2.07685
2.25933
2.25433
2.24758
2.23938
2.2301
2.22012
2.20971
2.19907
2.18837
2.17771
2.16718
2.15685
2.14676
2.13694
2.12742
2.11821
2.10932
2.10072
2.25934
2.25468
2.24867
2.24149
2.23341
2.22469
2.21557
2.20621
2.19674
2.18726
2.17786
2.16859
2.1595
2.15062
2.14197
2.13357
2.12543
2.11755
2.25937
2.255
2.24958
2.24321
2.2361
2.22842
2.22037
2.21208
2.20366
2.1952
2.18678
2.17843
2.17022
2.16217
2.1543
2.14664
2.13919
2.13195
2.25939
2.25526
2.25034
2.24468
2.23839
2.23163
2.22452
2.21718
2.2097
2.20215
2.1946
2.1871
2.17969
2.1724
2.16525
2.15827
2.15146
2.14484
2.25943
2.25554
2.25105
2.24598
2.24042
2.23445
2.22818
2.22168
2.21505
2.20833
2.20159
2.19487
2.1882
2.18162
2.17515
2.1688
2.16259
2.15652
2.25946
2.25574
2.25159
2.24699
2.24199
2.23666
2.23105
2.22524
2.21929
2.21325
2.20717
2.20109
2.19504
2.18905
2.18315
2.17734
2.17166
2.1661
2.25949
2.25593
2.25202
2.24777
2.24318
2.23831
2.2332
2.2279
2.22246
2.21693
2.21135
2.20575
2.20017
2.19463
2.18915
2.18376
2.17846
2.17327
2.25951
2.25604
2.25227
2.2482
2.24385
2.23923
2.2344
2.22938
2.22424
2.219
2.21371
2.2084
2.20309
2.19782
2.1926
2.18746
2.18239
2.17741
2.2595
2.25599
2.25218
2.24806
2.24365
2.23896
2.23405
2.22896
2.22374
2.21842
2.21304
2.20765
2.20227
2.19692
2.19162
2.18641
2.18128
2.17627
2.2595
2.25587
2.25183
2.24737
2.24254
2.23738
2.23197
2.22636
2.22062
2.21478
2.2089
2.20301
2.19714
2.19133
2.18558
2.17992
2.17436
2.16889
2.25943
2.25552
2.25102
2.24593
2.24033
2.23432
2.22799
2.22145
2.21476
2.20799
2.20119
2.19441
2.18768
2.18104
2.1745
2.16809
2.16183
2.15576
2.25942
2.25522
2.25006
2.24406
2.23736
2.23015
2.22257
2.21476
2.20682
2.19882
2.19083
2.1829
2.17508
2.16739
2.15986
2.1525
2.14533
2.1383
2.25935
2.25456
2.24827
2.24068
2.23212
2.22289
2.21323
2.20333
2.19334
2.18335
2.17345
2.1637
2.15415
2.14482
2.13573
2.12691
2.11836
2.11018
2.25936
2.25388
2.24593
2.23608
2.22494
2.21302
2.20067
2.18814
2.17561
2.16321
2.15103
2.13914
2.12758
2.11637
2.10556
2.09514
2.08514
2.07547
2.25926
2.25242
2.24128
2.22724
2.21148
2.19485
2.17788
2.16094
2.14426
2.128
2.11226
2.09708
2.0825
2.06853
2.05514
2.04235
2.03006
2.01847
2.25926
2.25048
2.2342
2.21399
2.19193
2.1692
2.1465
2.12426
2.10273
2.08206
2.06232
2.04353
2.02569
2.00879
1.9928
1.9777
1.96356
1.95029
2.25889
2.24476
2.21641
2.18263
2.14755
2.11293
2.07974
2.04839
2.01904
1.99166
1.96616
1.94245
1.92039
1.89989
1.88075
1.86297
1.84604
1.83038
2.2587
2.2346
2.18651
2.13451
2.08371
2.03553
1.991
1.95036
1.91331
1.87956
1.84876
1.8207
1.795
1.77155
1.74996
1.73026
1.71208
1.69643
2.25373
2.17683
2.06325
1.96597
1.88598
1.81866
1.76351
1.71728
1.6777
1.64349
1.61356
1.58752
1.56434
1.54418
1.52586
1.51001
1.49522
1.48149
2.25477
2.20941
2.14711
2.08641
2.02994
1.9785
1.93196
1.89006
1.85232
1.81825
1.78739
1.75934
1.7338
1.71042
1.68908
1.66933
1.65135
1.63439
0.0208989
0.032795
0.0443301
0.0498573
0.0542359
0.0570986
0.0594546
0.0611581
0.0625487
0.0635962
0.0644042
0.064967
0.0653401
0.0655196
0.0655131
0.065421
0.0651907
0.0646835
0.0636534
0.0615351
0.0584006
0.0544286
0.0498302
0.044817
0.0406317
0.0383004
0.0373427
0.0370357
0.0367144
0.0360209
0.0348687
0.0338062
0.0338256
0.0359619
0.0391147
0.0431973
0.0484542
0.0553375
0.0633968
0.0712632
0.0789839
0.0865579
0.0939854
0.101272
0.108421
0.115414
0.12229
0.129083
0.135837
0.142603
0.14944
0.156279
0.163063
0.169839
0.17662
0.183426
0.190273
0.197177
0.20415
0.211205
0.218352
0.225601
0.232959
0.240433
0.248029
0.25575
0.263599
0.271577
0.279683
0.287914
0.296265
0.304729
0.313295
0.32195
0.330677
0.339455
0.348257
0.357055
0.365812
0.374488
0.383038
0.391417
0.399581
0.407506
0.415213
0.422816
0.430395
0.437984
0.44558
0.453168
0.460728
0.468229
0.47563
0.482872
0.489876
0.496541
0.502735
0.508284
0.51295
0.515971
0.517413
0.517841
0.513848
0.510213
0.507638
0.504596
0.502037
0.502495
0.501168
0.495782
0.485108
0.470458
0.452979
0.432409
0.410122
0.386916
0.35828
0.322791
0.276954
0.227576
0.166803
0.133767
0.143094
0.163886
0.137365
0.0911589
0.164434
0.404462
0.557079
0.683972
0.782781
0.86329
0.928346
0.980235
1.01994
1.04886
1.0712
1.08402
1.09001
1.09142
1.08658
1.07867
1.06459
1.04565
1.01985
0.981955
0.9521
0.922085
0.896087
0.872976
0.853451
0.837412
0.825224
0.818452
0.816098
0.815876
0.822005
0.833638
0.852552
0.862859
0.875183
0.885588
0.893642
0.898723
0.901184
0.900736
0.896854
0.889715
0.87997
0.867888
0.853796
0.837734
0.820221
0.801176
0.781921
0.760889
0.741666
0.717606
0.699734
0.646499
0.0402151
0.070079
0.0950785
0.107988
0.118152
0.125508
0.131741
0.136854
0.141344
0.145144
0.148394
0.151102
0.153404
0.155422
0.157378
0.1595
0.162066
0.16536
0.169595
0.174909
0.181323
0.188672
0.196636
0.204871
0.213132
0.221365
0.229522
0.237273
0.244078
0.249427
0.253192
0.25576
0.257699
0.259385
0.260988
0.262686
0.264647
0.266944
0.269704
0.273246
0.277717
0.283141
0.289457
0.296564
0.304348
0.312697
0.321512
0.330711
0.340221
0.349982
0.359942
0.370064
0.380325
0.390713
0.401225
0.411861
0.422623
0.433517
0.444547
0.455721
0.467045
0.478525
0.490166
0.501975
0.513954
0.526106
0.538432
0.550932
0.563603
0.57644
0.589437
0.602581
0.61586
0.629255
0.642741
0.656289
0.669864
0.683422
0.696913
0.71028
0.723457
0.736375
0.748969
0.761166
0.772917
0.784354
0.795705
0.807113
0.818654
0.830369
0.842278
0.854394
0.866711
0.879199
0.891788
0.904365
0.91677
0.928793
0.940154
0.950489
0.959369
0.965989
0.969633
0.970779
0.968892
0.962985
0.956428
0.949813
0.936881
0.915013
0.885218
0.850052
0.812165
0.773804
0.738227
0.703974
0.665363
0.630327
0.615495
0.627346
0.670281
0.725686
0.820045
0.96043
0.992897
0.939919
0.98577
1.06352
1.16897
1.28191
1.3924
1.49403
1.58391
1.66132
1.72585
1.77685
1.81865
1.85349
1.87901
1.89181
1.89591
1.89462
1.88546
1.86925
1.84766
1.82291
1.79801
1.7726
1.74856
1.72643
1.70681
1.68997
1.67605
1.66507
1.65649
1.64923
1.64314
1.63798
1.63792
1.64362
1.64785
1.6465
1.63994
1.62834
1.61251
1.59205
1.56719
1.53827
1.50573
1.47021
1.43217
1.39193
1.35022
1.30759
1.26509
1.22245
1.18191
1.14019
1.10456
1.0374
0.0617456
0.105959
0.136966
0.15342
0.166848
0.176834
0.185767
0.193462
0.200716
0.20742
0.213876
0.220088
0.22625
0.232441
0.238836
0.245551
0.252748
0.260524
0.268944
0.277976
0.287547
0.297512
0.307676
0.317774
0.32747
0.336313
0.343784
0.349485
0.353317
0.355481
0.356455
0.356818
0.357092
0.357751
0.359167
0.361615
0.365269
0.370213
0.376468
0.383999
0.392721
0.402503
0.413187
0.424612
0.436622
0.44908
0.46187
0.474896
0.488084
0.501379
0.514745
0.528161
0.541618
0.555119
0.568669
0.582278
0.595957
0.609717
0.623568
0.637518
0.651576
0.665748
0.680037
0.694448
0.70898
0.723634
0.738408
0.7533
0.768303
0.783412
0.798621
0.813919
0.829297
0.844744
0.860248
0.875795
0.891372
0.906966
0.922563
0.938153
0.953727
0.969279
0.984823
1.0004
1.01606
1.03186
1.04783
1.06398
1.08031
1.09682
1.11351
1.13039
1.14744
1.16465
1.18194
1.1992
1.21627
1.23291
1.24883
1.26363
1.27682
1.2879
1.29624
1.30106
1.3026
1.29881
1.28866
1.27172
1.2466
1.21282
1.1717
1.12636
1.08083
1.03916
1.00582
0.983521
0.970858
0.973868
1.00375
1.07404
1.18391
1.36295
1.61101
1.71316
1.56822
1.46948
1.47556
1.58572
1.71998
1.84153
1.94014
2.01923
2.08684
2.14918
2.20901
2.26639
2.31839
2.36153
2.39318
2.40998
2.41578
2.41307
2.40069
2.38027
2.35421
2.32503
2.29482
2.2646
2.23581
2.20939
2.18604
2.16617
2.14993
2.13716
2.12734
2.12004
2.11461
2.11024
2.10612
2.10149
2.0944
2.08331
2.06773
2.04746
2.02237
1.99232
1.95742
1.91798
1.87455
1.82782
1.77838
1.72679
1.67391
1.62047
1.5673
1.51479
1.46406
1.41479
1.36964
1.30709
0.0778138
0.135639
0.173109
0.193506
0.210165
0.223338
0.235057
0.24542
0.25518
0.264472
0.273579
0.282485
0.291209
0.299668
0.307807
0.315565
0.322967
0.330106
0.337122
0.344123
0.351162
0.358221
0.365212
0.371981
0.378334
0.384074
0.389064
0.3933
0.396927
0.400205
0.403461
0.407032
0.411219
0.416265
0.42234
0.429548
0.437924
0.447445
0.458041
0.469604
0.482007
0.49511
0.508777
0.522883
0.537317
0.55199
0.566833
0.581797
0.596848
0.611968
0.627149
0.642394
0.657708
0.673104
0.688593
0.704188
0.7199
0.73574
0.751717
0.767837
0.784107
0.80053
0.817109
0.833845
0.85074
0.867792
0.884999
0.90236
0.919871
0.937529
0.955331
0.973273
0.991353
1.00957
1.02791
1.04638
1.06499
1.08372
1.1026
1.12161
1.14079
1.16012
1.17964
1.19935
1.21925
1.23933
1.25956
1.27994
1.30045
1.32106
1.34174
1.36247
1.38322
1.40396
1.4246
1.44501
1.46498
1.48425
1.50251
1.51931
1.53416
1.54646
1.55545
1.5602
1.56104
1.55582
1.54298
1.52147
1.4907
1.45104
1.40452
1.35543
1.30952
1.27237
1.25096
1.25119
1.27068
1.31143
1.37882
1.49348
1.68869
1.95149
2.08727
1.97837
1.83094
1.789
1.85693
1.98286
2.10658
2.20865
2.29214
2.36652
2.43891
2.5119
2.58439
2.65302
2.71354
2.7626
2.79745
2.81535
2.82082
2.81481
2.79725
2.77034
2.73674
2.69907
2.65951
2.61977
2.58132
2.5453
2.51254
2.48355
2.45855
2.43738
2.41967
2.40489
2.39233
2.38125
2.37083
2.35967
2.34614
2.32913
2.30805
2.28251
2.25218
2.21685
2.17655
2.13162
2.08257
2.03011
1.97496
1.91787
1.85965
1.80111
1.74307
1.68607
1.63101
1.57804
1.52752
1.46894
0.0954598
0.163519
0.206336
0.22954
0.248465
0.263753
0.27744
0.289651
0.301024
0.311664
0.321799
0.331409
0.340507
0.349025
0.356926
0.364176
0.370792
0.376836
0.382422
0.387684
0.392749
0.397717
0.402651
0.407588
0.412551
0.417571
0.422702
0.428029
0.433664
0.439741
0.446397
0.453763
0.461944
0.47101
0.480995
0.491891
0.503661
0.516241
0.529552
0.543504
0.558003
0.572958
0.588287
0.603919
0.619799
0.635884
0.652145
0.668563
0.68513
0.701842
0.718702
0.735717
0.752895
0.770248
0.787786
0.805519
0.823458
0.84161
0.859983
0.878584
0.897417
0.916489
0.935801
0.955356
0.975157
0.995206
1.0155
1.03605
1.05685
1.07791
1.09922
1.12078
1.14261
1.1647
1.18706
1.2097
1.23262
1.25583
1.27934
1.30317
1.32732
1.35182
1.37666
1.40186
1.42742
1.4533
1.47948
1.50592
1.53258
1.5594
1.58635
1.61336
1.64033
1.66718
1.69377
1.7199
1.74532
1.76969
1.79258
1.81348
1.83177
1.84674
1.85748
1.86291
1.86313
1.8561
1.84052
1.81533
1.78022
1.736
1.68539
1.634
1.5896
1.55935
1.549
1.56211
1.60439
1.67667
1.78682
1.95795
2.17501
2.30105
2.24419
2.10864
2.05061
2.08287
2.18438
2.30356
2.41231
2.50637
2.59148
2.67392
2.75699
2.8408
2.92304
2.99973
3.06686
3.12095
3.15859
3.17731
3.18213
3.17255
3.14941
3.11535
3.07333
3.02617
2.97635
2.92591
2.87658
2.82972
2.78632
2.74701
2.7121
2.68152
2.65493
2.63176
2.61126
2.59264
2.57513
2.55768
2.53883
2.51742
2.49261
2.46372
2.43022
2.3918
2.34838
2.30022
2.24784
2.19194
2.13336
2.07295
2.01154
1.94993
1.88893
1.82914
1.77134
1.71558
1.66177
1.6037
0.104023
0.1808
0.229257
0.255317
0.276304
0.293274
0.308461
0.321986
0.334454
0.345909
0.356543
0.366345
0.375358
0.383564
0.390989
0.397673
0.403705
0.4092
0.414299
0.419148
0.423899
0.428692
0.433651
0.438887
0.444496
0.450564
0.457164
0.464363
0.472217
0.480772
0.490067
0.500123
0.51095
0.522542
0.534881
0.547935
0.561661
0.576003
0.590904
0.606302
0.622141
0.638369
0.654943
0.671824
0.688987
0.70641
0.72408
0.741992
0.760143
0.778537
0.797179
0.816078
0.835243
0.854684
0.874413
0.89444
0.914774
0.935424
0.956398
0.977705
0.999349
1.02134
1.04367
1.06637
1.08942
1.11283
1.13662
1.16077
1.18531
1.21024
1.23556
1.26127
1.2874
1.31394
1.34092
1.36833
1.39619
1.42453
1.45334
1.48266
1.51249
1.54285
1.57375
1.6052
1.6372
1.66974
1.70279
1.73632
1.77028
1.80463
1.83928
1.87415
1.90909
1.94395
1.97855
2.01266
2.04597
2.07805
2.10839
2.13631
2.16107
2.18173
2.19724
2.20593
2.20776
2.20106
2.18422
2.15616
2.11677
2.06729
2.01118
1.95505
1.90824
1.87944
1.87343
1.89299
1.94672
2.0411
2.17772
2.33239
2.42134
2.39324
2.29337
2.24031
2.25662
2.33679
2.44665
2.55923
2.66326
2.75869
2.84956
2.93976
3.0312
3.12346
3.21399
3.29875
3.37296
3.43244
3.47298
3.4923
3.49583
3.48193
3.45236
3.41016
3.35861
3.30083
3.23964
3.17742
3.11617
3.05747
3.0025
2.95203
2.90647
2.86588
2.83002
2.79841
2.77042
2.7453
2.72214
2.69982
2.67701
2.65251
2.62531
2.5945
2.55936
2.51941
2.47448
2.42474
2.37065
2.31294
2.25245
2.19009
2.12675
2.06326
2.00044
1.93891
1.87935
1.82181
1.76582
1.70697
0.114683
0.196078
0.246946
0.274107
0.29584
0.31344
0.329193
0.343274
0.356264
0.368185
0.37922
0.389372
0.398704
0.407225
0.414987
0.42205
0.428525
0.434549
0.440277
0.44587
0.451488
0.457278
0.463374
0.469888
0.476916
0.48453
0.492788
0.50173
0.51138
0.521751
0.532844
0.544652
0.55716
0.570346
0.584184
0.598641
0.613683
0.629273
0.645375
0.661951
0.678967
0.696394
0.714208
0.732388
0.750921
0.769797
0.789011
0.808564
0.828459
0.848702
0.869301
0.890266
0.911609
0.93334
0.955472
0.978017
1.00098
1.02439
1.04824
1.07254
1.09731
1.12255
1.14828
1.17451
1.20123
1.22848
1.25625
1.28455
1.3134
1.34281
1.37279
1.40335
1.43451
1.46628
1.49867
1.53171
1.5654
1.59977
1.63483
1.67061
1.70711
1.74436
1.78237
1.82115
1.86068
1.90097
1.942
1.98376
2.02624
2.06936
2.11305
2.15719
2.20165
2.24626
2.29082
2.33507
2.37864
2.42104
2.46166
2.49973
2.53431
2.56426
2.58822
2.60435
2.61123
2.60788
2.59234
2.5634
2.5209
2.46624
2.40305
2.33811
2.28099
2.24163
2.22689
2.24023
2.28445
2.35779
2.43925
2.48253
2.46162
2.39929
2.36304
2.38143
2.45305
2.55603
2.66991
2.78192
2.88759
2.98795
3.08606
3.18462
3.28476
3.38558
3.48414
3.57591
3.65589
3.7194
3.76156
3.78052
3.7814
3.76199
3.72492
3.67359
3.61163
3.54251
3.46935
3.39486
3.32128
3.2504
3.18356
3.12171
3.06538
3.01477
2.96978
2.93005
2.89503
2.86395
2.83589
2.80972
2.78414
2.75788
2.72969
2.69843
2.66316
2.6232
2.57825
2.52836
2.47394
2.41571
2.35453
2.29134
2.2271
2.16268
2.0989
2.03639
1.97575
1.91692
1.85934
1.79972
0.118112
0.203744
0.256916
0.285347
0.308023
0.3263
0.34261
0.357166
0.370612
0.382995
0.394521
0.405206
0.415147
0.424383
0.432989
0.441022
0.448583
0.455784
0.46277
0.46969
0.476689
0.483906
0.491463
0.49946
0.507979
0.517078
0.526802
0.537179
0.548226
0.559949
0.572346
0.585406
0.599116
0.613456
0.628409
0.643954
0.660072
0.676741
0.693938
0.71164
0.729826
0.74848
0.767586
0.787137
0.807126
0.82755
0.848411
0.869713
0.891463
0.91367
0.936345
0.959501
0.98315
1.00731
1.03198
1.0572
1.08297
1.1093
1.13621
1.16372
1.19184
1.22058
1.24997
1.28001
1.31072
1.34211
1.37421
1.40702
1.44057
1.47486
1.50991
1.54574
1.58236
1.61979
1.65805
1.69716
1.73713
1.77799
1.81975
1.86244
1.90608
1.95067
1.99625
2.04282
2.09039
2.13899
2.1886
2.23921
2.29078
2.34327
2.39662
2.45075
2.50556
2.5609
2.61655
2.67222
2.72753
2.78197
2.83489
2.88546
2.93265
2.97512
3.01124
3.03912
3.05607
3.06086
3.0516
3.02627
2.9844
2.92721
2.85811
2.78323
2.71101
2.65008
2.60584
2.57967
2.56762
2.56008
2.54217
2.50453
2.45952
2.43533
2.46077
2.53239
2.63374
2.74928
2.86777
2.98289
3.09273
3.19834
3.30204
3.40604
3.5114
3.61755
3.72179
3.81918
3.90375
3.97003
4.01249
4.0304
4.02702
4.00109
3.95572
3.89469
3.82199
3.74142
3.65641
3.56989
3.48434
3.40173
3.32359
3.251
3.18468
3.12498
3.07195
3.02533
2.98454
2.9488
2.91713
2.88843
2.86143
2.83476
2.80693
2.77656
2.74248
2.70382
2.66006
2.61117
2.55749
2.49971
2.43874
2.37557
2.3112
2.24653
2.1824
2.11943
2.05814
1.99844
1.93979
1.8793
0.121516
0.209351
0.263045
0.292074
0.315375
0.334206
0.35105
0.366112
0.380083
0.393025
0.405182
0.416582
0.427347
0.437526
0.447215
0.456482
0.465413
0.474089
0.482614
0.491098
0.499656
0.508404
0.517449
0.526883
0.536783
0.547207
0.558198
0.569787
0.581992
0.594827
0.608296
0.622398
0.637131
0.652485
0.66845
0.685018
0.702176
0.719915
0.738222
0.757086
0.776496
0.796443
0.816924
0.837937
0.859483
0.881565
0.904191
0.927368
0.951107
0.975421
1.00032
1.02583
1.05195
1.07872
1.10614
1.13423
1.16301
1.19251
1.22274
1.25372
1.28547
1.31802
1.35138
1.38557
1.42061
1.45653
1.49333
1.53105
1.5697
1.60929
1.64985
1.6914
1.73394
1.77751
1.82212
1.86779
1.91455
1.9624
2.01139
2.06152
2.11282
2.1653
2.21899
2.27389
2.33
2.38733
2.44585
2.50558
2.56648
2.62855
2.69175
2.75601
2.82126
2.88737
2.95413
3.02129
3.08849
3.15526
3.221
3.28488
3.34585
3.40251
3.4531
3.49547
3.52721
3.54489
3.54735
3.53183
3.49678
3.44255
3.37148
3.28817
3.19885
3.10943
3.02228
2.93501
2.84301
2.74334
2.6432
2.56263
2.52382
2.53613
2.60024
2.69676
2.81146
2.93344
3.05543
3.17343
3.28635
3.39527
3.50244
3.61007
3.71939
3.82984
3.93823
4.0391
4.12592
4.19268
4.23342
4.24852
4.23922
4.20557
4.15111
4.07996
3.99642
3.90457
3.80807
3.71007
3.6132
3.51962
3.43105
3.3487
3.27338
3.20561
3.14559
3.09309
3.04753
3.00816
2.97402
2.94404
2.91694
2.89122
2.86509
2.83696
2.8054
2.76929
2.72791
2.68111
2.62916
2.57278
2.51289
2.45053
2.38674
2.32247
2.25856
2.19563
2.13416
2.07399
2.01459
1.95373
0.121978
0.211385
0.265635
0.295396
0.31941
0.338866
0.356316
0.371953
0.386518
0.400078
0.412919
0.425081
0.436709
0.447855
0.458627
0.469092
0.479342
0.489445
0.499476
0.509503
0.519608
0.529877
0.540388
0.551216
0.562432
0.574095
0.586254
0.598948
0.612206
0.626051
0.640499
0.655563
0.671249
0.687563
0.704503
0.722069
0.740259
0.759071
0.778504
0.798558
0.819231
0.840524
0.862442
0.884988
0.908172
0.932001
0.956487
0.981642
1.00748
1.03402
1.06128
1.08927
1.11802
1.14755
1.17788
1.20904
1.24104
1.27391
1.30768
1.34237
1.378
1.4146
1.45219
1.4908
1.53045
1.57116
1.61295
1.65585
1.69987
1.74503
1.79135
1.83885
1.88755
1.93746
1.9886
2.041
2.09467
2.14963
2.20591
2.26353
2.3225
2.38286
2.44461
2.50777
2.57235
2.63836
2.70581
2.77468
2.84497
2.91664
2.98966
3.06398
3.13951
3.21615
3.29374
3.37205
3.4508
3.5296
3.60789
3.68493
3.75972
3.83091
3.89679
3.95516
4.00336
4.03831
4.05627
4.05555
4.03294
3.98723
3.91886
3.83002
3.72401
3.60384
3.47095
3.32562
3.16901
3.00829
2.85996
2.75662
2.71846
2.73774
2.80052
2.8937
3.00452
3.12308
3.24266
3.35933
3.47176
3.58072
3.68814
3.79611
3.90601
4.01755
4.12745
4.22948
4.31629
4.3813
4.41851
4.42892
4.41229
4.37005
4.30606
4.22476
4.13073
4.02825
3.92115
3.81274
3.70579
3.60262
3.50506
3.41442
3.33157
3.25706
3.19108
3.13374
3.08451
3.0427
3.00749
2.97779
2.95213
2.92865
2.90543
2.88076
2.85288
2.82037
2.78235
2.7385
2.68909
2.63481
2.57664
2.51568
2.453
2.38959
2.3263
2.26375
2.20237
2.14204
2.08233
2.02125
0.121768
0.212063
0.266535
0.296944
0.321616
0.34168
0.35974
0.375974
0.39116
0.40536
0.418888
0.431792
0.444235
0.456272
0.468017
0.479533
0.490914
0.502223
0.513532
0.5249
0.536385
0.548039
0.559919
0.572078
0.584571
0.597448
0.610758
0.624546
0.63885
0.653702
0.669131
0.685159
0.701808
0.719092
0.737026
0.755619
0.77488
0.794817
0.815441
0.836759
0.858781
0.881517
0.904978
0.929175
0.954123
0.979835
1.00633
1.03362
1.06173
1.09068
1.12049
1.15118
1.18278
1.21531
1.24881
1.28328
1.31878
1.35531
1.3929
1.43159
1.4714
1.51236
1.55448
1.5978
1.64234
1.68811
1.73515
1.78346
1.83308
1.88401
1.93627
1.98987
2.04484
2.10119
2.15894
2.21811
2.27872
2.34079
2.40436
2.46945
2.53607
2.60425
2.674
2.74534
2.81827
2.89278
2.96887
3.04653
3.12576
3.20655
3.28887
3.37269
3.45794
3.54453
3.63235
3.7212
3.81084
3.90091
3.99091
4.08019
4.16783
4.25261
4.33291
4.40661
4.47101
4.52291
4.55839
4.57372
4.56609
4.53188
4.4693
4.37801
4.25884
4.11336
3.94395
3.75614
3.56014
3.37167
3.21059
3.09655
3.04106
3.03417
3.06983
3.13809
3.22824
3.33088
3.43868
3.54677
3.65297
3.75737
3.86148
3.96711
4.07558
4.18629
4.29524
4.39553
4.47932
4.53966
4.57124
4.57466
4.54937
4.49782
4.4241
4.33293
4.22909
4.11702
4.00059
3.88313
3.76748
3.65598
3.55063
3.45295
3.36367
3.28345
3.2127
3.15165
3.09994
3.05674
3.02133
2.99283
2.96991
2.95026
2.93156
2.91148
2.8883
2.86039
2.8266
2.78652
2.74037
2.68887
2.63306
2.57407
2.51303
2.45095
2.38872
2.32694
2.26606
2.20594
2.14621
2.08534
0.12094
0.211396
0.266029
0.2971
0.322469
0.343164
0.36185
0.378692
0.394504
0.409338
0.423532
0.43713
0.450316
0.463142
0.475729
0.488137
0.50046
0.512762
0.525119
0.537586
0.550219
0.563052
0.576123
0.589473
0.603147
0.617184
0.631626
0.646511
0.66188
0.677771
0.694221
0.711261
0.728923
0.747235
0.766225
0.785917
0.806332
0.827492
0.849414
0.872117
0.895618
0.919937
0.945091
0.9711
0.997984
1.02576
1.05446
1.08409
1.11469
1.14628
1.17888
1.21252
1.24723
1.28304
1.31997
1.35806
1.39732
1.43779
1.4795
1.52247
1.56672
1.61228
1.65916
1.70741
1.75702
1.80802
1.86043
1.91427
1.96954
2.02625
2.08443
2.14409
2.20523
2.26787
2.33204
2.39775
2.46502
2.53388
2.60435
2.67647
2.75026
2.82573
2.90291
2.9818
3.0624
3.14474
3.22881
3.31462
3.40216
3.49141
3.58237
3.67501
3.7693
3.86516
3.9625
4.06115
4.16089
4.26138
4.36215
4.46258
4.5618
4.65865
4.75157
4.8385
4.9168
4.98318
5.03381
5.06371
5.06959
5.04657
4.9907
4.8996
4.77248
4.6106
4.41859
4.20665
3.99041
3.78858
3.61887
3.49295
3.41522
3.3824
3.38686
3.42311
3.48358
3.5606
3.64735
3.73878
3.83206
3.92658
4.02313
4.12284
4.22654
4.33326
4.43831
4.53394
4.61184
4.66488
4.6889
4.68329
4.64869
4.58762
4.50457
4.40434
4.29172
4.17131
4.04712
3.9223
3.79971
3.68183
3.57071
3.4682
3.3745
3.29034
3.21622
3.15241
3.09867
3.0546
3.01977
2.99328
2.97336
2.95771
2.94415
2.93005
2.91253
2.88994
2.86109
2.82539
2.78306
2.73486
2.68187
2.62528
2.56629
2.50591
2.44506
2.38435
2.32423
2.2646
2.20526
2.14484
0.119484
0.210148
0.264803
0.296416
0.322358
0.343647
0.362936
0.380363
0.396779
0.412219
0.427048
0.441298
0.455167
0.468701
0.482032
0.495214
0.508348
0.521494
0.534731
0.548113
0.561692
0.575505
0.589595
0.603992
0.618726
0.633835
0.649356
0.665321
0.681771
0.698745
0.716284
0.734425
0.753209
0.772674
0.792861
0.813807
0.835547
0.858113
0.881533
0.905832
0.931038
0.957178
0.984278
1.01236
1.04146
1.0716
1.10281
1.13511
1.16853
1.2031
1.23885
1.27581
1.314
1.35345
1.3942
1.43626
1.47965
1.52441
1.57056
1.6181
1.66708
1.71749
1.76936
1.82271
1.87754
1.93386
1.9917
2.05105
2.11192
2.17432
2.23826
2.30376
2.37081
2.43943
2.50965
2.58148
2.65495
2.7301
2.80694
2.88551
2.96583
3.04793
3.13181
3.21748
3.30495
3.39421
3.48526
3.57812
3.67279
3.7693
3.86765
3.96786
4.06992
4.17379
4.27939
4.3866
4.49518
4.60482
4.71506
4.82525
4.93454
5.04172
5.14522
5.24296
5.33225
5.40978
5.47154
5.51277
5.52882
5.51467
5.46528
5.37719
5.24886
5.08163
4.8815
4.66093
4.43725
4.22855
4.0499
3.91018
3.81172
3.75256
3.72814
3.73266
3.76114
3.8078
3.86725
3.93521
4.00912
4.08827
4.17301
4.26363
4.36003
4.4601
4.55815
4.64589
4.71486
4.75831
4.77217
4.75654
4.71181
4.64121
4.54958
4.44169
4.32231
4.19593
4.06678
3.93725
3.81023
3.6882
3.57313
3.46653
3.3687
3.28075
3.20335
3.13692
3.08164
3.03746
3.00396
2.98019
2.96432
2.95381
2.94602
2.93784
2.92701
2.91056
2.88719
2.85641
2.81838
2.77393
2.72421
2.67047
2.61392
2.55564
2.49654
2.43726
2.37826
2.31948
2.26081
2.20116
0.117467
0.208125
0.262734
0.294849
0.321321
0.343114
0.362942
0.380925
0.397918
0.41394
0.429377
0.444252
0.458773
0.472979
0.487007
0.500909
0.51479
0.528708
0.542743
0.556947
0.571378
0.586075
0.601082
0.616432
0.63216
0.648295
0.664863
0.681905
0.699472
0.717605
0.736343
0.755727
0.775804
0.796622
0.818232
0.840682
0.864018
0.888279
0.913503
0.939724
0.966978
0.9953
1.02472
1.05528
1.08701
1.11993
1.15408
1.18949
1.22619
1.2642
1.30356
1.34429
1.38641
1.42994
1.47491
1.52134
1.56924
1.61863
1.66951
1.72191
1.77582
1.83127
1.88825
1.94677
2.00683
2.06844
2.13159
2.19629
2.26254
2.33035
2.3997
2.47062
2.5431
2.61716
2.69282
2.7701
2.84903
2.92964
3.01196
3.09601
3.18184
3.26944
3.35882
3.45
3.54298
3.63776
3.73439
3.83289
3.93328
4.03561
4.13992
4.24623
4.35458
4.46495
4.57731
4.69154
4.80743
4.92467
5.04281
5.1612
5.27894
5.3948
5.5071
5.61365
5.71166
5.79769
5.86769
5.91702
5.94072
5.9336
5.89079
5.80849
5.68503
5.52182
5.32507
5.10707
4.88422
4.67296
4.48654
4.33288
4.21465
4.1307
4.07773
4.05167
4.04807
4.06261
4.09131
4.13115
4.18076
4.24008
4.30919
4.38735
4.47319
4.56341
4.6514
4.72843
4.78581
4.81676
4.81873
4.79325
4.73963
4.66216
4.56474
4.45195
4.32836
4.19822
4.06536
3.93212
3.8016
3.67617
3.55768
3.44745
3.34648
3.25573
3.17595
3.10781
3.05178
3.00806
2.97641
2.95594
2.94468
2.93962
2.93789
2.93651
2.93228
2.92249
2.9052
2.87965
2.84626
2.80591
2.75979
2.70923
2.65546
2.59958
2.54253
2.48496
2.42736
2.36972
2.31206
2.25345
0.115238
0.205509
0.259911
0.292373
0.319277
0.341551
0.36188
0.38034
0.397857
0.414443
0.430485
0.445982
0.461161
0.476049
0.49079
0.50543
0.520076
0.534784
0.549638
0.564688
0.579998
0.595611
0.611577
0.627929
0.644704
0.661933
0.679653
0.697907
0.71675
0.736228
0.75639
0.777284
0.798958
0.821469
0.844878
0.869239
0.894606
0.921026
0.948542
0.977198
1.00703
1.0381
1.07042
1.10405
1.13901
1.17533
1.21306
1.2522
1.2928
1.33488
1.37845
1.42353
1.47014
1.51829
1.56798
1.61924
1.67205
1.72642
1.78236
1.83986
1.89891
1.95952
2.02167
2.08536
2.15058
2.21732
2.28557
2.35532
2.42658
2.49932
2.57355
2.64927
2.7265
2.80523
2.8855
2.96732
3.05074
3.13578
3.22248
3.31086
3.40095
3.49275
3.58626
3.68148
3.77844
3.87716
3.97767
4.08005
4.18434
4.29062
4.39897
4.50945
4.62212
4.73702
4.85414
4.97338
5.09458
5.21744
5.34152
5.4662
5.59056
5.71333
5.83276
5.94655
6.05173
6.14473
6.22138
6.27704
6.30691
6.30613
6.27078
6.19673
6.08262
5.92967
5.74336
5.53449
5.3174
5.10653
4.91388
4.74725
4.6101
4.50249
4.42228
4.3663
4.33102
4.31302
4.30961
4.31908
4.34192
4.37857
4.42887
4.49136
4.56361
4.64112
4.71615
4.77906
4.82241
4.84124
4.83411
4.80051
4.73986
4.65612
4.55361
4.4368
4.31
4.17712
4.04159
3.90633
3.77403
3.64687
3.52656
3.41445
3.31166
3.21916
3.13789
3.06873
3.01247
2.96956
2.94003
2.92313
2.91672
2.91704
2.92129
2.92669
2.92936
2.92637
2.91559
2.89567
2.86715
2.83117
2.78897
2.74189
2.69122
2.63808
2.58341
2.52789
2.47201
2.41584
2.35945
2.30214
0.112233
0.201738
0.255925
0.288643
0.31591
0.338606
0.359438
0.378431
0.396521
0.41368
0.430354
0.446541
0.462461
0.478131
0.493703
0.509214
0.524776
0.540439
0.556294
0.572391
0.588801
0.605572
0.622759
0.640401
0.658543
0.677224
0.696495
0.716408
0.737004
0.758323
0.780436
0.803406
0.827286
0.852141
0.878042
0.905055
0.933235
0.962629
0.993284
1.02525
1.05857
1.09329
1.12946
1.1671
1.20625
1.24694
1.28918
1.33301
1.37843
1.42545
1.47408
1.52433
1.5762
1.62967
1.68474
1.74141
1.79965
1.85946
1.92082
1.9837
2.04809
2.11397
2.18132
2.25011
2.32032
2.39193
2.46493
2.53928
2.61499
2.69203
2.77041
2.85012
2.93118
3.0136
3.09742
3.18265
3.26933
3.35749
3.44717
3.53838
3.63113
3.72542
3.82126
3.91866
4.01766
4.11831
4.22071
4.32492
4.43103
4.53915
4.64938
4.76182
4.87659
4.99376
5.11335
5.23532
5.35954
5.48577
5.61362
5.74249
5.87148
5.99931
6.12418
6.24371
6.35487
6.45396
6.5367
6.59841
6.63438
6.64009
6.61299
6.54877
6.44635
6.30682
6.13454
5.93824
5.72979
5.52162
5.3246
5.14656
4.99181
4.86156
4.75483
4.66943
4.60266
4.55209
4.51627
4.49528
4.49039
4.50171
4.52989
4.5731
4.62851
4.69019
4.74944
4.79819
4.82866
4.83566
4.81929
4.77647
4.70869
4.61987
4.51391
4.39493
4.26686
4.1333
3.99749
3.86226
3.73006
3.60294
3.4825
3.37005
3.26671
3.17354
3.09163
3.0221
2.96603
2.92421
2.89694
2.88367
2.88174
2.88663
2.89748
2.90969
2.91912
2.9226
2.91817
2.90431
2.88101
2.84958
2.81149
2.76815
2.72084
2.6707
2.61867
2.56545
2.51156
2.45711
2.40228
2.34649
0.109348
0.197502
0.251041
0.283809
0.311322
0.33438
0.355681
0.375211
0.393936
0.411802
0.429257
0.44626
0.463075
0.479716
0.496343
0.512984
0.52976
0.546717
0.563954
0.581524
0.599508
0.617961
0.636949
0.656519
0.676731
0.697638
0.719298
0.741759
0.765063
0.789263
0.814409
0.84053
0.867699
0.896033
0.925621
0.956511
0.988736
1.02235
1.0574
1.09394
1.13202
1.17167
1.21291
1.25579
1.30031
1.3465
1.39435
1.44386
1.49505
1.5479
1.60239
1.65851
1.71623
1.77554
1.8364
1.89879
1.96266
2.028
2.09475
2.16289
2.23238
2.30317
2.37525
2.44856
2.52308
2.59877
2.6756
2.75354
2.83259
2.91273
2.99395
3.07627
3.15969
3.24425
3.32996
3.41687
3.50502
3.59443
3.68512
3.77711
3.87039
3.96497
4.06085
4.15807
4.2567
4.35682
4.4585
4.56186
4.66702
4.77411
4.8833
4.99476
5.10865
5.22509
5.34418
5.46593
5.59028
5.7171
5.84606
5.97662
6.1079
6.23859
6.36684
6.49022
6.60569
6.7096
6.79768
6.86525
6.90755
6.92025
6.90136
6.84738
6.75685
6.63098
6.47315
6.29021
6.09176
5.88829
5.6895
5.50301
5.33364
5.18354
5.0528
4.94019
4.84402
4.76294
4.69677
4.64668
4.61428
4.60068
4.60578