/*--------------------------------*- C++ -*----------------------------------*\
| =========                 |                                                 |
| \\      /  F ield         | OpenFOAM: The Open Source CFD Toolbox           |
|  \\    /   O peration     | Version:  v1906                                 |
|   \\  /    A nd           | Web:      www.OpenFOAM.com                      |
|    \\/     M anipulation  |                                                 |
\*---------------------------------------------------------------------------*/
FoamFile
{
    version     2.0;
    format      ascii;
    class       volScalarField;
    location    "1700";
    object      nut;
}
// * * * * * * * * * * * * * * * * * * * * * * * * * * * * * * * * * * * * * //

dimensions      [0 2 -1 0 0 0 0];


internalField   nonuniform List<scalar> 
12225
(
5.38055e-05
5.3434e-05
5.26738e-05
5.18247e-05
5.10087e-05
5.02556e-05
4.95734e-05
4.8959e-05
4.84048e-05
4.79102e-05
4.74574e-05
4.70643e-05
4.67499e-05
4.64947e-05
4.62653e-05
4.60986e-05
4.59066e-05
4.5834e-05
0.000743511
0.000277293
0.000212066
0.000190348
0.000177856
0.000170962
0.00016571
0.000161447
0.000158117
0.000155343
0.000153238
0.000151226
0.000149925
0.000148152
0.000147642
0.000145922
0.000146505
0.000144624
0.00336964
0.000967911
0.000670251
0.000563751
0.000506702
0.000473388
0.000449733
0.000431734
0.000418559
0.000408025
0.000399375
0.000392088
0.000386205
0.0003807
0.000376791
0.000372103
0.000370558
0.000366066
0.00784555
0.00229534
0.00147523
0.00117729
0.00102252
0.000930428
0.000868849
0.00082403
0.000791426
0.000765749
0.000744998
0.000728579
0.000715301
0.000703853
0.000694715
0.00068589
0.000680975
0.000671296
0.0127613
0.00433021
0.00271181
0.00210519
0.00179134
0.00160256
0.00147687
0.00138655
0.00131956
0.0012677
0.00122618
0.00119245
0.00116545
0.00114189
0.00112238
0.00110527
0.00109304
0.00107556
0.0171129
0.00693508
0.00437051
0.00334539
0.00280618
0.00247786
0.00225816
0.00210065
0.00198299
0.00189193
0.00181931
0.00176014
0.00171172
0.00167079
0.00163617
0.00160635
0.00158137
0.00155436
0.0205942
0.00988665
0.00641912
0.004911
0.00409411
0.00358881
0.00324761
0.00300212
0.00281775
0.00267454
0.00256017
0.00246683
0.00238969
0.00232476
0.00226956
0.00222207
0.00218174
0.00214033
0.0232403
0.0129322
0.00876088
0.00676367
0.00563615
0.004923
0.00443487
0.00408088
0.00381322
0.00360423
0.00343673
0.00329964
0.00318572
0.00308965
0.00300769
0.00293705
0.00287589
0.0028163
0.0252061
0.0158696
0.0112822
0.00885524
0.00741558
0.00647948
0.0058277
0.0053498
0.00498549
0.0046992
0.00446864
0.00427921
0.00412112
0.00398738
0.00387292
0.00377401
0.00368759
0.00360616
0.0266537
0.0185548
0.0138516
0.0111044
0.00938205
0.0082247
0.00740165
0.00678951
0.00631795
0.00594438
0.00564162
0.00539162
0.00518201
0.00500397
0.00485104
0.00471838
0.0046017
0.0044944
0.0277217
0.0209141
0.0163543
0.0134261
0.0114801
0.0101235
0.00913484
0.00838699
0.00780368
0.00733717
0.00695625
0.00663982
0.00637314
0.00614563
0.00594945
0.00577863
0.00562794
0.0054911
0.0284462
0.0227405
0.0184755
0.0155083
0.0134281
0.0119251
0.0108023
0.00993784
0.00925461
0.0087026
0.00824825
0.00786836
0.00754646
0.00727058
0.00703172
0.00682296
0.00663834
0.00647195
0.029007
0.0243017
0.020435
0.0175349
0.0153895
0.0137796
0.0125443
0.0115741
0.0107959
0.0101599
0.00963169
0.00918678
0.00880751
0.0084808
0.00819671
0.00794749
0.00772664
0.00752812
0.0294883
0.025754
0.0223953
0.0196729
0.0175361
0.0158611
0.0145334
0.0134651
0.0125921
0.0118683
0.0112602
0.0107432
0.0102992
0.0099142
0.00957767
0.00928115
0.00901767
0.00878124
0.0298832
0.0270271
0.0242368
0.0217945
0.0197537
0.0180742
0.0166925
0.0155485
0.0145925
0.0137859
0.0130987
0.0125079
0.0119957
0.0115482
0.0111546
0.0108059
0.0104949
0.0102155
0.0301871
0.0280588
0.0258245
0.0237223
0.0218526
0.0202338
0.0188472
0.0176621
0.0166467
0.0157726
0.015016
0.0143571
0.0137799
0.0132712
0.0128205
0.012419
0.0120596
0.0117361
0.0303974
0.0287992
0.0270222
0.0252446
0.0235732
0.0220564
0.0207065
0.0195167
0.018472
0.0175548
0.0167482
0.0160367
0.0154067
0.0148468
0.0143471
0.0138994
0.0134966
0.0131333
0.030504
0.0291832
0.0276653
0.0260896
0.0245559
0.0231217
0.0218131
0.0206359
0.0195852
0.0186505
0.0178197
0.0170804
0.0164212
0.0158319
0.0153034
0.014828
0.0143987
0.0140097
0.0304706
0.0290642
0.0274675
0.0258314
0.0242571
0.0227988
0.0214783
0.0202976
0.0192485
0.0183186
0.0174943
0.0167625
0.0161111
0.0155297
0.015009
0.0145414
0.0141202
0.0137401
0.03023
0.0282108
0.0260711
0.0240359
0.0222064
0.0206075
0.0192268
0.0180387
0.017015
0.0161297
0.0153603
0.014688
0.0140972
0.0135754
0.0131121
0.0126991
0.0123295
0.0119979
0.0298191
0.0268239
0.0239437
0.0214556
0.0193971
0.017715
0.0163383
0.0152025
0.014256
0.0134587
0.0127802
0.0121973
0.0116921
0.0112508
0.0108627
0.0105194
0.0102145
0.00994382
0.0291384
0.0247056
0.0209803
0.0181266
0.0159797
0.0143478
0.0130831
0.0120823
0.0112745
0.010611
0.0100575
0.0095895
0.00918913
0.00884308
0.0085413
0.00827618
0.00804201
0.00783518
0.0280347
0.0217138
0.0172816
0.0143332
0.0123258
0.0109023
0.00985217
0.00905039
0.00842048
0.00791366
0.00749768
0.00715049
0.00685657
0.00660469
0.00638645
0.00619571
0.00602781
0.00588154
0.0262537
0.0178168
0.0131451
0.0104877
0.00884529
0.00774972
0.00697355
0.00639768
0.00595465
0.0056038
0.00531939
0.00508436
0.00488704
0.00471911
0.00457444
0.00444858
0.00433793
0.00424168
0.0233808
0.0132076
0.00902306
0.00699273
0.00583755
0.0051018
0.00459525
0.00422688
0.00394753
0.00372858
0.00355257
0.00340809
0.0032875
0.00318539
0.00309761
0.00302144
0.00295374
0.00289578
0.0189042
0.00845949
0.00545263
0.00418659
0.00350865
0.00308955
0.0028062
0.00260311
0.00245043
0.00233133
0.00223605
0.00215808
0.00209332
0.00203867
0.00199163
0.00195121
0.00191522
0.00188475
0.012583
0.00439277
0.00279102
0.00217473
0.00185398
0.00165756
0.00152598
0.00143291
0.00136293
0.00130816
0.00126456
0.00122889
0.00119961
0.00117478
0.00115303
0.00113487
0.00111771
0.00110342
0.00562421
0.00171423
0.00115754
0.000947681
0.000839103
0.000771661
0.000726954
0.000695855
0.000671051
0.000650969
0.000635058
0.000621799
0.000610425
0.000600867
0.000592163
0.000585052
0.00057788
0.000573022
0.00117097
0.000438395
0.0003308
0.000288796
0.000267451
0.00025369
0.000246254
0.000240132
0.000234964
0.000230563
0.000226774
0.000223591
0.000220732
0.000218402
0.000216128
0.000214423
0.000212446
0.000210938
7.08584e-05
7.01421e-05
6.91461e-05
6.81617e-05
6.7233e-05
6.63757e-05
6.55902e-05
6.48752e-05
6.42242e-05
6.36309e-05
6.30885e-05
6.25916e-05
6.21357e-05
6.17152e-05
6.13291e-05
6.09695e-05
6.06403e-05
6.03281e-05
8.58384e-06
2.29472e-05
2.66779e-05
2.82844e-05
2.94863e-05
3.02411e-05
3.08435e-05
3.12677e-05
3.16062e-05
3.18554e-05
3.20429e-05
3.2169e-05
3.22479e-05
3.22796e-05
3.22641e-05
3.2229e-05
3.2162e-05
3.20321e-05
3.17707e-05
3.12401e-05
3.04396e-05
2.93971e-05
2.81479e-05
2.67247e-05
2.54133e-05
2.46414e-05
2.43143e-05
2.42162e-05
2.41209e-05
2.39081e-05
2.3507e-05
2.30553e-05
2.28773e-05
2.34841e-05
2.44302e-05
2.56153e-05
2.70607e-05
2.88289e-05
3.0921e-05
3.28275e-05
3.45925e-05
3.62362e-05
3.77743e-05
3.92201e-05
4.05866e-05
4.18753e-05
4.31004e-05
4.42729e-05
4.54043e-05
4.65058e-05
4.75889e-05
4.86493e-05
4.9673e-05
5.06722e-05
5.16491e-05
5.26083e-05
5.35529e-05
5.44858e-05
5.54093e-05
5.63256e-05
5.72363e-05
5.81429e-05
5.90465e-05
5.9948e-05
6.08482e-05
6.17475e-05
6.26462e-05
6.35443e-05
6.44418e-05
6.53384e-05
6.62334e-05
6.71262e-05
6.80156e-05
6.89005e-05
6.97791e-05
7.06496e-05
7.15099e-05
7.23573e-05
7.31887e-05
7.40008e-05
7.47897e-05
7.55523e-05
7.62852e-05
7.69855e-05
7.76516e-05
7.82987e-05
7.89309e-05
7.95568e-05
8.01758e-05
8.07869e-05
8.1389e-05
8.19797e-05
8.25562e-05
8.31143e-05
8.36485e-05
8.41518e-05
8.46152e-05
8.50272e-05
8.5371e-05
8.55794e-05
8.56148e-05
8.56261e-05
8.53818e-05
8.49129e-05
8.46188e-05
8.43615e-05
8.396e-05
8.38972e-05
8.37881e-05
8.34042e-05
8.25492e-05
8.13075e-05
7.97837e-05
7.79705e-05
7.58725e-05
7.37431e-05
7.10986e-05
6.78982e-05
6.32024e-05
5.77646e-05
5.02806e-05
4.25193e-05
4.21833e-05
4.71851e-05
4.59127e-05
3.47716e-05
4.10491e-05
6.81379e-05
8.24225e-05
9.24787e-05
9.94856e-05
0.00010483
0.000108896
0.000112034
0.000114333
0.000115931
0.000117155
0.000117802
0.00011803
0.000118005
0.000117661
0.000117139
0.00011627
0.000115129
0.000113599
0.000111386
0.000109489
0.000107565
0.00010585
0.000104277
0.000102902
0.000101721
0.000100755
0.000100108
9.97339e-05
9.94933e-05
9.96134e-05
0.000100011
0.000101194
0.000101502
0.00010206
0.000102517
0.000102854
0.000103008
0.000103029
0.000102859
0.000102522
0.000101979
0.000101284
0.000100445
9.94846e-05
9.84028e-05
9.72219e-05
9.5935e-05
9.46164e-05
9.31746e-05
9.18222e-05
9.01525e-05
8.88561e-05
8.52655e-05
1.19085e-05
5.62237e-05
0.000122214
0.000163404
0.000197938
0.000222121
0.000242923
0.00025965
0.000274748
0.000287245
0.000297658
0.000305777
0.00031228
0.000317677
0.000322863
0.000327933
0.000331686
0.000332235
0.00033141
0.000331391
0.000333641
0.000338908
0.000346284
0.000352064
0.000355354
0.000356358
0.000356245
0.000356053
0.000356362
0.00035721
0.00035824
0.000358987
0.000359192
0.000358831
0.000357929
0.000356522
0.000354653
0.00035236
0.000350157
0.000349062
0.000349456
0.000351371
0.000354663
0.000359092
0.000364636
0.000370895
0.000377632
0.000384663
0.000391842
0.000399059
0.000406242
0.000413361
0.000420393
0.000427318
0.000434134
0.000440845
0.00044746
0.000453994
0.000460462
0.00046688
0.000473263
0.000479629
0.000485992
0.000492365
0.000498762
0.000505193
0.000511667
0.000518193
0.000524775
0.000531417
0.000538118
0.000544872
0.000551669
0.00055849
0.000565307
0.000572077
0.000578741
0.000585214
0.000591381
0.00059708
0.000602093
0.000606124
0.000608768
0.000609473
0.000607517
0.000603466
0.000597976
0.000592305
0.000586679
0.000581222
0.000576018
0.000571142
0.00056666
0.00056262
0.000559037
0.000555896
0.000553156
0.000550772
0.000548679
0.000546794
0.000544802
0.000541965
0.000538285
0.000532603
0.00052517
0.000516162
0.000510709
0.000510536
0.000508592
0.000501646
0.000491008
0.000478761
0.000466415
0.000456014
0.000451451
0.000447986
0.00043157
0.000421772
0.00043045
0.000444724
0.000501988
0.000534693
0.000504815
0.000420214
0.000345626
0.000327269
0.000360538
0.000376615
0.000428193
0.000496427
0.000568654
0.000637908
0.000700147
0.000756565
0.000798347
0.000818844
0.000835401
0.000854899
0.000873435
0.000884744
0.000893363
0.000901342
0.000908047
0.000912158
0.000915376
0.000917312
0.000914034
0.000908743
0.000901353
0.000892941
0.000883718
0.000873245
0.000862108
0.000850979
0.000839186
0.000825883
0.000809722
0.000792356
0.000783067
0.000786486
0.000788411
0.000785902
0.00078057
0.000773176
0.000765248
0.000755758
0.000745392
0.000734215
0.000722248
0.000709791
0.000696797
0.000683074
0.000668886
0.00065463
0.000640734
0.000627398
0.000614796
0.00060507
0.000587664
0.00053467
1.47511e-05
8.50697e-05
0.000181563
0.000258631
0.000327481
0.000381139
0.00042979
0.000469753
0.000506736
0.00053847
0.000566776
0.000590643
0.000610733
0.000626107
0.000637573
0.000645689
0.000650797
0.000653043
0.000652488
0.000649402
0.000644229
0.000637539
0.000630595
0.000626003
0.000623859
0.000623791
0.000625477
0.000628537
0.000632811
0.000637279
0.000641361
0.000645759
0.000650151
0.000654213
0.00065874
0.000664131
0.000670556
0.000678213
0.000687316
0.000698012
0.000710188
0.000723693
0.000738275
0.000753657
0.000769291
0.000785065
0.000800821
0.000816416
0.000831738
0.000846714
0.000861298
0.00087547
0.000889229
0.000902584
0.000915556
0.00092817
0.000940454
0.000952435
0.000964136
0.000975578
0.000986781
0.000997756
0.00100851
0.00101906
0.00102939
0.00103951
0.00104941
0.00105907
0.00106847
0.00107759
0.00108641
0.00109487
0.00110293
0.00111053
0.0011176
0.00112405
0.00112978
0.00113467
0.00113858
0.00114135
0.0011428
0.00114274
0.00114102
0.0011375
0.00113218
0.00112527
0.00111734
0.00110883
0.00109995
0.00109078
0.00108142
0.00107201
0.00106271
0.00105367
0.00104495
0.00103658
0.00102853
0.00102076
0.00101317
0.00100561
0.000997858
0.000989631
0.000980864
0.000970767
0.000961128
0.000950524
0.000938595
0.000925265
0.000909963
0.000892635
0.000875078
0.000860242
0.000849576
0.000847417
0.000863209
0.000893036
0.000917752
0.000937654
0.00096201
0.000975695
0.000928028
0.000826014
0.000706095
0.000660623
0.000664549
0.000706758
0.000764463
0.000887247
0.00104385
0.00118941
0.00131752
0.00142462
0.00151
0.00157492
0.00161802
0.00165161
0.00169258
0.00173561
0.00177448
0.00179896
0.00181672
0.00183053
0.00183892
0.00184133
0.00183899
0.00183168
0.00181848
0.00179956
0.00177906
0.00175833
0.00173787
0.0017181
0.00169943
0.00168244
0.00166727
0.00165255
0.00163852
0.00162791
0.0016233
0.00162135
0.00161585
0.00160763
0.00159769
0.00158642
0.00157399
0.00155958
0.00154349
0.00152561
0.00150607
0.00148522
0.00146202
0.00143542
0.00140671
0.00137711
0.0013474
0.00131823
0.00128955
0.00126366
0.00123327
0.00115876
1.65637e-05
0.000104758
0.000227333
0.000331657
0.00042449
0.000504151
0.000572465
0.000631015
0.000681206
0.000723958
0.000759987
0.000790028
0.000814678
0.000834512
0.000849995
0.000861514
0.000869342
0.000873744
0.000875081
0.000873922
0.000871048
0.00086731
0.000863266
0.000859414
0.000856189
0.000855398
0.00085791
0.000863568
0.00087203
0.000882769
0.000895227
0.00090892
0.000923422
0.000938414
0.000953771
0.000969431
0.000985602
0.00100249
0.00102013
0.00103863
0.00105774
0.00107717
0.00109674
0.00111627
0.00113562
0.00115471
0.00117346
0.00119183
0.00120977
0.00122726
0.00124429
0.00126088
0.00127702
0.00129274
0.00130805
0.00132296
0.00133751
0.0013517
0.00136554
0.00137905
0.00139223
0.00140508
0.0014176
0.00142978
0.0014416
0.00145306
0.00146412
0.00147476
0.00148495
0.00149466
0.00150383
0.00151241
0.00152035
0.00152757
0.001534
0.00153955
0.00154411
0.00154758
0.00154983
0.00155071
0.00155009
0.00154778
0.00154359
0.00153728
0.00152852
0.00151678
0.0015025
0.0014868
0.00146999
0.0014522
0.00143351
0.00141406
0.00139435
0.0013748
0.00135563
0.00133696
0.00131882
0.00130118
0.00128397
0.00126705
0.00125027
0.00123347
0.0012164
0.00119876
0.00118268
0.00116648
0.00114799
0.00112751
0.00110581
0.00108389
0.00106459
0.00105324
0.00105612
0.00107906
0.0011312
0.00121013
0.00126013
0.00128621
0.00126745
0.00118816
0.00105334
0.000929907
0.000896741
0.000900405
0.000987254
0.0011041
0.00126093
0.00145979
0.00165372
0.00182404
0.00196751
0.00208397
0.00217512
0.00224688
0.00230315
0.00235982
0.00241697
0.00246725
0.0025055
0.00252702
0.00253785
0.00254158
0.00253736
0.00252572
0.00250789
0.00248474
0.00245742
0.00242783
0.00239799
0.00236887
0.00234118
0.00231557
0.00229256
0.00227255
0.00225543
0.00224112
0.00223091
0.00222555
0.00222372
0.00222203
0.00221814
0.00221289
0.00220637
0.00219842
0.00218856
0.00217611
0.00216097
0.002143
0.00212229
0.00209884
0.00207014
0.00203382
0.00199425
0.00195344
0.00191284
0.00187321
0.00183561
0.00180095
0.0017643
0.00169439
1.83542e-05
0.000120645
0.000264073
0.000388947
0.000497663
0.000592251
0.000674269
0.000745296
0.000806864
0.000859962
0.000905425
0.000944233
0.000977169
0.00100493
0.00102808
0.00104708
0.00106234
0.00107425
0.00108322
0.00108972
0.00109412
0.00109711
0.00110003
0.00110397
0.00110981
0.0011171
0.00112566
0.00113585
0.00114767
0.00116094
0.00117537
0.00119064
0.00120668
0.00122353
0.00124127
0.00126003
0.00127915
0.00129819
0.00131706
0.00133581
0.00135468
0.00137379
0.0013931
0.00141253
0.00143199
0.00145138
0.00147062
0.00148962
0.00150833
0.00152672
0.00154475
0.00156242
0.00157971
0.00159662
0.00161317
0.00162935
0.00164517
0.00166063
0.00167574
0.00169048
0.00170487
0.00171888
0.0017325
0.00174573
0.00175854
0.0017709
0.00178279
0.00179418
0.00180504
0.00181532
0.00182499
0.00183399
0.00184227
0.00184978
0.00185645
0.00186221
0.00186699
0.0018707
0.00187326
0.00187456
0.0018745
0.00187297
0.00186984
0.00186498
0.00185825
0.00184955
0.00183885
0.00182608
0.00181105
0.00179372
0.0017739
0.00175084
0.00172595
0.0017003
0.0016743
0.00164816
0.00162191
0.00159553
0.0015689
0.00154192
0.00151449
0.0014866
0.00145815
0.00142916
0.00140165
0.0013752
0.00134801
0.00132117
0.00129637
0.00127566
0.0012629
0.00126545
0.00129233
0.00134688
0.00142059
0.0014826
0.00149663
0.0014562
0.00136693
0.00124607
0.00113589
0.00110098
0.00109678
0.0012066
0.00139108
0.00157378
0.00178371
0.00199991
0.00219839
0.00237106
0.0025132
0.00262865
0.00271988
0.00279459
0.00285931
0.00291772
0.00296683
0.00300398
0.00302706
0.00303772
0.00303987
0.00303269
0.00301706
0.0029944
0.00296628
0.00293424
0.00289995
0.00286504
0.00283082
0.00279827
0.00276823
0.00274137
0.00271823
0.00269911
0.00268414
0.00267352
0.00266722
0.00266544
0.00266719
0.00266949
0.00267083
0.00267135
0.00267086
0.00266872
0.00266408
0.00265619
0.00264466
0.00262932
0.00261013
0.0025867
0.00255761
0.00252289
0.00248468
0.00244446
0.00240334
0.0023622
0.00232141
0.00228116
0.002236
0.00216582
1.91699e-05
0.000128772
0.000287625
0.000427352
0.00054988
0.000657225
0.000750936
0.000832824
0.000904279
0.000967022
0.00102183
0.00106971
0.00111152
0.00114805
0.00117993
0.00120771
0.00123179
0.00125257
0.00127043
0.00128587
0.00129948
0.00131176
0.00132301
0.00133374
0.00134438
0.00135524
0.00136658
0.00137861
0.00139148
0.00140531
0.00142019
0.00143625
0.00145291
0.00146971
0.00148632
0.00150268
0.00151931
0.0015365
0.00155431
0.00157258
0.00159122
0.00161016
0.0016293
0.00164856
0.00166788
0.00168716
0.00170634
0.00172538
0.00174423
0.00176286
0.00178124
0.00179937
0.00181723
0.00183482
0.00185212
0.00186915
0.00188588
0.00190233
0.00191848
0.00193432
0.00194984
0.00196503
0.00197987
0.00199434
0.00200842
0.00202209
0.00203533
0.00204809
0.00206035
0.00207208
0.00208323
0.00209377
0.00210365
0.00211283
0.00212126
0.00212887
0.00213561
0.00214142
0.00214621
0.00214991
0.00215244
0.00215368
0.00215351
0.0021518
0.00214834
0.0021429
0.00213513
0.00212444
0.00210989
0.00209217
0.002072
0.00204953
0.00202496
0.00199853
0.00197085
0.00194229
0.00191297
0.00188284
0.00185176
0.00181958
0.0017862
0.00175156
0.00171568
0.00167821
0.00164155
0.00160636
0.00157187
0.00153818
0.00150871
0.00148644
0.00147621
0.00148591
0.00152437
0.00159099
0.00166167
0.00168932
0.00164187
0.00153779
0.00141835
0.00132036
0.00128566
0.00127291
0.00138331
0.00159589
0.00181242
0.00203531
0.00226063
0.0024778
0.00267326
0.00283974
0.00297265
0.00307627
0.00316011
0.0032299
0.00328836
0.0033361
0.0033723
0.00339675
0.00340743
0.00340736
0.0034014
0.00338421
0.00335943
0.00332866
0.00329358
0.00325586
0.00321706
0.00317861
0.00314167
0.00310727
0.00307626
0.00304934
0.00302703
0.00300967
0.00299747
0.0029905
0.00298852
0.00299085
0.00299606
0.0030032
0.00301166
0.00302006
0.00302761
0.0030332
0.00303568
0.00303413
0.003028
0.00301708
0.00300126
0.00298012
0.00295315
0.00292101
0.00288514
0.00284675
0.00280674
0.00276582
0.00272423
0.00268161
0.00263293
0.00256557
2.01277e-05
0.000136638
0.000307252
0.000458698
0.000592328
0.000709971
0.000813185
0.000903976
0.000983782
0.00105425
0.00111674
0.00117227
0.00122169
0.00126581
0.00130526
0.00134063
0.00137236
0.00140081
0.00142627
0.00144906
0.00146957
0.00148822
0.0015054
0.00152146
0.00153673
0.00155147
0.00156588
0.00158009
0.00159417
0.00160806
0.00162174
0.00163524
0.00164897
0.0016632
0.00167816
0.00169379
0.00171003
0.00172684
0.00174417
0.00176196
0.00178014
0.00179864
0.00181738
0.0018363
0.00185534
0.00187443
0.00189353
0.00191259
0.00193159
0.00195049
0.00196928
0.00198793
0.00200644
0.00202478
0.00204296
0.00206097
0.00207878
0.0020964
0.00211382
0.00213101
0.00214796
0.00216467
0.0021811
0.00219724
0.00221306
0.00222855
0.00224368
0.00225841
0.00227273
0.0022866
0.00229998
0.00231285
0.00232516
0.00233687
0.00234795
0.00235835
0.00236801
0.00237689
0.00238492
0.00239204
0.00239819
0.00240326
0.00240718
0.00240983
0.00241108
0.00241077
0.00240872
0.00240474
0.00239869
0.00239054
0.00238004
0.00236668
0.00234957
0.00232798
0.00230401
0.00227854
0.00225184
0.00222383
0.00219434
0.00216321
0.00213028
0.00209536
0.00205822
0.00201848
0.00197699
0.0019357
0.00189563
0.00185513
0.00181929
0.00179144
0.00177612
0.00177963
0.00180752
0.0018559
0.00189817
0.00188154
0.00177063
0.00162889
0.00151211
0.00146029
0.00143398
0.00154053
0.00174607
0.00198722
0.00222907
0.00246462
0.00269431
0.00290664
0.00308793
0.0032342
0.00335023
0.00344246
0.00351629
0.00357556
0.00362238
0.00365758
0.00368139
0.00369415
0.00369347
0.00368373
0.00366915
0.0036427
0.00360971
0.00357175
0.00353049
0.00348755
0.00344442
0.00340243
0.00336278
0.00332648
0.00329441
0.00326727
0.0032456
0.00322979
0.00322007
0.00321643
0.00321853
0.0032257
0.00323705
0.00325174
0.00326831
0.00328523
0.00330167
0.00331606
0.00332689
0.003333
0.00333366
0.00332867
0.00331784
0.0033008
0.0032775
0.00324886
0.00321616
0.0031805
0.00314258
0.00310307
0.00306225
0.00301941
0.00297023
0.0029063
2.04259e-05
0.000140865
0.000319383
0.000479749
0.000622318
0.000748589
0.000859944
0.000958453
0.00104547
0.00112257
0.00119145
0.00125311
0.00130851
0.00135848
0.00140368
0.00144467
0.00148192
0.00151586
0.00154685
0.00157507
0.0016007
0.00162395
0.00164504
0.00166424
0.00168181
0.00169806
0.00171328
0.00172775
0.00174178
0.00175566
0.00176962
0.00178374
0.00179814
0.00181293
0.00182818
0.00184391
0.00186013
0.00187682
0.00189398
0.00191154
0.00192949
0.00194777
0.00196632
0.00198511
0.00200409
0.00202321
0.00204244
0.00206175
0.00208111
0.0021005
0.0021199
0.00213928
0.00215865
0.00217798
0.00219726
0.00221648
0.00223563
0.00225469
0.00227366
0.00229251
0.00231123
0.00232981
0.00234821
0.00236644
0.00238445
0.00240223
0.00241976
0.00243701
0.00245395
0.00247056
0.0024868
0.00250265
0.00251807
0.00253302
0.00254747
0.00256138
0.0025747
0.00258739
0.0025994
0.00261069
0.00262118
0.00263082
0.00263953
0.00264725
0.00265388
0.00265933
0.00266349
0.00266628
0.00266754
0.00266712
0.00266472
0.00265996
0.0026523
0.00264098
0.00262669
0.00261072
0.00259329
0.00257424
0.00255325
0.00253038
0.00250562
0.0024787
0.00244911
0.00241646
0.00237981
0.00234092
0.00230275
0.00226147
0.00222252
0.00219008
0.00216822
0.00216131
0.00217118
0.00219009
0.00218693
0.00212451
0.0019697
0.00179997
0.00168393
0.00163331
0.00171681
0.00188934
0.00212782
0.00237936
0.00262441
0.002864
0.00308643
0.00327947
0.00343966
0.00356923
0.00367182
0.00375219
0.00381452
0.00386185
0.0038962
0.00391885
0.00393057
0.00393173
0.00391966
0.00390107
0.00387629
0.00384061
0.00379929
0.00375388
0.00370602
0.0036573
0.00360918
0.00356298
0.00351988
0.00348092
0.00344701
0.00341886
0.00339705
0.00338199
0.00337403
0.00337317
0.00337917
0.00339153
0.00340956
0.00343218
0.00345749
0.0034843
0.00351114
0.00353573
0.00355621
0.00357119
0.00357984
0.00358207
0.00357749
0.00356576
0.00354704
0.00352263
0.00349384
0.00346166
0.00342675
0.00338979
0.00335118
0.00330998
0.00326251
0.00320341
2.0717e-05
0.000145383
0.000329574
0.000496726
0.000646176
0.000779086
0.000896694
0.00100105
0.00109349
0.00117564
0.00124923
0.00131527
0.00137473
0.00142851
0.00147727
0.00152162
0.00156199
0.0015988
0.00163235
0.00166297
0.00169091
0.00171643
0.00173977
0.00176119
0.00178096
0.00179935
0.00181663
0.00183307
0.00184892
0.00186439
0.00187967
0.00189493
0.00191028
0.00192584
0.00194168
0.00195785
0.00197439
0.0019913
0.00200859
0.00202624
0.00204425
0.00206259
0.00208124
0.00210015
0.00211932
0.0021387
0.00215828
0.00217803
0.00219794
0.00221799
0.00223816
0.00225844
0.00227882
0.00229929
0.00231982
0.00234043
0.00236108
0.00238177
0.00240248
0.0024232
0.00244392
0.00246461
0.00248527
0.00250586
0.00252637
0.00254678
0.00256706
0.00258719
0.00260715
0.0026269
0.00264642
0.00266567
0.00268462
0.00270324
0.00272149
0.00273932
0.0027567
0.00277358
0.00278991
0.00280566
0.00282077
0.00283518
0.00284885
0.00286172
0.00287372
0.0028848
0.00289489
0.00290389
0.00291171
0.00291823
0.00292334
0.00292691
0.00292885
0.0029292
0.00292809
0.00292553
0.00292123
0.00291461
0.00290459
0.00289236
0.00287849
0.00286281
0.00284485
0.00282399
0.00279999
0.00277165
0.0027439
0.00271275
0.0026815
0.00265425
0.00263394
0.0026227
0.00261902
0.00261249
0.00257028
0.00245585
0.00229624
0.00213298
0.00202812
0.00202327
0.00212687
0.00231191
0.00254095
0.00277815
0.00301474
0.00324042
0.00344099
0.00361102
0.00375165
0.00386455
0.00395278
0.00401999
0.0040695
0.00410399
0.00412558
0.0041357
0.00413519
0.00412445
0.00410075
0.00407274
0.00403676
0.00399144
0.00394127
0.00388781
0.00383269
0.00377748
0.00372362
0.0036724
0.003625
0.00358251
0.00354584
0.00351577
0.00349291
0.00347778
0.00347092
0.00347246
0.00348228
0.00350003
0.00352515
0.00355649
0.00359145
0.00362932
0.00366764
0.00370368
0.00373517
0.00376046
0.00377856
0.00378946
0.00379215
0.00378653
0.00377313
0.00375389
0.00372987
0.00370197
0.0036709
0.00363737
0.00360175
0.0035631
0.00351847
0.00346418
2.07542e-05
0.000148102
0.0003365
0.000508538
0.000663583
0.000801817
0.000924327
0.0010331
0.00112951
0.00121537
0.00129219
0.0013611
0.00142309
0.0014791
0.00152984
0.00157593
0.00161789
0.00165615
0.00169108
0.00172302
0.00175227
0.00177916
0.00180396
0.00182694
0.00184836
0.00186844
0.00188743
0.00190555
0.00192299
0.00193996
0.00195661
0.00197309
0.00198952
0.002006
0.00202262
0.00203944
0.00205651
0.00207388
0.00209154
0.00210953
0.00212783
0.00214646
0.00216539
0.00218463
0.00220415
0.00222396
0.00224403
0.00226435
0.00228493
0.00230574
0.00232677
0.00234803
0.0023695
0.00239117
0.00241304
0.00243509
0.00245732
0.00247972
0.00250228
0.00252498
0.00254782
0.00257077
0.00259382
0.00261695
0.00264015
0.0026634
0.00268666
0.00270992
0.00273315
0.00275632
0.00277939
0.00280234
0.00282512
0.0028477
0.00287003
0.00289207
0.00291377
0.00293509
0.00295597
0.00297637
0.00299623
0.00301549
0.00303411
0.00305203
0.00306918
0.00308551
0.00310094
0.00311541
0.00312886
0.00314122
0.00315243
0.00316243
0.00317118
0.00317862
0.00318469
0.00318924
0.00319206
0.00319295
0.00319182
0.00318875
0.00318359
0.00317612
0.0031661
0.00315344
0.00313826
0.00312089
0.00310263
0.00308486
0.00306642
0.00305046
0.00303722
0.00302513
0.00300898
0.00297845
0.00292112
0.00283283
0.00272565
0.00262243
0.00256188
0.00257521
0.0026755
0.00282767
0.00300713
0.00320927
0.00341723
0.00360972
0.00377722
0.00392041
0.00403881
0.00413332
0.00420592
0.00425908
0.00429518
0.00431635
0.00432454
0.00432134
0.00430771
0.00428416
0.0042485
0.00420972
0.00416181
0.00410633
0.00404673
0.00398465
0.0039217
0.00385943
0.00379921
0.00374228
0.00368981
0.00364295
0.00360269
0.00356981
0.00354497
0.00352876
0.00352172
0.00352481
0.00353797
0.00356108
0.00359378
0.00363437
0.00368043
0.00373085
0.00378183
0.00383064
0.00387448
0.00391137
0.00394009
0.00396018
0.00397128
0.00397295
0.00396612
0.00395291
0.00393427
0.00391124
0.0038847
0.0038554
0.00382343
0.00378807
0.00374695
0.00369771
2.07308e-05
0.000150357
0.000341303
0.000515823
0.000675581
0.00081795
0.000944008
0.00105575
0.00115466
0.00124279
0.00132143
0.00139182
0.00145501
0.00151197
0.00156347
0.00161018
0.00165264
0.00169135
0.00172672
0.00175912
0.00178889
0.00181636
0.00184184
0.00186562
0.00188796
0.00190907
0.00192917
0.00194844
0.00196706
0.00198517
0.00200291
0.00202041
0.00203777
0.0020551
0.00207246
0.00208993
0.00210756
0.00212541
0.0021435
0.00216186
0.00218051
0.00219946
0.00221872
0.0022383
0.0022582
0.00227842
0.00229897
0.00231984
0.00234103
0.00236255
0.00238438
0.00240654
0.00242902
0.00245182
0.00247494
0.00249837
0.00252211
0.00254616
0.00257052
0.00259516
0.0026201
0.0026453
0.00267078
0.00269649
0.00272244
0.0027486
0.00277494
0.00280145
0.00282808
0.00285481
0.0028816
0.0029084
0.00293518
0.00296187
0.00298844
0.00301482
0.00304096
0.00306681
0.00309229
0.00311735
0.00314192
0.00316595
0.00318937
0.00321211
0.00323412
0.00325532
0.00327564
0.00329502
0.00331338
0.00333065
0.00334676
0.00336165
0.00337523
0.00338742
0.00339811
0.00340718
0.0034145
0.00341996
0.00342343
0.00342478
0.00342384
0.00342044
0.00341446
0.00340592
0.00339499
0.00338208
0.0033672
0.00335336
0.00333833
0.00332437
0.00331171
0.00329958
0.00328567
0.00326671
0.00324041
0.00320855
0.00317916
0.00316421
0.00316834
0.00321437
0.00330972
0.0034227
0.00355369
0.00370258
0.00385003
0.00398625
0.00411104
0.00422034
0.00431176
0.00438447
0.00443877
0.00447567
0.00449653
0.00450288
0.00449651
0.00447898
0.00445131
0.00441407
0.00436656
0.00431547
0.00425563
0.00418961
0.0041203
0.00404938
0.0039784
0.00390882
0.00384194
0.0037789
0.00372077
0.00366853
0.00362348
0.00358678
0.00355889
0.00354063
0.0035331
0.00353798
0.00355481
0.00358306
0.00362181
0.00367115
0.00373055
0.00379543
0.00386134
0.00392411
0.00398145
0.00403106
0.0040714
0.00410172
0.00412222
0.00413189
0.00413278
0.00412624
0.00411351
0.00409581
0.00407413
0.00404924
0.00402123
0.00398955
0.00395239
0.00390819
2.06567e-05
0.000151479
0.000343888
0.000519789
0.000683034
0.000828106
0.000956185
0.0010694
0.00116938
0.00125835
0.00133739
0.00140796
0.0014711
0.00152786
0.00157902
0.00162532
0.00166732
0.00170558
0.00174052
0.00177257
0.00180209
0.00182943
0.0018549
0.00187876
0.00190129
0.00192271
0.00194322
0.00196298
0.00198215
0.00200086
0.0020192
0.0020373
0.00205523
0.00207308
0.00209092
0.0021088
0.00212679
0.00214494
0.00216328
0.00218186
0.0022007
0.00221983
0.00223928
0.00225905
0.00227917
0.00229965
0.0023205
0.00234173
0.00236336
0.0023854
0.00240785
0.00243072
0.00245402
0.00247776
0.00250195
0.00252659
0.00255169
0.00257725
0.00260327
0.00262975
0.0026567
0.0026841
0.00271194
0.00274021
0.00276889
0.00279797
0.00282742
0.00285721
0.0028873
0.00291766
0.00294824
0.00297898
0.00300984
0.00304075
0.00307165
0.00310247
0.00313315
0.0031636
0.00319376
0.00322356
0.0032529
0.00328173
0.00330995
0.00333749
0.00336427
0.00339019
0.00341518
0.00343914
0.00346199
0.00348366
0.00350406
0.0035231
0.0035407
0.00355677
0.00357122
0.00358394
0.00359483
0.00360379
0.00361069
0.0036154
0.00361778
0.00361769
0.00361506
0.00360987
0.00360222
0.00359235
0.00358073
0.00356804
0.00355553