/*--------------------------------*- C++ -*----------------------------------*\
| =========                 |                                                 |
| \\      /  F ield         | OpenFOAM: The Open Source CFD Toolbox           |
|  \\    /   O peration     | Version:  v1906                                 |
|   \\  /    A nd           | Web:      www.OpenFOAM.com                      |
|    \\/     M anipulation  |                                                 |
\*---------------------------------------------------------------------------*/
FoamFile
{
    version     2.0;
    format      ascii;
    class       volScalarField;
    location    "1700";
    object      p;
}
// * * * * * * * * * * * * * * * * * * * * * * * * * * * * * * * * * * * * * //

dimensions      [0 2 -2 0 0 0 0];


internalField   nonuniform List<scalar> 
12225
(
-2.85159
-4.1155
-4.12106
-4.15904
-4.31625
-4.44934
-4.55381
-4.65248
-4.74688
-4.83566
-4.91975
-5.00289
-5.08863
-5.17996
-5.27737
-5.38794
-5.52163
-5.6996
-4.78636
-5.2959
-5.40134
-5.39329
-5.45309
-5.50476
-5.54744
-5.5976
-5.65325
-5.71053
-5.76934
-5.83074
-5.89789
-5.97106
-6.05237
-6.14461
-6.24913
-6.40073
-3.97729
-4.82265
-4.9155
-4.90078
-4.95437
-5.00726
-5.05337
-5.10425
-5.15813
-5.21262
-5.26823
-5.32578
-5.38793
-5.45451
-5.52828
-5.60703
-5.69332
-5.7661
-4.8372
-5.29368
-5.48355
-5.57265
-5.67526
-5.75192
-5.80896
-5.86304
-5.91697
-5.97042
-6.02456
-6.08083
-6.14097
-6.20572
-6.27559
-6.35126
-6.43053
-6.52485
-4.46829
-4.96338
-5.14998
-5.2146
-5.28482
-5.33935
-5.38419
-5.43003
-5.4769
-5.52408
-5.57209
-5.6218
-5.67405
-5.72981
-5.78719
-5.8481
-5.89704
-5.93799
-5.00127
-5.30177
-5.48822
-5.60278
-5.71836
-5.8115
-5.88756
-5.95654
-6.02117
-6.08282
-6.14302
-6.20329
-6.26464
-6.32798
-6.39225
-6.45878
-6.52328
-6.59544
-4.80169
-5.06411
-5.2502
-5.34989
-5.43912
-5.50718
-5.56305
-5.61498
-5.6648
-5.7132
-5.76098
-5.80895
-5.85724
-5.9064
-5.95387
-6.00032
-6.03233
-6.0521
-5.15903
-5.34792
-5.51033
-5.62465
-5.73816
-5.83408
-5.91766
-5.994
-6.06503
-6.13216
-6.19665
-6.25963
-6.32164
-6.38323
-6.44353
-6.50292
-6.56082
-6.62004
-5.04542
-5.17358
-5.32822
-5.43045
-5.5249
-5.60064
-5.66531
-5.72376
-5.77804
-5.82939
-5.87862
-5.92637
-5.97255
-6.01725
-6.05821
-6.09542
-6.11952
-6.13344
-5.29404
-5.4123
-5.54562
-5.649
-5.75432
-5.84698
-5.93136
-6.00948
-6.08253
-6.15152
-6.21728
-6.28048
-6.34142
-6.40026
-6.45677
-6.51059
-6.56361
-6.61331
-5.22802
-5.28768
-5.40504
-5.49554
-5.58538
-5.66209
-5.73066
-5.79297
-5.85047
-5.90418
-5.95472
-6.00251
-6.04738
-6.08929
-6.12662
-6.15941
-6.18211
-6.19848
-5.39008
-5.46475
-5.57103
-5.65996
-5.75362
-5.83889
-5.91893
-5.9939
-6.06443
-6.13108
-6.19426
-6.25429
-6.31129
-6.36517
-6.41601
-6.46302
-6.50861
-6.54814
-5.35493
-5.38551
-5.47395
-5.55105
-5.63247
-5.70622
-5.77477
-5.83818
-5.89711
-5.95211
-6.00351
-6.05153
-6.09605
-6.13697
-6.17356
-6.20577
-6.23196
-6.25395
-5.4901
-5.54172
-5.62501
-5.70093
-5.78324
-5.86168
-5.93731
-6.00935
-6.07772
-6.14249
-6.20372
-6.26145
-6.3157
-6.36628
-6.41327
-6.45581
-6.49475
-6.52661
-5.46412
-5.47989
-5.54151
-5.6039
-5.67335
-5.74095
-5.80625
-5.86829
-5.92681
-5.98182
-6.03333
-6.08138
-6.12602
-6.16718
-6.20516
-6.23974
-6.27267
-6.30258
-5.57033
-5.60208
-5.6621
-5.72273
-5.78971
-5.85667
-5.92248
-5.98605
-6.04664
-6.10388
-6.15748
-6.20726
-6.25294
-6.29439
-6.3309
-6.36273
-6.38749
-6.40785
-5.57017
-5.58766
-5.63535
-5.68978
-5.75199
-5.81678
-5.88194
-5.94609
-6.0083
-6.06809
-6.12526
-6.1796
-6.23142
-6.28041
-6.32784
-6.37221
-6.41806
-6.4582
-5.57254
-5.58433
-5.62097
-5.66322
-5.71046
-5.75905
-5.80676
-5.85232
-5.89479
-5.93363
-5.96838
-5.99893
-6.02475
-6.04646
-6.06259
-6.07581
-6.08092
-6.08815
-5.67355
-5.70809
-5.76993
-5.838
-5.91429
-5.99494
-6.07726
-6.15992
-6.24183
-6.32225
-6.40085
-6.47714
-6.55124
-6.62225
-6.69108
-6.75505
-6.81792
-6.87093
-5.41397
-5.40897
-5.435
-5.4666
-5.50054
-5.53346
-5.56323
-5.58921
-5.611
-5.62857
-5.64188
-5.65125
-5.65661
-5.659
-5.65773
-5.65617
-5.65069
-5.65244
-5.56915
-5.62772
-5.71135
-5.79382
-5.88236
-5.97177
-6.05962
-6.14519
-6.22792
-6.30763
-6.3845
-6.45871
-6.53092
-6.60097
-6.67038
-6.73682
-6.80498
-6.86342
-5.24142
-5.24588
-5.30175
-5.34992
-5.39464
-5.43257
-5.46324
-5.48805
-5.50785
-5.52318
-5.53436
-5.54164
-5.54469
-5.54381
-5.53739
-5.52761
-5.50845
-5.49283
-5.41968
-5.51531
-5.63434
-5.73839
-5.84473
-5.94606
-6.03978
-6.12684
-6.20784
-6.28339
-6.35441
-6.42179
-6.48686
-6.5505
-6.61551
-6.68173
-6.75755
-6.83279
-4.99354
-5.06127
-5.17481
-5.24291
-5.2966
-5.33698
-5.36632
-5.38955
-5.40886
-5.42494
-5.43815
-5.44864
-5.456
-5.45987
-5.45784
-5.44949
-5.42431
-5.38929
-5.23302
-5.39766
-5.56461
-5.68962
-5.81025
-5.91691
-6.00637
-6.0841
-6.15329
-6.21543
-6.27208
-6.3246
-6.37429
-6.42219
-6.47113
-6.52291
-6.59034
-6.6732
-4.62457
-4.88484
-5.05184
-5.11041
-5.15398
-5.18746
-5.2108
-5.23158
-5.25198
-5.2712
-5.2889
-5.30517
-5.31974
-5.33235
-5.3414
-5.34559
-5.33254
-5.29654
-5.0305
-5.32205
-5.53961
-5.66285
-5.77618
-5.86495
-5.92715
-5.97757
-6.02232
-6.06245
-6.09922
-6.13371
-6.16654
-6.19801
-6.22937
-6.26174
-6.30673
-6.37529
-4.05563
-4.71754
-4.84153
-4.82544
-4.8511
-4.88644
-4.91354
-4.94148
-4.97156
-5.00082
-5.02852
-5.05496
-5.08003
-5.10359
-5.12519
-5.14471
-5.15408
-5.14164
-4.92993
-5.3071
-5.4873
-5.49457
-5.53552
-5.56991
-5.59138
-5.61593
-5.64518
-5.67538
-5.70549
-5.73549
-5.76505
-5.79383
-5.82171
-5.84905
-5.88135
-5.93087
-2.8759
-4.05574
-4.08047
-4.08373
-4.20626
-4.32153
-4.408
-4.48561
-4.55876
-4.6253
-4.68562
-4.74102
-4.79212
-4.83912
-4.88219
-4.92104
-4.95428
-4.97999
-5.80836
-5.83065
-5.84903
-5.87254
-5.89726
-5.92373
-5.94952
-5.97551
-6.00049
-6.02462
-6.04748
-6.06913
-6.08924
-6.10739
-6.12241
-6.13311
-6.13909
-6.14113
-6.1395
-6.13424
-6.12612
-6.11643
-6.10629
-6.09674
-6.08938
-6.08548
-6.08468
-6.08556
-6.08675
-6.08743
-6.08736
-6.08712
-6.08857
-6.09301
-6.10026
-6.11024
-6.12376
-6.14108
-6.16134
-6.18366
-6.20777
-6.2335
-6.2606
-6.28877
-6.31768
-6.34702
-6.3765
-6.4059
-6.43506
-6.46391
-6.49228
-6.51991
-6.54668
-6.57257
-6.59759
-6.62174
-6.64504
-6.66749
-6.6891
-6.70986
-6.72977
-6.74881
-6.76692
-6.7841
-6.80026
-6.81535
-6.82926
-6.8419
-6.85312
-6.86279
-6.87069
-6.87666
-6.88041
-6.8817
-6.88017
-6.87547
-6.86715
-6.85479
-6.8378
-6.81557
-6.78743
-6.75305
-6.71193
-6.66258
-6.60218
-6.52961
-6.44504
-6.34769
-6.23658
-6.11058
-5.96859
-5.80959
-5.63269
-5.43728
-5.22317
-4.99066
-4.74053
-4.47431
-4.19519
-3.90843
-3.6188
-3.33242
-3.05928
-2.80977
-2.59757
-2.43938
-2.33173
-2.26619
-2.25358
-2.29969
-2.39629
-2.53029
-2.68651
-2.84667
-2.98743
-3.07464
-3.08356
-3.02031
-2.90341
-2.75052
-2.61079
-2.5508
-2.55275
-2.54939
-2.47412
-2.39855
-2.59808
-3.27917
-4.22669
-5.25379
-6.20459
-6.965
-7.47509
-7.71142
-7.66936
-7.34634
-6.78354
-6.03972
-5.16001
-4.18818
-3.15491
-2.08083
-0.989116
0.10209
1.18556
2.25562
3.30385
4.32829
5.33028
6.31002
7.26868
8.20646
9.1221
10.0116
10.8705
11.6961
12.4789
13.2049
13.8821
14.5162
15.0924
15.5965
16.0259
16.381
16.6646
16.8831
17.0431
17.1521
17.2191
17.2525
17.2609
17.2515
17.2317
17.2075
17.187
17.1754
17.1905
17.2428
17.4199
17.6554
-5.8406
-5.89155
-5.91164
-5.94744
-5.9705
-5.99874
-6.02158
-6.0469
-6.06886
-6.09096
-6.1112
-6.13115
-6.14971
-6.16739
-6.18305
-6.19641
-6.20514
-6.20657
-6.20101
-6.19016
-6.17577
-6.1599
-6.14427
-6.13005
-6.11832
-6.11015
-6.10575
-6.10462
-6.10597
-6.10882
-6.11169
-6.11403
-6.11815
-6.12568
-6.13653
-6.1508
-6.16877
-6.19033
-6.21496
-6.24219
-6.27159
-6.30275
-6.33525
-6.36867
-6.4026
-6.43673
-6.47077
-6.50451
-6.53779
-6.57051
-6.60254
-6.6338
-6.66426
-6.69394
-6.72287
-6.75108
-6.7786
-6.80544
-6.83164
-6.8572
-6.88212
-6.90639
-6.92998
-6.95287
-6.97501
-6.99632
-7.01674
-7.03615
-7.05444
-7.07147
-7.08704
-7.10097
-7.113
-7.12286
-7.1302
-7.13463
-7.1357
-7.13289
-7.12555
-7.11298
-7.09435
-7.06859
-7.03427
-6.99097
-6.93982
-6.881
-6.81253
-6.73288
-6.64069
-6.53472
-6.41377
-6.27678
-6.12279
-5.95107
-5.76121
-5.5532
-5.32749
-5.08517
-4.8285
-4.56085
-4.28562
-4.00941
-3.74137
-3.49173
-3.27052
-3.08946
-2.96677
-2.9121
-2.90826
-2.94692
-3.02113
-3.1199
-3.23169
-3.34422
-3.4387
-3.50542
-3.52931
-3.46812
-3.28379
-3.01998
-2.78618
-2.6753
-2.65378
-2.65022
-2.63414
-2.65186
-3.05278
-3.97054
-5.11311
-6.268
-7.27214
-8.03774
-8.52312
-8.71069
-8.60684
-8.27368
-7.75043
-7.04794
-6.20092
-5.24908
-4.22655
-3.15749
-2.06265
-0.961646
0.135236
1.21508
2.27091
3.30345
4.31161
5.29607
6.25768
7.19702
8.11285
9.00238
9.86496
10.6956
11.4869
12.2323
12.9152
13.5247
14.0689
14.5505
14.9665
15.3177
15.6065
15.8375
16.0176
16.1537
16.2532
16.3236
16.3721
16.4052
16.4292
16.4489
16.472
16.5016
16.5557
16.6229
16.7744
16.9622
-5.83392
-5.90258
-5.91458
-5.95458
-5.96598
-5.9985
-6.01419
-6.03998
-6.05698
-6.07811
-6.09489
-6.11351
-6.1298
-6.1464
-6.16091
-6.17378
-6.18306
-6.18837
-6.18862
-6.18473
-6.17713
-6.16736
-6.15658
-6.14584
-6.1362
-6.12928
-6.12578
-6.1252
-6.12688
-6.13035
-6.13527
-6.14143
-6.14914
-6.15886
-6.17095
-6.18556
-6.20282
-6.22263
-6.24472
-6.26874
-6.29429
-6.32103
-6.3486
-6.37671
-6.40511
-6.43358
-6.46198
-6.49018
-6.5181
-6.54567
-6.57282
-6.59951
-6.62569
-6.65134
-6.67645
-6.70102
-6.72503
-6.74849
-6.77138
-6.79369
-6.81541
-6.8365
-6.85695
-6.87671
-6.89573
-6.91395
-6.93129
-6.94767
-6.96297
-6.97706
-6.9898
-7.001
-7.01046
-7.01793
-7.02314
-7.02576
-7.02542
-7.02171
-7.01415
-7.00223
-6.98542
-6.96313
-6.9344
-6.89818
-6.85357
-6.79928
-6.73437
-6.65814
-6.56958
-6.46759
-6.3511
-6.21909
-6.07067
-5.90514
-5.72212
-5.52165
-5.3043
-5.07129
-4.82514
-4.5696
-4.30861
-4.04754
-3.79694
-3.56543
-3.36492
-3.20724
-3.0942
-3.02669
-3.0052
-3.02672
-3.08368
-3.16468
-3.25819
-3.35277
-3.42978
-3.46662
-3.46135
-3.4211
-3.30453
-3.11356
-2.93132
-2.80856
-2.77462
-2.81577
-2.91033
-3.17168
-3.719
-4.54241
-5.47274
-6.38797
-7.20635
-7.86598
-8.31726
-8.52283
-8.46589
-8.15986
-7.63399
-6.92716
-6.0772
-5.12344
-4.09751
-3.02855
-1.93915
-0.845147
0.242145
1.3121
2.35928
3.38234
4.38093
5.35546
6.30659
7.23457
8.13843
9.01508
9.86185
10.6748
11.4448
12.1667
12.8328
13.4459
14.0029
14.4994
14.9313
15.2981
15.6016
15.8477
16.0416
16.1902
16.3012
16.3821
16.4398
16.4808
16.5114
16.5364
16.5633
16.5943
16.646
16.708
16.8371
16.9453
-5.81393
-5.90575
-5.92163
-5.9695
-5.98233
-6.01539
-6.03341
-6.06087
-6.07973
-6.10143
-6.11921
-6.13844
-6.15587
-6.17381
-6.19062
-6.20613
-6.21778
-6.22459
-6.22628
-6.22355
-6.21726
-6.20879
-6.19936
-6.1902
-6.18231
-6.17653
-6.1733
-6.17275
-6.17474
-6.17903
-6.18539
-6.19376
-6.20432
-6.21721
-6.23242
-6.24992
-6.26965
-6.29148
-6.3152
-6.34058
-6.36738
-6.39537
-6.42432
-6.45401
-6.48424
-6.51483
-6.54561
-6.57644
-6.60722
-6.63786
-6.66826
-6.69838
-6.72817
-6.75761
-6.78669
-6.81539
-6.84371
-6.87164
-6.89919
-6.92635
-6.9531
-6.97942
-7.00528
-7.03065
-7.05547
-7.07968
-7.1032
-7.12594
-7.14778
-7.16858
-7.18816
-7.20634
-7.22287
-7.23748
-7.24985
-7.25961
-7.26632
-7.26951
-7.26862
-7.26301
-7.25201
-7.2349
-7.21092
-7.17942
-7.13988
-7.09168
-7.03366
-6.96463
-6.88334
-6.78861
-6.67924
-6.55415
-6.41239
-6.25319
-6.07608
-5.88095
-5.66819
-5.43885
-5.195
-4.93995
-4.67791
-4.41485
-4.15988
-3.92206
-3.71225
-3.54149
-3.41919
-3.34663
-3.32064
-3.33612
-3.38399
-3.45194
-3.53091
-3.61526
-3.68531
-3.72969
-3.74648
-3.71311
-3.59267
-3.4015
-3.2104
-3.08982
-3.06428
-3.14005
-3.38771
-3.84959
-4.517
-5.36874
-6.32047
-7.2725
-8.1264
-8.79882
-9.23251
-9.3973
-9.29111
-8.94049
-8.38142
-7.64429
-6.76838
-5.79224
-4.74495
-3.65531
-2.54938
-1.44129
-0.343296
0.735263
1.78985
2.81938
3.8236
4.80326
5.75922
6.69183
7.60032
8.48222
9.33463
10.1529
10.9289
11.6572
12.3318
12.9474
13.5042
13.9981
14.4278
14.7935
15.0975
15.3454
15.543
15.6974
15.816
15.906
15.9742
16.0267
16.0694
16.1064
16.1449
16.1856
16.2438
16.3044
16.4155
16.4976
-5.77115
-5.8846
-5.90169
-5.95521
-5.96509
-5.99885
-6.01339
-6.03905
-6.05584
-6.07715
-6.09368
-6.11153
-6.12694
-6.14277
-6.15698
-6.17069
-6.1825
-6.19232
-6.19938
-6.20384
-6.20578
-6.20585
-6.2047
-6.20314
-6.20188
-6.20165
-6.2029
-6.20587
-6.21063
-6.21714
-6.22532
-6.23509
-6.24648
-6.25951
-6.2742
-6.29055
-6.30853
-6.32808
-6.34909
-6.37144
-6.39494
-6.41942
-6.44471
-6.47062
-6.49699
-6.5237
-6.5506
-6.5776
-6.6046
-6.63155
-6.65838
-6.68503
-6.71147
-6.73765
-6.76356
-6.78917
-6.81446
-6.83942
-6.86402
-6.88825
-6.91208
-6.93548
-6.95843
-6.98088
-7.0028
-7.02412
-7.04479
-7.06471
-7.08381
-7.10196
-7.11904
-7.13489
-7.14932
-7.16213
-7.17305
-7.18179
-7.18801
-7.19133
-7.19129
-7.18739
-7.17905
-7.16562
-7.1463
-7.12039
-7.08725
-7.04555
-6.99429
-6.93238
-6.85877
-6.77226
-6.67175
-6.5561
-6.42432
-6.27559
-6.10935
-5.92542
-5.72412
-5.50644
-5.2743
-5.03068
-4.77953
-4.52661
-4.27999
-4.04891
-3.84394
-3.67466
-3.54912
-3.46987
-3.43497
-3.43983
-3.47513
-3.52772
-3.58832
-3.65207
-3.70336
-3.72317
-3.73445
-3.74088
-3.70793
-3.6029
-3.47317
-3.39451
-3.41
-3.59275
-3.96639
-4.51014
-5.20551
-6.02699
-6.90259
-7.75295
-8.50161
-9.08249
-9.44524
-9.55795
-9.41157
-9.0314
-8.43911
-7.6707
-6.76726
-5.76847
-4.70493
-3.60411
-2.49255
-1.38316
-0.287426
0.786903
1.83605
2.8591
3.85627
4.82865
5.77731
6.70271
7.60417
8.47933
9.32483
10.1357
10.9051
11.6298
12.3044
12.9263
13.4912
13.9941
14.433
14.8077
15.1209
15.3776
15.5837
15.7462
15.8725
15.9696
16.0444
16.1023
16.1496
16.1899
16.2303
16.2704
16.3246
16.3756
16.4682
16.4972
-5.74502
-5.87209
-5.89439
-5.9547
-5.96515
-6.00146
-6.01575
-6.04256
-6.05934
-6.08145
-6.09884
-6.11813
-6.13472
-6.15144
-6.16638
-6.18049
-6.19251
-6.20274
-6.21076
-6.21694
-6.2214
-6.22469
-6.22726
-6.22967
-6.2324
-6.2359
-6.24047
-6.24632
-6.25359
-6.26232
-6.27255
-6.28429
-6.29758
-6.31245
-6.3289
-6.34693
-6.36651
-6.38758
-6.41003
-6.43376
-6.45864
-6.48452
-6.51127
-6.53875
-6.56682
-6.59536
-6.62425
-6.6534
-6.68273
-6.71215
-6.74162
-6.77108
-6.80048
-6.8298
-6.85901
-6.88809
-6.91701
-6.94578
-6.97436
-7.00274
-7.0309
-7.05881
-7.08644
-7.11374
-7.14068
-7.16719
-7.19319
-7.21861
-7.24333
-7.26722
-7.29014
-7.31192
-7.33233
-7.35113
-7.36804
-7.38273
-7.39482
-7.40388
-7.40941
-7.41089
-7.4077
-7.3992
-7.38466
-7.36327
-7.33406
-7.29619
-7.24884
-7.19091
-7.12124
-7.0387
-6.94208
-6.83026
-6.70218
-6.55699
-6.39411
-6.21327
-6.01469
-5.7992
-5.56849
-5.32535
-5.07352
-4.8185
-4.56768
-4.329
-4.11363
-3.93212
-3.79288
-3.70118
-3.65649
-3.65266
-3.67863
-3.72073
-3.7691
-3.82051
-3.87048
-3.90018
-3.90709
-3.9067
-3.87438
-3.79515
-3.70032
-3.66283
-3.7709
-4.07572
-4.56335
-5.20149
-5.9745
-6.85191
-7.76952
-8.64927
-9.4121
-9.98834
-10.3263
-10.396
-10.1947
-9.74529
-9.0866
-8.25829
-7.30376
-6.26127
-5.16258
-4.03457
-2.90189
-1.77696
-0.669984
0.412769
1.46865
2.49738
3.49973
4.47718
5.43112
6.36225
7.27011
8.15208
9.00438
9.82261
10.6001
11.3323
12.0126
12.6375
13.2032
13.7057
14.1434
14.5168
14.8286
15.0842
15.2897
15.4522
15.5794
15.6781
15.755
15.8157
15.8657
15.9085
15.9504
15.9901
16.0399
16.0824
16.152
16.1721
-5.71887
-5.8555
-5.87895
-5.94268
-5.95262
-5.98981
-6.00291
-6.02911
-6.04414
-6.06514
-6.08076
-6.09893
-6.11455
-6.13118
-6.14621
-6.16121
-6.17501
-6.18813
-6.19987
-6.21054
-6.21999
-6.22855
-6.23641
-6.24394
-6.2514
-6.25912
-6.2673
-6.27618
-6.2859
-6.29658
-6.3083
-6.32115
-6.33516
-6.35037
-6.36679
-6.38442
-6.40322
-6.42317
-6.4442
-6.46623
-6.48916
-6.51292
-6.53738
-6.56245
-6.58804
-6.61405
-6.64041
-6.66704
-6.69388
-6.72087
-6.74796
-6.7751
-6.80227
-6.82942
-6.85652
-6.88356
-6.9105
-6.93732
-6.96399
-6.9905
-7.01682
-7.04293
-7.06878
-7.09435
-7.11959
-7.14445
-7.16889
-7.19282
-7.21618
-7.23885
-7.26074
-7.2817
-7.30156
-7.32014
-7.33719
-7.35247
-7.36564
-7.37634
-7.38416
-7.38863
-7.38918
-7.38524
-7.37614
-7.36116
-7.33964
-7.31075
-7.27303
-7.22548
-7.1669
-7.09603
-7.01165
-6.91253
-6.79755
-6.66574
-6.51639
-6.34908
-6.16387
-5.96136
-5.74295
-5.51099
-5.26877
-5.0211
-4.77492
-4.53647
-4.31526
-4.12314
-3.96813
-3.85708
-3.79241
-3.77014
-3.78084
-3.80999
-3.84462
-3.87643
-3.8953
-3.90938
-3.92666
-3.93858
-3.91474
-3.85001
-3.79917
-3.85567
-4.08911
-4.51731
-5.11308
-5.8435
-6.68349
-7.5905
-8.50226
-9.34734
-10.0559
-10.5663
-10.8326
-10.8288
-10.5592
-10.0512
-9.33615
-8.45626
-7.45787
-6.37927
-5.25333
-4.10734
-2.96262
-1.8315
-0.722558
0.359233
1.41223
2.43691
3.43463
4.40737
5.35701
6.28441
7.18889
8.06817
8.91926
9.73751
10.5165
11.2514
11.9365
12.5676
13.1402
13.6497
14.0944
14.4747
14.7935
15.0561
15.2686
15.4383
15.5726
15.6785
15.7623
15.8295
15.8855
15.9332
15.9787
16.02
16.0688
16.1063
16.1655
16.1629
-5.71673
-5.86045
-5.88273
-5.95062
-5.95952
-5.99946
-6.01203
-6.03991
-6.05472
-6.07679
-6.09252
-6.11155
-6.12732
-6.14437
-6.1597
-6.17535
-6.1896
-6.2034
-6.21612
-6.22822
-6.23936
-6.24994
-6.26002
-6.26991
-6.27979
-6.2899
-6.30042
-6.31153
-6.32336
-6.33603
-6.34965
-6.36428
-6.37998
-6.39678
-6.41468
-6.4337
-6.4538
-6.47497
-6.49717
-6.52033
-6.5444
-6.5693
-6.59495
-6.62127
-6.64819
-6.67564
-6.70354
-6.73184
-6.76047
-6.78939
-6.81855
-6.8479
-6.87741
-6.90706
-6.93681
-6.96663
-6.99652
-7.02643
-7.05636
-7.08628
-7.11616
-7.14598
-7.1757
-7.20529
-7.2347
-7.26388
-7.29277
-7.3213
-7.34937
-7.37689
-7.40372
-7.42972
-7.4547
-7.47846
-7.50075
-7.52128
-7.53971
-7.55568
-7.56873
-7.57838
-7.58409
-7.58521
-7.58105
-7.57083
-7.55363
-7.52839
-7.49438
-7.45047
-7.39561
-7.32868
-7.24848
-7.15381
-7.04353
-6.91662
-6.77229
-6.61002
-6.42974
-6.23188
-6.01754
-5.7887
-5.54819
-5.29996
-5.05004
-4.80454
-4.5694
-4.35639
-4.17535
-4.03325
-3.93543
-3.88222
-3.8681
-3.8806
-3.90565
-3.93075
-3.9391
-3.92052
-3.8848
-3.83253
-3.76703
-3.72364
-3.76338
-3.95462
-4.33784
-4.90378
-5.62378
-6.46946
-7.40845
-8.39314
-9.3618
-10.2434
-10.9667
-11.4689
-11.7024
-11.6418
-11.2945
-10.6981
-9.89783
-8.94255
-7.88095
-6.75147
-5.58615
-4.41211
-3.24678
-2.10157
-0.983136
0.105094
1.1627
2.19109
3.19229
4.16858
5.12201
6.05349
6.96308
7.84847
8.7058
9.53047
10.316
11.0566
11.7462
12.3806
12.9553
13.4659
13.9108
14.2905
14.6083
14.8696
15.0809
15.2494
15.3827
15.4879
15.5713
15.638
15.6933
15.7396
15.7825
15.8193
15.8601
15.8868
15.927
15.9121
-5.71957
-5.8658
-5.88367
-5.95319
-5.95985
-6.00114
-6.01222
-6.0409
-6.0547
-6.07722
-6.09237
-6.11183
-6.12763
-6.14551
-6.16142
-6.17813
-6.19374
-6.20955
-6.22426
-6.23856
-6.2521
-6.26518
-6.27774
-6.29011
-6.30236
-6.31473
-6.32731
-6.34027
-6.35373
-6.3678
-6.38256
-6.39811
-6.41446
-6.43167
-6.44974
-6.46867
-6.48846
-6.5091
-6.53058
-6.55285
-6.57588
-6.59962
-6.62402
-6.64902
-6.67458
-6.70065
-6.72717
-6.7541
-6.7814
-6.80903
-6.83695
-6.86513
-6.89354
-6.92214
-6.95091
-6.97982
-7.00886
-7.03798
-7.06718
-7.09642
-7.12568
-7.15494
-7.18415
-7.2133
-7.24233
-7.27122
-7.29991
-7.32834
-7.35646
-7.38417
-7.41138
-7.43797
-7.4638
-7.4887
-7.51247
-7.53486
-7.55559
-7.57433
-7.59069
-7.60424
-7.61447
-7.62084
-7.62273
-7.61943
-7.61018
-7.59421
-7.57036
-7.53755
-7.49448
-7.43981
-7.37226
-7.29047
-7.1932
-7.07929
-6.94778
-6.79798
-6.62958
-6.44274
-6.23823
-6.01752
-5.78292
-5.53755
-5.28578
-5.03351
-4.7852
-4.5476
-4.33192
-4.14586
-3.99499
-3.88311
-3.8093
-3.7657
-3.7392
-3.71563
-3.68623
-3.63731
-3.5687
-3.48762
-3.43132
-3.46042
-3.63032
-3.97868
-4.51527
-5.22318
-6.07501
-7.03859
-8.07374
-9.12735
-10.1356
-11.0273
-11.7327
-12.1919
-12.3603
-12.2183
-11.7932
-11.1174
-10.2417
-9.21995
-8.10313
-6.93086
-5.73418
-4.53946
-3.36103
-2.20877
-1.08753
0.000774182
1.05683
2.0829
3.08139
4.05507
5.007
5.93827
6.84823
7.73498
8.59487
9.42284
10.2124
10.9576
11.6522
12.2917
12.8715
13.3873
13.8372
14.2219
14.5447
14.811
15.0274
15.2014
15.3406
15.4517
15.5411
15.6137
15.6745
15.7257
15.7724
15.8116
15.853
15.8783
15.9132
15.8928
-5.73798
-5.88319
-5.89846
-5.96961
-5.97486
-6.01812
-6.02829
-6.05853
-6.07185
-6.09549
-6.11042
-6.13064
-6.14636
-6.16474
-6.18074
-6.19798
-6.21377
-6.22994
-6.24526
-6.26067
-6.27519
-6.28938
-6.30321
-6.31693
-6.33059
-6.34442
-6.35849
-6.37295
-6.38786
-6.40334
-6.41946
-6.43629
-6.45386
-6.47223
-6.49138
-6.51134
-6.53211
-6.55369
-6.57608
-6.59926
-6.62321
-6.64789
-6.67326
-6.6993
-6.72596
-6.75321
-6.781
-6.80931
-6.83808
-6.86729
-6.89691
-6.92691
-6.95725
-6.98791
-7.01887
-7.0501
-7.08157
-7.11326
-7.14515
-7.17721
-7.20942
-7.24176
-7.27418
-7.30666
-7.33916
-7.37164
-7.40406
-7.43634
-7.46843
-7.50024
-7.53168
-7.56261
-7.59289
-7.62234
-7.65076
-7.6779
-7.70344
-7.72707
-7.74838
-7.76694
-7.78222
-7.79367
-7.80063
-7.80236
-7.79806
-7.7867
-7.76728
-7.73879
-7.70017
-7.65024
-7.58771
-7.51126
-7.41956
-7.31137
-7.18556
-7.04127
-6.87794
-6.69542
-6.4941
-6.27498
-6.03975
-5.79087
-5.53144
-5.26558
-4.99825
-4.73255
-4.47541
-4.23636
-4.01993
-3.83088
-3.67223
-3.54206
-3.43321
-3.33659
-3.24399
-3.14624
-3.05992
-3.00427
-3.01819
-3.16102
-3.47361
-3.97101
-4.65087
-5.49725
-6.48275
-7.57145
-8.71828
-9.86622
-10.9482
-11.8891
-12.6157
-13.0667
-13.1946
-12.9811
-12.4599
-11.683
-10.713
-9.61088
-8.42942
-7.20835
-5.97667
-4.75784
-3.56359
-2.40153
-1.27456
-0.183115
0.874694
1.90227
2.90292
3.87928
4.8339
5.76833
6.68237
7.57384
8.4389
9.27198
10.067
10.817
11.5158
12.1596
12.7421
13.2595
13.7097
14.0942
14.4165
14.682
14.8974
15.0703
15.2084
15.3184
15.4068
15.478
15.537
15.5856
15.6283
15.662
15.695
15.7099
15.7305
15.6984
-5.76007
-5.90037
-5.91206
-5.98297
-5.98639
-6.03036
-6.03913
-6.07024
-6.08268
-6.1071
-6.12161
-6.14253
-6.15819
-6.17725
-6.19348
-6.21146
-6.22785
-6.24505
-6.26116
-6.27765
-6.29351
-6.30914
-6.32421
-6.33934
-6.35439
-6.36959
-6.38492
-6.40057
-6.41653
-6.43296
-6.44987
-6.46735
-6.48544
-6.50417
-6.52357
-6.54363
-6.56438
-6.58583
-6.60799
-6.63085
-6.65441
-6.67864
-6.70354
-6.72908
-6.75523
-6.78199
-6.80931
-6.83718
-6.86557
-6.89445
-6.9238
-6.95359
-6.98379
-7.01439
-7.04536
-7.07667
-7.10829
-7.1402
-7.17238
-7.2048
-7.23743
-7.27025
-7.30322
-7.33632
-7.36952
-7.40277
-7.43604
-7.46929
-7.50246
-7.5355
-7.56831
-7.60081
-7.63288
-7.66437
-7.6951
-7.72487
-7.75341
-7.78041
-7.80554
-7.82837
-7.84846
-7.86528
-7.87822
-7.88663
-7.88972
-7.88659
-7.87638
-7.85795
-7.82995
-7.79097
-7.73956
-7.67422
-7.59345
-7.49579
-7.37994
-7.24473
-7.08932
-6.91321
-6.71636
-6.49931
-6.26314
-6.00962
-5.74115
-5.46038
-5.17093
-4.87645
-4.57877
-4.28498
-4.00054
-3.72861
-3.47391
-3.23924
-3.02467
-2.83376
-2.67464
-2.55159
-2.4864
-2.50327
-2.62669
-2.89597
-3.34367
-3.97246
-4.77822
-5.7488
-6.85569
-8.05959
-9.31017
-10.5445
-11.6895
-12.665
-13.3947
-13.8171
-13.8839
-13.5882
-12.9771
-12.109
-11.0548
-9.88165
-8.64457
-7.3829
-6.12426
-4.88831
-3.68487
-2.51872
-1.39069
-0.299705
0.75691
1.78271
2.78152
3.75691
4.71162
5.64713
6.56308
7.45756
8.32666
9.16389
9.96304
10.7175
11.4202
12.0682
12.6558
13.1779
13.6327
14.0204
14.3457
14.6144
14.8333
15.01
15.1523
15.2669
15.3599
15.4358
15.4992
15.5517
15.5978
15.6339
15.668
15.6834
15.7021
15.67
-5.78644
-5.92144
-5.93064
-6.00111
-6.00353
-6.04867
-6.05663
-6.08893
-6.10084
-6.12625
-6.14048
-6.16213
-6.17768
-6.19727
-6.21352
-6.23194
-6.24847
-6.26612
-6.28263
-6.29965
-6.31587
-6.3324
-6.34865
-6.36484
-6.38078
-6.39699
-6.41338
-6.43009
-6.44708
-6.46451
-6.48237
-6.50077
-6.51972
-6.53929
-6.55948
-6.58033
-6.60185
-6.62405
-6.64697
-6.6706
-6.69496
-6.72004
-6.74583
-6.77231
-6.79948
-6.82733
-6.85582
-6.88496
-6.9147
-6.94504
-6.97594
-7.00739
-7.03936
-7.07183
-7.10476
-7.13814
-7.17194
-7.20613
-7.24068
-7.27558
-7.31079
-7.34629
-7.38204
-7.41803
-7.45421
-7.49056
-7.52703
-7.56359
-7.60019
-7.63677
-7.67325
-7.70953
-7.74551
-7.78103
-7.81591
-7.84992
-7.8828
-7.91424
-7.94388
-7.9713
-7.99605
-8.01759
-8.03535
-8.04861
-8.05663
-8.05845
-8.05295
-8.03908
-8.01567
-7.98143
-7.93491
-7.87458
-7.79883
-7.70604
-7.59469
-7.46334
-7.31081
-7.1362
-6.939
-6.71922
-6.4774
-6.21464
-5.93267
-5.63362
-5.31967
-4.994
-4.65859
-4.31566
-3.97058
-3.62714
-3.29021
-2.966
-2.66034
-2.38645
-2.16491
-2.0187
-1.97365
-2.05565
-2.28173
-2.66815
-3.23687
-3.98769
-4.90971
-5.99231
-7.20833
-8.51779
-9.86772
-11.1907
-12.4078
-13.4315
-14.1803
-14.5912
-14.6099
-14.2349
-13.523
-12.554
-11.4101
-10.1645
-8.87424
-7.57622
-6.29425
-5.0435
-3.83201
-2.66226
-1.53343
-0.44299
0.612953
1.63854
2.63807
3.61542
4.57258
5.51092
6.43087
7.33042
8.20523
9.04895
9.85396
10.6129
11.3188
11.9677
12.5567
13.0793
13.5354
13.9251
14.2505
14.5185
14.7366
14.9126
15.0541
15.1678
15.2598
15.3344
15.3959
15.4457
15.4878
15.5184
15.5451
15.5514
15.5595
15.5177
-5.81296
-5.94133
-5.94836
-6.01745
-6.01833
-6.06361
-6.07053
-6.10351
-6.11465
-6.14075
-6.15459
-6.17688
-6.19234
-6.21252
-6.22892
-6.24791
-6.26479
-6.28306
-6.30011
-6.31784
-6.33483
-6.3521
-6.36892
-6.38609
-6.40329
-6.42053
-6.43772
-6.45532
-6.47304
-6.49115
-6.50961
-6.52857
-6.548
-6.56798
-6.58852
-6.60965
-6.6314
-6.65379
-6.67685
-6.70062
-6.7251
-6.7503
-6.77623
-6.80287
-6.83023
-6.85831
-6.88709
-6.91657
-6.94672
-6.97753
-7.00897
-7.04104
-7.07369
-7.10691
-7.14068
-7.17495
-7.20971
-7.24493
-7.28057
-7.3166
-7.35301
-7.38975
-7.4268
-7.46413
-7.50172
-7.53953
-7.57754
-7.61571
-7.654
-7.69238
-7.73079
-7.76914
-7.80734
-7.84528
-7.88278
-7.91966
-7.95566
-7.99049
-8.02383
-8.05527
-8.08438
-8.11066
-8.13354
-8.15234
-8.16629
-8.17442
-8.17596
-8.16969
-8.15424
-8.12806
-8.08954
-8.03695
-7.96848
-7.88231
-7.77667
-7.64987
-7.50042
-7.32705
-7.12885
-6.90533
-6.65653
-6.3831
-6.0862
-5.76754
-5.42908
-5.07282
-4.70154
-4.31627
-3.92014
-3.51865
-3.11723
-2.72427
-2.35052
-2.01911
-1.75912
-1.60264
-1.57603
-1.70465
-2.00487
-2.48523
-3.15399
-4.01055
-5.04009
-6.22487
-7.53783
-8.93869
-10.3727
-11.7683
-13.0397
-14.093
-14.8424
-15.2244
-15.1809
-14.7283
-13.9279
-12.8764
-11.6621
-10.3612
-9.03182
-7.70837
-6.41122
-5.15303
-3.9395
-2.77034
-1.64306
-0.555004
0.498111
1.52186
2.52105
3.4993
4.45887
5.40081
6.32521
7.22951
8.10907
8.95808
9.76866
10.5323
11.2422
11.8942
12.4844
13.0078
13.4635
13.8547
14.183
14.4535
14.6736
14.852
14.9964
15.1134
15.2088
15.2869
15.3517
15.4044
15.449
15.4817
15.5097
15.5172
15.5252
15.4849
-5.83944
-5.96095
-5.96648
-6.03438
-6.0347
-6.08011
-6.0862
-6.11985
-6.13062
-6.1575
-6.17112
-6.19405
-6.20947
-6.23017
-6.24666
-6.26609
-6.28317
-6.30187
-6.31924
-6.33748
-6.35498
-6.37294
-6.39052
-6.40836
-6.42603
-6.44413
-6.4625
-6.48099
-6.49948
-6.51846
-6.53769
-6.55741
-6.5776
-6.59831
-6.61956
-6.64141
-6.66388
-6.68703
-6.71088
-6.73548
-6.76084
-6.78698
-6.8139
-6.84161
-6.87013
-6.89944
-6.92954
-6.96042
-6.99206
-7.02445
-7.05757
-7.09139
-7.12589
-7.16104
-7.19681
-7.23318
-7.2701
-7.30755
-7.3455
-7.38391
-7.42275
-7.462
-7.50162
-7.54159
-7.58188
-7.62246
-7.66331
-7.7044
-7.74569
-7.78714
-7.8287
-7.87029
-7.91182
-7.95316
-7.99413
-8.03453
-8.0741
-8.11253
-8.14945
-8.18448
-8.21718
-8.24705
-8.27353
-8.29597
-8.31361
-8.32549
-8.33044
-8.32736
-8.31494
-8.29171
-8.25602
-8.20605
-8.13987
-8.05552
-7.951
-7.82439
-7.67389
-7.49793
-7.2952
-7.06483
-6.80644
-6.52032
-6.20733
-5.86893
-5.50711
-5.12381
-4.7216
-4.30272
-3.86892
-3.42669
-2.98327
-2.54772
-2.13362
-1.76897
-1.48748
-1.32722
-1.31617
-1.47908
-1.83108
-2.3795
-3.12501
-4.06181
-5.17559
-6.44356
-7.83502
-9.30913
-10.8097
-12.2614
-13.5736
-14.6463
-15.3915
-15.7475
-15.655
-15.1334
-14.2579
-13.1378
-11.8668
-10.5246
-9.16707
-7.82602
-6.52046
-5.26074
-4.04831
-2.88149
-1.7571
-0.671371
0.380455
1.40408
2.40408
3.38397
4.34661
5.29316
6.22272
7.13232
8.01711
8.87074
9.68596
10.4536
11.1663
11.8215
12.4134
12.9371
13.3915
13.7799
14.1072
14.378
14.5983
14.7762
14.9201
15.0367
15.1314
15.2083
15.2714
15.3216
15.3626
15.3905
15.4123
15.4122
15.4122
15.3642
-5.86355
-5.97796
-5.98199
-6.04784
-6.04744
-6.09272
-6.0981
-6.13198
-6.14207
-6.16946
-6.1829
-6.2064
-6.22184
-6.24309
-6.25978
-6.27976
-6.2972
-6.31647
-6.33433
-6.3532
-6.37132
-6.38999
-6.4083
-6.42695
-6.44554
-6.46434
-6.48341
-6.50289
-6.52228
-6.54183
-6.56176
-6.58223
-6.60311
-6.62444
-6.64633
-6.66875
-6.69182
-6.71555
-6.74003
-6.76526
-6.79131
-6.81818
-6.84589
-6.87445
-6.90387
-6.93416
-6.96531
-6.9973
-7.03014
-7.06379
-7.09823
-7.13344
-7.16938
-7.20604
-7.24336
-7.28132
-7.31988
-7.35899
-7.39863
-7.43876
-7.47934
-7.52034
-7.56172
-7.60346
-7.64553
-7.68791
-7.73058
-7.77351
-7.81667
-7.86002
-7.90354
-7.94714
-7.99074
-8.03423
-8.07745
-8.1202
-8.16222
-8.20322
-8.24284
-8.28071
-8.31638
-8.34938
-8.37917
-8.40508
-8.42624
-8.44184
-8.45094
-8.45216
-8.44405
-8.42494
-8.39301
-8.34626
-8.28259
-8.19979
-8.09571
-7.96819
-7.81525
-7.63502
-7.42596
-7.1869
-6.91723
-6.61707
-6.28724
-5.9293
-5.54549
-5.13836
-4.71082
-4.26606
-3.80657
-3.33911
-2.87356
-2.41889
-1.99026
-1.61692
-1.33412
-1.18069
-1.18544
-1.37354
-1.76063
-2.35381
-3.15224
-4.1465
-5.31982
-6.64756
-8.09631
-9.62248
-11.1676
-12.6524
-13.9804
-15.048
-15.7714
-16.0913
-15.9542
-15.3805
-14.4531
-13.2856
-11.9783
-10.6147
-9.24649
-7.90044
-6.59484
-5.33847
-4.13087
-2.96959
-1.85067
-0.768957
0.280843
1.30364
2.30395
3.28542
4.25048
5.20033
6.13397
7.04816
7.93788
8.79645
9.61628
10.3878
11.1037
11.7612
12.3541
12.8784
13.3345
13.7231
14.0491
14.3194
14.5413
14.7215
14.8675
14.9862
15.0834
15.1628
15.2282
15.2805
15.3233
15.3527
15.3757
15.377
15.3778
15.3315
-5.88662
-5.99355
-5.99704
-6.06069
-6.06018
-6.10509
-6.11029
-6.14459
-6.15458
-6.18241
-6.19572
-6.21977
-6.23539
-6.25718
-6.27414
-6.29462
-6.31243
-6.33223
-6.35059
-6.37009
-6.38886
-6.40829
-6.42742
-6.44697
-6.46647
-6.48627
-6.50622
-6.52632
-6.54679
-6.56778
-6.58879
-6.61005
-6.632
-6.65428
-6.67709
-6.70054
-6.72467
-6.74955
-6.77522
-6.80174
-6.82914
-6.85744
-6.88666
-6.91683
-6.94794
-6.98001
-7.01301
-7.04694
-7.08177
-7.1175
-7.15409
-7.1915
-7.2297
-7.26865
-7.30831
-7.34864
-7.38959
-7.43113
-7.4732
-7.51578
-7.55881
-7.60227
-7.64612
-7.69033
-7.73488
-7.77973
-7.82487
-7.87027
-7.91589
-7.96172
-8.00769
-8.05375
-8.09982
-8.14575
-8.19141
-8.23656
-8.28094
-8.32424
-8.36609
-8.40609
-8.44382
-8.47879
-8.51046
-8.53815
-8.56106
-8.57812
-8.58818
-8.58999
-8.58205
-8.56269
-8.53
-8.48192
-8.41619
-8.3305