/*--------------------------------*- C++ -*----------------------------------*\
| =========                 |                                                 |
| \\      /  F ield         | OpenFOAM: The Open Source CFD Toolbox           |
|  \\    /   O peration     | Version:  v1906                                 |
|   \\  /    A nd           | Web:      www.OpenFOAM.com                      |
|    \\/     M anipulation  |                                                 |
\*---------------------------------------------------------------------------*/
FoamFile
{
    version     2.0;
    format      ascii;
    class       surfaceScalarField;
    location    "1700";
    object      phi;
}
// * * * * * * * * * * * * * * * * * * * * * * * * * * * * * * * * * * * * * //

dimensions      [0 3 -1 0 0 0 0];
oriented        oriented;


internalField   nonuniform List<scalar> 
24170
(
3.08265e-06
1.05758e-07
2.99013e-06
9.25213e-08
2.92438e-06
6.57508e-08
2.86875e-06
5.56214e-08
2.82064e-06
4.81182e-08
2.7785e-06
4.21352e-08
2.74098e-06
3.75168e-08
2.70729e-06
3.3691e-08
2.677e-06
3.02929e-08
2.64976e-06
2.72366e-08
2.62519e-06
2.45789e-08
2.60289e-06
2.22977e-08
2.58275e-06
2.01404e-08
2.56483e-06
1.79148e-08
2.54953e-06
1.53034e-08
2.53737e-06
1.21588e-08
2.52949e-06
7.88055e-09
-4.44446e-09
2.53393e-06
3.44174e-06
8.12625e-08
3.44163e-06
9.26398e-08
3.42979e-06
7.75856e-08
3.4158e-06
6.96097e-08
3.40094e-06
6.29765e-08
3.38628e-06
5.67958e-08
3.37215e-06
5.16548e-08
3.35859e-06
4.72445e-08
3.34562e-06
4.32605e-08
3.33326e-06
3.96037e-08
3.32153e-06
3.6305e-08
3.31051e-06
3.3322e-08
3.30014e-06
3.05124e-08
3.29042e-06
2.76276e-08
3.28125e-06
2.44792e-08
3.2727e-06
2.07092e-08
3.26547e-06
1.51071e-08
4.70365e-09
3.25632e-06
3.67699e-06
6.67879e-08
3.67936e-06
9.02716e-08
3.67354e-06
8.3404e-08
3.66581e-06
7.73413e-08
3.65803e-06
7.07595e-08
3.6507e-06
6.41262e-08
3.64386e-06
5.8489e-08
3.63746e-06
5.36488e-08
3.63144e-06
4.92814e-08
3.62576e-06
4.52769e-08
3.62045e-06
4.16162e-08
3.61554e-06
3.82375e-08
3.61105e-06
3.49976e-08
3.60701e-06
3.16677e-08
3.60342e-06
2.80742e-08
3.6004e-06
2.37277e-08
3.59673e-06
1.87794e-08
1.07404e-08
3.59069e-06
3.93503e-06
5.71419e-08
3.9421e-06
8.32097e-08
3.94427e-06
8.12289e-08
3.94432e-06
7.7289e-08
3.94299e-06
7.2095e-08
3.94078e-06
6.6332e-08
3.93816e-06
6.11116e-08
3.93539e-06
5.64201e-08
3.9326e-06
5.20677e-08
3.92988e-06
4.8001e-08
3.92729e-06
4.42041e-08
3.92491e-06
4.06194e-08
3.92279e-06
3.7114e-08
3.92097e-06
3.34865e-08
3.91949e-06
2.956e-08
3.91831e-06
2.49085e-08
3.91779e-06
1.93007e-08
1.0757e-08
3.91777e-06
4.2187e-06
4.55658e-08
4.2281e-06
7.38129e-08
4.23193e-06
7.73986e-08
4.23325e-06
7.59651e-08
4.2334e-06
7.195e-08
4.23294e-06
6.67903e-08
4.23224e-06
6.18137e-08
4.23145e-06
5.72075e-08
4.23064e-06
5.28814e-08
4.22983e-06
4.88061e-08
4.22908e-06
4.49579e-08
4.22843e-06
4.12709e-08
4.22791e-06
3.76307e-08
4.22755e-06
3.38499e-08
4.22726e-06
2.98462e-08
4.22697e-06
2.5196e-08
4.22577e-06
2.05027e-08
1.44868e-08
4.22204e-06
4.51693e-06
3.77232e-08
4.5253e-06
6.54451e-08
4.53114e-06
7.15586e-08
4.53548e-06
7.16239e-08
4.53868e-06
6.87458e-08
4.54096e-06
6.45108e-08
4.54262e-06
6.01556e-08
4.54389e-06
5.59402e-08
4.5449e-06
5.18647e-08
4.54577e-06
4.79409e-08
4.54657e-06
4.41607e-08
4.54737e-06
4.04724e-08
4.54821e-06
3.67837e-08
4.54912e-06
3.29455e-08
4.5501e-06
2.88597e-08
4.55105e-06
2.42521e-08
4.55244e-06
1.91092e-08
1.29066e-08
4.55402e-06
4.84015e-06
3.02977e-08
4.84858e-06
5.70107e-08
4.85451e-06
6.56275e-08
4.85863e-06
6.75035e-08
4.86157e-06
6.58069e-08
4.86373e-06
6.23492e-08
4.86546e-06
5.84272e-08
4.86696e-06
5.4444e-08
4.86831e-06
5.05067e-08
4.86959e-06
4.6666e-08
4.87082e-06
4.29279e-08
4.87205e-06
3.92493e-08
4.87326e-06
3.55648e-08
4.87446e-06
3.17513e-08
4.87552e-06
2.77994e-08
4.87627e-06
2.35051e-08
4.87603e-06
1.93447e-08
1.47351e-08
4.8742e-06
5.18539e-06
2.44863e-08
5.19285e-06
4.95518e-08
5.1993e-06
5.91813e-08
5.20484e-06
6.19617e-08
5.20957e-06
6.10774e-08
5.21357e-06
5.83502e-08
5.21702e-06
5.49772e-08
5.22007e-06
5.13877e-08
5.22284e-06
4.7738e-08
5.22541e-06
4.41031e-08
5.22783e-06
4.05043e-08
5.23016e-06
3.69162e-08
5.23244e-06
3.32916e-08
5.23464e-06
2.95462e-08
5.2368e-06
2.5641e-08
5.23883e-06
2.14705e-08
5.24114e-06
1.70349e-08
1.24407e-08
5.24344e-06
5.55573e-06
2.00973e-08
5.5624e-06
4.28751e-08
5.56859e-06
5.29911e-08
5.5738e-06
5.67587e-08
5.57809e-06
5.67833e-08
5.58166e-06
5.47796e-08
5.58474e-06
5.18938e-08
5.58751e-06
4.86217e-08
5.59006e-06
4.51902e-08
5.59245e-06
4.17117e-08
5.59472e-06
3.82314e-08
5.5969e-06
3.47426e-08
5.59896e-06
3.12293e-08
5.60087e-06
2.76339e-08
5.60252e-06
2.39952e-08
5.60375e-06
2.02396e-08
5.60409e-06
1.66897e-08
1.29889e-08
5.60354e-06
5.95405e-06
1.5828e-08
5.96043e-06
3.64885e-08
5.96677e-06
4.66537e-08
5.97271e-06
5.08181e-08
5.97814e-06
5.13515e-08
5.98304e-06
4.98783e-08
5.9875e-06
4.74395e-08
5.99159e-06
4.45265e-08
5.9954e-06
4.13846e-08
5.99897e-06
3.8139e-08
6.00236e-06
3.48461e-08
6.00558e-06
3.15157e-08
6.00867e-06
2.81418e-08
6.01161e-06
2.46964e-08
6.01442e-06
2.11814e-08
6.01708e-06
1.75852e-08
6.01983e-06
1.39323e-08
1.0515e-08
6.02231e-06
6.37929e-06
1.33492e-08
6.3844e-06
3.13825e-08
6.39016e-06
4.08859e-08
6.39568e-06
4.53015e-08
6.40068e-06
4.63536e-08
6.40513e-06
4.54238e-08
6.40914e-06
4.34302e-08
6.41281e-06
4.0863e-08
6.4162e-06
3.79941e-08
6.41936e-06
3.49714e-08
6.42234e-06
3.18726e-08
6.42513e-06
2.87264e-08
6.42772e-06
2.55541e-08
6.43007e-06
2.23457e-08
6.43209e-06
1.91585e-08
6.4337e-06
1.59702e-08
6.43464e-06
1.29917e-08
1.00722e-08
6.43509e-06
5.74348e-06
1.07041e-08
5.74804e-06
2.68232e-08
5.75307e-06
3.58575e-08
5.75809e-06
4.02805e-08
5.76291e-06
4.15357e-08
5.76742e-06
4.09051e-08
5.77165e-06
3.92045e-08
5.77561e-06
3.69044e-08
5.77933e-06
3.42735e-08
5.78284e-06
3.14629e-08
5.78616e-06
2.85554e-08
5.78929e-06
2.559e-08
5.79225e-06
2.25913e-08
5.79503e-06
1.95683e-08
5.79764e-06
1.65463e-08
5.80006e-06
1.35547e-08
5.80243e-06
1.0618e-08
8.01006e-09
5.8045e-06
6.99961e-06
9.25171e-09
7.00353e-06
2.29008e-08
7.0086e-06
3.07866e-08
7.01392e-06
3.49617e-08
7.01908e-06
3.6378e-08
7.02391e-06
3.60682e-08
7.02841e-06
3.47046e-08
7.0326e-06
3.27169e-08
7.03651e-06
3.03672e-08
7.04016e-06
2.78117e-08
7.04357e-06
2.51444e-08
7.04674e-06
2.24164e-08
7.04967e-06
1.96668e-08
7.05232e-06
1.69152e-08
7.05467e-06
1.42019e-08
7.05668e-06
1.15416e-08
7.05831e-06
8.99023e-09
6.40978e-09
7.05991e-06
8.53357e-06
6.52821e-09
8.53873e-06
1.77445e-08
8.54484e-06
2.46707e-08
8.55132e-06
2.84821e-08
8.55782e-06
2.98836e-08
8.56414e-06
2.97477e-08
8.5702e-06
2.86389e-08
8.57598e-06
2.69376e-08
8.58147e-06
2.4883e-08
8.58666e-06
2.26222e-08
8.59155e-06
2.0246e-08
8.59616e-06
1.78102e-08
8.60047e-06
1.53553e-08
8.60448e-06
1.29118e-08
8.60816e-06
1.05165e-08
8.61149e-06
8.21228e-09
8.61444e-06
6.03804e-09
4.2165e-09
8.61664e-06
1.04003e-05
5.44232e-09
1.04042e-05
1.38232e-08
1.04099e-05
1.89865e-08
1.04165e-05
2.19421e-08
1.04232e-05
2.31042e-08
1.04299e-05
2.30533e-08
1.04364e-05
2.21885e-08
1.04425e-05
2.08001e-08
1.04483e-05
1.9084e-08
1.04538e-05
1.7169e-08
1.04589e-05
1.51392e-08
1.04636e-05
1.30506e-08
1.0468e-05
1.0939e-08
1.04721e-05
8.83511e-09
1.04759e-05
6.74887e-09
1.04794e-05
4.70905e-09
1.04827e-05
2.6988e-09
6.81529e-10
1.04863e-05
1.26793e-05
2.9788e-09
1.26846e-05
8.48055e-09
1.26915e-05
1.2095e-08
1.26992e-05
1.42018e-08
1.27073e-05
1.50204e-08
1.27154e-05
1.49414e-08
1.27234e-05
1.42482e-08
1.2731e-05
1.31536e-08
1.27383e-05
1.18073e-08
1.27451e-05
1.03106e-08
1.27516e-05
8.73333e-09
1.27575e-05
7.12616e-09
1.27629e-05
5.53197e-09
1.27677e-05
3.98069e-09
1.2772e-05
2.51253e-09
1.27755e-05
1.14943e-09
1.27783e-05
-7.68941e-11
-1.08187e-09
1.27801e-05
1.54548e-05
1.34229e-09
1.54597e-05
3.63002e-09
1.54668e-05
4.97093e-09
1.54754e-05
5.61105e-09
1.54848e-05
5.64387e-09
1.54945e-05
5.24547e-09
1.55042e-05
4.54175e-09
1.55137e-05
3.62986e-09
1.55229e-05
2.58128e-09
1.55318e-05
1.44775e-09
1.55402e-05
2.63158e-10
1.55483e-05
-9.42462e-10
1.5556e-05
-2.15725e-09
1.55633e-05
-3.3553e-09
1.55704e-05
-4.54718e-09
1.55772e-05
-5.68974e-09
1.5584e-05
-6.82103e-09
-7.8349e-09
1.55907e-05
1.88389e-05
9.27611e-11
1.88433e-05
-7.43748e-10
1.88498e-05
-1.5995e-09
1.88577e-05
-2.2955e-09
1.88663e-05
-2.88761e-09
1.88749e-05
-3.41495e-09
1.88834e-05
-3.90894e-09
1.88914e-05
-4.38526e-09
1.88988e-05
-4.84889e-09
1.89056e-05
-5.30006e-09
1.89116e-05
-5.73337e-09
1.89168e-05
-6.14741e-09
1.89212e-05
-6.53664e-09
1.89247e-05
-6.90148e-09
1.89274e-05
-7.23743e-09
1.89292e-05
-7.54349e-09
1.89303e-05
-7.85479e-09
-8.15085e-09
1.89306e-05
2.29683e-05
-4.83724e-09
2.29786e-05
-1.11194e-08
2.29924e-05
-1.5328e-08
2.30083e-05
-1.82558e-08
2.30257e-05
-2.02342e-08
2.30438e-05
-2.1512e-08
2.30622e-05
-2.23014e-08
2.30805e-05
-2.27586e-08
2.30987e-05
-2.29924e-08
2.31165e-05
-2.30737e-08
2.31338e-05
-2.30464e-08
2.31506e-05
-2.29304e-08
2.31667e-05
-2.27313e-08
2.31823e-05
-2.24382e-08
2.31971e-05
-2.20374e-08
2.3211e-05
-2.14987e-08
2.3224e-05
-2.08221e-08
-1.96775e-08
2.32355e-05
1.681e-05
-4.13901e-09
1.68119e-05
-1.30614e-08
1.68159e-05
-1.93096e-08
1.68209e-05
-2.32517e-08
1.68262e-05
-2.54623e-08
1.68312e-05
-2.65118e-08
1.68357e-05
-2.68289e-08
1.68396e-05
-2.66946e-08
1.68429e-05
-2.62858e-08
1.68456e-05
-2.57127e-08
1.68475e-05
-2.50399e-08
1.68489e-05
-2.43101e-08
1.68497e-05
-2.35448e-08
1.68501e-05
-2.27742e-08
1.685e-05
-2.2007e-08
1.68498e-05
-2.13009e-08
1.68497e-05
-2.06525e-08
-2.04862e-08
1.68505e-05
1.46398e-05
-9.40348e-09
1.46492e-05
-2.24023e-08
1.46603e-05
-3.04048e-08
1.46723e-05
-3.52517e-08
1.46847e-05
-3.78443e-08
1.4697e-05
-3.88877e-08
1.47092e-05
-3.89634e-08
1.47209e-05
-3.84619e-08
1.47323e-05
-3.76311e-08
1.47432e-05
-3.66288e-08
1.47537e-05
-3.55552e-08
1.47639e-05
-3.44676e-08
1.47737e-05
-3.34048e-08
1.47833e-05
-3.23737e-08
1.47927e-05
-3.13919e-08
1.48018e-05
-3.04055e-08
1.48106e-05
-2.94421e-08
-2.7907e-08
1.4818e-05
1.27405e-05
-9.7737e-09
1.27443e-05
-2.62108e-08
1.27496e-05
-3.57346e-08
1.27551e-05
-4.06839e-08
1.276e-05
-4.27221e-08
1.27641e-05
-4.3016e-08
1.27675e-05
-4.23667e-08
1.27702e-05
-4.1226e-08
1.27724e-05
-3.98312e-08
1.27741e-05
-3.83161e-08
1.27753e-05
-3.67519e-08
1.2776e-05
-3.51761e-08
1.27762e-05
-3.35936e-08
1.27759e-05
-3.2013e-08
1.27749e-05
-3.04001e-08
1.27733e-05
-2.87979e-08
1.2771e-05
-2.71283e-08
-2.61016e-08
1.27691e-05
1.10974e-05
-1.62671e-08
1.11078e-05
-3.65895e-08
1.11189e-05
-4.68444e-08
1.113e-05
-5.17765e-08
1.11407e-05
-5.34155e-08
1.11507e-05
-5.30347e-08
1.116e-05
-5.16332e-08
1.11685e-05
-4.97709e-08
1.11764e-05
-4.77228e-08
1.11837e-05
-4.56421e-08
1.11906e-05
-4.36178e-08
1.11971e-05
-4.16964e-08
1.12035e-05
-3.9915e-08
1.12097e-05
-3.82931e-08
1.12162e-05
-3.68946e-08
1.12231e-05
-3.57082e-08
1.12309e-05
-3.48991e-08
-3.36528e-08
1.12385e-05
9.6593e-06
-2.03525e-08
9.66688e-06
-4.41656e-08
9.67388e-06
-5.38447e-08
9.67933e-06
-5.72256e-08
9.68334e-06
-5.74265e-08
9.68623e-06
-5.59289e-08
9.68837e-06
-5.37696e-08
9.69001e-06
-5.1411e-08
9.69129e-06
-4.90057e-08
9.69228e-06
-4.66331e-08
9.693e-06
-4.4338e-08
9.69344e-06
-4.21375e-08
9.69354e-06
-4.0017e-08
9.69321e-06
-3.7961e-08
9.69219e-06
-3.58708e-08
9.69019e-06
-3.37069e-08
9.68639e-06
-3.11039e-08
-2.87507e-08
9.68149e-06
8.41372e-06
-2.87164e-08
8.42531e-06
-5.57619e-08
8.43594e-06
-6.44759e-08
8.44539e-06
-6.66699e-08
8.45355e-06
-6.55845e-08
8.46034e-06
-6.27241e-08
8.46597e-06
-5.93938e-08
8.47067e-06
-5.61146e-08
8.47465e-06
-5.29898e-08
8.47808e-06
-5.00579e-08
8.48108e-06
-4.73378e-08
8.48377e-06
-4.48245e-08
8.48626e-06
-4.25163e-08
8.48872e-06
-4.04118e-08
8.49143e-06
-3.85879e-08
8.49482e-06
-3.70898e-08
8.50011e-06
-3.63946e-08
-3.59653e-08
8.50732e-06
7.32837e-06
-3.98005e-08
7.33972e-06
-6.71144e-08
7.34582e-06
-7.05724e-08
7.34865e-06
-6.95029e-08
7.34977e-06
-6.67051e-08
7.34996e-06
-6.29116e-08
7.34971e-06
-5.9147e-08
7.34927e-06
-5.56775e-08
7.34872e-06
-5.24352e-08
7.34806e-06
-4.93997e-08
7.3473e-06
-4.65772e-08
7.34644e-06
-4.39584e-08
7.34544e-06
-4.1519e-08
7.34427e-06
-3.92472e-08
7.34273e-06
-3.70459e-08
7.34051e-06
-3.48655e-08
7.33612e-06
-3.20064e-08
-2.84748e-08
7.32863e-06
6.38074e-06
-5.04793e-08
6.39205e-06
-7.84168e-08
6.39902e-06
-7.7548e-08
6.40336e-06
-7.38392e-08
6.4055e-06
-6.88508e-08
6.40593e-06
-6.33392e-08
6.40528e-06
-5.84925e-08
6.40399e-06
-5.43859e-08
6.40232e-06
-5.07709e-08
6.40044e-06
-4.75199e-08
6.39844e-06
-4.45778e-08
6.39638e-06
-4.18992e-08
6.39432e-06
-3.94513e-08
6.39227e-06
-3.7206e-08
6.39044e-06
-3.52073e-08
6.38902e-06
-3.34463e-08
6.38963e-06
-3.26225e-08
-3.28073e-08
6.39397e-06
5.5641e-06
-6.91127e-08
5.5702e-06
-8.45231e-08
5.56581e-06
-7.31546e-08
5.55838e-06
-6.64053e-08
5.55058e-06
-6.1054e-08
5.54312e-06
-5.58789e-08
5.53615e-06
-5.15258e-08
5.52962e-06
-4.7853e-08
5.52343e-06
-4.45843e-08
5.51753e-06
-4.16171e-08
5.51187e-06
-3.89178e-08
5.50642e-06
-3.64529e-08
5.50116e-06
-3.41902e-08
5.49608e-06
-3.2125e-08
5.49108e-06
-3.02073e-08
5.48611e-06
-2.84762e-08
5.47971e-06
-2.62172e-08
-2.27395e-08
5.46964e-06
4.85182e-06
-9.33227e-08
4.85532e-06
-8.80245e-08
4.84524e-06
-6.30727e-08
4.83342e-06
-5.4591e-08
4.82066e-06
-4.82871e-08
4.80816e-06
-4.33859e-08
4.79634e-06
-3.9701e-08
4.7852e-06
-3.67142e-08
4.77467e-06
-3.40518e-08
4.76466e-06
-3.16054e-08
4.75509e-06
-2.93569e-08
4.74593e-06
-2.7292e-08
4.73714e-06
-2.54015e-08
4.7287e-06
-2.36812e-08
4.72066e-06
-2.21654e-08
4.71306e-06
-2.08782e-08
4.70739e-06
-2.05473e-08
-2.12695e-08
4.70592e-06
4.10935e-06
4.02133e-06
3.95826e-06
3.90367e-06
3.85538e-06
3.81199e-06
3.77229e-06
3.73558e-06
3.70153e-06
3.66992e-06
3.64056e-06
3.61327e-06
3.58787e-06
3.56419e-06
3.54202e-06
3.52114e-06
3.5006e-06
3.47933e-06
7.2453e-08
-7.24497e-08
1.45676e-07
-7.3229e-08
2.21421e-07
-7.57386e-08
2.82924e-07
-6.1507e-08
3.39934e-07
-5.70025e-08
3.89068e-07
-4.91362e-08
4.33818e-07
-4.47424e-08
4.72848e-07
-3.90303e-08
5.07603e-07
-3.47478e-08
5.37997e-07
-3.03941e-08
5.64933e-07
-2.69283e-08
5.88352e-07
-2.34195e-08
6.08236e-07
-1.98773e-08
6.23827e-07
-1.55919e-08
6.33979e-07
-1.01456e-08
6.3645e-07
-2.47112e-09
6.29443e-07
7.01276e-09
6.1239e-07
1.70528e-08
5.85896e-07
2.64993e-08
5.51177e-07
3.47218e-08
5.09881e-07
4.1301e-08
4.63866e-07
4.60209e-08
4.14928e-07
4.89453e-08
3.64852e-07
5.00879e-08
3.16043e-07
4.88146e-08
2.71022e-07
4.50348e-08
2.30709e-07
4.0315e-08
1.93951e-07
3.67794e-08
1.58176e-07
3.57748e-08
1.20153e-07
3.80561e-08
7.67531e-08
4.33937e-08
2.68508e-08
4.99402e-08
-2.84129e-08
5.52563e-08
-8.77907e-08
5.93999e-08
-1.50894e-07
6.30938e-08
-2.17038e-07
6.61474e-08
-2.85367e-07
6.83221e-08
-3.55191e-07
6.98172e-08
-4.2608e-07
7.08864e-08
-4.97614e-07
7.15257e-08
-5.69224e-07
7.16106e-08
-6.40333e-07
7.11023e-08
-7.10383e-07
7.00516e-08
-7.7894e-07
6.85519e-08
-8.45654e-07
6.67166e-08
-9.10312e-07
6.46536e-08
-9.72773e-07
6.24634e-08
-1.03301e-06
6.02297e-08
-1.09103e-06
5.80256e-08
-1.14695e-06
5.59163e-08
-1.20092e-06
5.39709e-08
-1.25315e-06
5.22258e-08
-1.30382e-06
5.06723e-08
-1.35311e-06
4.92889e-08
-1.40117e-06
4.80616e-08
-1.44815e-06
4.6971e-08
-1.49415e-06
4.60003e-08
-1.53928e-06
4.51297e-08
-1.58362e-06
4.43432e-08
-1.62725e-06
4.36216e-08
-1.67019e-06
4.29504e-08
-1.71251e-06
4.23119e-08
-1.7542e-06
4.1693e-08
-1.79528e-06
4.10765e-08
-1.83572e-06
4.04501e-08
-1.87552e-06
3.97965e-08
-1.91462e-06
3.91036e-08
-1.95297e-06
3.83531e-08
-1.99049e-06
3.75316e-08
-2.02711e-06
3.66185e-08
-2.0627e-06
3.5598e-08
-2.09715e-06
3.44455e-08
-2.13028e-06
3.31414e-08
-2.16193e-06
3.16552e-08
-2.19189e-06
2.99636e-08
-2.21992e-06
2.80303e-08
-2.24573e-06
2.58257e-08
-2.26904e-06
2.33052e-08
-2.28946e-06
2.04352e-08
-2.30663e-06
1.71774e-08
-2.32013e-06
1.35114e-08
-2.32952e-06
9.40491e-09
-2.33438e-06
4.87741e-09
-2.33448e-06
1.04144e-10
-2.32996e-06
-4.49858e-09
-2.32092e-06
-9.02647e-09
-2.30709e-06
-1.38077e-08
-2.288e-06
-1.90638e-08
-2.26304e-06
-2.49342e-08
-2.23151e-06
-3.15078e-08
-2.19262e-06
-3.88668e-08
-2.14552e-06
-4.70763e-08
-2.0893e-06
-5.6204e-08
-2.02298e-06
-6.63086e-08
-1.94554e-06
-7.74396e-08
-1.85591e-06
-8.96282e-08
-1.75303e-06
-1.02888e-07
-1.63584e-06
-1.17215e-07
-1.50326e-06
-1.32606e-07
-1.35433e-06
-1.48971e-07
-1.18871e-06
-1.65659e-07
-1.00677e-06
-1.81996e-07
-8.08648e-07
-1.98144e-07
-5.95305e-07
-2.13372e-07
-3.68616e-07
-2.26723e-07
-1.3478e-07
-2.33868e-07
1.05443e-07
-2.40261e-07
3.58077e-07
-2.52658e-07
6.12528e-07
-2.54473e-07
8.56442e-07
-2.43918e-07
1.08204e-06
-2.25597e-07
1.28415e-06
-2.02103e-07
1.4588e-06
-1.74662e-07
1.59934e-06
-1.40539e-07
1.69832e-06
-9.8979e-08
1.74197e-06
-4.36444e-08
1.70655e-06
3.54168e-08
1.57693e-06
1.29647e-07
1.36285e-06
2.14054e-07
1.10596e-06
2.56834e-07
8.41917e-07
2.63799e-07
6.07413e-07
2.3415e-07
4.78279e-07
1.28802e-07
4.30232e-07
4.79775e-08
2.12524e-07
2.17785e-07
-3.3024e-07
5.42683e-07
-1.07025e-06
7.39791e-07
-1.81362e-06
7.43145e-07
-2.47339e-06
6.59601e-07
-3.01345e-06
5.39917e-07
-3.42674e-06
4.13209e-07
-3.72233e-06
2.95499e-07
-3.91286e-06
1.90488e-07
-4.01085e-06
9.7935e-08
-4.03059e-06
1.97485e-08
-3.99435e-06
-3.6234e-08
-3.92208e-06
-7.21887e-08
-3.82202e-06
-9.99837e-08
-3.70043e-06
-1.21442e-07
-3.56243e-06
-1.37854e-07
-3.412e-06
-1.50272e-07
-3.25199e-06
-1.59878e-07
-3.0856e-06
-1.66277e-07
-2.9154e-06
-1.70114e-07
-2.74316e-06
-1.72156e-07
-2.56962e-06
-1.7347e-07
-2.39432e-06
-1.75226e-07
-2.21673e-06
-1.77523e-07
-2.03613e-06
-1.8054e-07
-1.85143e-06
-1.8464e-07
-1.66162e-06
-1.89757e-07
-1.46572e-06
-1.95841e-07
-1.26291e-06
-2.02758e-07
-1.05241e-06
-2.10443e-07
-8.33719e-07
-2.18631e-07
-6.07493e-07
-2.2616e-07
-3.7411e-07
-2.33329e-07
-1.35388e-07
-2.38661e-07
1.12573e-07
-2.47905e-07
3.73515e-07
-2.60861e-07
6.40993e-07
-2.67413e-07
9.0662e-07
-2.65563e-07
1.16683e-06
-2.60169e-07
1.41957e-06
-2.527e-07
1.66296e-06
-2.43354e-07
1.89472e-06
-2.31731e-07
2.11305e-06
-2.18318e-07
2.31667e-06
-2.03608e-07
2.5046e-06
-1.87918e-07
2.6762e-06
-1.71599e-07
2.83123e-06
-1.55027e-07
2.96962e-06
-1.38406e-07
3.09157e-06
-1.2196e-07
3.19711e-06
-1.05551e-07
3.2864e-06
-8.93101e-08
3.35825e-06
-7.18721e-08
3.4105e-06
-5.22754e-08
3.43108e-06
-2.0618e-08
3.37295e-06
5.81059e-08
1.40267e-07
3.23266e-06
6.00803e-08
-1.3253e-07
9.0517e-08
-1.03667e-07
1.1884e-07
-1.04059e-07
1.42262e-07
-8.49295e-08
1.70899e-07
-8.56371e-08
1.98201e-07
-7.6438e-08
2.26347e-07
-7.2885e-08
2.51257e-07
-6.39398e-08
2.7408e-07
-5.7568e-08
2.94391e-07
-5.07036e-08
3.13513e-07
-4.60476e-08
3.31171e-07
-4.1076e-08
3.47374e-07
-3.60779e-08
3.61207e-07
-2.94248e-08
3.71425e-07
-2.03618e-08
3.76196e-07
-7.24041e-09
3.73751e-07
9.45953e-09
3.62701e-07
2.81038e-08
3.42858e-07
4.63439e-08
3.14618e-07
6.2963e-08
2.78908e-07
7.70123e-08
2.36919e-07
8.80121e-08
1.89961e-07
9.59062e-08
1.39197e-07
1.00855e-07
8.52157e-08
1.02798e-07
2.75669e-08
1.02686e-07
-3.50076e-08
1.02892e-07
-1.03538e-07
1.05314e-07
-1.77912e-07
1.10151e-07
-2.56579e-07
1.16726e-07
-3.37204e-07
1.24021e-07
-4.182e-07
1.30938e-07
-4.99537e-07
1.36595e-07
-5.80847e-07
1.40711e-07
-6.60979e-07
1.43227e-07
-7.38919e-07
1.44086e-07
-8.13946e-07
1.43348e-07
-8.85375e-07
1.41244e-07
-9.52518e-07
1.38029e-07
-1.01488e-06
1.3389e-07
-1.07229e-06
1.29018e-07
-1.12482e-06
1.23625e-07
-1.17269e-06
1.17928e-07
-1.21626e-06
1.12124e-07
-1.25593e-06
1.06383e-07
-1.29212e-06
1.00837e-07
-1.32524e-06
9.55832e-08
-1.35569e-06
9.06857e-08
-1.38385e-06
8.6185e-08
-1.41004e-06
8.21037e-08
-1.43452e-06
7.84492e-08
-1.45749e-06
7.52015e-08
-1.47914e-06
7.23191e-08
-1.49961e-06
6.97556e-08
-1.51901e-06
6.74677e-08
-1.53746e-06
6.54141e-08
-1.55502e-06
6.35579e-08
-1.57175e-06
6.18647e-08
-1.58771e-06
6.03051e-08
-1.60294e-06
5.88514e-08
-1.61747e-06
5.7481e-08
-1.63133e-06
5.61721e-08
-1.64455e-06
5.49069e-08
-1.65714e-06
5.36677e-08
-1.66913e-06
5.24402e-08
-1.68054e-06
5.12093e-08
-1.6914e-06
4.99628e-08
-1.70173e-06
4.86867e-08
-1.71157e-06
4.73693e-08
-1.72094e-06
4.59962e-08
-1.7299e-06
4.4555e-08
-1.73848e-06
4.30288e-08
-1.74673e-06
4.14024e-08
-1.75473e-06
3.96548e-08
-1.76253e-06
3.77657e-08
-1.7702e-06
3.57068e-08
-1.77782e-06
3.34485e-08
-1.78546e-06
3.09497e-08
-1.79319e-06
2.81648e-08
-1.80103e-06
2.50299e-08
-1.80899e-06
2.14731e-08
-1.81699e-06
1.74172e-08
-1.82489e-06
1.27785e-08
-1.83217e-06
7.39657e-09
-1.83767e-06
1.00871e-09
-1.84012e-06
-6.56293e-09
-1.83847e-06
-1.54378e-08
-1.83193e-06
-2.55935e-08
-1.81977e-06
-3.70811e-08
-1.80128e-06
-4.99887e-08
-1.77572e-06
-6.44112e-08
-1.74233e-06
-8.04575e-08
-1.70029e-06
-9.82303e-08
-1.64877e-06
-1.17827e-07
-1.58688e-06
-1.39321e-07
-1.51375e-06
-1.62767e-07
-1.42845e-06
-1.88189e-07
-1.33009e-06
-2.15578e-07
-1.21787e-06
-2.44838e-07
-1.09112e-06
-2.75726e-07
-9.49256e-07
-3.07535e-07
-7.91789e-07
-3.39465e-07
-6.1799e-07
-3.71932e-07
-4.28336e-07
-4.03015e-07
-2.21904e-07
-4.33141e-07
3.54776e-09
-4.59319e-07
2.3893e-07
-4.75647e-07
4.65371e-07
-4.79103e-07
6.78537e-07
-4.67644e-07
8.76305e-07
-4.41682e-07
1.05422e-06
-4.03506e-07
1.20874e-06
-3.56609e-07
1.33635e-06
-3.02268e-07
1.43208e-06
-2.36259e-07
1.49473e-06
-1.61624e-07
1.54064e-06
-8.95437e-08
1.57841e-06
-2.33005e-09
1.5689e-06
1.39181e-07
1.46087e-06
3.22116e-07
1.24163e-06
4.76047e-07
9.70678e-07
5.34669e-07
7.50135e-07
4.54578e-07
5.01656e-07
3.77167e-07
-4.55805e-08
5.95212e-07
-8.71875e-07
1.04409e-06
-1.68111e-06
1.35187e-06
-2.31974e-06
1.37829e-06
-2.7711e-06
1.19437e-06
-3.0567e-06
9.45069e-07
-3.22273e-06
7.05852e-07
-3.31703e-06
5.07447e-07
-3.37194e-06
3.50349e-07
-3.40609e-06
2.24604e-07
-3.42881e-06
1.20629e-07
-3.4411e-06
3.20218e-08
-3.42935e-06
-4.7973e-08
-3.38242e-06
-1.19089e-07
-3.3042e-06
-1.78145e-07
-3.20068e-06
-2.24884e-07
-3.07823e-06
-2.60208e-07
-2.94227e-06
-2.8614e-07
-2.79769e-06
-3.04379e-07
-2.64786e-06
-3.16048e-07
-2.49544e-06
-3.22492e-07
-2.3418e-06
-3.25751e-07
-2.18694e-06
-3.28289e-07
-2.03085e-06
-3.31286e-07
-1.87316e-06
-3.35177e-07
-1.71308e-06
-3.40593e-07
-1.54964e-06
-3.4805e-07
-1.38165e-06
-3.57719e-07
-1.20784e-06
-3.69624e-07
-1.02697e-06
-3.83605e-07
-8.38054e-07
-3.9933e-07
-6.40685e-07
-4.15971e-07
-4.3362e-07
-4.33199e-07
-2.1487e-07
-4.52058e-07
1.95659e-08
-4.73084e-07
2.67699e-07
-4.96022e-07
5.18825e-07
-5.11966e-07
7.67914e-07
-5.16477e-07
1.01553e-06
-5.13158e-07
1.25978e-06
-5.04393e-07
1.49825e-06
-4.91153e-07
1.72877e-06
-4.7385e-07
1.94907e-06
-4.52019e-07
2.15741e-06
-4.26643e-07
2.35247e-06
-3.98656e-07
2.53331e-06
-3.6874e-07
2.69929e-06
-3.3758e-07
2.85015e-06
-3.0588e-07
2.98584e-06
-2.74088e-07
3.10642e-06
-2.42548e-07
3.212e-06
-2.11138e-07
3.3023e-06
-1.79614e-07
3.37716e-06
-1.46749e-07
3.43423e-06
-1.09368e-07
3.47796e-06
-6.4362e-08
3.52572e-06
1.032e-08
1.16629e-07
3.54934e-06
8.44761e-09
-1.40977e-07
5.6156e-09
-1.00836e-07
7.22892e-09
-1.0567e-07
1.44497e-08
-9.21502e-08
2.32445e-08
-9.44296e-08
3.62596e-08
-8.9453e-08
4.8806e-08
-8.54292e-08
6.04956e-08
-7.56292e-08
6.91355e-08
-6.6206e-08
7.52599e-08
-5.68278e-08
7.84873e-08
-4.92732e-08
7.87091e-08
-4.12977e-08
7.52603e-08
-3.26276e-08
6.8067e-08
-2.22313e-08
5.67626e-08
-9.05633e-09
4.16806e-08
7.84183e-09
2.26267e-08
2.85142e-08
-6.15463e-10
5.13463e-08
-2.83224e-08
7.40515e-08
-6.04815e-08
9.51228e-08
-9.7067e-08
1.13599e-07
-1.38036e-07
1.28982e-07
-1.83433e-07
1.41304e-07
-2.33531e-07
1.50954e-07
-2.89297e-07
1.58566e-07
-3.51638e-07
1.65028e-07
-4.19897e-07
1.7115e-07
-4.91817e-07
1.77237e-07
-5.64788e-07
1.83122e-07
-6.36503e-07
1.88443e-07
-7.05239e-07
1.92758e-07
-7.69902e-07
1.95603e-07
-8.29938e-07
1.96631e-07
-8.85004e-07
1.95777e-07
-9.34926e-07
1.93149e-07
-9.79755e-07
1.88916e-07
-1.01974e-06
1.83329e-07
-1.0552e-06
1.76706e-07
-1.08654e-06
1.69375e-07
-1.11429e-06
1.61631e-07
-1.13901e-06
1.53743e-07
-1.16133e-06
1.45939e-07
-1.1818e-06
1.38401e-07
-1.20094e-06
1.31265e-07
-1.21918e-06
1.24621e-07
-1.23686e-06
1.18519e-07
-1.25425e-06
1.12977e-07
-1.27156e-06
1.07991e-07
-1.28891e-06
1.03543e-07
-1.30641e-06
9.96017e-08
-1.32409e-06
9.61297e-08
-1.34197e-06
9.30801e-08
-1.36005e-06
9.0402e-08
-1.37834e-06
8.80462e-08
-1.39684e-06
8.59668e-08
-1.41555e-06
8.41221e-08
-1.43447e-06
8.24749e-08
-1.45359e-06
8.0991e-08
-1.47293e-06
7.96404e-08
-1.49247e-06
7.83955e-08
-1.51222e-06
7.72318e-08
-1.53218e-06
7.61256e-08
-1.55233e-06
7.50557e-08
-1.57266e-06
7.40009e-08
-1.59316e-06
7.29412e-08
-1.61381e-06
7.18557e-08
-1.63457e-06
7.0724e-08
-1.6554e-06
6.95238e-08
-1.67627e-06
6.82324e-08
-1.69709e-06
6.68238e-08
-1.71781e-06
6.52715e-08
-1.73832e-06
6.35438e-08
-1.75852e-06
6.16079e-08
-1.77829e-06
5.94243e-08
-1.79748e-06
5.69512e-08
-1.81591e-06
5.41381e-08
-1.83338e-06
5.09302e-08
-1.84969e-06
4.72606e-08
-1.86458e-06
4.30551e-08
-1.87777e-06
3.82201e-08
-1.88894e-06
3.2647e-08
-1.89772e-06
2.62034e-08
-1.90365e-06
1.87158e-08
-1.90621e-06
9.96584e-09
-1.905e-06
-1.96917e-10
-1.89976e-06
-1.17925e-08
-1.89026e-06
-2.49315e-08
-1.87606e-06
-3.97842e-08
-1.85662e-06
-5.65144e-08
-1.83132e-06
-7.52836e-08
-1.79946e-06
-9.62638e-08
-1.76029e-06
-1.19623e-07
-1.71299e-06
-1.45526e-07
-1.65668e-06
-1.74125e-07
-1.59046e-06
-2.05548e-07
-1.51333e-06
-2.39887e-07
-1.42434e-06
-2.77181e-07
-1.32252e-06
-3.17389e-07
-1.207e-06
-3.60364e-07
-1.07696e-06
-4.05758e-07
-9.31578e-07
-4.52902e-07
-7.70082e-07
-5.00939e-07
-5.93078e-07
-5.48905e-07
-4.0155e-07
-5.94513e-07
-1.98236e-07
-6.36426e-07
1.33261e-08
-6.70865e-07
2.30124e-07
-6.9243e-07
4.46635e-07
-6.9561e-07
6.55393e-07
-6.76396e-07
8.48497e-07
-6.3478e-07
1.01885e-06
-5.73843e-07
1.16246e-06
-5.00215e-07
1.27741e-06
-4.17208e-07
1.35762e-06
-3.16455e-07
1.39487e-06
-1.98853e-07
1.39374e-06
-8.84022e-08
1.36402e-06
2.74114e-08
1.28755e-06
2.15683e-07
1.13401e-06
4.75679e-07
9.18381e-07
6.91677e-07
6.98613e-07
7.54419e-07
3.85854e-07
7.67257e-07
-2.43111e-07
1.00607e-06
-1.10673e-06
1.45879e-06
-1.86995e-06
1.8073e-06
-2.38773e-06
1.86959e-06
-2.70594e-06
1.69638e-06
-2.9315e-06
1.41979e-06
-3.13039e-06
1.14382e-06
-3.32694e-06
9.02295e-07
-3.51302e-06
6.93438e-07
-3.67013e-06
5.07397e-07
-3.78302e-06
3.37444e-07
-3.84379e-06
1.81379e-07
-3.85177e-06
3.99885e-08
-3.81452e-06
-8.52074e-08
-3.74171e-06
-1.91871e-07
-3.64036e-06
-2.79442e-07
-3.51677e-06
-3.48414e-07
-3.37653e-06
-4.00378e-07
-3.22434e-06
-4.3826e-07
-3.06417e-06
-4.64499e-07
-2.8985e-06
-4.81685e-07
-2.72916e-06
-4.91797e-07
-2.55717e-06
-4.97711e-07
-2.38321e-06
-5.02226e-07
-2.20747e-06
-5.07006e-07
-2.02954e-06
-5.13082e-07
-1.84862e-06
-5.21499e-07
-1.6637e-06
-5.32954e-07
-1.47362e-06
-5.47784e-07
-1.27719e-06
-5.66039e-07
-1.07334e-06
-5.87446e-07
-8.61308e-07
-6.11351e-07
-6.40546e-07
-6.3672e-07
-4.10757e-07
-6.62975e-07
-1.72788e-07
-6.90019e-07
7.10021e-08
-7.1687e-07
3.1697e-07
-7.4199e-07
5.64317e-07
-7.59311e-07
8.12898e-07
-7.65059e-07
1.06091e-06
-7.61173e-07
1.30549e-06
-7.48978e-07
1.5437e-06
-7.29364e-07
1.77291e-06
-7.03064e-07
1.99138e-06
-6.70491e-07
2.19758e-06
-6.32838e-07
2.3903e-06
-5.91381e-07
2.56886e-06
-5.47294e-07
2.73295e-06
-5.01665e-07
2.88256e-06
-4.5549e-07
3.0179e-06
-4.09425e-07
3.13928e-06
-3.6392e-07
3.24698e-06
-3.18835e-07
3.34111e-06
-2.7374e-07
3.4215e-06
-2.27145e-07
3.48745e-06
-1.75318e-07
3.53833e-06
-1.1524e-07
3.57545e-06
-2.68031e-08
9.57033e-08
3.59637e-06
-2.18547e-08
-1.1912e-07
-3.71763e-08
-8.55149e-08
-5.48598e-08
-8.79838e-08
-6.84866e-08
-7.85228e-08
-8.45235e-08
-7.83909e-08
-9.83327e-08
-7.56436e-08
-1.11227e-07
-7.25339e-08
-1.21686e-07
-6.51695e-08
-1.32157e-07
-5.57344e-08
-1.441e-07
-4.48841e-08
-1.59509e-07
-3.38633e-08
-1.79051e-07
-2.17553e-08
-2.02968e-07
-8.71034e-09
-2.30861e-07
5.66165e-09
-2.61882e-07
2.19649e-08
-2.94464e-07
4.04239e-08
-3.26868e-07
6.09187e-08
-3.58217e-07
8.26956e-08
-3.88906e-07
1.04741e-07
-4.19801e-07
1.26018e-07
-4.51869e-07
1.45667e-07
-4.86012e-07
1.63126e-07
-5.2295e-07
1.78242e-07
-5.63062e-07
1.91066e-07
-6.06213e-07
2.01717e-07
-6.51516e-07
2.10332e-07
-6.97424e-07
2.17059e-07
-7.42199e-07
2.22012e-07
-7.84333e-07
2.25256e-07
-8.22717e-07
2.26827e-07
-8.56701e-07
2.26743e-07
-8.8612e-07
2.25022e-07
-9.1122e-07
2.21731e-07
-9.32474e-07
2.17031e-07
-9.50474e-07
2.11149e-07
-9.65904e-07
2.04346e-07
-9.79471e-07
1.96896e-07
-9.91837e-07
1.89072e-07
-1.00359e-06
1.81123e-07
-1.01521e-06
1.73254e-07
-1.02709e-06
1.65627e-07
-1.03951e-06
1.58359e-07
-1.05264e-06
1.51532e-07
-1.06657e-06
1.45192e-07
-1.08131e-06
1.39362e-07
-1.09683e-06
1.34043e-07
-1.11308e-06
1.29225e-07
-1.12998e-06
1.24887e-07
-1.14744e-06
1.21002e-07
-1.16538e-06
1.17542e-07
-1.18372e-06
1.14474e-07
-1.2024e-06
1.11763e-07
-1.22137e-06
1.09371e-07
-1.24059e-06
1.07262e-07
-1.26002e-06
1.05399e-07
-1.27965e-06
1.03749e-07
-1.29945e-06
1.02279e-07
-1.31942e-06
1.00959e-07
-1.33954e-06
9.97607e-08
-1.3598e-06
9.86572e-08
-1.38019e-06
9.76228e-08
-1.4007e-06
9.66328e-08
-1.42131e-06
9.5663e-08
-1.442e-06
9.46889e-08
-1.46274e-06
9.3686e-08
-1.48351e-06
9.26284e-08
-1.50428e-06
9.14893e-08
-1.52499e-06
9.02395e-08
-1.54561e-06
8.8848e-08
-1.56606e-06
8.72805e-08
-1.58629e-06
8.54996e-08
-1.60621e-06
8.34635e-08
-1.62573e-06
8.11258e-08
-1.64473e-06
7.84342e-08
-1.66311e-06
7.53301e-08
-1.68072e-06
7.1747e-08
-1.6974e-06
6.76099e-08
-1.71297e-06
6.28332e-08
-1.72723e-06
5.73193e-08
-1.73996e-06
5.09567e-08
-1.75093e-06
4.36195e-08
-1.75989e-06
3.51674e-08
-1.7666e-06
2.54314e-08
-1.77084e-06
1.42074e-08
-1.77233e-06
1.29903e-09
-1.7707e-06
-1.34226e-08
-1.76544e-06
-3.01826e-08
-1.75604e-06
-4.91784e-08
-1.74195e-06
-7.05991e-08
-1.72257e-06
-9.46555e-08
-1.69727e-06
-1.21563e-07
-1.66534e-06
-1.51547e-07
-1.62604e-06
-1.84825e-07
-1.57856e-06
-2.21602e-07
-1.52204e-06
-2.62058e-07
-1.4556e-06
-3.06332e-07
-1.37827e-06
-3.54499e-07
-1.28911e-06
-4.06543e-07
-1.18717e-06
-4.62297e-07
-1.07155e-06
-5.21353e-07
-9.41457e-07
-5.82974e-07
-7.9629e-07
-6.4607e-07
-6.36114e-07
-7.09039e-07
-4.61482e-07
-7.69102e-07
-2.74368e-07
-8.23504e-07
-7.72768e-08
-8.67928e-07
1.25422e-07
-8.95111e-07
3.27445e-07
-8.97623e-07
5.21471e-07
-8.70415e-07
6.98844e-07
-8.12147e-07
8.50585e-07
-7.25574e-07
9.70291e-07
-6.19913e-07