/*--------------------------------*- C++ -*----------------------------------*\
| =========                 |                                                 |
| \\      /  F ield         | OpenFOAM: The Open Source CFD Toolbox           |
|  \\    /   O peration     | Version:  v1906                                 |
|   \\  /    A nd           | Web:      www.OpenFOAM.com                      |
|    \\/     M anipulation  |                                                 |
\*---------------------------------------------------------------------------*/
FoamFile
{
    version     2.0;
    format      ascii;
    class       volSymmTensorField;
    location    "1700";
    object      R;
}
// * * * * * * * * * * * * * * * * * * * * * * * * * * * * * * * * * * * * * //

dimensions      [0 2 -2 0 0 0 0];


internalField   nonuniform List<symmTensor> 
12225
(
(1.62959 -0.334084 0 1.36039 0 1.52762)
(1.99802 -0.598252 0 0.914526 0 1.54288)
(2.153 -0.586759 0 0.685973 0 1.49059)
(2.16729 -0.548833 0 0.594989 0 1.42881)
(2.13582 -0.521707 0 0.550056 0 1.37428)
(2.09124 -0.502147 0 0.522058 0 1.32786)
(2.0451 -0.486865 0 0.501598 0 1.28818)
(2.00135 -0.474196 0 0.485273 0 1.25379)
(1.96089 -0.463313 0 0.471638 0 1.22369)
(1.92457 -0.453877 0 0.460049 0 1.19725)
(1.89092 -0.445415 0 0.449911 0 1.17367)
(1.8623 -0.438464 0 0.441157 0 1.15307)
(1.83976 -0.433234 0 0.434141 0 1.13659)
(1.82208 -0.428948 0 0.42836 0 1.12292)
(1.80585 -0.425158 0 0.423339 0 1.11098)
(1.79446 -0.42265 0 0.419735 0 1.10194)
(1.78123 -0.419124 0 0.415337 0 1.09202)
(1.77618 -0.41958 0 0.414202 0 1.08781)
(1.52344 -0.0379083 0 1.46191 0 1.51644)
(1.578 -0.141076 0 1.197 0 1.51298)
(1.59296 -0.192956 0 0.943744 0 1.46129)
(1.58109 -0.213891 0 0.791908 0 1.4054)
(1.55689 -0.224302 0 0.694839 0 1.35245)
(1.5323 -0.231677 0 0.628825 0 1.3072)
(1.50957 -0.237804 0 0.580987 0 1.26873)
(1.48864 -0.243006 0 0.544389 0 1.23507)
(1.47078 -0.247718 0 0.515752 0 1.20656)
(1.45473 -0.251667 0 0.492459 0 1.18102)
(1.44211 -0.255673 0 0.473684 0 1.16017)
(1.42997 -0.258608 0 0.457352 0 1.13998)
(1.42191 -0.262502 0 0.444753 0 1.12526)
(1.41333 -0.264472 0 0.432292 0 1.10861)
(1.40842 -0.268514 0 0.424515 0 1.0991)
(1.40279 -0.269182 0 0.413574 0 1.08451)
(1.39867 -0.272965 0 0.409741 0 1.07886)
(1.39314 -0.271829 0 0.399346 0 1.06452)
(1.51181 -0.00787812 0 1.49346 0 1.51042)
(1.53547 -0.0360068 0 1.38415 0 1.51933)
(1.54924 -0.0630854 0 1.2341 0 1.50756)
(1.54701 -0.0823596 0 1.11548 0 1.4842)
(1.53459 -0.0967753 0 1.02234 0 1.45587)
(1.51843 -0.108836 0 0.947801 0 1.42709)
(1.50125 -0.119396 0 0.88721 0 1.39968)
(1.48386 -0.128703 0 0.83697 0 1.37375)
(1.46754 -0.137153 0 0.79485 0 1.35012)
(1.45217 -0.144713 0 0.758896 0 1.32814)
(1.43844 -0.151836 0 0.728151 0 1.30865)
(1.42562 -0.158066 0 0.701087 0 1.29013)
(1.41436 -0.164238 0 0.678086 0 1.27441)
(1.40447 -0.169299 0 0.656646 0 1.25863)
(1.3944 -0.174674 0 0.640041 0 1.24653)
(1.38928 -0.178631 0 0.620508 0 1.23224)
(1.37464 -0.182885 0 0.613411 0 1.22482)
(1.38839 -0.185385 0 0.583384 0 1.20912)
(1.51159 -0.00601488 0 1.49404 0 1.51116)
(1.52772 -0.0162183 0 1.42125 0 1.52215)
(1.54104 -0.0301689 0 1.31218 0 1.52408)
(1.54449 -0.0430435 0 1.21295 0 1.51621)
(1.54018 -0.053729 0 1.12937 0 1.50242)
(1.53173 -0.0630448 0 1.05914 0 1.48589)
(1.52116 -0.0714484 0 0.999974 0 1.46848)
(1.50942 -0.0790535 0 0.949651 0 1.45087)
(1.4975 -0.0860753 0 0.906468 0 1.43382)
(1.48567 -0.0925051 0 0.869016 0 1.41739)
(1.47439 -0.0985434 0 0.836398 0 1.40203)
(1.46359 -0.104033 0 0.807573 0 1.38732)
(1.45345 -0.109278 0 0.78238 0 1.37395)
(1.44417 -0.113879 0 0.759527 0 1.36098)
(1.43491 -0.118343 0 0.740021 0 1.34961)
(1.42785 -0.121979 0 0.720759 0 1.33805)
(1.41814 -0.12536 0 0.706986 0 1.32896)
(1.41479 -0.127956 0 0.687263 0 1.31825)
(1.50982 -0.00438712 0 1.49832 0 1.50971)
(1.52113 -0.00868014 0 1.44938 0 1.51892)
(1.53283 -0.0152388 0 1.37324 0 1.52495)
(1.53869 -0.0225821 0 1.29844 0 1.52437)
(1.53903 -0.0294845 0 1.23171 0 1.51886)
(1.53577 -0.0360455 0 1.17283 0 1.51036)
(1.53023 -0.0423538 0 1.12109 0 1.5002)
(1.52319 -0.0483287 0 1.07554 0 1.48909)
(1.51535 -0.0539974 0 1.03526 0 1.47764)
(1.50711 -0.0593251 0 0.999461 0 1.46613)
(1.4988 -0.0643712 0 0.967565 0 1.4549)
(1.49054 -0.0690672 0 0.938926 0 1.4439)
(1.48248 -0.0735037 0 0.913261 0 1.43344)
(1.47477 -0.0775138 0 0.889958 0 1.42329)
(1.46719 -0.0812227 0 0.86911 0 1.41386)
(1.46046 -0.0844241 0 0.84962 0 1.40466)
(1.45353 -0.0871248 0 0.832804 0 1.39659)
(1.44855 -0.0895591 0 0.814568 0 1.38836)
(1.50979 -0.00405941 0 1.49852 0 1.5098)
(1.51869 -0.00572446 0 1.46041 0 1.5178)
(1.52874 -0.00857475 0 1.40201 0 1.52488)
(1.53531 -0.0125516 0 1.34156 0 1.52771)
(1.538 -0.0167329 0 1.285 0 1.52671)
(1.53776 -0.0209807 0 1.23343 0 1.52301)
(1.5354 -0.0252607 0 1.18694 0 1.51748)
(1.5315 -0.029462 0 1.14519 0 1.51073)
(1.52658 -0.0335483 0 1.10765 0 1.50325)
(1.52101 -0.0374779 0 1.07383 0 1.49534)
(1.51507 -0.0412477 0 1.0433 0 1.48728)
(1.50893 -0.0448102 0 1.01563 0 1.47918)
(1.50271 -0.0481719 0 0.990515 0 1.47121)
(1.49657 -0.0512487 0 0.967602 0 1.46338)
(1.4905 -0.0540419 0 0.946727 0 1.45586)
(1.48479 -0.056486 0 0.927387 0 1.44857)
(1.47913 -0.0585413 0 0.909805 0 1.44176)
(1.47419 -0.0604571 0 0.892146 0 1.43505)
(1.50943 -0.00327891 0 1.49944 0 1.50951)
(1.51645 -0.00420137 0 1.46905 0 1.51617)
(1.52475 -0.00516484 0 1.42394 0 1.52291)
(1.53105 -0.00693464 0 1.37569 0 1.52698)
(1.53466 -0.00911276 0 1.3291 0 1.52826)
(1.53602 -0.0115906 0 1.28553 0 1.52732)
(1.53558 -0.0142991 0 1.24541 0 1.52471)
(1.53374 -0.0171132 0 1.20869 0 1.52089)
(1.5309 -0.0199551 0 1.17511 0 1.51623)
(1.52734 -0.0227658 0 1.14441 0 1.51099)
(1.52328 -0.025508 0 1.11631 0 1.5054)
(1.51889 -0.0281338 0 1.09055 0 1.4996)
(1.5143 -0.0306143 0 1.06689 0 1.49372)
(1.50963 -0.0328964 0 1.04509 0 1.48784)
(1.50496 -0.0349481 0 1.02497 0 1.48207)
(1.50044 -0.0367538 0 1.00626 0 1.47643)
(1.49613 -0.0382684 0 0.988842 0 1.4711)
(1.49201 -0.0397492 0 0.972011 0 1.46587)
(1.50952 -0.00294667 0 1.49931 0 1.50963)
(1.51543 -0.00350302 0 1.47337 0 1.51548)
(1.52235 -0.00352302 0 1.43692 0 1.5216)
(1.52813 -0.00405804 0 1.39701 0 1.52611)
(1.53208 -0.00501404 0 1.35741 0 1.5286)
(1.53431 -0.00632564 0 1.31955 0 1.52934)
(1.53507 -0.00792028 0 1.28404 0 1.52864)
(1.53462 -0.00968675 0 1.25104 0 1.52682)
(1.53324 -0.0115449 0 1.22049 0 1.52414)
(1.53113 -0.0134348 0 1.19223 0 1.52085)
(1.52849 -0.0153102 0 1.16611 0 1.51711)
(1.52545 -0.0171253 0 1.14195 0 1.51307)
(1.52215 -0.0188417 0 1.11957 0 1.50883)
(1.51868 -0.0204203 0 1.09879 0 1.50449)
(1.51514 -0.0218305 0 1.07946 0 1.50014)
(1.51162 -0.02307 0 1.06137 0 1.49583)
(1.50812 -0.0241577 0 1.04444 0 1.49164)
(1.50454 -0.0252181 0 1.0284 0 1.48753)
(1.50946 -0.0023691 0 1.49951 0 1.50959)
(1.51445 -0.00292988 0 1.47715 0 1.51468)
(1.52017 -0.00255422 0 1.44723 0 1.52007)
(1.52527 -0.00234116 0 1.41411 0 1.52448)
(1.52913 -0.00244068 0 1.38063 0 1.52746)
(1.5317 -0.00287802 0 1.34809 0 1.52909)
(1.5331 -0.00361312 0 1.31712 0 1.52953)
(1.53348 -0.00455963 0 1.28797 0 1.52899)
(1.53305 -0.00564283 0 1.26066 0 1.52767)
(1.53195 -0.0068023 0 1.23514 0 1.52575)
(1.53034 -0.00798748 0 1.21132 0 1.52337)
(1.52834 -0.00915278 0 1.18909 0 1.52065)
(1.52605 -0.0102585 0 1.16832 0 1.5177)
(1.52356 -0.0112734 0 1.14888 0 1.51458)
(1.52097 -0.0121732 0 1.13065 0 1.5114)
(1.51833 -0.0129643 0 1.11351 0 1.5082)
(1.51567 -0.0136547 0 1.09738 0 1.50506)
(1.5127 -0.0143859 0 1.0823 0 1.50193)
(1.50951 -0.00205864 0 1.49944 0 1.50964)
(1.51392 -0.00262375 0 1.47938 0 1.51427)
(1.51876 -0.00208461 0 1.45401 0 1.51906)
(1.52323 -0.00148719 0 1.42587 0 1.52322)
(1.52685 -0.00109793 0 1.397 0 1.52638)
(1.52953 -0.000995603 0 1.36853 0 1.5285)
(1.53128 -0.001165 0 1.34107 0 1.52966)
(1.53221 -0.001543 0 1.31491 0 1.52999)
(1.53243 -0.00206701 0 1.29014 0 1.52964)
(1.53206 -0.00268293 0 1.26679 0 1.52872)
(1.53122 -0.00334376 0 1.24481 0 1.52736)
(1.53 -0.00400861 0 1.22413 0 1.52565)
(1.52849 -0.00464265 0 1.20468 0 1.52368)
(1.52677 -0.00522172 0 1.18636 0 1.52153)
(1.5249 -0.0057318 0 1.16909 0 1.51926)
(1.52292 -0.0061846 0 1.15278 0 1.51693)
(1.52079 -0.00661782 0 1.13744 0 1.51457)
(1.51831 -0.00707483 0 1.12316 0 1.51222)
(1.50947 -0.00161661 0 1.49957 0 1.50962)
(1.51339 -0.00220579 0 1.48145 0 1.51381)
(1.51749 -0.00166576 0 1.45964 0 1.51804)
(1.52136 -0.000884514 0 1.43554 0 1.52185)
(1.52465 -0.000184888 0 1.41059 0 1.52495)
(1.52725 0.000304455 0 1.38572 0 1.52727)
(1.52912 0.000565009 0 1.36146 0 1.52883)
(1.53033 0.00063231 0 1.33812 0 1.52969)
(1.53095 0.000553343 0 1.31582 0 1.52997)
(1.53106 0.000373967 0 1.29462 0 1.52974)
(1.53076 0.000136052 0 1.2745 0 1.52911)
(1.53012 -0.000124181 0 1.25544 0 1.52815)
(1.5292 -0.000376815 0 1.23738 0 1.52693)
(1.52808 -0.000602545 0 1.22028 0 1.52552)
(1.52679 -0.000791613 0 1.20406 0 1.52398)
(1.52536 -0.000955684 0 1.18871 0 1.52235)
(1.52374 -0.00111223 0 1.17423 0 1.52067)
(1.52169 -0.00135202 0 1.1608 0 1.51894)
(1.50944 -0.00137838 0 1.49966 0 1.50959)
(1.51306 -0.00196403 0 1.48277 0 1.51353)
(1.51667 -0.00146398 0 1.46331 0 1.51737)
(1.52009 -0.000636044 0 1.44201 0 1.52088)
(1.52308 0.000191819 0 1.41987 0 1.52386)
(1.52553 0.000871176 0 1.39761 0 1.52624)
(1.52743 0.00136484 0 1.37572 0 1.52799)
(1.52878 0.00168968 0 1.35446 0 1.52918)
(1.52963 0.00187987 0 1.334 0 1.52985)
(1.53005 0.00197263 0 1.31439 0 1.53008)
(1.53011 0.0020032 0 1.29567 0 1.52995)
(1.52985 0.0020018 0 1.27783 0 1.5295)
(1.52935 0.00199253 0 1.26083 0 1.52882)
(1.52864 0.00198938 0 1.24466 0 1.52793)
(1.52775 0.00199694 0 1.22928 0 1.52691)
(1.52669 0.00200304 0 1.21468 0 1.52578)
(1.52538 0.00198094 0 1.20092 0 1.52456)
(1.52368 0.00191399 0 1.18813 0 1.52329)
(1.50938 -0.00109018 0 1.49984 0 1.50953)
(1.51272 -0.00163104 0 1.48406 0 1.51322)
(1.51591 -0.00119137 0 1.46654 0 1.51671)
(1.51892 -0.000372552 0 1.44758 0 1.51993)
(1.52161 0.000518353 0 1.42784 0 1.52275)
(1.52389 0.00132318 0 1.40787 0 1.52509)
(1.52573 0.00198846 0 1.38808 0 1.52693)
(1.52713 0.00251346 0 1.36872 0 1.5283)
(1.52813 0.0029194 0 1.34995 0 1.52924)
(1.52875 0.00323442 0 1.33186 0 1.5298)
(1.52906 0.00348683 0 1.31447 0 1.53002)
(1.5291 0.00370137 0 1.2978 0 1.52997)
(1.5289 0.0038972 0 1.28185 0 1.52969)
(1.52851 0.00408581 0 1.2666 0 1.52922)
(1.52794 0.00427023 0 1.25205 0 1.52861)
(1.52719 0.00444448 0 1.23821 0 1.52788)
(1.52618 0.00459664 0 1.22515 0 1.52706)
(1.52476 0.00467517 0 1.21299 0 1.52614)
(1.50929 -0.000890699 0 1.50006 0 1.50945)
(1.5124 -0.00138137 0 1.4852 0 1.51293)
(1.51524 -0.00101104 0 1.46931 0 1.51613)
(1.51789 -0.000249988 0 1.45239 0 1.51908)
(1.52028 0.00063054 0 1.4348 0 1.5217)
(1.52237 0.0014772 0 1.41693 0 1.52397)
(1.52411 0.00222843 0 1.39908 0 1.52584)
(1.52552 0.00287093 0 1.3815 0 1.52733)
(1.5266 0.00341474 0 1.36432 0 1.52847)
(1.52738 0.00387876 0 1.34763 0 1.52928)
(1.52789 0.00428359 0 1.3315 0 1.52981)
(1.52816 0.00464726 0 1.31595 0 1.53009)
(1.52823 0.00498324 0 1.30099 0 1.53016)
(1.52811 0.00529801 0 1.28664 0 1.53005)
(1.52781 0.00559153 0 1.2729 0 1.5298)
(1.52732 0.00585665 0 1.25979 0 1.52942)
(1.52659 0.00607885 0 1.24739 0 1.52895)
(1.52551 0.00628574 0 1.23577 0 1.52839)
(1.50918 -0.000584154 0 1.50035 0 1.50934)
(1.51204 -0.000917872 0 1.48644 0 1.51259)
(1.51456 -0.000587098 0 1.47203 0 1.51551)
(1.51687 0.000101265 0 1.45693 0 1.51818)
(1.51897 0.000938554 0 1.44128 0 1.52059)
(1.52084 0.00179176 0 1.42534 0 1.52273)
(1.52246 0.00259759 0 1.40933 0 1.52457)
(1.52382 0.00333297 0 1.39343 0 1.52612)
(1.52493 0.00399705 0 1.37779 0 1.52738)
(1.5258 0.00459921 0 1.3625 0 1.52837)
(1.52645 0.00515206 0 1.34761 0 1.52912)
(1.5269 0.00566772 0 1.33318 0 1.52965)
(1.52717 0.00615525 0 1.31923 0 1.53)
(1.52727 0.00662019 0 1.30579 0 1.53018)
(1.5272 0.0070629 0 1.29287 0 1.53022)
(1.52693 0.00747902 0 1.28053 0 1.53014)
(1.52642 0.00785967 0 1.26881 0 1.52995)
(1.52559 0.00815035 0 1.25781 0 1.52965)
(1.50903 -0.000423948 0 1.50069 0 1.5092)
(1.51168 -0.00065056 0 1.48756 0 1.51225)
(1.51396 -0.000377336 0 1.47427 0 1.51495)
(1.516 0.000193345 0 1.46058 0 1.5174)
(1.51786 0.000909408 0 1.44649 0 1.51963)
(1.51953 0.00166609 0 1.43213 0 1.52164)
(1.52102 0.00240742 0 1.41766 0 1.52342)
(1.52231 0.00310811 0 1.4032 0 1.52497)
(1.52341 0.00376114 0 1.38887 0 1.52629)
(1.52433 0.00436865 0 1.37478 0 1.52739)
(1.52507 0.00493628 0 1.36098 0 1.52829)
(1.52564 0.00546973 0 1.34752 0 1.52901)
(1.52606 0.00597322 0 1.33446 0 1.52956)
(1.52632 0.00644844 0 1.32181 0 1.52996)
(1.52644 0.00689528 0 1.30962 0 1.53024)
(1.52638 0.00731441 0 1.29791 0 1.5304)
(1.52613 0.00770617 0 1.28674 0 1.53046)
(1.52562 0.00811627 0 1.27616 0 1.53042)
(1.50889 -9.02892e-05 0 1.50104 0 1.50906)
(1.51134 -2.53555e-05 0 1.4886 0 1.51192)
(1.51342 0.000315031 0 1.47619 0 1.51443)
(1.51526 0.000846339 0 1.46357 0 1.5167)
(1.51693 0.00148997 0 1.45066 0 1.51878)
(1.51844 0.00218425 0 1.4375 0 1.52067)
(1.51981 0.002892 0 1.4242 0 1.52238)
(1.52103 0.00359315 0 1.41086 0 1.5239)
(1.5221 0.00427872 0 1.39758 0 1.52524)
(1.52302 0.00494591 0 1.38444 0 1.52639)
(1.5238 0.00559457 0 1.37151 0 1.52738)
(1.52444 0.00622521 0 1.35886 0 1.5282)
(1.52494 0.00683748 0 1.34653 0 1.52887)
(1.5253 0.00742973 0 1.33456 0 1.52941)
(1.52551 0.00799774 0 1.32298 0 1.52981)
(1.52557 0.00853329 0 1.31185 0 1.53011)
(1.52544 0.00902523 0 1.30118 0 1.53029)
(1.52512 0.00942666 0 1.29104 0 1.53038)
(1.50878 -6.31606e-06 0 1.50131 0 1.50894)
(1.51111 0.000185961 0 1.4893 0 1.51167)
(1.51309 0.000495784 0 1.47736 0 1.51409)
(1.51484 0.000884667 0 1.46528 0 1.51628)
(1.51643 0.00132606 0 1.45299 0 1.51828)
(1.51787 0.00179933 0 1.44048 0 1.52011)
(1.51919 0.00229068 0 1.42783 0 1.52177)
(1.52037 0.00279095 0 1.41512 0 1.52327)
(1.52144 0.00329425 0 1.40243 0 1.52461)
(1.52237 0.00379676 0 1.38984 0 1.52579)
(1.52319 0.00429579 0 1.37742 0 1.52682)
(1.52388 0.00478939 0 1.36522 0 1.52769)
(1.52445 0.00527593 0 1.3533 0 1.52844)
(1.52491 0.00575482 0 1.34168 0 1.52905)
(1.52524 0.00622639 0 1.33041 0 1.52955)
(1.52545 0.0066959 0 1.31952 0 1.52994)
(1.52551 0.00716882 0 1.30905 0 1.53023)
(1.5254 0.00768407 0 1.29902 0 1.53041)
(1.50879 0.000484135 0 1.50125 0 1.50896)
(1.51113 0.00119437 0 1.48914 0 1.5117)
(1.51314 0.00174538 0 1.47708 0 1.51414)
(1.51492 0.00221888 0 1.46485 0 1.51635)
(1.51653 0.00267203 0 1.45239 0 1.51837)
(1.518 0.00313973 0 1.43972 0 1.52021)
(1.51932 0.00364 0 1.42691 0 1.52187)
(1.52051 0.00417891 0 1.41404 0 1.52337)
(1.52157 0.00475508 0 1.40121 0 1.52469)
(1.52249 0.00536283 0 1.3885 0 1.52585)
(1.52327 0.00599414 0 1.37597 0 1.52684)
(1.52393 0.00663971 0 1.36369 0 1.52768)
(1.52446 0.00728952 0 1.35169 0 1.52838)
(1.52488 0.00793288 0 1.34 0 1.52895)
(1.52519 0.00855833 0 1.32866 0 1.52939)
(1.5254 0.00915207 0 1.31768 0 1.52974)
(1.52551 0.00969901 0 1.30707 0 1.52999)
(1.52553 0.0101662 0 1.29684 0 1.53017)
(1.50906 0.000531534 0 1.50074 0 1.5092)
(1.51179 0.00125692 0 1.4877 0 1.51226)
(1.51412 0.00165302 0 1.47457 0 1.51496)
(1.51623 0.00186317 0 1.4611 0 1.51741)
(1.51816 0.00199995 0 1.44728 0 1.51965)
(1.5199 0.00213974 0 1.4332 0 1.52166)
(1.52147 0.00232442 0 1.41901 0 1.52346)
(1.52286 0.0025708 0 1.40484 0 1.52503)
(1.52406 0.0028805 0 1.39079 0 1.52639)
(1.52509 0.00324664 0 1.37695 0 1.52753)
(1.52594 0.00365816 0 1.36339 0 1.52847)
(1.52663 0.0041023 0 1.35016 0 1.52923)
(1.52717 0.00456665 0 1.33731 0 1.52981)
(1.52756 0.00504 0 1.32486 0 1.53024)
(1.52781 0.00551496 0 1.31284 0 1.53052)
(1.52791 0.00598905 0 1.30126 0 1.53067)
(1.52788 0.00646983 0 1.29015 0 1.53069)
(1.52768 0.00699305 0 1.27951 0 1.53058)
(1.50922 0.00097328 0 1.50028 0 1.50936)
(1.51227 0.00203166 0 1.48605 0 1.51273)
(1.51501 0.00247962 0 1.47125 0 1.51577)
(1.51754 0.00264825 0 1.45576 0 1.51856)
(1.51984 0.00273813 0 1.43975 0 1.52106)
(1.52189 0.00286243 0 1.42347 0 1.52327)
(1.52369 0.00307309 0 1.40713 0 1.52517)
(1.52521 0.00338392 0 1.39092 0 1.52677)
(1.52647 0.00378963 0 1.37499 0 1.52806)
(1.52748 0.00427698 0 1.35942 0 1.52907)
(1.52826 0.0048305 0 1.34429 0 1.52983)
(1.52882 0.00543562 0 1.32964 0 1.53036)
(1.52918 0.00608014 0 1.3155 0 1.53068)
(1.52937 0.00675533 0 1.30188 0 1.53082)
(1.52941 0.00745492 0 1.2888 0 1.53079)
(1.52932 0.00817523 0 1.27623 0 1.53064)
(1.52912 0.00890831 0 1.26417 0 1.53037)
(1.5289 0.00962211 0 1.25258 0 1.53005)
(1.50944 0.00114216 0 1.49986 0 1.50955)
(1.5129 0.00224679 0 1.48429 0 1.51325)
(1.51616 0.00258164 0 1.46727 0 1.5167)
(1.51925 0.00261884 0 1.44899 0 1.51988)
(1.52204 0.00260478 0 1.43 0 1.52268)
(1.52447 0.00266918 0 1.4108 0 1.52503)
(1.52649 0.00286694 0 1.39173 0 1.52694)
(1.52811 0.00320587 0 1.37302 0 1.5284)
(1.52935 0.00367218 0 1.35482 0 1.52946)
(1.53026 0.00424449 0 1.33721 0 1.53016)
(1.53086 0.00489964 0 1.32025 0 1.53055)
(1.5312 0.00561518 0 1.30394 0 1.53066)
(1.53131 0.00637032 0 1.28831 0 1.53054)
(1.53122 0.00714517 0 1.27333 0 1.53022)
(1.53097 0.00792159 0 1.25901 0 1.52974)
(1.53057 0.00868179 0 1.24532 0 1.5291)
(1.53004 0.00941727 0 1.23228 0 1.52835)
(1.52929 0.0101552 0 1.21988 0 1.52744)
(1.50957 0.00178534 0 1.49944 0 1.50968)
(1.51361 0.00311417 0 1.48163 0 1.51389)
(1.51773 0.0034795 0 1.46081 0 1.51801)
(1.52162 0.0036524 0 1.43801 0 1.52174)
(1.52502 0.00389529 0 1.41437 0 1.52485)
(1.52781 0.00430139 0 1.3907 0 1.52727)
(1.52998 0.00489004 0 1.36746 0 1.52901)
(1.53156 0.00563821 0 1.34497 0 1.53014)
(1.5326 0.0065115 0 1.32335 0 1.53072)
(1.53317 0.00747794 0 1.3027 0 1.53083)
(1.53334 0.00851033 0 1.28302 0 1.53055)
(1.53317 0.00958643 0 1.26431 0 1.52993)
(1.53271 0.0106894 0 1.24655 0 1.52904)
(1.53201 0.0118086 0 1.22971 0 1.52793)
(1.53109 0.0129401 0 1.21375 0 1.52662)
(1.53001 0.0140906 0 1.19864 0 1.52517)
(1.52879 0.0152715 0 1.18433 0 1.5236)
(1.52761 0.0164768 0 1.17073 0 1.52203)
(1.50959 0.00203791 0 1.49946 0 1.50966)
(1.51427 0.00345346 0 1.47916 0 1.51434)
(1.51946 0.00400173 0 1.45323 0 1.51918)
(1.52428 0.00452617 0 1.42455 0 1.52333)
(1.52819 0.00520995 0 1.39527 0 1.52642)
(1.53111 0.00610697 0 1.36651 0 1.52842)
(1.53307 0.00722472 0 1.33883 0 1.52944)
(1.53418 0.00852353 0 1.31247 0 1.52963)
(1.53458 0.00995316 0 1.2875 0 1.52914)
(1.5344 0.0114717 0 1.26393 0 1.5281)
(1.53375 0.013046 0 1.2417 0 1.52662)
(1.53272 0.0146503 0 1.22076 0 1.5248)
(1.5314 0.0162646 0 1.20102 0 1.52273)
(1.52986 0.0178721 0 1.18242 0 1.52046)
(1.52817 0.0194559 0 1.16488 0 1.51807)
(1.52638 0.0209879 0 1.14831 0 1.51558)
(1.52457 0.0224305 0 1.13265 0 1.51307)
(1.52255 0.0237506 0 1.11791 0 1.51046)
(1.50979 0.00303354 0 1.49889 0 1.50984)
(1.51585 0.00470855 0 1.47336 0 1.51563)
(1.52284 0.00602087 0 1.43816 0 1.52156)
(1.52885 0.00776578 0 1.39959 0 1.52603)
(1.53319 0.00978203 0 1.36111 0 1.52865)
(1.53592 0.0119573 0 1.32415 0 1.52963)
(1.53723 0.0142555 0 1.2893 0 1.52923)
(1.53737 0.0166227 0 1.25676 0 1.52775)
(1.53658 0.0190076 0 1.2265 0 1.52544)
(1.53507 0.0213787 0 1.19842 0 1.52251)
(1.53302 0.0237166 0 1.17236 0 1.51913)
(1.53057 0.0260066 0 1.14816 0 1.51544)
(1.52782 0.0282376 0 1.12566 0 1.51152)
(1.52485 0.030401 0 1.10474 0 1.50746)
(1.52172 0.0324898 0 1.08526 0 1.50332)
(1.51846 0.0345107 0 1.06711 0 1.49912)
(1.51502 0.0364854 0 1.05023 0 1.49487)
(1.51169 0.0384959 0 1.03452 0 1.49074)
(1.50952 0.00321904 0 1.49949 0 1.5095)
(1.51715 0.00618139 0 1.46759 0 1.51622)
(1.52634 0.00964082 0 1.41931 0 1.52276)
(1.53315 0.0135868 0 1.36863 0 1.5262)
(1.53695 0.0175898 0 1.3203 0 1.52662)
(1.53823 0.021551 0 1.27545 0 1.52471)
(1.5376 0.0255043 0 1.23428 0 1.52113)
(1.53555 0.0294127 0 1.1966 0 1.51637)
(1.53246 0.0332175 0 1.16217 0 1.51083)
(1.52867 0.0368894 0 1.13067 0 1.50478)
(1.52439 0.0404205 0 1.1018 0 1.49845)
(1.51982 0.0438083 0 1.07528 0 1.49196)
(1.51507 0.0470558 0 1.05086 0 1.48544)
(1.51027 0.0501695 0 1.02833 0 1.47898)
(1.50549 0.0531578 0 1.0075 0 1.47262)
(1.5008 0.0560269 0 0.988183 0 1.46643)
(1.49644 0.0587623 0 0.970187 0 1.4605)
(1.49224 0.0611935 0 0.953495 0 1.45484)
(1.51082 0.00499445 0 1.49634 0 1.51063)
(1.52254 0.0112869 0 1.44725 0 1.51971)
(1.53511 0.0203205 0 1.37181 0 1.52589)
(1.54214 0.0292611 0 1.29722 0 1.52591)
(1.54393 0.0370909 0 1.22991 0 1.52126)
(1.5419 0.0438769 0 1.17041 0 1.51356)
(1.5374 0.0499985 0 1.11804 0 1.50404)
(1.53133 0.0556267 0 1.07193 0 1.49354)
(1.52429 0.0608091 0 1.0312 0 1.48259)
(1.51674 0.0656035 0 0.995049 0 1.47154)
(1.50895 0.0700693 0 0.962775 0 1.46061)
(1.50114 0.0742454 0 0.933818 0 1.44994)
(1.49345 0.078157 0 0.907714 0 1.43962)
(1.48598 0.0818307 0 0.884085 0 1.42971)
(1.47871 0.0852712 0 0.862599 0 1.42019)
(1.47178 0.0884988 0 0.843014 0 1.41115)
(1.46472 0.0914704 0 0.825055 0 1.4023)
(1.4579 0.094297 0 0.808899 0 1.39396)
(1.51 0.0055655 0 1.4981 0 1.5093)
(1.52771 0.025467 0 1.42336 0 1.51813)
(1.54391 0.0466036 0 1.31192 0 1.5172)
(1.54829 0.0624285 0 1.2146 0 1.50613)
(1.54443 0.0746778 0 1.13323 0 1.48975)
(1.53548 0.0845752 0 1.06482 0 1.47076)
(1.52424 0.0932028 0 1.00664 0 1.45112)
(1.51206 0.100879 0 0.956854 0 1.43181)
(1.49954 0.107719 0 0.913888 0 1.4132)
(1.48716 0.113867 0 0.876446 0 1.3955)
(1.47517 0.119452 0 0.843552 0 1.37879)
(1.4638 0.124575 0 0.814443 0 1.36315)
(1.45302 0.129277 0 0.788506 0 1.34847)
(1.44298 0.133641 0 0.765281 0 1.33484)
(1.43357 0.137696 0 0.744311 0 1.32204)
(1.42487 0.141477 0 0.725442 0 1.31022)
(1.41698 0.145145 0 0.708081 0 1.29909)
(1.41049 0.148341 0 0.692899 0 1.28947)
(1.51865 0.0283662 0 1.47424 0 1.51456)
(1.56412 0.112027 0 1.27057 0 1.51897)
(1.58668 0.162402 0 1.05049 0 1.48932)
(1.58151 0.184519 0 0.902849 0 1.44758)
(1.56505 0.196186 0 0.80144 0 1.40547)
(1.54332 0.203412 0 0.728598 0 1.3654)
(1.52263 0.209529 0 0.674079 0 1.33031)
(1.50324 0.214874 0 0.631886 0 1.29943)
(1.48531 0.219669 0 0.598092 0 1.27198)
(1.46909 0.22403 0 0.570326 0 1.24757)
(1.45436 0.227971 0 0.547123 0 1.22564)
(1.44141 0.231605 0 0.527466 0 1.20618)
(1.42964 0.234908 0 0.510563 0 1.18848)
(1.41957 0.237978 0 0.495944 0 1.17284)
(1.41024 0.2408 0 0.483125 0 1.15836)
(1.40249 0.2434 0 0.471847 0 1.14569)
(1.39495 0.245863 0 0.461864 0 1.13363)
(1.38767 0.247872 0 0.452713 0 1.12259)
(1.59295 0.292543 0 1.39559 0 1.521)
(1.91798 0.57935 0 0.967322 0 1.53352)
(2.07148 0.586082 0 0.732457 0 1.49029)
(2.10685 0.553466 0 0.628559 0 1.43741)
(2.09682 0.526177 0 0.574423 0 1.38864)
(2.06966 0.506077 0 0.541296 0 1.34605)
(2.03638 0.490662 0 0.518281 0 1.30925)
(2.00218 0.478254 0 0.500686 0 1.27726)
(1.96912 0.46782 0 0.486392 0 1.24913)
(1.93799 0.458779 0 0.474339 0 1.22418)
(1.90902 0.450789 0 0.463925 0 1.20183)
(1.88217 0.443642 0 0.454787 0 1.18172)
(1.85742 0.437197 0 0.446675 0 1.16351)
(1.83448 0.431344 0 0.43941 0 1.14694)
(1.81345 0.425997 0 0.432856 0 1.13186)
(1.79375 0.421122 0 0.426933 0 1.11797)
(1.77589 0.416559 0 0.421482 0 1.10533)
(1.7587 0.412349 0 0.41662 0 1.09345)
(0.00542223 0.00228648 0 0.0199971 0 0.0163785)
(0.0126077 -0.00088887 0 0.0248861 0 0.0280961)
(0.0215424 -0.00249125 0 0.0292321 0 0.0378857)
(0.0280354 -0.00418018 0 0.0289044 0 0.0427748)
(0.0337024 -0.0050897 0 0.0283861 0 0.0463834)
(0.0382295 -0.00584637 0 0.0273183 0 0.0486494)
(0.0422201 -0.006371 0 0.0263346 0 0.0503546)
(0.0455927 -0.00683399 0 0.0252399 0 0.0514836)
(0.0485884 -0.00718221 0 0.024206 0 0.052303)
(0.0511779 -0.00747224 0 0.0231966 0 0.0528178)
(0.0534211 -0.00771949 0 0.0222733 0 0.053114)
(0.0553501 -0.0079762 0 0.0213992 0 0.0531847)
(0.0569251 -0.00826299 0 0.0206333 0 0.053122)
(0.0588354 -0.00867857 0 0.0195624 0 0.0526412)
(0.0598428 -0.00898616 0 0.0189228 0 0.0522606)
(0.0608084 -0.0093541 0 0.0182594 0 0.0517741)
(0.062 -0.00977579 0 0.0174015 0 0.0509799)
(0.0629539 -0.0100136 0 0.0164905 0 0.0499227)
(0.0633637 -0.00988726 0 0.0154862 0 0.0484569)
(0.0623558 -0.00918707 0 0.0143864 0 0.046328)
(0.0600358 -0.00817204 0 0.013207 0 0.0435584)
(0.0565992 -0.00701429 0 0.011981 0 0.040277)
(0.0522993 -0.00581696 0 0.0107288 0 0.0366323)
(0.0473966 -0.00462903 0 0.00946864 0 0.0327687)
(0.043337 -0.0034159 0 0.00834742 0 0.0295789)
(0.0412636 -0.00217903 0 0.0075442 0 0.027793)
(0.0405356 -0.00103606 0 0.00709062 0 0.0270592)
(0.0403053 -0.000142505 0 0.00690796 0 0.026858)
(0.0398614 0.000374696 0 0.00685182 0 0.0267155)
(0.0388648 0.000564614 0 0.00680802 0 0.0263691)
(0.0372074 0.000663088 0 0.0067558 0 0.0257743)
(0.0354867 0.000767981 0 0.00681604 0 0.0253097)
(0.0349466 0.000913853 0 0.00711333 0 0.0255913)
(0.0370842 0.00154464 0 0.00763331 0 0.0272062)
(0.040335 0.00240827 0 0.00841516 0 0.0294792)
(0.0445071 0.00340609 0 0.00948247 0 0.0324051)
(0.0498785 0.00449281 0 0.0108419 0 0.0361879)
(0.0570044 0.00565613 0 0.0124894 0 0.0411812)
(0.0654334 0.00688992 0 0.0142952 0 0.0470649)
(0.0736232 0.0081571 0 0.0160913 0 0.0528119)
(0.0816257 0.00944963 0 0.0178827 0 0.0584595)
(0.0894418 0.0107476 0 0.0196661 0 0.0640079)
(0.0970753 0.0120351 0 0.0214387 0 0.0694569)
(0.104536 0.0133024 0 0.0231985 0 0.0748092)
(0.111833 0.0145422 0 0.0249431 0 0.0800652)
(0.118954 0.0157473 0 0.0266657 0 0.0852087)
(0.125944 0.01692 0 0.0283727 0 0.0902643)
(0.132843 0.0180656 0 0.0300696 0 0.0952532)
(0.139709 0.0191962 0 0.0317629 0 0.100202)
(0.146606 0.0203371 0 0.0334591 0 0.105141)
(0.153615 0.0215391 0 0.0351629 0 0.110102)
(0.160643 0.0227807 0 0.0368646 0 0.115051)
(0.167599 0.0240046 0 0.0385626 0 0.119964)
(0.17454 0.0252269 0 0.0402655 0 0.124872)
(0.181475 0.0264482 0 0.0419772 0 0.129788)
(0.188424 0.0276725 0 0.0437028 0 0.134725)
(0.195403 0.028903 0 0.0454468 0 0.139697)
(0.202425 0.0301425 0 0.0472137 0 0.144715)
(0.209501 0.0313935 0 0.0490077 0 0.149791)
(0.216643 0.0326583 0 0.0508329 0 0.154933)
(0.223859 0.033939 0 0.0526932 0 0.160151)
(0.231156 0.0352374 0 0.0545922 0 0.165453)
(0.238538 0.0365551 0 0.0565337 0 0.170846)
(0.24601 0.0378932 0 0.0585214 0 0.176335)
(0.253572 0.039253 0 0.0605587 0 0.181926)
(0.261226 0.0406354 0 0.0626493 0 0.187625)
(0.268969 0.042041 0 0.0647968 0 0.193432)
(0.276796 0.0434703 0 0.0670051 0 0.199353)
(0.284701 0.0449234 0 0.0692777 0 0.205387)
(0.292674 0.0464004 0 0.0716189 0 0.211535)
(0.300702 0.047901 0 0.0740328 0 0.217795)
(0.30877 0.0494244 0 0.0765239 0 0.224163)
(0.316858 0.0509697 0 0.0790971 0 0.230635)
(0.324939 0.0525354 0 0.0817576 0 0.237204)
(0.332986 0.0541193 0 0.0845109 0 0.243858)
(0.340963 0.0557189 0 0.0873634 0 0.250584)
(0.348828 0.0573307 0 0.0903219 0 0.257365)
(0.356535 0.0589503 0 0.0933941 0 0.264181)
(0.36403 0.0605712 0 0.0965876 0 0.271006)
(0.371255 0.0621841 0 0.0999102 0 0.277811)
(0.378144 0.0637785 0 0.10337 0 0.284562)
(0.384635 0.0653478 0 0.106975 0 0.291225)
(0.39066 0.0668937 0 0.110741 0 0.297762)
(0.396171 0.0684223 0 0.114689 0 0.304151)
(0.401169 0.0699256 0 0.118855 0 0.310402)
(0.405741 0.0714379 0 0.123294 0 0.316597)
(0.409945 0.0729695 0 0.128045 0 0.3228)
(0.413785 0.0744882 0 0.133148 0 0.329035)
(0.417224 0.0759912 0 0.13864 0 0.335295)
(0.420209 0.0774585 0 0.144562 0 0.341565)
(0.422677 0.0788669 0 0.150956 0 0.347823)
(0.424553 0.0801855 0 0.157869 0 0.354036)
(0.425748 0.0813731 0 0.165349 0 0.360163)
(0.426153 0.082376 0 0.173443 0 0.366148)
(0.425634 0.0831248 0 0.1822 0 0.371918)
(0.424029 0.0835315 0 0.191675 0 0.377378)
(0.421119 0.083475 0 0.201939 0 0.382411)
(0.41659 0.0827593 0 0.213122 0 0.386857)
(0.40987 0.081029 0 0.225545 0 0.390485)
(0.401336 0.0778898 0 0.238022 0 0.392583)
(0.393149 0.0738573 0 0.248279 0 0.393398)
(0.380807 0.0676642 0 0.261151 0 0.393724)
(0.364027 0.0548705 0 0.272842 0 0.390827)
(0.350639 0.0389812 0 0.281543 0 0.388245)
(0.340159 0.0203865 0 0.289446 0 0.38567)
(0.333717 -0.00188208 0 0.292853 0 0.382622)
(0.335373 -0.024116 0 0.287116 0 0.381586)
(0.340873 -0.043618 0 0.282189 0 0.381928)
(0.346249 -0.058188 0 0.275523 0 0.380564)
(0.351772 -0.0701554 0 0.263525 0 0.376268)
(0.356201 -0.0785417 0 0.245845 0 0.36817)
(0.35843 -0.0831005 0 0.225357 0 0.357129)
(0.358637 -0.0847664 0 0.203494 0 0.343827)
(0.3564 -0.0838248 0 0.180482 0 0.327937)
(0.35222 -0.0807071 0 0.157592 0 0.310432)
(0.345564 -0.0758158 0 0.136436 0 0.291833)
(0.331354 -0.0687536 0 0.116126 0 0.26908)
(0.30773 -0.0594661 0 0.096463 0 0.24139)
(0.271501 -0.0477045 0 0.0762895 0 0.206119)
(0.227525 -0.0353008 0 0.058746 0 0.168881)
(0.168007 -0.0239099 0 0.0415751 0 0.124024)
(0.139154 -0.0123325 0 0.0302564 0 0.0981228)
(0.152546 -0.00707581 0 0.0302612 0 0.103381)
(0.177694 -0.00349983 0 0.0339453 0 0.116133)
(0.14888 -0.00335739 0 0.028506 0 0.0973454)
(0.0847852 0.00519527 0 0.0256124 0 0.0719201)
(0.151651 0.0215561 0 0.0498956 0 0.127321)
(0.41134 0.0525562 0 0.102228 0 0.295355)
(0.571523 0.08513 0 0.138622 0 0.404012)
(0.70047 0.112328 0 0.172118 0 0.495357)
(0.797079 0.13361 0 0.201673 0 0.56681)
(0.872277 0.149667 0 0.229308 0 0.624996)
(0.929346 0.161344 0 0.255581 0 0.671764)
(0.97112 0.169097 0 0.280719 0 0.70863)
(0.999214 0.173506 0 0.304387 0 0.736281)
(1.0157 0.174829 0 0.32622 0 0.755799)
(1.02541 0.173914 0 0.346697 0 0.770299)
(1.02775 0.170604 0 0.362205 0 0.778096)
(1.02614 0.166768 0 0.372363 0 0.781514)
(1.02033 0.162934 0 0.380389 0 0.782118)
(1.00507 0.157882 0 0.389344 0 0.778737)
(0.990282 0.15152 0 0.394108 0 0.772959)
(0.969687 0.144711 0 0.395946 0 0.763547)
(0.944481 0.137346 0 0.395633 0 0.75119)
(0.911705 0.128198 0 0.393206 0 0.734791)
(0.864677 0.109095 0 0.387091 0 0.712141)
(0.827219 0.0922601 0 0.382716 0 0.694265)
(0.789278 0.0750247 0 0.378644 0 0.676247)
(0.755513 0.0581835 0 0.376018 0 0.660642)
(0.724463 0.0409726 0 0.374762 0 0.646727)
(0.696954 0.0232616 0 0.375045 0 0.634903)
(0.672959 0.00475666 0 0.376797 0 0.625069)
(0.65282 -0.0151721 0 0.380175 0 0.617453)
(0.63902 -0.0357042 0 0.384963 0 0.612921)
(0.631601 -0.0551014 0 0.389881 0 0.610714)
(0.625944 -0.0791747 0 0.396254 0 0.609553)
(0.628756 -0.102667 0 0.403368 0 0.611886)
(0.638198 -0.128675 0 0.411989 0 0.617088)
(0.658877 -0.159522 0 0.419385 0 0.626842)
(0.687242 -0.176845 0 0.401383 0 0.637093)
(0.707587 -0.187959 0 0.396996 0 0.645782)
(0.723408 -0.196999 0 0.395666 0 0.652102)