/*--------------------------------*- C++ -*----------------------------------*\
| =========                 |                                                 |
| \\      /  F ield         | OpenFOAM: The Open Source CFD Toolbox           |
|  \\    /   O peration     | Version:  v1906                                 |
|   \\  /    A nd           | Web:      www.OpenFOAM.com                      |
|    \\/     M anipulation  |                                                 |
\*---------------------------------------------------------------------------*/
FoamFile
{
    version     2.0;
    format      ascii;
    class       volVectorField;
    location    "1700";
    object      U;
}
// * * * * * * * * * * * * * * * * * * * * * * * * * * * * * * * * * * * * * //

dimensions      [0 1 -1 0 0 0 0];


internalField   nonuniform List<vector> 
12225
(
(9.79814 -0.0863279 0)
(9.51354 -0.307488 0)
(9.27239 -0.41977 0)
(9.07749 -0.461245 0)
(8.91758 -0.474641 0)
(8.77818 -0.478044 0)
(8.65364 -0.477537 0)
(8.54211 -0.475245 0)
(8.44201 -0.471998 0)
(8.35194 -0.468139 0)
(8.27105 -0.463782 0)
(8.19761 -0.458873 0)
(8.13104 -0.4538 0)
(8.07108 -0.44884 0)
(8.0187 -0.44429 0)
(7.97501 -0.441381 0)
(7.94255 -0.435882 0)
(7.92726 -0.455822 0)
(10.05 0.146793 0)
(10.0863 0.250752 0)
(10.0598 0.305921 0)
(10.017 0.343285 0)
(9.97426 0.365696 0)
(9.93117 0.378601 0)
(9.88874 0.386354 0)
(9.84809 0.390936 0)
(9.80934 0.393249 0)
(9.77223 0.39396 0)
(9.73695 0.393562 0)
(9.7036 0.392367 0)
(9.67233 0.390416 0)
(9.6429 0.387836 0)
(9.61546 0.384134 0)
(9.58915 0.380258 0)
(9.56605 0.371373 0)
(9.54321 0.36474 0)
(10.0185 0.00425795 0)
(10.0533 -0.0206853 0)
(10.0427 -0.0638715 0)
(10.0196 -0.101998 0)
(9.99811 -0.133128 0)
(9.97771 -0.157393 0)
(9.95828 -0.17562 0)
(9.9402 -0.189504 0)
(9.92327 -0.200392 0)
(9.90734 -0.209135 0)
(9.89228 -0.216195 0)
(9.87835 -0.221984 0)
(9.86538 -0.226827 0)
(9.85387 -0.231347 0)
(9.84323 -0.235692 0)
(9.83428 -0.241279 0)
(9.82634 -0.247284 0)
(9.8122 -0.263202 0)
(10.0096 0.0630204 0)
(10.0374 0.104562 0)
(10.0479 0.125899 0)
(10.049 0.14724 0)
(10.0472 0.165916 0)
(10.0426 0.180988 0)
(10.0361 0.193165 0)
(10.0291 0.202893 0)
(10.022 0.210585 0)
(10.0149 0.216672 0)
(10.0081 0.221507 0)
(10.0017 0.225321 0)
(9.99594 0.228174 0)
(9.99094 0.230053 0)
(9.98667 0.230832 0)
(9.98332 0.230218 0)
(9.98082 0.22768 0)
(9.98037 0.222337 0)
(10.0105 0.0166073 0)
(10.0427 0.0211889 0)
(10.057 0.0117038 0)
(10.0613 -0.00158745 0)
(10.0627 -0.016866 0)
(10.0622 -0.0322571 0)
(10.0606 -0.0462048 0)
(10.0588 -0.0584679 0)
(10.0569 -0.0692921 0)
(10.0549 -0.0789031 0)
(10.0531 -0.0875026 0)
(10.0513 -0.0953136 0)
(10.05 -0.102599 0)
(10.0489 -0.10971 0)
(10.0483 -0.11693 0)
(10.0473 -0.125017 0)
(10.0471 -0.133581 0)
(10.0403 -0.14614 0)
(10.0059 0.036536 0)
(10.028 0.0671203 0)
(10.0436 0.0811234 0)
(10.0542 0.0919583 0)
(10.0626 0.101389 0)
(10.0686 0.109772 0)
(10.0728 0.117474 0)
(10.0759 0.124388 0)
(10.0784 0.130434 0)
(10.0804 0.13566 0)
(10.0822 0.140139 0)
(10.084 0.143909 0)
(10.0858 0.146951 0)
(10.0877 0.149156 0)
(10.0898 0.150446 0)
(10.092 0.150525 0)
(10.0941 0.149372 0)
(10.0982 0.147303 0)
(10.005 0.01377 0)
(10.025 0.0241328 0)
(10.0402 0.0247127 0)
(10.0499 0.0210623 0)
(10.0571 0.0145644 0)
(10.0622 0.00647751 0)
(10.0661 -0.00198439 0)
(10.0694 -0.0103158 0)
(10.0723 -0.01835 0)
(10.075 -0.026027 0)
(10.0776 -0.0333605 0)
(10.0801 -0.0404349 0)
(10.0826 -0.0473837 0)
(10.0851 -0.0544207 0)
(10.0876 -0.0616689 0)
(10.0894 -0.0695651 0)
(10.0908 -0.0776561 0)
(10.088 -0.0880189 0)
(10.0034 0.022347 0)
(10.0185 0.0470551 0)
(10.0324 0.0600242 0)
(10.0436 0.0684222 0)
(10.0536 0.0745962 0)
(10.062 0.0796595 0)
(10.0691 0.0842711 0)
(10.0753 0.0885353 0)
(10.0809 0.0924227 0)
(10.086 0.0959173 0)
(10.0908 0.0990025 0)
(10.0954 0.101641 0)
(10.0998 0.103782 0)
(10.1042 0.105325 0)
(10.1084 0.106219 0)
(10.1125 0.106349 0)
(10.1162 0.105711 0)
(10.1215 0.10534 0)
(10.002 0.0100785 0)
(10.0135 0.020711 0)
(10.026 0.0245378 0)
(10.0361 0.0246015 0)
(10.0446 0.0220281 0)
(10.0516 0.0177584 0)
(10.0575 0.0126176 0)
(10.0627 0.00702692 0)
(10.0675 0.00121145 0)
(10.0719 -0.00470455 0)
(10.0761 -0.0106713 0)
(10.0801 -0.016705 0)
(10.0839 -0.0228528 0)
(10.0875 -0.0292236 0)
(10.0909 -0.0358459 0)
(10.0934 -0.0429328 0)
(10.0954 -0.0501434 0)
(10.0945 -0.0589188 0)
(10.0019 0.013939 0)
(10.0121 0.0334365 0)
(10.0234 0.0452913 0)
(10.0336 0.0529605 0)
(10.0433 0.0581704 0)
(10.0519 0.062041 0)
(10.0597 0.0652664 0)
(10.0669 0.0681108 0)
(10.0735 0.0706673 0)
(10.0797 0.072964 0)
(10.0855 0.0749963 0)
(10.0911 0.0767326 0)
(10.0964 0.0781391 0)
(10.1015 0.0791585 0)
(10.1063 0.0797888 0)
(10.1109 0.0800378 0)
(10.1152 0.0799197 0)
(10.1203 0.0806027 0)
(10.0006 0.00705015 0)
(10.0071 0.0161477 0)
(10.0164 0.0205494 0)
(10.0253 0.0219315 0)
(10.0337 0.0210601 0)
(10.041 0.0186485 0)
(10.0476 0.0152656 0)
(10.0536 0.0112417 0)
(10.0591 0.00678183 0)
(10.0643 0.00200919 0)
(10.0691 -0.00301087 0)
(10.0736 -0.00826169 0)
(10.0778 -0.013746 0)
(10.0817 -0.0195041 0)
(10.0852 -0.0255295 0)
(10.088 -0.0319306 0)
(10.0904 -0.0384524 0)
(10.0909 -0.0461767 0)
(10.001 0.00881661 0)
(10.008 0.023185 0)
(10.0169 0.0328573 0)
(10.0256 0.0394094 0)
(10.0343 0.0437824 0)
(10.0424 0.0468237 0)
(10.05 0.0490912 0)
(10.0572 0.0508829 0)
(10.0638 0.0523547 0)
(10.0701 0.053582 0)
(10.0761 0.0545965 0)
(10.0817 0.0553987 0)
(10.087 0.0559909 0)
(10.092 0.0563559 0)
(10.0967 0.0565386 0)
(10.1011 0.0565807 0)
(10.1051 0.0565384 0)
(10.1095 0.0574566 0)
(10.0001 0.00510637 0)
(10.004 0.0123772 0)
(10.0111 0.0163002 0)
(10.0186 0.0179501 0)
(10.0262 0.0177399 0)
(10.0334 0.0162202 0)
(10.0401 0.013774 0)
(10.0463 0.0106612 0)
(10.0521 0.00705193 0)
(10.0574 0.00305391 0)
(10.0625 -0.00126841 0)
(10.0672 -0.00588304 0)
(10.0716 -0.010776 0)
(10.0756 -0.0159455 0)
(10.0792 -0.0213961 0)
(10.0823 -0.0271576 0)
(10.0849 -0.0331365 0)
(10.0869 -0.0402401 0)
(10.0006 0.00590002 0)
(10.0056 0.0168965 0)
(10.0126 0.0251928 0)
(10.0201 0.0314421 0)
(10.0278 0.036021 0)
(10.0353 0.0395045 0)
(10.0426 0.0422799 0)
(10.0495 0.0446068 0)
(10.0561 0.0466427 0)
(10.0624 0.0484774 0)
(10.0683 0.0501632 0)
(10.0739 0.0517243 0)
(10.0791 0.0531893 0)
(10.084 0.0545719 0)
(10.0885 0.0559338 0)
(10.0927 0.0573486 0)
(10.0963 0.0587846 0)
(10.0996 0.0612763 0)
(9.99991 0.00276389 0)
(10.0022 0.00667041 0)
(10.0072 0.00843312 0)
(10.0132 0.0086519 0)
(10.0198 0.00750056 0)
(10.0263 0.00531475 0)
(10.0326 0.00231804 0)
(10.0387 -0.00131721 0)
(10.0444 -0.00546959 0)
(10.0499 -0.0100549 0)
(10.0549 -0.0150182 0)
(10.0597 -0.0203201 0)
(10.0641 -0.025943 0)
(10.0682 -0.031863 0)
(10.0719 -0.0380875 0)
(10.0755 -0.0446165 0)
(10.0787 -0.0513114 0)
(10.0819 -0.0589875 0)
(10.0003 0.00360165 0)
(10.0035 0.0109564 0)
(10.0086 0.0173162 0)
(10.0145 0.0227917 0)
(10.0208 0.02743 0)
(10.0272 0.0314741 0)
(10.0336 0.0351152 0)
(10.0398 0.0385062 0)
(10.0457 0.0417557 0)
(10.0512 0.0449344 0)
(10.0565 0.0480908 0)
(10.0614 0.051253 0)
(10.0658 0.0544501 0)
(10.0699 0.0576972 0)
(10.0735 0.0610213 0)
(10.0766 0.0644693 0)
(10.0792 0.0678699 0)
(10.0809 0.0721219 0)
(10.0001 0.000140265 0)
(10.0021 -0.0003949 0)
(10.0062 -0.0020655 0)
(10.0113 -0.00461021 0)
(10.0173 -0.00797296 0)
(10.0235 -0.0120208 0)
(10.0298 -0.0166595 0)
(10.036 -0.0218129 0)
(10.0421 -0.0274206 0)
(10.048 -0.0334335 0)
(10.0536 -0.039815 0)
(10.059 -0.0465219 0)
(10.0641 -0.0535221 0)
(10.0689 -0.0607697 0)
(10.0735 -0.0682257 0)
(10.0781 -0.0758547 0)
(10.0823 -0.0834278 0)
(10.0869 -0.0916111 0)
(9.99998 0.00189854 0)
(10.0014 0.00605392 0)
(10.0045 0.010432 0)
(10.0084 0.0149782 0)
(10.0128 0.0196488 0)
(10.0175 0.0244588 0)
(10.022 0.0294195 0)
(10.0264 0.0345431 0)
(10.0306 0.0398368 0)
(10.0343 0.0453 0)
(10.0377 0.0509272 0)
(10.0407 0.0567022 0)
(10.0433 0.0626003 0)
(10.0454 0.0685986 0)
(10.0471 0.0746391 0)
(10.0482 0.0807327 0)
(10.0491 0.0865892 0)
(10.0492 0.0929493 0)
(10.0004 -0.00321723 0)
(10.0038 -0.010043 0)
(10.0093 -0.0170071 0)
(10.0159 -0.0240461 0)
(10.0232 -0.0312053 0)
(10.031 -0.0385401 0)
(10.0389 -0.046102 0)
(10.047 -0.0539232 0)
(10.0549 -0.0620146 0)
(10.0628 -0.0703697 0)
(10.0704 -0.0789685 0)
(10.0779 -0.0877806 0)
(10.085 -0.0967665 0)
(10.092 -0.105881 0)
(10.0986 -0.115061 0)
(10.1049 -0.124263 0)
(10.1107 -0.133308 0)
(10.1163 -0.142487 0)
(9.9996 -0.00145126 0)
(9.99969 -0.0030004 0)
(10.0017 -0.00299179 0)
(10.0045 -0.00178594 0)
(10.0076 0.000447421 0)
(10.0107 0.00352829 0)
(10.0136 0.00728582 0)
(10.0161 0.0115775 0)
(10.0183 0.0162874 0)
(10.02 0.0213238 0)
(10.0214 0.0266204 0)
(10.0224 0.032131 0)
(10.0231 0.0378345 0)
(10.0234 0.0437181 0)
(10.0235 0.0498004 0)
(10.0233 0.0560862 0)
(10.0233 0.0625499 0)
(10.023 0.0695169 0)
(10.0008 -0.00561684 0)
(10.0062 -0.0166436 0)
(10.0135 -0.0259988 0)
(10.0215 -0.0340292 0)
(10.0299 -0.0411095 0)
(10.0384 -0.0476018 0)
(10.0468 -0.0537857 0)
(10.055 -0.0598269 0)
(10.0629 -0.0658101 0)
(10.0705 -0.071774 0)
(10.0778 -0.0777327 0)
(10.0849 -0.0836926 0)
(10.0917 -0.0896659 0)
(10.0984 -0.0956734 0)
(10.1048 -0.101771 0)
(10.1112 -0.108021 0)
(10.1171 -0.114507 0)
(10.1234 -0.121598 0)
(9.99962 -0.0039253 0)
(10.0011 -0.00924458 0)
(10.0052 -0.0115655 0)
(10.0096 -0.0116718 0)
(10.0137 -0.00995455 0)
(10.0173 -0.00682521 0)
(10.0202 -0.00270836 0)
(10.0226 0.00205787 0)
(10.0246 0.00722114 0)
(10.0261 0.0125947 0)
(10.0272 0.0180468 0)
(10.028 0.023494 0)
(10.0284 0.0288958 0)
(10.0283 0.0342499 0)
(10.0278 0.0396153 0)
(10.0267 0.0450926 0)
(10.0254 0.0508632 0)
(10.0229 0.0574542 0)
(10.0015 -0.0108455 0)
(10.01 -0.0288623 0)
(10.0202 -0.0417118 0)
(10.0302 -0.0516195 0)
(10.0401 -0.059875 0)
(10.0495 -0.0672296 0)
(10.0582 -0.0741392 0)
(10.0662 -0.0807827 0)
(10.0736 -0.0871935 0)
(10.0804 -0.0933637 0)
(10.0868 -0.0992753 0)
(10.0928 -0.104913 0)
(10.0986 -0.110271 0)
(10.1042 -0.115364 0)
(10.1099 -0.120248 0)
(10.116 -0.12504 0)
(10.1222 -0.12999 0)
(10.1302 -0.13575 0)
(10.0008 -0.00659847 0)
(10.0076 -0.014141 0)
(10.0161 -0.0160394 0)
(10.0225 -0.0142792 0)
(10.0273 -0.00979194 0)
(10.0308 -0.00344073 0)
(10.0334 0.00386012 0)
(10.0353 0.0114921 0)
(10.0368 0.0190944 0)
(10.0379 0.0264425 0)
(10.0388 0.0334015 0)
(10.0394 0.0399005 0)
(10.0397 0.0459037 0)
(10.0396 0.0513999 0)
(10.0391 0.0564144 0)
(10.0374 0.0610292 0)
(10.0351 0.0655149 0)
(10.0293 0.0706731 0)
(10.0028 -0.0223757 0)
(10.0166 -0.0495988 0)
(10.0305 -0.0656996 0)
(10.0422 -0.0782393 0)
(10.0528 -0.0894264 0)
(10.0617 -0.0997595 0)
(10.069 -0.109494 0)
(10.0751 -0.118609 0)
(10.0802 -0.126993 0)
(10.0846 -0.134612 0)
(10.0884 -0.141482 0)
(10.0917 -0.147636 0)
(10.0948 -0.153099 0)
(10.0977 -0.157896 0)
(10.1006 -0.16203 0)
(10.1043 -0.165531 0)
(10.1085 -0.168526 0)
(10.1172 -0.171685 0)
(10.005 -0.00897605 0)
(10.0242 -0.0145293 0)
(10.0366 -0.00935668 0)
(10.0417 0.000962825 0)
(10.044 0.0142116 0)
(10.0448 0.0285446 0)
(10.0446 0.0423358 0)
(10.0441 0.0549061 0)
(10.0434 0.0661296 0)
(10.0426 0.0760375 0)
(10.0416 0.0847166 0)
(10.0405 0.0922763 0)
(10.0392 0.0988148 0)
(10.0377 0.104405 0)
(10.036 0.10907 0)
(10.0334 0.112805 0)
(10.03 0.115653 0)
(10.0208 0.118167 0)
(10.0055 -0.0480363 0)
(10.0267 -0.0881183 0)
(10.0416 -0.11088 0)
(10.0497 -0.132586 0)
(10.0546 -0.152608 0)
(10.0566 -0.16974 0)
(10.0562 -0.184226 0)
(10.0545 -0.196342 0)
(10.0521 -0.20632 0)
(10.0493 -0.214479 0)
(10.0462 -0.221137 0)
(10.043 -0.226539 0)
(10.0397 -0.230868 0)
(10.0365 -0.234272 0)
(10.0333 -0.236807 0)
(10.0309 -0.238491 0)
(10.0289 -0.23916 0)
(10.0337 -0.23874 0)
(10.0144 -0.000916687 0)
(10.0466 0.015756 0)
(10.0451 0.0506864 0)
(10.0305 0.0850141 0)
(10.016 0.114979 0)
(10.0025 0.139474 0)
(9.98945 0.158534 0)
(9.97724 0.17319 0)
(9.96581 0.184566 0)
(9.95494 0.19345 0)
(9.94453 0.20037 0)
(9.93452 0.205716 0)
(9.92488 0.209769 0)
(9.91553 0.212742 0)
(9.90655 0.214735 0)
(9.89736 0.215824 0)
(9.88854 0.215801 0)
(9.87293 0.214806 0)
(10.0327 -0.124104 0)
(10.0632 -0.217291 0)
(10.0515 -0.267682 0)
(10.0252 -0.304015 0)
(9.99879 -0.327384 0)
(9.97281 -0.341669 0)
(9.94743 -0.350696 0)
(9.92355 -0.356365 0)
(9.90116 -0.359633 0)
(9.87993 -0.361137 0)
(9.85968 -0.361319 0)
(9.8403 -0.360484 0)
(9.82171 -0.358844 0)
(9.80388 -0.356578 0)
(9.78672 -0.353776 0)
(9.77065 -0.350656 0)
(9.75539 -0.346906 0)
(9.7486 -0.342277 0)
(9.86208 0.0595847 0)
(9.66856 0.235273 0)
(9.49433 0.336668 0)
(9.34872 0.37946 0)
(9.22803 0.395427 0)
(9.12087 0.400381 0)
(9.02236 0.400439 0)
(8.93144 0.398178 0)
(8.84735 0.394751 0)
(8.76933 0.390647 0)
(8.69685 0.386076 0)
(8.6295 0.381153 0)
(8.56687 0.375944 0)
(8.50853 0.370502 0)
(8.45408 0.364792 0)
(8.40295 0.358938 0)
(8.35465 0.351919 0)
(8.30437 0.344358 0)
(-0.00848076 -0.109986 -1.99572e-19)
(0.100274 -0.137899 1.23677e-19)
(0.165356 -0.148833 0)
(0.224926 -0.136236 0)
(0.277578 -0.124598 0)
(0.325017 -0.112114 -6.12557e-20)
(0.366642 -0.102234 0)
(0.403994 -0.0930042 0)
(0.4369 -0.0852852 0)
(0.465982 -0.0783014 0)
(0.491548 -0.0721375 4.74728e-20)
(0.514244 -0.0662401 0)
(0.533706 -0.0603951 0)
(0.549912 -0.0540504 0)
(0.562015 -0.0469811 0)
(0.568778 -0.0382933 4.40214e-20)
(0.567289 -0.0271107 0)
(0.556622 -0.0145449 0)
(0.537271 -0.00256837 0)
(0.509993 0.00752005 0)
(0.475875 0.0152686 0)
(0.436558 0.0205757 0)
(0.393976 0.0236014 0)
(0.349601 0.0245918 5.93126e-20)
(0.304615 0.0234219 -6.4426e-20)
(0.261783 0.0196246 7.02705e-20)
(0.223544 0.0129495 7.65729e-20)
(0.189622 0.00436773 0)
(0.157988 -0.0035546 0)
(0.125869 -0.00751206 -9.85514e-20)
(0.0902943 -0.00570252 -1.0931e-19)
(0.0492177 -0.00128896 0)
(0.000273802 0.000863475 0)
(-0.0520821 0.00323163 -1.17038e-19)
(-0.106773 0.00641867 0)
(-0.165262 0.00888362 0)
(-0.226523 0.0103814 7.25953e-20)
(-0.289269 0.0114767 0)
(-0.352828 0.0125678 5.71657e-20)
(-0.417396 0.0134289 1.03316e-19)
(-0.482506 0.0136866 0)
(-0.547478 0.0131634 0)
(-0.611807 0.0118426 0)
(-0.675033 0.00979153 0)
(-0.736796 0.00712027 0)
(-0.796849 0.00394395 6.73679e-20)
(-0.855029 0.000378533 6.41207e-20)
(-0.911255 -0.00346828 6.13009e-20)
(-0.965534 -0.00749117 0)
(-1.01793 -0.0115803 -5.66559e-20)
(-1.06853 -0.0156209 0)
(-1.11749 -0.019568 5.29661e-20)
(-1.16505 -0.0234521 5.13852e-20)
(-1.21134 -0.0272975 0)
(-1.25651 -0.031115 0)
(-1.3007 -0.0349248 0)
(-1.34401 -0.0387459 4.62735e-20)
(-1.38656 -0.0426011 0)
(-1.42842 -0.0465115 0)
(-1.46965 -0.0505007 0)
(-1.51032 -0.0545894 0)
(-1.55045 -0.0588003 0)
(-1.59008 -0.0631529 0)
(-1.62921 -0.0676687 0)
(-1.66784 -0.0723651 0)
(-1.70594 -0.0772618 -3.86869e-20)
(-1.7435 -0.082374 0)
(-1.78046 -0.0877191 0)
(-1.81677 -0.0933092 3.68357e-20)
(-1.85234 -0.0991589 3.62721e-20)
(-1.88709 -0.105276 0)
(-1.92091 -0.111672 -3.52174e-20)
(-1.95366 -0.118347 3.47246e-20)
(-1.98519 -0.125306 0)
(-2.01532 -0.132538 -3.38049e-20)
(-2.04384 -0.14003 0)
(-2.0705 -0.147756 0)
(-2.09505 -0.155681 3.25871e-20)
(-2.11714 -0.163741 0)
(-2.13644 -0.171843 -3.18852e-20)
(-2.15255 -0.179831 0)
(-2.16512 -0.187477 3.12778e-20)
(-2.17375 -0.194468 3.10126e-20)
(-2.178 -0.200521 3.07675e-20)
(-2.17747 -0.205569 6.09969e-20)
(-2.17316 -0.210416 -6.04895e-20)
(-2.16445 -0.215593 0)
(-2.1511 -0.221307 0)
(-2.13254 -0.227693 0)
(-2.10814 -0.234846 -5.84302e-20)
(-2.07718 -0.242851 -5.7878e-20)
(-2.0389 -0.251788 5.73103e-20)
(-1.99241 -0.261744 0)
(-1.93682 -0.272807 -5.61442e-20)
(-1.87115 -0.285065 -5.55633e-20)
(-1.79439 -0.298593 -5.50052e-20)
(-1.70548 -0.313451 0)
(-1.60328 -0.3297 0)
(-1.48689 -0.347375 0)
(-1.35547 -0.366221 -5.37716e-20)
(-1.20738 -0.385859 0)
(-1.0433 -0.407354 0)
(-0.863963 -0.429884 5.71315e-20)
(-0.667821 -0.456216 0)
(-0.457599 -0.48482 0)
(-0.240043 -0.512177 7.98646e-20)
(-0.0172168 -0.523695 0)
(0.219516 -0.504743 0)
(0.463511 -0.475705 -5.54494e-20)
(0.704344 -0.445885 -4.68926e-20)
(0.931621 -0.41636 0)
(1.13863 -0.38729 3.92759e-20)
(1.32147 -0.359261 0)
(1.47626 -0.331151 -3.72348e-20)
(1.59353 -0.303164 0)
(1.67076 -0.27699 -3.76191e-20)
(1.6843 -0.23315 -3.81652e-20)
(1.60804 -0.154479 0)
(1.43686 -0.0627 0)
(1.20191 0.00314426 0)
(0.948454 0.0276788 0)
(0.682309 0.0277722 0)
(0.481455 0.01695 0)
(0.428243 -0.0775056 0)
(0.418985 -0.157455 -8.22548e-20)
(0.0694457 -0.0013303 6.94759e-20)
(-0.703567 0.140015 0)
(-1.43866 0.140246 0)
(-2.13031 0.0803282 0)
(-2.72232 -0.0105002 0)
(-3.18844 -0.108145 8.21568e-20)
(-3.53591 -0.19765 0)
(-3.77527 -0.272477 -8.61579e-20)
(-3.91908 -0.329489 8.61593e-20)
(-3.97834 -0.36612 0)
(-3.96624 -0.382778 0)
(-3.91659 -0.393969 0)
(-3.83476 -0.404149 -6.93522e-20)
(-3.72919 -0.413505 -6.1416e-20)
(-3.6048 -0.422277 0)
(-3.46604 -0.430803 -4.23321e-20)
(-3.31554 -0.438894 -3.12678e-20)
(-3.15734 -0.445298 1.9247e-20)
(-2.99373 -0.45074 0)
(-2.82652 -0.455365 0)
(-2.65765 -0.461042 -2.25763e-20)
(-2.48751 -0.468806 0)
(-2.31398 -0.477478 0)
(-2.13795 -0.487863 0)
(-1.95751 -0.500052 0)
(-1.772 -0.514309 1.19607e-19)
(-1.58009 -0.530926 1.46284e-19)
(-1.38097 -0.550409 0)
(-1.17403 -0.573061 2.13342e-19)
(-0.958271 -0.598237 0)
(-0.732215 -0.627911 0)
(-0.4995 -0.66283 3.82318e-19)
(-0.261385 -0.698617 0)
(-0.0142998 -0.710375 5.44038e-19)
(0.246681 -0.681071 0)
(0.519738 -0.6476 0)
(0.795136 -0.619381 3.92765e-19)
(1.06773 -0.595574 0)
(1.33402 -0.574305 3.27777e-19)
(1.59303 -0.554251 0)
(1.84214 -0.536127 0)
(2.07885 -0.518486 0)
(2.30187 -0.501204 -2.54719e-19)
(2.50984 -0.484451 0)
(2.70182 -0.468354 2.33176e-19)
(2.87733 -0.453044 0)
(3.03609 -0.438578 0)
(3.17821 -0.425047 0)
(3.30352 -0.412456 0)
(3.41256 -0.401009 0)
(3.50385 -0.390513 0)
(3.57809 -0.38114 0)
(3.62415 -0.372401 -3.99033e-19)
(3.64432 -0.347839 0)
(3.48599 -0.322134 0)
(-0.0608658 -0.204622 3.91532e-19)
(0.101608 -0.176429 -2.1638e-19)
(0.0806945 -0.163115 0)
(0.121673 -0.120275 7.15308e-20)
(0.135341 -0.110813 0)
(0.165993 -0.0909646 2.72604e-20)
(0.18768 -0.081758 -5.05957e-20)
(0.213628 -0.0679169 -4.76747e-20)
(0.233755 -0.058076 0)
(0.253517 -0.0476775 -4.36909e-20)
(0.270669 -0.0400258 -2.11031e-20)
(0.287399 -0.0323616 0)
(0.302611 -0.0249378 0)
(0.316316 -0.0159171 0)
(0.32768 -0.00426743 0)
(0.334557 0.0124411 -1.97594e-20)
(0.336446 0.0323245 0)
(0.330902 0.0531088 3.93899e-20)
(0.317193 0.072823 0)
(0.295736 0.0903904 0)
(0.267019 0.104727 -4.02484e-20)
(0.232065 0.115179 0)
(0.192021 0.121729 4.09281e-20)
(0.148156 0.124241 -2.06862e-20)
(0.101236 0.121137 2.11786e-20)
(0.051389 0.112951 -2.18699e-20)
(-0.00222804 0.104853 -2.223e-20)
(-0.060955 0.102023 0)
(-0.125359 0.105478 0)
(-0.194748 0.113856 2.01586e-20)
(-0.266823 0.124797 -1.94832e-20)
(-0.339613 0.136007 0)
(-0.412993 0.14617 0)
(-0.486721 0.155009 1.7284e-20)
(-0.559961 0.162261 0)
(-0.631716 0.167664 0)
(-0.701244 0.171138 -1.59066e-20)
(-0.767907 0.17293 0)
(-0.831055 0.173318 1.54878e-20)
(-0.89012 0.172441 -3.00247e-20)
(-0.944793 0.170422 0)
(-0.995036 0.167466 0)
(-1.041 0.163819 -5.75191e-20)
(-1.08295 0.159737 -5.66298e-20)
(-1.12123 0.15546 -5.57873e-20)
(-1.15621 0.151189 2.76839e-20)
(-1.18828 0.147087 -2.69514e-20)
(-1.21779 0.143275 -8.01979e-20)
(-1.24511 0.139843 5.29514e-20)
(-1.27054 0.136856 2.60208e-20)
(-1.29435 0.134365 0)
(-1.31674 0.132383 -2.55079e-20)
(-1.33789 0.130883 2.55789e-20)
(-1.35794 0.12982 0)
(-1.377 0.129156 0)
(-1.39518 0.128851 0)
(-1.41255 0.128871 -2.44776e-20)
(-1.42918 0.129182 0)
(-1.4451 0.129756 4.85662e-20)
(-1.46037 0.130567 0)
(-1.47502 0.131593 4.79444e-20)
(-1.48907 0.132813 0)
(-1.50254 0.13421 -4.73673e-20)
(-1.51546 0.135765 0)
(-1.52784 0.137465 4.68234e-20)
(-1.53971 0.139291 -2.34449e-20)
(-1.55108 0.141229 0)
(-1.56198 0.143257 -4.60472e-20)
(-1.57243 0.145358 -2.27183e-20)
(-1.58247 0.147506 -2.25865e-20)
(-1.59212 0.149675 0)
(-1.60143 0.151829 -2.27157e-20)
(-1.61044 0.153931 -2.21843e-20)
(-1.61921 0.155929 0)
(-1.62778 0.15777 2.19047e-20)
(-1.63623 0.15938 -4.39845e-20)
(-1.64462 0.160681 0)
(-1.65301 0.16157 -2.1459e-20)
(-1.66149 0.161937 0)
(-1.67009 0.161642 6.39977e-20)
(-1.67885 0.160527 0)
(-1.68771 0.158419 -6.31121e-20)
(-1.69655 0.155213 -2.0676e-20)
(-1.70517 0.150897 2.12391e-20)
(-1.71309 0.145561 4.22885e-20)
(-1.71855 0.139366 -4.20803e-20)
(-1.72061 0.132576 0)
(-1.71847 0.125133 0)
(-1.71139 0.116982 0)
(-1.69871 0.108061 1.18954e-19)
(-1.67975 0.0983121 3.84128e-20)
(-1.65377 0.0876713 -3.7837e-20)
(-1.62003 0.0760797 0)
(-1.5777 0.0634827 -3.94438e-20)
(-1.52596 0.0498407 3.56762e-20)
(-1.46395 0.0351203 3.48063e-20)
(-1.39078 0.0192793 0)
(-1.30553 0.00226409 0)
(-1.20739 -0.0159681 0)
(-1.09566 -0.0354704 3.07391e-20)
(-0.969388 -0.0556409 0)
(-0.828547 -0.0752295 -6.29987e-20)
(-0.672211 -0.0961004 -8.97666e-20)
(-0.499904 -0.116366 6.13637e-20)
(-0.312453 -0.13809 0)
(-0.107167 -0.160844 3.54142e-20)
(0.115824 -0.177044 0)
(0.338461 -0.178206 5.38808e-20)
(0.549354 -0.166796 -2.82691e-20)
(0.747252 -0.14732 -2.7006e-20)
(0.92878 -0.121336 0)
(1.08975 -0.0905702 -6.87224e-20)
(1.22721 -0.0555654 4.81833e-20)
(1.33665 -0.0134895 2.27319e-20)
(1.41447 0.0370101 0)
(1.46 0.1011 2.41822e-20)
(1.5043 0.172373 7.61765e-20)
(1.53598 0.235838 0)
(1.49495 0.287421 4.59481e-20)
(1.33501 0.311981 4.29424e-20)
(1.07358 0.32197 4.12493e-20)
(0.80471 0.28608 0)
(0.643537 0.140634 0)
(0.326358 0.11855 0)
(-0.415462 0.421375 -2.79344e-20)
(-1.26313 0.715046 -1.68329e-20)
(-2.00986 0.837627 0)
(-2.53628 0.809912 -3.9855e-20)
(-2.88947 0.720914 -4.59298e-20)
(-3.09799 0.620452 0)
(-3.21821 0.530465 -5.33582e-20)
(-3.28887 0.45505 -1.2255e-19)
(-3.33349 0.38969 6.02077e-20)
(-3.36393 0.329237 6.67753e-20)
(-3.38508 0.271379 0)
(-3.39795 0.217148 0)
(-3.37213 0.175904 0)
(-3.31356 0.143473 4.62293e-20)
(-3.22629 0.119037 -4.64616e-20)
(-3.11753 0.101518 -7.35889e-20)
(-2.99246 0.0893959 2.65699e-20)
(-2.85597 0.080889 -2.59956e-20)
(-2.71299 0.0756533 -1.16054e-20)
(-2.56561 0.0731996 0)
(-2.41622 0.0724439 0)
(-2.26592 0.0725319 -5.4794e-21)
(-2.11333 0.0729411 0)
(-1.95933 0.072951 0)
(-1.80281 0.0725463 7.06722e-20)
(-1.64302 0.071317 0)
(-1.47879 0.0692345 5.03448e-20)
(-1.30878 0.0662589 -6.9287e-20)
(-1.13177 0.0624822 0)
(-0.946567 0.0577849 8.24731e-20)
(-0.751793 0.051894 0)
(-0.548301 0.0454722 0)
(-0.332689 0.0367999 -1.33462e-19)
(-0.103386 0.0232731 2.84958e-19)
(0.144632 0.00390976 -1.54493e-19)
(0.402872 -0.00648482 0)
(0.659911 -0.00521872 0)
(0.916146 0.000741274 1.364e-19)
(1.17126 0.00884944 0)
(1.42248 0.0179996 1.32802e-19)
(1.66749 0.0279545 0)
(1.90405 0.0398735 0)
(2.1298 0.052657 0)
(2.34322 0.0659059 1.33424e-19)
(2.54308 0.0795497 0)
(2.72848 0.0934297 -1.29707e-19)
(2.89892 0.10735 0)
(3.05411 0.121205 0)
(3.19415 0.13491 2.46745e-19)
(3.31876 0.148614 -2.45862e-19)
(3.42865 0.162489 0)
(3.52143 0.177428 0)
(3.6012 0.194724 0)
(3.65333 0.219057 7.51078e-19)
(3.71249 0.264933 0)
(3.76185 0.309336 -5.14284e-19)
(-0.145916 -0.284126 -5.16291e-22)
(0.0779577 -0.202374 2.43824e-19)
(-0.0353414 -0.214755 0)
(0.0355717 -0.184863 -1.05339e-19)
(-0.00124663 -0.193758 0)
(0.0371043 -0.1793 0)
(0.0307785 -0.173257 -3.30651e-23)
(0.0538463 -0.153612 3.09976e-20)
(0.0551284 -0.138919 2.91495e-20)
(0.0670322 -0.123865 2.77415e-20)
(0.0675011 -0.113803 0)
(0.0718699 -0.103074 0)
(0.0685574 -0.0920748 -2.54045e-20)
(0.0653391 -0.0772911 -5.02198e-20)
(0.0560263 -0.0571172 5.00289e-20)
(0.0450178 -0.028662 0)
(0.0292799 0.00779311 5.0081e-20)
(0.0109616 0.0482965 -2.50376e-20)
(-0.0120584 0.0871497 0)
(-0.0386138 0.121656 4.9648e-20)
(-0.0695119 0.150204 2.45956e-20)
(-0.10417 0.172212 -4.90974e-20)
(-0.142959 0.187876 -2.42883e-20)
(-0.185619 0.198121 0)
(-0.232861 0.204522 4.77622e-20)
(-0.285911 0.209597 4.70137e-20)
(-0.345078 0.215627 0)
(-0.408771 0.22338 4.51228e-20)
(-0.474609 0.232365 0)
(-0.540326 0.24165 4.30732e-20)
(-0.604052 0.250159 2.09492e-20)
(-0.664521 0.256728 0)
(-0.721087 0.260372 0)
(-0.773379 0.260801 0)
(-0.821121 0.258139 0)
(-0.864254 0.25258 0)
(-0.90293 0.244452 0)
(-0.937416 0.234242 3.81633e-20)
(-0.968021 0.222471 -5.65446e-20)
(-0.99515 0.209613 0)
(-1.01931 0.196119 0)
(-1.04106 0.182404 0)
(-1.06093 0.168823 -2.54448e-22)
(-1.0794 0.155659 3.57395e-20)
(-1.09691 0.14312 7.10267e-20)
(-1.1138 0.131337 -7.03551e-20)
(-1.13036 0.120384 -3.49537e-20)
(-1.14678 0.110282 3.44443e-20)
(-1.16323 0.101019 1.82107e-22)
(-1.1798 0.0925555 3.4039e-20)
(-1.19656 0.0848318 0)
(-1.21352 0.0777646 3.34942e-20)
(-1.23069 0.0712611 1.59162e-22)
(-1.24808 0.0652312 0)
(-1.26569 0.0595923 0)
(-1.28352 0.0542697 -3.25381e-20)
(-1.30158 0.049198 0)
(-1.31985 0.044319 0)
(-1.33835 0.0395829 3.20664e-20)
(-1.35708 0.0349455 6.3423e-20)
(-1.37602 0.0303698 -3.13568e-20)
(-1.39519 0.0258224 0)
(-1.41458 0.0212762 3.09779e-20)
(-1.43418 0.0167066 0)
(-1.45398 0.0120943 3.09659e-20)
(-1.47396 0.00742161 3.04331e-20)
(-1.4941 0.00267595 -6.08876e-20)
(-1.51437 -0.00215456 -3.04682e-20)
(-1.53473 -0.0070765 0)
(-1.55512 -0.0120962 5.98965e-20)
(-1.57549 -0.0172141 0)
(-1.59576 -0.0224308 8.86815e-20)
(-1.61584 -0.0277402 5.8963e-20)
(-1.63562 -0.033137 5.86674e-20)
(-1.65497 -0.0386089 -5.83811e-20)
(-1.67375 -0.0441448 8.69055e-20)
(-1.69179 -0.0497285 0)
(-1.70888 -0.0553488 0)
(-1.72482 -0.060994 -5.73649e-20)
(-1.73935 -0.0666648 -8.54338e-20)
(-1.7522 -0.0723696 0)
(-1.76306 -0.0781498 2.80767e-20)
(-1.77151 -0.0841292 0)
(-1.77709 -0.0905084 -8.45393e-20)
(-1.77935 -0.0974403 8.04422e-22)
(-1.77787 -0.105097 -8.50837e-22)
(-1.77263 -0.114116 5.61713e-20)
(-1.76321 -0.124502 0)
(-1.74916 -0.136312 -5.56053e-20)
(-1.72991 -0.149615 1.05242e-21)
(-1.70481 -0.164491 0)
(-1.67319 -0.181018 0)
(-1.63428 -0.199264 0)
(-1.58725 -0.219286 5.14089e-20)
(-1.53124 -0.241113 0)
(-1.46533 -0.264741 0)
(-1.38856 -0.290116 0)
(-1.29996 -0.317113 0)
(-1.19865 -0.34552 0)
(-1.08381 -0.374984 4.55015e-20)
(-0.95456 -0.404953 0)
(-0.809952 -0.43495 4.06385e-20)
(-0.649968 -0.464209 3.92683e-20)
(-0.475019 -0.49096 -3.81549e-20)
(-0.286854 -0.514631 0)
(-0.0894249 -0.532436 -3.68935e-20)
(0.115568 -0.543334 0)
(0.32397 -0.544751 -3.32567e-20)
(0.52912 -0.531841 3.20863e-20)
(0.723601 -0.504533 9.92842e-20)
(0.899622 -0.465412 0)
(1.0515 -0.418739 1.01214e-19)
(1.17707 -0.365982 3.6592e-20)
(1.27415 -0.302843 0)
(1.33353 -0.235928 7.24618e-20)
(1.34948 -0.183454 7.25732e-20)
(1.3352 -0.111128 -1.07545e-19)
(1.29261 0.0390603 0)
(1.19201 0.24693 -3.11491e-20)
(1.00263 0.430608 -2.92586e-20)
(0.776229 0.4865 -9.18522e-20)
(0.578423 0.395549 0)
(0.168362 0.425402 0)
(-0.646117 0.753391 0)
(-1.50418 1.09341 -3.03731e-20)
(-2.13466 1.21989 0)
(-2.52038 1.1253 0)
(-2.7668 0.906191 2.66298e-20)
(-2.96525 0.666153 3.11026e-20)
(-3.16145 0.454224 0)
(-3.35721 0.282531 0)
(-3.53433 0.145871 8.06618e-20)
(-3.67426 0.0362324 0)
(-3.76519 -0.0525369 -8.31174e-20)
(-3.803 -0.124424 -8.48585e-20)
(-3.79044 -0.182796 0)
(-3.73943 -0.234945 0)
(-3.65677 -0.277833 6.63573e-20)
(-3.54894 -0.311457 -2.55104e-21)
(-3.42192 -0.336394 -2.43675e-21)
(-3.28032 -0.353896 0)
(-3.12902 -0.365111 5.92848e-20)
(-2.9707 -0.371502 0)
(-2.80759 -0.374147 0)
(-2.64101 -0.374645 0)
(-2.47179 -0.374651 1.12386e-20)
(-2.3003 -0.374962 0)
(-2.12649 -0.375815 -5.96405e-20)
(-1.9496 -0.37774 -4.30385e-20)
(-1.76873 -0.381004 0)
(-1.58272 -0.385703 -6.55153e-20)
(-1.39032 -0.391791 0)
(-1.19029 -0.399076 0)
(-0.981711 -0.407126 -2.98594e-19)
(-0.76378 -0.415219 2.22053e-19)
(-0.535995 -0.423113 0)
(-0.298515 -0.430658 2.73829e-19)
(-0.0524431 -0.437921 -1.5191e-19)
(0.198196 -0.445504 0)
(0.450699 -0.452663 0)
(0.705886 -0.455279 0)
(0.96262 -0.453965 -4.8137e-19)
(1.21829 -0.449233 0)
(1.4698 -0.441413 -1.63457e-19)
(1.71409 -0.430923 0)
(1.94894 -0.418035 0)
(2.17269 -0.403073 0)
(2.38382 -0.386621 0)
(2.58127 -0.369257 0)
(2.76448 -0.351491 0)
(2.93327 -0.333788 -3.18643e-19)
(3.08762 -0.316445 0)
(3.2279 -0.299695 -1.61969e-19)
(3.35408 -0.283525 4.84641e-19)
(3.46695 -0.267859 0)
(3.56514 -0.252283 0)
(3.65095 -0.23517 -3.29939e-19)
(3.71725 -0.216351 -3.37093e-19)
(3.77685 -0.189508 3.41226e-19)
(3.8049 -0.137236 3.53889e-19)
(-0.183019 -0.251732 -6.28697e-19)
(0.0441184 -0.179318 -3.04663e-19)
(-0.0750185 -0.181967 -1.13804e-19)
(-0.0341227 -0.158746 -4.09556e-20)
(-0.079897 -0.156053 0)
(-0.0741142 -0.149121 5.62079e-20)
(-0.0982459 -0.138567 -2.50738e-20)
(-0.100999 -0.120716 0)
(-0.11446 -0.100078 -2.16427e-20)
(-0.121145 -0.0801778 0)
(-0.134947 -0.062363 3.95834e-20)
(-0.149318 -0.044078 0)
(-0.169526 -0.0241999 1.87216e-20)
(-0.192364 -0.00264641 3.66931e-20)
(-0.219343 0.0223105 -3.60516e-20)
(-0.24805 0.0508588 0)
(-0.277618 0.0832902 -3.4996e-20)
(-0.306112 0.118086 0)
(-0.333846 0.153139 0)
(-0.361266 0.186209 -3.40412e-20)
(-0.389415 0.215796 0)
(-0.419028 0.241065 -1.0423e-22)
(-0.450954 0.262113 0)
(-0.485648 0.279452 0)
(-0.523331 0.2937 1.75932e-22)
(-0.563565 0.305349 -3.28811e-20)
(-0.605185 0.314754 -3.27396e-20)
(-0.646583 0.322056 -3.21341e-20)
(-0.686249 0.327201 0)
(-0.722984 0.330043 -6.27258e-20)
(-0.755985 0.330409 0)
(-0.784885 0.328159 -3.06467e-20)
(-0.809761 0.323271 0)
(-0.830959 0.315942 0)
(-0.848959 0.306528 2.96749e-20)
(-0.864347 0.295474 0)
(-0.877762 0.283282 -2.91786e-20)
(-0.88983 0.270467 2.42197e-22)
(-0.901114 0.25751 5.7218e-20)
(-0.912103 0.24481 -5.70051e-20)
(-0.923195 0.232678 0)
(-0.934691 0.221332 0)
(-0.946791 0.210906 -2.80334e-20)
(-0.959611 0.201464 0)
(-0.973192 0.193017 -2.71935e-20)
(-0.987528 0.185538 2.69893e-20)
(-1.00258 0.178973 2.67911e-20)
(-1.01827 0.173258 0)
(-1.03454 0.168323 -2.64143e-20)
(-1.05132 0.164099 -2.62363e-20)
(-1.06852 0.16052 5.24675e-20)
(-1.08608 0.157519 -2.59009e-20)
(-1.10395 0.155033 -2.5743e-20)
(-1.12209 0.153004 0)
(-1.14047 0.151378 0)
(-1.15907 0.150108 2.5304e-20)
(-1.17786 0.149151 0)
(-1.19685 0.148467 0)
(-1.21601 0.148024 -4.98182e-20)
(-1.23534 0.147787 -4.95713e-20)
(-1.25482 0.14773 0)
(-1.27446 0.147822 0)
(-1.29423 0.148037 0)
(-1.31412 0.148347 0)
(-1.3341 0.148723 -4.84428e-20)
(-1.35417 0.149135 4.86159e-20)
(-1.37428 0.149551 4.80376e-20)
(-1.39441 0.149933 9.60868e-20)
(-1.4145 0.150242 0)
(-1.43452 0.150433 4.18219e-22)
(-1.4544 0.150453 0)
(-1.47408 0.150243 -4.71437e-20)