# vtk DataFile Version 2.0
track0
ASCII
DATASET POLYDATA
POINTS 11340 double
-0.0205 0.001 1e-05
-0.0202034 0.000999797 1e-05
-0.0199069 0.000999277 1e-05
-0.0196103 0.000998456 1e-05
-0.0193137 0.000997336 1e-05
-0.0190172 0.000995915 1e-05
-0.0187132 0.000994494 1e-05
-0.0184093 0.000992369 1e-05
-0.0181054 0.000989954 1e-05
-0.0178015 0.000987247 1e-05
-0.0174976 0.000984249 1e-05
-0.0172058 0.000981739 1e-05
-0.016914 0.000977983 1e-05
-0.0166223 0.000973829 1e-05
-0.0163305 0.000969277 1e-05
-0.0160387 0.000964322 1e-05
-0.0157586 0.000960486 1e-05
-0.0154785 0.00095492 1e-05
-0.0151984 0.000949044 1e-05
-0.0149183 0.000942856 1e-05
-0.0146381 0.000936604 1e-05
-0.0143692 0.0009321 1e-05
-0.0141003 0.000925748 1e-05
-0.0138314 0.000918824 1e-05
-0.0135625 0.000911897 1e-05
-0.0132934 0.000906074 1e-05
-0.0130353 0.000902534 1e-05
-0.0127771 0.000897353 1e-05
-0.012519 0.000891169 1e-05
-0.0122608 0.000885727 1e-05
-0.0120025 0.000883347 1e-05
-0.0117547 0.000884346 1e-05
-0.0115068 0.00088494 1e-05
-0.0112589 0.000885294 1e-05
-0.0110111 0.000887733 1e-05
-0.0107632 0.000894266 1e-05
-0.0105252 0.00090461 1e-05
-0.0102873 0.000916483 1e-05
-0.0100496 0.00093046 1e-05
-0.00981197 0.000947391 1e-05
-0.00957337 0.00096748 1e-05
-0.00945381 0.000979348 1e-05
-0.00933433 0.000991861 1e-05
-0.00921491 0.00100503 1e-05
-0.00909558 0.00101888 1e-05
-0.00903047 0.00102682 1e-05
-0.00891059 0.00104181 1e-05
-0.00879082 0.00105764 1e-05
-0.00867116 0.0010743 1e-05
-0.00855163 0.00109181 1e-05
-0.00843108 0.00111031 1e-05
-0.00821175 0.00114533 1e-05
-0.00799291 0.00118329 1e-05
-0.00777461 0.00122424 1e-05
-0.00755675 0.00126748 1e-05
-0.00733443 0.00131353 1e-05
-0.00723682 0.00133469 1e-05
-0.0071393 0.00135632 1e-05
-0.00704188 0.00137839 1e-05
-0.00694453 0.00140072 1e-05
-0.00686433 0.00141936 1e-05
-0.00674778 0.00144673 1e-05
-0.0066314 0.00147478 1e-05
-0.00651518 0.00150353 1e-05
-0.00639915 0.001533 1e-05
-0.0062816 0.00156315 1e-05
-0.00607944 0.00161536 1e-05
-0.00587753 0.00166849 1e-05
-0.00567587 0.00172258 1e-05
-0.005474 0.00177588 1e-05
-0.00527083 0.00182857 1e-05
-0.00526178 0.00183087 1e-05
-0.00525272 0.00183317 1e-05
-0.00524367 0.00183546 1e-05
-0.00523462 0.00183775 1e-05
-0.00522543 0.00184007 1e-05
-0.00504043 0.00188663 1e-05
-0.00485503 0.00193156 1e-05
-0.00466923 0.00197478 1e-05
-0.00448301 0.00201621 1e-05
-0.00430044 0.00205444 1e-05
-0.00411412 0.00209075 1e-05
-0.00392721 0.00212391 1e-05
-0.00373976 0.00215386 1e-05
-0.00355186 0.00218086 1e-05
-0.00336883 0.00220421 1e-05
-0.0032144 0.00222156 1e-05
-0.00305973 0.00223662 1e-05
-0.00290487 0.00224958 1e-05
-0.00274984 0.00226034 1e-05
-0.00247443 0.00227534 1e-05
-0.00235898 0.00227847 1e-05
-0.0022435 0.00227994 1e-05
-0.00212801 0.00227959 1e-05
-0.00201254 0.00227739 1e-05
-0.00161577 0.00226341 1e-05
-0.0014509 0.00224809 1e-05
-0.00128651 0.00222828 1e-05
-0.00112276 0.00220369 1e-05
-0.000959786 0.00217444 1e-05
-0.000791418 0.00213936 1e-05
-0.000633135 0.00210166 1e-05
-0.000475726 0.00206045 1e-05
-0.000319237 0.00201589 1e-05
-0.000163725 0.00196802 1e-05
0 0.00191359 1e-05
3.90529e-05 0.00189961 1e-05
7.80105e-05 0.00188536 1e-05
0.000116872 0.00187086 1e-05
0.000155638 0.00185609 1e-05
0.000187974 0.00184354 1e-05
0.000256056 0.00181669 1e-05
0.000323854 0.00178912 1e-05
0.000391367 0.00176086 1e-05
0.000458596 0.00173194 1e-05
0.000528387 0.00170105 1e-05
0.000634886 0.00165253 1e-05
0.000740536 0.00160219 1e-05
0.000845343 0.00155011 1e-05
0.000949249 0.00149626 1e-05
0.00106088 0.00143604 1e-05
0.00106114 0.0014359 1e-05
0.0010614 0.00143575 1e-05
0.00106165 0.00143561 1e-05
0.00106191 0.00143546 1e-05
0.00106217 0.00143532 1e-05
0.00116924 0.00137509 1e-05
0.00127514 0.00131283 1e-05
0.00137986 0.00124861 1e-05
0.00148336 0.00118244 1e-05
0.00159752 0.00110607 1e-05
0.00161458 0.00109407 1e-05
0.00163159 0.00108202 1e-05
0.00164857 0.0010699 1e-05
0.0016655 0.00105772 1e-05
0.00168155 0.00104608 1e-05
0.00177291 0.000979333 1e-05
0.00186276 0.000910577 1e-05
0.0019511 0.000839894 1e-05
0.00203784 0.000767246 1e-05
0.00213833 0.00067902 1e-05
0.00213873 0.000678648 1e-05
0.00213913 0.000678276 1e-05
0.00213953 0.000677904 1e-05
0.00213993 0.000677532 1e-05
0.00214033 0.00067716 1e-05
0.00221533 0.000607475 1e-05
0.00228867 0.000536042 1e-05
0.00236034 0.000462931 1e-05
0.00243034 0.000388211 1e-05
0.00248383 0.000328608 1e-05
0.00252373 0.000282619 1e-05
0.00256294 0.000236033 1e-05
0.00260144 0.000188873 1e-05
0.00263925 0.000141149 1e-05
0.00268334 8.37875e-05 1e-05
0.00269576 6.703e-05 1e-05
0.00270809 5.02105e-05 1e-05
0.00272035 3.33294e-05 1e-05
0.00273251 1.63874e-05 1e-05
0.00274417 0 1e-05
0.00279619 -7.37309e-05 1e-05
0.00284649 -0.000148641 1e-05
0.00289524 -0.00022457 1e-05
0.00294245 -0.000301465 1e-05
0.00298218 -0.000368592 1e-05
0.00302927 -0.000450778 1e-05
0.00307463 -0.000533929 1e-05
0.00311845 -0.000617901 1e-05
0.00316094 -0.000702556 1e-05
0.00319802 -0.000779416 1e-05
0.00320493 -0.000794254 1e-05
0.00321181 -0.00080911 1e-05
0.00321864 -0.000823983 1e-05
0.00322545 -0.00083887 1e-05
0.00323259 -0.000854573 1e-05
0.00326714 -0.000931061 1e-05
0.00330081 -0.00100794 1e-05
0.0033336 -0.0010852 1e-05
0.00336553 -0.00116282 1e-05
0.00339528 -0.00123693 1e-05
0.00343577 -0.00133883 1e-05
0.00347475 -0.00144131 1e-05
0.00351226 -0.00154433 1e-05
0.00354889 -0.00164768 1e-05
0.00358345 -0.00174626 1e-05
0.0036228 -0.00185966 1e-05
0.00366069 -0.00197356 1e-05
0.00369763 -0.00208777 1e-05
0.00373383 -0.00220222 1e-05
0.00376814 -0.00231314 1e-05
0.00377174 -0.00232499 1e-05
0.00377531 -0.00233685 1e-05
0.00377888 -0.00234871 1e-05
0.00378244 -0.00236057 1e-05
0.00378611 -0.00237284 1e-05
0.00382016 -0.00248708 1e-05
0.0038534 -0.00260157 1e-05
0.00388583 -0.00271628 1e-05
0.00391744 -0.00283123 1e-05
0.00394768 -0.00294395 1e-05
0.00398488 -0.00308435 1e-05
0.00402028 -0.00322522 1e-05
0.00405386 -0.00336654 1e-05
0.00408574 -0.00350825 1e-05
0.0041153 -0.00364571 1e-05
0.00414729 -0.00380185 1e-05
0.00417597 -0.00395863 1e-05
0.00420196 -0.00411589 1e-05
0.00422616 -0.00427343 1e-05
0.00424768 -0.004426 1e-05
0.00426693 -0.00457846 1e-05
0.00428335 -0.00473126 1e-05
0.00429883 -0.00488416 1e-05
0.00431329 -0.00503715 1e-05
0.00433557 -0.00529353 1e-05
0.00433724 -0.00531654 1e-05
0.00433891 -0.00533955 1e-05
0.0043406 -0.00536256 1e-05
0.00434232 -0.00538557 1e-05
0.00434393 -0.00540695 1e-05
0.00435694 -0.00557731 1e-05
0.0043708 -0.0057476 1e-05
0.00438565 -0.00591781 1e-05
0.00440164 -0.00608792 1e-05
0.00441905 -0.00625891 1e-05
0.00444305 -0.00647392 1e-05
0.00447435 -0.00668799 1e-05
0.00451423 -0.00690062 1e-05
0.00456484 -0.00711096 1e-05
0.00462867 -0.00733529 1e-05
0.00468416 -0.00750625 1e-05
0.0047479 -0.00767431 1e-05
0.00482059 -0.0078387 1e-05
0.00489513 -0.00800225 1e-05
0.00490609 -0.00802562 1e-05
0.00495428 -0.00812793 1e-05
0.00500398 -0.00822952 1e-05
0.00505518 -0.00833036 1e-05
0.00510723 -0.00843076 1e-05
0.00516281 -0.0085374 1e-05
0.00522478 -0.00865559 1e-05
0.00528675 -0.00877378 1e-05
0.00534873 -0.00889196 1e-05
0.00541057 -0.00901022 1e-05
0.00547262 -0.00912968 1e-05
0.00552828 -0.00923756 1e-05
0.00558402 -0.0093454 1e-05
0.00563986 -0.00945318 1e-05
0.00569584 -0.00956089 1e-05
0.00575234 -0.00966911 1e-05
0.00581058 -0.00978017 1e-05
0.00586862 -0.00989133 1e-05
0.00592643 -0.0100026 1e-05
0.00598423 -0.0101139 1e-05
0.00604356 -0.0102276 1e-05
0.00610359 -0.010342 1e-05
0.00616388 -0.0104563 1e-05
0.00622446 -0.0105705 1e-05
0.00628536 -0.0106844 1e-05
0.00634752 -0.0107998 1e-05
0.0064018 -0.0108997 1e-05
0.00645634 -0.0109995 1e-05
0.00651113 -0.0110992 1e-05
0.00656623 -0.0111987 1e-05
0.00661893 -0.0112929 1e-05
0.00669078 -0.0114203 1e-05
0.0067632 -0.0115473 1e-05
0.0068362 -0.0116741 1e-05
0.00690986 -0.0118004 1e-05
0.00698636 -0.0119299 1e-05
0.00702885 -0.0120008 1e-05
0.00707157 -0.0120716 1e-05
0.00711455 -0.0121422 1e-05
0.00715777 -0.0122126 1e-05
0.00719878 -0.0122789 1e-05
0.0072961 -0.012435 1e-05
0.0073947 -0.0125903 1e-05
0.00749462 -0.0127448 1e-05
0.0075959 -0.0128983 1e-05
0.0077044 -0.0130596 1e-05
0.00772015 -0.0130825 1e-05
0.00773593 -0.0131054 1e-05
0.00775174 -0.0131283 1e-05
0.00776759 -0.0131511 1e-05
0.00778313 -0.0131734 1e-05
0.00790091 -0.0133419 1e-05
0.00802048 -0.0135091 1e-05
0.00814187 -0.013675 1e-05
0.00826531 -0.0138394 1e-05
0.00837203 -0.0139776 1e-05
0.00840553 -0.0140199 1e-05
0.00843916 -0.0140621 1e-05
0.00847293 -0.0141042 1e-05
0.00850684 -0.0141462 1e-05
0.00854181 -0.0141891 1e-05
0.00862655 -0.0142925 1e-05
0.00871222 -0.0143951 1e-05
0.00879883 -0.0144969 1e-05
0.00888638 -0.0145979 1e-05
0.00896551 -0.0146875 1e-05
0.00907863 -0.0148137 1e-05
0.00919323 -0.0149385 1e-05
0.00930932 -0.015062 1e-05
0.00942679 -0.0151841 1e-05
0.00955922 -0.0153186 1e-05
0.0095601 -0.0153194 1e-05
0.00956097 -0.0153203 1e-05
0.00956185 -0.0153212 1e-05
0.00956273 -0.015322 1e-05
0.0095636 -0.0153229 1e-05
0.00968415 -0.0154421 1e-05
0.00980606 -0.0155599 1e-05
0.00992932 -0.0156763 1e-05
0.0100539 -0.0157913 1e-05
0.0101663 -0.0158924 1e-05
0.0102878 -0.0159991 1e-05
0.0104104 -0.0161046 1e-05
0.0105342 -0.0162087 1e-05
0.0106591 -0.0163113 1e-05
0.0107738 -0.0164034 1e-05
0.0107851 -0.0164123 1e-05
0.0107965 -0.0164212 1e-05
0.0108079 -0.0164301 1e-05
0.0108193 -0.016439 1e-05
0.0108309 -0.016448 1e-05
0.0109419 -0.0165343 1e-05
0.0110537 -0.0166194 1e-05
0.0111664 -0.0167035 1e-05
0.01128 -0.0167864 1e-05
0.0113859 -0.0168624 1e-05
0.0115093 -0.0169494 1e-05
0.0116336 -0.0170351 1e-05
0.0117589 -0.0171195 1e-05
0.0118849 -0.0172027 1e-05
0.0120028 -0.0172791 1e-05
0.0120965 -0.0173388 1e-05
0.0121906 -0.0173977 1e-05
0.0122851 -0.017456 1e-05
0.01238 -0.0175138 1e-05
0.0124864 -0.0175776 1e-05
0.012514 -0.0175939 1e-05
0.0125417 -0.0176102 1e-05
0.0125694 -0.0176264 1e-05
0.0125971 -0.0176425 1e-05
0.0126245 -0.0176585 1e-05
0.0127498 -0.0177309 1e-05
0.0128757 -0.0178024 1e-05
0.0130021 -0.0178729 1e-05
[...]
POINT_DATA 11340
 FIELD attributes 2
p 1 11340 float
-7.59698 -7.76338 -7.94828 -8.13157 -8.31326 -8.664 -8.95992 -9.29627 -9.63229 -9.96797 -10.3668 -10.5999 -10.991 -11.3807 -11.769 -12.4003 -12.7713 -13.3729 -13.9734 -14.6118 -15.5018 -16.0204 -16.7036 -17.4623 -18.3514 -19.3622 -19.9541 -20.583 -21.3216 -22.1462 -22.9884 -23.4093 -23.8274 -24.2092 -24.4727 -24.7372 -24.6851 -24.5917 -24.4398 -24.279 -24.0219 -23.7782 -23.5613 -23.3525 -23.1465 -23.0356 -22.8542 -22.6774 -22.5053 -22.2946 -22.0203 -21.5507 -21.0933 -20.7485 -20.4731 -20.1967 -20.0574 -19.9325 -19.8748 -19.8183 -19.7726 -19.6092 -19.4463 -19.2836 -19.1847 -19.0936 -18.9418 -18.7913 -18.6536 -18.515 -18.3915 -18.389 -18.3856 -18.3775 -18.3693 -18.361 -18.1945 -18.0297 -17.8667 -17.6475 -17.4142 -17.2381 -17.0559 -16.7888 -16.5243 -16.265 -16.131 -15.9517 -15.7787 -15.6123 -15.3241 -15.2554 -15.1848 -15.1201 -15.0613 -14.8754 -14.95 -15.0439 -15.1509 -15.2742 -15.4292 -15.6894 -15.959 -16.1395 -16.2429 -16.3567 -16.41 -16.4306 -16.4145 -16.3989 -16.3862 -16.4484 -16.5141 -16.5834 -16.5857 -16.5636 -16.505 -16.4547 -16.286 -16.1217 -15.9504 -15.9499 -15.9493 -15.9486 -15.9478 -15.9471 -15.7714 -15.6123 -15.4272 -15.0993 -14.7514 -14.7079 -14.6648 -14.6045 -14.5295 -14.4586 -14.2418 -14.0455 -13.7853 -13.4898 -13.1653 -13.1637 -13.1622 -13.1607 -13.1596 -13.1584 -12.9229 -12.7083 -12.5091 -12.2592 -12.0785 -11.9653 -11.8756 -11.8316 -11.7958 -11.7629 -11.7403 -11.7187 -11.6982 -11.73 -11.8032 -11.6566 -11.6767 -11.725 -12.1809 -12.5942 -12.5867 -12.7409 -13.1239 -13.5173 -13.9562 -13.9778 -14.0238 -14.0859 -14.1482 -14.2142 -14.5483 -14.8891 -15.2362 -15.6568 -16.1826 -16.46 -16.7442 -17.1815 -17.7575 -18.3081 -18.5747 -18.9263 -19.3241 -19.7247 -20.1387 -20.1701 -20.2015 -20.2328 -20.2642 -20.2967 -20.5965 -20.9003 -21.208 -21.5136 -21.7972 -21.8084 -21.8273 -22.0813 -22.4232 -22.764 -22.4637 -22.2404 -22.1173 -22.029 -22.1803 -21.5562 -21.1824 -20.8139 -20.4514 -19.8645 -19.7474 -19.6458 -19.5442 -19.4424 -19.3478 -18.654 -17.9601 -17.2661 -16.5721 -15.8313 -14.8209 -13.8922 -12.95 -12.2574 -11.6747 -11.2147 -10.7661 -10.607 -10.4536 -10.4323 -10.2011 -9.97023 -9.79456 -9.66997 -9.53774 -9.4044 -9.27106 -9.15316 -9.05458 -8.95474 -8.80496 -8.65518 -8.52805 -8.42117 -8.31377 -8.21066 -8.10747 -8.00423 -7.90101 -7.79557 -7.67623 -7.55693 -7.43631 -7.31459 -7.19121 -7.09435 -6.99751 -6.90323 -6.81246 -6.72633 -6.58411 -6.44178 -6.308 -6.17939 -6.04705 -5.98067 -5.91425 -5.84625 -5.77478 -5.70733 -5.54797 -5.38838 -5.20964 -5.02388 -4.82721 -4.80065 -4.77408 -4.74818 -4.72618 -4.70466 -4.47503 -4.24503 -4.05022 -3.88952 -3.75288 -3.68766 -3.62246 -3.57697 -3.5314 -3.48453 -3.37322 -3.2614 -3.14906 -2.96799 -2.80308 -2.6864 -2.55733 -2.35388 -2.15051 -1.92408 -1.92258 -1.92109 -1.91959 -1.91882 -1.91834 -1.71793 -1.5193 -1.32087 -1.22814 -1.17709 -0.946398 -0.761332 -0.669817 -0.577539 -0.510375 -0.489881 -0.475885 -0.46819 -0.46049 -0.452687 -0.376791 -0.300357 -0.223391 -0.0842131 0.105348 0.117876 0.129573 0.243984 0.460148 0.661774 0.662874 0.735399 0.838187 0.940648 1.05478 1.08438 1.11394 1.14348 1.16378 1.1527 1.32824 1.45552 1.58223 1.61984 1.56535 1.77737 1.98984 2.06346 2.00225 1.94261 2.1489 2.23682 2.27017 2.30403 2.28896 2.34762 2.3567 2.36582 2.37499 2.38459 2.4072 2.43004 2.45311 2.47642 2.61723 2.53668 2.55776 2.58885 2.72663 2.92624 2.84209 2.75743 2.81702 3.0181 3.21453 3.12711 3.09313 3.17407 3.29056 3.48426 3.41279 3.48943 3.56569 3.64156 3.73713 3.72852 3.74082 3.7531 3.76538 3.77797 3.83816 3.89809 3.95777 4.01719 3.96139 4.14315 4.21159 4.27967 4.29057 4.1706 4.37104 4.54039 4.6046 4.48949 4.36824 4.56553 4.76287 4.79993 4.67725 4.55494 4.74916 4.9073 4.9212 4.8545 4.7313 4.92252 4.97615 4.98976 5.00365 4.89791 5.03039 5.04347 5.05681 5.0704 5.05535 5.08829 5.0925 5.09674 5.101 5.10547 5.11419 5.12301 5.13193 5.14096 5.21232 5.16254 5.17522 5.18813 5.20125 5.3648 5.22681 5.2392 5.2518 5.30647 5.50901 5.36275 5.30145 5.31374 5.44552 5.64548 5.49888 5.36189 5.37857 5.57718 5.77468 5.62779 5.48062 5.50566 5.7019 5.89713 5.74999 5.6026 5.62622 5.8202 6.01328 5.86595 5.73557 5.76913 5.93253 6.12358 5.97613 5.90387 5.93586 6.03934 6.22847 6.08097 6.06355 6.09407 6.14107 6.32833 6.18593 6.21519 6.24435 6.27339 6.42353 6.33162 6.3596 6.38747 6.41524 6.51444 6.4705 6.49727 6.52394 6.5505 6.60136 6.59085 6.60449 6.61811 6.6317 6.64633 6.65808 6.6698 6.68151 6.6932 6.68544 6.72931 6.75394 6.77847 6.80292 6.7672 6.85009 6.87375 6.89732 6.9208 6.8459 6.9656 6.98837 7.01106 7.03367 6.92187 7.07623 7.0982 7.12009 7.13194 6.99536 7.15922 7.20353 7.22469 7.2022 7.06656 7.22854 7.30447 7.32495 7.27032 7.13567 7.29587 7.40144 7.42132 7.33657 7.20291 7.36138 7.49476 7.51408 7.40109 7.26845 7.42525 7.58218 7.59522 7.46405 7.33243 7.48764 7.64299 7.65573 7.52557 7.39498 7.54865 7.70247 7.71495 7.58582 7.45627 7.60855 7.76098 7.77322 7.64502 7.51641 7.66724 7.81823 7.83027 7.70314 7.5756 7.72517 7.87491 7.88678 7.76058 7.63399 7.78225 7.93067 7.94009 7.81717 7.69158 7.83858 7.96946 7.97695 7.87299 7.74838 7.89404 8.00662 8.01425 7.92806 7.80456 7.94908 8.04474 8.05252 7.9828 7.86029 8.00372 8.08364 8.09156 8.03712 7.91552 8.05781 8.12305 8.13112 8.09098 7.97042 8.11177 8.16341 8.17161 8.14473 8.02502 8.16533 8.2043 8.21264 8.19812 8.07936 8.21875 8.24594 8.25441 8.2514 8.13351 8.27199 8.28823 8.29683 8.30451 8.18746 8.3223 8.33101 8.33974 8.3485 8.24128 8.3658 8.37463 8.38349 8.39236 8.29496 8.40985 8.4188 8.42777 8.43676 8.34851 8.45464 8.46372 8.47281 8.48191 8.402 8.50003 8.50922 8.51843 8.52766 8.45546 8.54611 8.55541 8.56473 8.57406 8.5089 8.5927 8.6021 8.61151 8.62094 8.56227 8.6398 8.64929 8.65879 8.66831 8.61559 8.68734 8.69691 8.7065 8.7161 8.66884 8.73533 8.74499 8.75465 8.76433 8.72204 8.78368 8.79341 8.80315 8.8129 8.77519 8.83246 8.84224 8.85204 8.86184 8.82823 8.88148 8.89131 8.90115 8.91099 8.88112 8.93073 8.94059 8.95045 8.96032 8.9338 8.98007 8.98994 8.99982 9.0097 8.98624 9.02949 9.03937 9.04925 9.05914 9.03842 9.07892 9.08879 9.09868 9.10857 9.09033 9.12835 9.13822 9.1481 9.15798 9.14196 9.17775 9.1876 9.19746 9.20733 9.19328 9.22709 9.23693 9.24678 9.25664 9.24431 9.27635 9.28617 9.296 9.30583 9.29502 9.3255 9.33527 9.34506 9.35485 9.34532 9.37441 9.38413 9.39386 9.40359 9.39514 9.42305 9.43271 9.44238 9.45205 9.4445 9.47137 9.48096 9.49055 9.50015 9.49333 9.51931 9.52882 9.53832 9.54783 9.54159 9.56681 9.57621 9.58562 9.59503 9.58923 9.61379 9.62309 9.63238 9.64168 9.63621 9.66022 9.66939 9.67857 9.68774 9.68248 9.70603 9.71507 9.72412 9.73317 9.72804 9.7512 9.76012 9.76905 9.77797 9.77288 9.79576 9.80457 9.81339 9.8222 9.81708 9.83979 9.8485 9.85722 9.86594 9.86072 9.88335 9.89197 9.9006 9.90922 9.90382 9.92645 9.93499 9.94352 9.95206 9.94637 9.96911 9.97756 9.986 9.99445 9.98838 10.0113 10.0197 10.0281 10.0364 10.0299 10.0532 10.0615 10.0698 10.0781 10.0711 10.0948 10.103 10.1113 10.1196 10.1119 10.1361 10.1444 10.1526 10.1609 10.1526 10.1774 10.1856 10.1939 10.2021 10.193 10.2186 10.2268 10.2351 10.2433 10.2333 10.2599 10.2681 10.2764 10.2846 10.2736 10.3013 10.3096 10.3179 10.3262 10.314 10.3429 10.3512 10.3595 10.3678 10.3543 10.3846 10.3929 10.4012 10.4095 10.3944 10.4262 10.4345 10.4428 10.451 10.4342 10.4678 10.476 10.4843 10.4926 10.474 10.5094 10.5177 10.526 10.5343 10.5138 10.5511 10.5594 10.5676 10.5759 10.5534 10.5927 10.601 10.6092 10.6174 10.5928 10.6342 10.6424 10.6506 10.6588 10.6321 10.6754 10.6835 10.6917 10.6998 10.6712 10.7164 10.7246 10.7327 10.7409 10.7102 10.7575 10.7656 10.7737 10.7818 10.7492 10.7984 10.8065 10.8146 10.8227 10.7881 10.8394 10.8475 10.8556 10.8637 10.8271 10.8803 10.8884 10.8965 10.9046 10.866 10.9212 10.9293 10.9373 10.9454 10.9049 10.9619 10.97 10.9781 10.9861 10.9438 11.0026 11.0107 11.0188 11.0269 10.983 11.0436 11.0517 11.0598 11.0679 11.0222 11.0845 11.0926 11.1007 11.1087 11.0612 11.1252 11.1332 11.1412 11.1492 11.1 11.1655 11.1734 11.1812 11.1891 11.1383 11.2051 11.2128 11.2205 11.2281 11.1758 11.2437 11.2511 11.2586 11.266 11.2122 11.281 11.2881 11.2952 11.3024 11.2473 11.3167 11.3235 11.3303 11.3372 11.2811 11.3511 11.3577 11.3642 11.3707 11.3138 11.3844 11.3908 11.3972 11.4035 11.3458 11.4171 11.4234 11.4297 11.436 11.3778 11.4498 11.4561 11.4624 11.4687 11.41 11.4827 11.4891 11.4955 11.5019 11.4429 11.5161 11.5228 11.5294 11.536 11.477 11.5506 11.5574 11.5643 11.5711 11.5124 11.5857 11.5927 11.5996 11.6065 11.5484 11.6209 11.6277 11.6345 11.6413 11.5839 11.6552 11.6619 11.6686 11.6752 11.6191 11.6889 11.6954 11.7019 11.7084 11.6535 11.7211 11.7266 11.7321 11.7376 11.6831 11.7487 11.7536 11.7584 11.7633 11.7097 11.7758 11.7828 11.7898 11.7969 11.7461 11.8149 11.8257 11.8365 11.8473 11.7998 11.8706 11.8837 11.8969 11.9102 11.8638 11.9358 11.9496 11.9633 11.9771 11.9296 12.0034 12.0166 12.0298 12.043 11.9923 12.069 12.0813 12.0937 12.106 12.0508 12.1313 12.143 12.1547 12.1664 12.1068 12.1914 12.203 12.2147 12.2263 12.1628 12.2514 12.2633 12.2753 12.2873 12.2208 12.3132 12.3258 12.3383 12.3509 12.2819 12.3781 12.3916 12.405 12.4184 12.3475 12.4477 12.4621 12.4765 12.4909 12.4183 12.5222 12.5379 12.5536 12.5692 12.4955 12.6035 12.6205 12.6375 12.6544 12.5793 12.6908 12.7097 12.7285 12.7474 12.6724 12.7888 12.8097 12.8306 12.8515 12.7755 12.896 12.9203 12.9447 12.9691 12.8957 13.0244 13.053 13.0809 13.1074 13.0329 13.1637 13.2035 13.2391 13.2692 13.2072 13.3537 13.4055 13.4474 13.4772 13.4107 13.5578 13.6337 13.6959 13.7402 13.7091 13.9005 14.0081 14.0846 14.1169 14.0547 14.2012 14.327 14.4347 14.5003 14.5304 14.7777 14.8865 14.8275 14.6784 14.3681 14.2833 14.1553 14.0113 13.8627 13.6919 13.7469 13.7162 13.6719 13.6215 13.4849 13.5562 13.5232 13.4834 13.4413 13.2935 13.3479 13.3043 13.2567 13.2065 13.0615 13.1157 13.0807 13.0399 12.9924 12.8578 12.9115 12.8807 12.8381 12.7813 12.6418 12.6705 12.6407 12.5949 12.5308 12.4093 12.4378 12.4101 12.3558 12.2737 12.1352 12.1387 12.1031 12.0411 11.9531 11.8244 11.8443 11.8095 11.7308 11.6136 11.4375 11.4231 11.367 11.2799 11.1674 11.0082 11.0302 10.9685 10.8599 10.7202 10.4889 10.4529 10.3659 10.2624 10.1498 9.98157 10.0198 9.92359 9.80737 9.68788 9.42703 9.36568 9.27372 9.18089 9.08804 8.96422 9.03275 8.90833 8.78432 8.66067 8.36348 8.23237 8.13358 8.03475 7.93588 7.86525 7.9711 7.80319 7.63599 7.46943 7.05969 6.79893 6.6895 6.58002 6.47048 6.50155 6.71206 6.47547 6.24096 6.00834 5.39605 4.92161 4.83271 4.74414 4.65589 4.94012 5.42307 5.0503 4.68232 4.31856 3.26713 2.34349 2.31443 2.29498 2.28424 3.09348 3.95438 3.14907 2.33376 1.50977 0