# vtk DataFile Version 2.0
track0
ASCII
DATASET POLYDATA
POINTS 11340 double
-0.0205 0.001 1e-05
-0.0202034 0.000999797 1e-05
-0.0199069 0.000999277 1e-05
-0.0196103 0.000998456 1e-05
-0.0193137 0.000997336 1e-05
-0.0190172 0.000995915 1e-05
-0.0187132 0.000994494 1e-05
-0.0184093 0.000992369 1e-05
-0.0181054 0.000989954 1e-05
-0.0178015 0.000987247 1e-05
-0.0174976 0.000984249 1e-05
-0.0172058 0.000981739 1e-05
-0.016914 0.000977983 1e-05
-0.0166223 0.000973829 1e-05
-0.0163305 0.000969277 1e-05
-0.0160387 0.000964322 1e-05
-0.0157586 0.000960486 1e-05
-0.0154785 0.00095492 1e-05
-0.0151984 0.000949044 1e-05
-0.0149183 0.000942856 1e-05
-0.0146381 0.000936604 1e-05
-0.0143692 0.0009321 1e-05
-0.0141003 0.000925748 1e-05
-0.0138314 0.000918824 1e-05
-0.0135625 0.000911897 1e-05
-0.0132934 0.000906074 1e-05
-0.0130353 0.000902534 1e-05
-0.0127771 0.000897353 1e-05
-0.012519 0.000891169 1e-05
-0.0122608 0.000885727 1e-05
-0.0120025 0.000883347 1e-05
-0.0117547 0.000884346 1e-05
-0.0115068 0.00088494 1e-05
-0.0112589 0.000885294 1e-05
-0.0110111 0.000887733 1e-05
-0.0107632 0.000894266 1e-05
-0.0105252 0.00090461 1e-05
-0.0102873 0.000916483 1e-05
-0.0100496 0.00093046 1e-05
-0.00981197 0.000947391 1e-05
-0.00957337 0.00096748 1e-05
-0.00945381 0.000979348 1e-05
-0.00933433 0.000991861 1e-05
-0.00921491 0.00100503 1e-05
-0.00909558 0.00101888 1e-05
-0.00903047 0.00102682 1e-05
-0.00891059 0.00104181 1e-05
-0.00879082 0.00105764 1e-05
-0.00867116 0.0010743 1e-05
-0.00855163 0.00109181 1e-05
-0.00843108 0.00111031 1e-05
-0.00821175 0.00114533 1e-05
-0.00799291 0.00118329 1e-05
-0.00777461 0.00122424 1e-05
-0.00755675 0.00126748 1e-05
-0.00733443 0.00131353 1e-05
-0.00723682 0.00133469 1e-05
-0.0071393 0.00135632 1e-05
-0.00704188 0.00137839 1e-05
-0.00694453 0.00140072 1e-05
-0.00686433 0.00141936 1e-05
-0.00674778 0.00144673 1e-05
-0.0066314 0.00147478 1e-05
-0.00651518 0.00150353 1e-05
-0.00639915 0.001533 1e-05
-0.0062816 0.00156315 1e-05
-0.00607944 0.00161536 1e-05
-0.00587753 0.00166849 1e-05
-0.00567587 0.00172258 1e-05
-0.005474 0.00177588 1e-05
-0.00527083 0.00182857 1e-05
-0.00526178 0.00183087 1e-05
-0.00525272 0.00183317 1e-05
-0.00524367 0.00183546 1e-05
-0.00523462 0.00183775 1e-05
-0.00522543 0.00184007 1e-05
-0.00504043 0.00188663 1e-05
-0.00485503 0.00193156 1e-05
-0.00466923 0.00197478 1e-05
-0.00448301 0.00201621 1e-05
-0.00430044 0.00205444 1e-05
-0.00411412 0.00209075 1e-05
-0.00392721 0.00212391 1e-05
-0.00373976 0.00215386 1e-05
-0.00355186 0.00218086 1e-05
-0.00336883 0.00220421 1e-05
-0.0032144 0.00222156 1e-05
-0.00305973 0.00223662 1e-05
-0.00290487 0.00224958 1e-05
-0.00274984 0.00226034 1e-05
-0.00247443 0.00227534 1e-05
-0.00235898 0.00227847 1e-05
-0.0022435 0.00227994 1e-05
-0.00212801 0.00227959 1e-05
-0.00201254 0.00227739 1e-05
-0.00161577 0.00226341 1e-05
-0.0014509 0.00224809 1e-05
-0.00128651 0.00222828 1e-05
-0.00112276 0.00220369 1e-05
-0.000959786 0.00217444 1e-05
-0.000791418 0.00213936 1e-05
-0.000633135 0.00210166 1e-05
-0.000475726 0.00206045 1e-05
-0.000319237 0.00201589 1e-05
-0.000163725 0.00196802 1e-05
0 0.00191359 1e-05
3.90529e-05 0.00189961 1e-05
7.80105e-05 0.00188536 1e-05
0.000116872 0.00187086 1e-05
0.000155638 0.00185609 1e-05
0.000187974 0.00184354 1e-05
0.000256056 0.00181669 1e-05
0.000323854 0.00178912 1e-05
0.000391367 0.00176086 1e-05
0.000458596 0.00173194 1e-05
0.000528387 0.00170105 1e-05
0.000634886 0.00165253 1e-05
0.000740536 0.00160219 1e-05
0.000845343 0.00155011 1e-05
0.000949249 0.00149626 1e-05
0.00106088 0.00143604 1e-05
0.00106114 0.0014359 1e-05
0.0010614 0.00143575 1e-05
0.00106165 0.00143561 1e-05
0.00106191 0.00143546 1e-05
0.00106217 0.00143532 1e-05
0.00116924 0.00137509 1e-05
0.00127514 0.00131283 1e-05
0.00137986 0.00124861 1e-05
0.00148336 0.00118244 1e-05
0.00159752 0.00110607 1e-05
0.00161458 0.00109407 1e-05
0.00163159 0.00108202 1e-05
0.00164857 0.0010699 1e-05
0.0016655 0.00105772 1e-05
0.00168155 0.00104608 1e-05
0.00177291 0.000979333 1e-05
0.00186276 0.000910577 1e-05
0.0019511 0.000839894 1e-05
0.00203784 0.000767246 1e-05
0.00213833 0.00067902 1e-05
0.00213873 0.000678648 1e-05
0.00213913 0.000678276 1e-05
0.00213953 0.000677904 1e-05
0.00213993 0.000677532 1e-05
0.00214033 0.00067716 1e-05
0.00221533 0.000607475 1e-05
0.00228867 0.000536042 1e-05
0.00236034 0.000462931 1e-05
0.00243034 0.000388211 1e-05
0.00248383 0.000328608 1e-05
0.00252373 0.000282619 1e-05
0.00256294 0.000236033 1e-05
0.00260144 0.000188873 1e-05
0.00263925 0.000141149 1e-05
0.00268334 8.37875e-05 1e-05
0.00269576 6.703e-05 1e-05
0.00270809 5.02105e-05 1e-05
0.00272035 3.33294e-05 1e-05
0.00273251 1.63874e-05 1e-05
0.00274417 0 1e-05
0.00279619 -7.37309e-05 1e-05
0.00284649 -0.000148641 1e-05
0.00289524 -0.00022457 1e-05
0.00294245 -0.000301465 1e-05
0.00298218 -0.000368592 1e-05
0.00302927 -0.000450778 1e-05
0.00307463 -0.000533929 1e-05
0.00311845 -0.000617901 1e-05
0.00316094 -0.000702556 1e-05
0.00319802 -0.000779416 1e-05
0.00320493 -0.000794254 1e-05
0.00321181 -0.00080911 1e-05
0.00321864 -0.000823983 1e-05
0.00322545 -0.00083887 1e-05
0.00323259 -0.000854573 1e-05
0.00326714 -0.000931061 1e-05
0.00330081 -0.00100794 1e-05
0.0033336 -0.0010852 1e-05
0.00336553 -0.00116282 1e-05
0.00339528 -0.00123693 1e-05
0.00343577 -0.00133883 1e-05
0.00347475 -0.00144131 1e-05
0.00351226 -0.00154433 1e-05
0.00354889 -0.00164768 1e-05
0.00358345 -0.00174626 1e-05
0.0036228 -0.00185966 1e-05
0.00366069 -0.00197356 1e-05
0.00369763 -0.00208777 1e-05
0.00373383 -0.00220222 1e-05
0.00376814 -0.00231314 1e-05
0.00377174 -0.00232499 1e-05
0.00377531 -0.00233685 1e-05
0.00377888 -0.00234871 1e-05
0.00378244 -0.00236057 1e-05
0.00378611 -0.00237284 1e-05
0.00382016 -0.00248708 1e-05
0.0038534 -0.00260157 1e-05
0.00388583 -0.00271628 1e-05
0.00391744 -0.00283123 1e-05
0.00394768 -0.00294395 1e-05
0.00398488 -0.00308435 1e-05
0.00402028 -0.00322522 1e-05
0.00405386 -0.00336654 1e-05
0.00408574 -0.00350825 1e-05
0.0041153 -0.00364571 1e-05
0.00414729 -0.00380185 1e-05
0.00417597 -0.00395863 1e-05
0.00420196 -0.00411589 1e-05
0.00422616 -0.00427343 1e-05
0.00424768 -0.004426 1e-05
0.00426693 -0.00457846 1e-05
0.00428335 -0.00473126 1e-05
0.00429883 -0.00488416 1e-05
0.00431329 -0.00503715 1e-05
0.00433557 -0.00529353 1e-05
0.00433724 -0.00531654 1e-05
0.00433891 -0.00533955 1e-05
0.0043406 -0.00536256 1e-05
0.00434232 -0.00538557 1e-05
0.00434393 -0.00540695 1e-05
0.00435694 -0.00557731 1e-05
0.0043708 -0.0057476 1e-05
0.00438565 -0.00591781 1e-05
0.00440164 -0.00608792 1e-05
0.00441905 -0.00625891 1e-05
0.00444305 -0.00647392 1e-05
0.00447435 -0.00668799 1e-05
0.00451423 -0.00690062 1e-05
0.00456484 -0.00711096 1e-05
0.00462867 -0.00733529 1e-05
0.00468416 -0.00750625 1e-05
0.0047479 -0.00767431 1e-05
0.00482059 -0.0078387 1e-05
0.00489513 -0.00800225 1e-05
0.00490609 -0.00802562 1e-05
0.00495428 -0.00812793 1e-05
0.00500398 -0.00822952 1e-05
0.00505518 -0.00833036 1e-05
0.00510723 -0.00843076 1e-05
0.00516281 -0.0085374 1e-05
0.00522478 -0.00865559 1e-05
0.00528675 -0.00877378 1e-05
0.00534873 -0.00889196 1e-05
0.00541057 -0.00901022 1e-05
0.00547262 -0.00912968 1e-05
0.00552828 -0.00923756 1e-05
0.00558402 -0.0093454 1e-05
0.00563986 -0.00945318 1e-05
0.00569584 -0.00956089 1e-05
0.00575234 -0.00966911 1e-05
0.00581058 -0.00978017 1e-05
0.00586862 -0.00989133 1e-05
0.00592643 -0.0100026 1e-05
0.00598423 -0.0101139 1e-05
0.00604356 -0.0102276 1e-05
0.00610359 -0.010342 1e-05
0.00616388 -0.0104563 1e-05
0.00622446 -0.0105705 1e-05
0.00628536 -0.0106844 1e-05
0.00634752 -0.0107998 1e-05
0.0064018 -0.0108997 1e-05
0.00645634 -0.0109995 1e-05
0.00651113 -0.0110992 1e-05
0.00656623 -0.0111987 1e-05
0.00661893 -0.0112929 1e-05
0.00669078 -0.0114203 1e-05
0.0067632 -0.0115473 1e-05
0.0068362 -0.0116741 1e-05
0.00690986 -0.0118004 1e-05
0.00698636 -0.0119299 1e-05
0.00702885 -0.0120008 1e-05
0.00707157 -0.0120716 1e-05
0.00711455 -0.0121422 1e-05
0.00715777 -0.0122126 1e-05
0.00719878 -0.0122789 1e-05
0.0072961 -0.012435 1e-05
0.0073947 -0.0125903 1e-05
0.00749462 -0.0127448 1e-05
0.0075959 -0.0128983 1e-05
0.0077044 -0.0130596 1e-05
0.00772015 -0.0130825 1e-05
0.00773593 -0.0131054 1e-05
0.00775174 -0.0131283 1e-05
0.00776759 -0.0131511 1e-05
0.00778313 -0.0131734 1e-05
0.00790091 -0.0133419 1e-05
0.00802048 -0.0135091 1e-05
0.00814187 -0.013675 1e-05
0.00826531 -0.0138394 1e-05
0.00837203 -0.0139776 1e-05
0.00840553 -0.0140199 1e-05
0.00843916 -0.0140621 1e-05
0.00847293 -0.0141042 1e-05
0.00850684 -0.0141462 1e-05
0.00854181 -0.0141891 1e-05
0.00862655 -0.0142925 1e-05
0.00871222 -0.0143951 1e-05
0.00879883 -0.0144969 1e-05
0.00888638 -0.0145979 1e-05
0.00896551 -0.0146875 1e-05
0.00907863 -0.0148137 1e-05
0.00919323 -0.0149385 1e-05
0.00930932 -0.015062 1e-05
0.00942679 -0.0151841 1e-05
0.00955922 -0.0153186 1e-05
0.0095601 -0.0153194 1e-05
0.00956097 -0.0153203 1e-05
0.00956185 -0.0153212 1e-05
0.00956273 -0.015322 1e-05
0.0095636 -0.0153229 1e-05
0.00968415 -0.0154421 1e-05
0.00980606 -0.0155599 1e-05
0.00992932 -0.0156763 1e-05
0.0100539 -0.0157913 1e-05
0.0101663 -0.0158924 1e-05
0.0102878 -0.0159991 1e-05
0.0104104 -0.0161046 1e-05
0.0105342 -0.0162087 1e-05
0.0106591 -0.0163113 1e-05
0.0107738 -0.0164034 1e-05
0.0107851 -0.0164123 1e-05
0.0107965 -0.0164212 1e-05
0.0108079 -0.0164301 1e-05
0.0108193 -0.016439 1e-05
0.0108309 -0.016448 1e-05
0.0109419 -0.0165343 1e-05
0.0110537 -0.0166194 1e-05
0.0111664 -0.0167035 1e-05
0.01128 -0.0167864 1e-05
0.0113859 -0.0168624 1e-05
0.0115093 -0.0169494 1e-05
0.0116336 -0.0170351 1e-05
0.0117589 -0.0171195 1e-05
0.0118849 -0.0172027 1e-05
0.0120028 -0.0172791 1e-05
0.0120965 -0.0173388 1e-05
0.0121906 -0.0173977 1e-05
0.0122851 -0.017456 1e-05
0.01238 -0.0175138 1e-05
0.0124864 -0.0175776 1e-05
0.012514 -0.0175939 1e-05
0.0125417 -0.0176102 1e-05
0.0125694 -0.0176264 1e-05
0.0125971 -0.0176425 1e-05
0.0126245 -0.0176585 1e-05
0.0127498 -0.0177309 1e-05
0.0128757 -0.0178024 1e-05
0.0130021 -0.0178729 1e-05
[...]
POINT_DATA 11340
 FIELD attributes 1
U 3 11340 float
10.0105 	-0.00685523 	0 10.0379 	-0.0176009 	0 10.0651 	-0.0278489 	0 10.0923 	-0.0381414 	0 10.1196 	-0.0484783 	0 10.1426 	-0.0474263 	0 10.185 	-0.0711962 	0 10.2187 	-0.0812185 	0 10.2524 	-0.091307 	0 10.2862 	-0.101462 	0 10.3026 	-0.0886477 	0 10.3591 	-0.13334 	0 10.4008 	-0.14807 	0 10.4425 	-0.16296 	0 10.4842 	-0.17801 	0 10.4985 	-0.143756 	0 10.5894 	-0.210423 	0 10.6462 	-0.223368 	0 10.7031 	-0.236463 	0 10.7535 	-0.23991 	0 10.7611 	-0.180246 	0 10.8884 	-0.257202 	0 10.9689 	-0.282477 	0 11.028 	-0.284103 	0 11.0478 	-0.239072 	0 11.0315 	-0.151276 	0 11.1529 	-0.223849 	0 11.2533 	-0.269571 	0 11.293 	-0.238084 	0 11.2836 	-0.103934 	0 11.2659 	0.0454011 	0 11.3542 	0.0272001 	0 11.4382 	0.0163439 	0 11.4583 	0.11273 	0 11.4388 	0.301477 	0 11.4142 	0.496159 	0 11.4994 	0.573923 	0 11.532 	0.677878 	0 11.4904 	0.818813 	0 11.4288 	0.962277 	0 11.2493 	1.11667 	0 11.2668 	1.17996 	0 11.195 	1.23503 	0 11.1025 	1.28831 	0 11.0087 	1.34165 	0 10.9569 	1.3708 	0 10.8954 	1.43925 	0 10.8343 	1.50858 	0 10.7738 	1.5788 	0 10.6924 	1.64048 	0 10.5783 	1.68913 	0 10.4877 	1.81896 	0 10.395 	1.95021 	0 10.1561 	2.01554 	0 9.83205 	2.0366 	0 9.50371 	2.06063 	0 9.42172 	2.0897 	0 9.33535 	2.11458 	0 9.22428 	2.11594 	0 9.11347 	2.11754 	0 9.02235 	2.11904 	0 8.9134 	2.14811 	0 8.80571 	2.17843 	0 8.69933 	2.21002 	0 8.56741 	2.19683 	0 8.43034 	2.17735 	0 8.2881 	2.18084 	0 8.14715 	2.1854 	0 8.01376 	2.11572 	0 7.87936 	2.04361 	0 7.73225 	1.96414 	0 7.72856 	1.96075 	0 7.72495 	1.95709 	0 7.72179 	1.952 	0 7.71861 	1.94691 	0 7.71538 	1.94174 	0 7.62282 	1.84743 	0 7.52725 	1.75113 	0 7.42854 	1.65274 	0 7.29862 	1.52814 	0 7.15709 	1.39468 	0 7.10923 	1.26145 	0 7.05151 	1.12651 	0 6.94669 	0.998334 	0 6.83034 	0.871113 	0 6.69681 	0.75257 	0 6.65751 	0.648109 	0 6.57175 	0.549985 	0 6.48418 	0.450091 	0 6.39472 	0.348363 	0 6.22753 	0.168684 	0 6.19591 	0.0791298 	0 6.16321 	-0.0188424 	0 6.12835 	-0.116764 	0 6.09131 	-0.214609 	0 5.95732 	-0.553742 	0 5.9674 	-0.718804 	0 5.98721 	-0.899404 	0 5.99816 	-1.07637 	0 6.00993 	-1.25223 	0 6.05274 	-1.44171 	0 6.10187 	-1.59727 	0 6.14549 	-1.75013 	0 6.19335 	-1.9063 	-5.87879e-21 6.24561 	-2.07623 	-1.33589e-20 6.2957 	-2.25434 	-2.1412e-20 6.32214 	-2.31208 	-1.36398e-20 6.34424 	-2.36819 	-1.17176e-20 6.36153 	-2.42249 	-1.63635e-20 6.3783 	-2.47641 	-2.10999e-20 6.3919 	-2.52117 	-2.5135e-20 6.42314 	-2.61156 	-4.23336e-20 6.453 	-2.70075 	-5.99993e-20 6.48151 	-2.78876 	-7.81184e-20 6.50487 	-2.87904 	-5.70443e-20 6.52626 	-2.97328 	-1.96358e-20 6.57745 	-3.13413 	-1.187e-20 6.62475 	-3.29161 	-4.17327e-21 6.63173 	-3.43694 	-3.49242e-21 6.6337 	-3.57856 	-3.10065e-21 6.63096 	-3.72795 	-2.83804e-21 6.63098 	-3.72833 	-2.81406e-21 6.63099 	-3.7287 	-2.79008e-21 6.63086 	-3.72901 	-2.79974e-21 6.6307 	-3.7293 	-2.81347e-21 6.63055 	-3.72959 	-2.8272e-21 6.63632 	-3.90174 	-1.50017e-21 6.64051 	-4.07214 	-2.17163e-22 6.62716 	-4.23663 	8.07716e-22 6.55179 	-4.38365 	9.76336e-22 6.46493 	-4.5455 	1.10088e-21 6.45452 	-4.5727 	6.53428e-22 6.44404 	-4.59982 	2.05462e-22 6.42682 	-4.62328 	-2.00017e-22 6.4039 	-4.64364 	-5.69573e-22 6.38201 	-4.66291 	-9.21464e-22 6.35059 	-4.85953 	-8.44907e-22 6.31906 	-5.0558 	-7.20196e-22 6.22537 	-5.21421 	-8.21546e-22 6.09003 	-5.347 	-1.05718e-21 5.92925 	-5.50272 	-1.27942e-21 5.92865 	-5.50343 	-1.28532e-21 5.92806 	-5.50413 	-1.29121e-21 5.92744 	-5.5048 	-1.29333e-21 5.92662 	-5.50521 	-1.26737e-21 5.92582 	-5.50562 	-1.24143e-21 5.82173 	-5.67019 	5.51091e-21 5.71496 	-5.82989 	1.20364e-20 5.60214 	-5.9806 	1.75178e-20 5.42507 	-6.04433 	9.64665e-21 5.28532 	-6.09167 	3.37506e-21 5.2515 	-6.24062 	-5.82516e-22 5.20074 	-6.36916 	-3.22761e-21 5.10744 	-6.44689 	-2.54663e-21 5.01438 	-6.52452 	-1.90129e-21 4.90409 	-6.61661 	-1.17688e-21 4.87272 	-6.64363 	-1.45803e-21 4.84138 	-6.67063 	-1.74015e-21 4.81007 	-6.69761 	-2.02322e-21 4.77701 	-6.71503 	-2.23561e-21 4.7437 	-6.72408 	-2.38299e-21 4.6409 	-6.91127 	-1.52035e-21 4.52123 	-7.04176 	-4.17352e-22 4.40103 	-7.16777 	7.15164e-22 4.25404 	-7.18816 	2.60971e-22 4.12692 	-7.20325 	-1.40954e-22 4.05676 	-7.43627 	-5.71637e-21 3.971 	-7.60933 	-7.32095e-21 3.86142 	-7.69377 	-3.06886e-21 3.75321 	-7.7791 	1.12988e-21 3.63598 	-7.80363 	6.18745e-21 3.63101 	-7.84819 	7.11067e-21 3.61985 	-7.87326 	7.5938e-21 3.60463 	-7.88553 	7.78819e-21 3.58944 	-7.89781 	7.9834e-21 3.57346 	-7.91076 	8.18995e-21 3.49548 	-7.98213 	1.09738e-20 3.41833 	-8.05349 	1.37341e-20 3.34201 	-8.12483 	1.64711e-20 3.27538 	-8.15905 	1.6344e-20 3.22853 	-8.12478 	1.10902e-20 3.16312 	-8.31636 	-3.69763e-21 3.09901 	-8.50992 	-1.85206e-20 3.0284 	-8.5449 	-2.46383e-20 2.95864 	-8.43835 	-2.05789e-20 2.89236 	-8.33676 	-1.67173e-20 2.85732 	-8.58768 	-8.02771e-21 2.80473 	-8.67341 	-4.03954e-21 2.74284 	-8.67055 	-2.57827e-21 2.68156 	-8.66919 	-1.09806e-21 2.61476 	-8.62609 	1.10557e-21 2.61272 	-8.65598 	2.43971e-22 2.60623 	-8.66368 	0 2.59798 	-8.66263 	0 2.58973 	-8.6616 	0 2.58122 	-8.66055 	0 2.51336 	-8.6558 	0 2.44587 	-8.65239 	0 2.37873 	-8.65032 	0 2.31578 	-8.63065 	6.70638e-22 2.26634 	-8.55339 	3.42064e-21 2.16436 	-8.61469 	1.84568e-21 2.06291 	-8.68033 	2.24119e-22 1.94364 	-8.63883 	-1.18834e-20 1.82456 	-8.48605 	-3.25897e-20 1.70921 	-8.34091 	-5.27488e-20 1.5376 	-8.40663 	-7.06288e-20 1.38638 	-8.38866 	-7.48856e-20 1.26573 	-8.24086 	-5.87235e-20 1.14116 	-8.0886 	-3.98308e-20 0.990445 	-7.84476 	7.63655e-21 0.833947 	-7.76304 	3.07443e-20 0.761921 	-7.52278 	2.29412e-20 0.688396 	-7.28643 	1.55162e-20 0.613211 	-7.05445 	8.51089e-21 0.483937 	-6.66098 	-4.43207e-21 0.480434 	-6.61923 	-7.91963e-21 0.48335 	-6.57535 	-8.15073e-21 0.486316 	-6.53141 	-8.3771e-21 0.489332 	-6.48741 	-8.59864e-21 0.492184 	-6.44646 	-8.79991e-21 0.498935 	-6.12774 	-1.82936e-20 0.506621 	-5.80707 	-2.81192e-20 0.515379 	-5.48419 	-3.8325e-20 0.525374 	-5.15877 	-4.89697e-20 0.548652 	-4.91543 	-2.75857e-20 0.662358 	-4.53076 	4.76533e-21 0.780225 	-4.1596 	2.58711e-20 0.908762 	-3.7773 	4.87146e-20 1.00763 	-3.54078 	4.68569e-20 1.09706 	-3.38038 	2.88904e-20 1.21303 	-3.19804 	1.81893e-20 1.33492 	-3.01913 	7.30319e-21 1.37532 	-3.01769 	4.9352e-21 1.41619 	-3.01876 	2.61281e-21 1.42213 	-3.01927 	2.28566e-21 1.46255 	-2.98975 	-5.64916e-22 1.50379 	-2.9613 	-3.42192e-21 1.52908 	-2.94962 	-5.10286e-21 1.53927 	-2.9531 	-5.69207e-21 1.55018 	-2.95702 	-6.3153e-21 1.56752 	-2.98943 	-1.14923e-20 1.58487 	-3.02184 	-1.66689e-20 1.59332 	-3.04679 	-1.7042e-20 1.59051 	-3.0622 	-1.13638e-20 1.58762 	-3.07751 	-5.66942e-21 1.59306 	-3.08159 	-1.28039e-21 1.59854 	-3.08572 	3.11665e-21 1.60038 	-3.07904 	3.3083e-21 1.59899 	-3.06271 	-2.53938e-22 1.59764 	-3.04638 	-3.82949e-21 1.59376 	-3.05313 	-6.07953e-21 1.58982 	-3.05982 	-8.33538e-21 1.58634 	-3.05434 	-8.27642e-21 1.58347 	-3.03402 	-5.37455e-21 1.5806 	-3.01328 	-2.39395e-21 1.57842 	-2.99193 	-2.35751e-21 1.57631 	-2.97061 	-2.3182e-21 1.57425 	-2.946 	-2.28785e-21 1.57226 	-2.91858 	-2.26412e-21 1.57036 	-2.89082 	-2.23595e-21 1.56819 	-2.86947 	-1.36971e-21 1.56609 	-2.84815 	-5.01981e-22 1.56512 	-2.82533 	0 1.5657 	-2.80045 	0 1.56635 	-2.77685 	0 1.56456 	-2.74513 	0 1.56291 	-2.71345 	0 1.5633 	-2.68126 	6.04207e-23 1.56502 	-2.64876 	1.57745e-22 1.56701 	-2.6154 	2.58192e-22 1.56816 	-2.59706 	2.62479e-22 1.56938 	-2.57875 	2.66991e-22 1.57078 	-2.56047 	2.72261e-22 1.5725 	-2.54224 	2.78936e-22 1.57419 	-2.52507 	2.85463e-22 1.57761 	-2.48467 	7.05544e-22 1.5814 	-2.44438 	1.13218e-21 1.58623 	-2.40499 	1.02323e-21 1.5917 	-2.36601 	7.26528e-22 1.59792 	-2.32494 	4.16628e-22 1.59894 	-2.31908 	3.54636e-22 1.59997 	-2.31322 	2.92748e-22 1.60112 	-2.30732 	2.48727e-22 1.60285 	-2.30122 	3.06222e-22 1.60456 	-2.29526 	3.62689e-22 1.61153 	-2.25381 	-2.01941e-22 1.61902 	-2.21252 	-7.61288e-22 1.6296 	-2.17017 	-8.12733e-22 1.64331 	-2.12722 	-3.28503e-22 1.65555 	-2.09094 	9.18151e-23 1.65797 	-2.08063 	4.79272e-23 1.66043 	-2.07033 	4.35175e-24 1.66392 	-2.05971 	1.73733e-23 1.66744 	-2.04911 	3.04127e-23 1.6711 	-2.03825 	4.38187e-23 1.68038 	-2.01224 	4.96779e-23 1.68991 	-1.98636 	5.58474e-23 1.69971 	-1.96061 	6.23315e-23 1.71037 	-1.93825 	1.08956e-22 1.72015 	-1.91848 	1.5238e-22 1.73217 	-1.88648 	5.69245e-22 1.74472 	-1.85527 	8.88403e-22 1.75847 	-1.8278 	6.09112e-22 1.77262 	-1.80055 	3.32236e-22 1.7888 	-1.77043 	2.65716e-23 1.78891 	-1.77024 	2.53277e-23 1.78902 	-1.77004 	2.40839e-23 1.78913 	-1.76985 	2.28402e-23 1.78925 	-1.76964 	2.34873e-23 1.78938 	-1.76943 	2.48715e-23 1.80377 	-1.74326 	4.85051e-24 1.81857 	-1.71724 	-1.67833e-23 1.83374 	-1.69144 	-3.89398e-23 1.85029 	-1.66397 	-5.79615e-23 1.86571 	-1.63913 	-7.4336e-23 1.87982 	-1.617 	-3.17817e-23 1.89461 	-1.59429 	9.03363e-25 1.91047 	-1.57018 	1.34497e-23 1.92666 	-1.54633 	2.60542e-23 1.9419 	-1.5243 	3.73179e-23 1.94324 	-1.52246 	4.40175e-23 1.94462 	-1.5205 	4.67838e-23 1.94605 	-1.51844 	4.57354e-23 1.94748 	-1.51637 	4.46904e-23 1.94893 	-1.51429 	4.36358e-23 1.96309 	-1.49439 	4.32681e-23 1.97748 	-1.47468 	4.31027e-23 1.99209 	-1.45516 	4.31394e-23 2.00664 	-1.43837 	4.71137e-23 2.02002 	-1.42542 	5.46059e-23 2.03559 	-1.40341 	9.95303e-23 2.05142 	-1.38158 	1.44979e-22 2.06714 	-1.36401 	1.35236e-22 2.08291 	-1.34989 	6.69635e-23 2.09777 	-1.33691 	3.15375e-24 2.10949 	-1.32148 	-3.70761e-24 2.12112 	-1.30891 	-5.09622e-24 2.13276 	-1.2976 	-4.14667e-24 2.14452 	-1.28638 	-3.18648e-24 2.15777 	-1.27393 	-2.10169e-24 2.16126 	-1.27076 	-1.54479e-24 2.16476 	-1.2676 	-9.87866e-25 2.16827 	-1.26444 	-4.30922e-25 2.17165 	-1.26104 	1.24292e-24 2.17457 	-1.25687 	6.67754e-24 2.1905 	-1.24444 	5.57938e-24 2.20596 	-1.23048 	1.75204e-23 2.22159 	-1.21666 	2.96155e-23 2.2361 	-1.20061 	5.80002e-23 2.24885 	-1.18298 	1.01709e-22 2.26544 	-1.17309 	6.14603e-23 2.28217 	-1.16333 	2.1039e-23 2.29699 	-1.14972 	-4.39507e-24 2.31003 	-1.13213 	5.28681e-24 2.32278 	-1.11527 	1.50755e-23 2.33944 	-1.10628 	1.98106e-24 2.3544 	-1.0942 	-3.79495e-23 2.36866 	-1.08077 	-9.01415e-23 2.38306 	-1.06749 	-1.42011e-22 2.39647 	-1.05306 	-1.90582e-22 2.40136 	-1.05066 	-2.01988e-22 2.40547 	-1.04691 	-1.66637e-22 2.4096 	-1.04318 	-1.31265e-22 2.41374 	-1.03945 	-9.58733e-23 2.41806 	-1.03558 	-5.89646e-23 2.42811 	-1.02674 	1.80077e-23 2.43822 	-1.01796 	9.51818e-23 2.44839 	-1.00925 	1.72555e-22 2.45863 	-1.00061 	2.50123e-22 2.46541 	-0.997368 	2.20025e-22 2.48246 	-0.981167 	7.52216e-22 2.49699 	-0.968885 	8.31006e-22 2.51139 	-0.957086 	8.65209e-22 2.52295 	-0.950033 	4.94335e-22 2.53247 	-0.94608 	-1.15283e-22 2.54957 	-0.930444 	-6.71599e-22 2.56683 	-0.914923 	-1.22925e-21 2.58034 	-0.905377 	-1.19886e-21 2.5901 	-0.901689 	-5.89715e-22 2.59967 	-0.898133 	5.56707e-24 2.6168 	-0.883002 	6.49992e-22 2.63261 	-0.870288 	1.01263e-21 2.64539 	-0.862612 	7.70146e-22 2.65729 	-0.856313 	3.86537e-22 2.66691 	-0.853122 	-3.05375e-22 2.68354 	-0.839251 	-3.19132e-22 2.69624 	-0.831821 	-3.14338e-22 2.70902 	-0.824441 	-3.09126e-22 2.7219 	-0.817113 	-3.035e-22 2.73408 	-0.810725 	-3.1224e-22 2.7368 	-0.808611 	-3.08977e-22 2.73894 	-0.807393 	-3.2243e-22 2.74108 	-0.806175 	-3.35873e-22 2.74323 	-0.804959 	-3.49307e-22 2.74543 	-0.803713 	-3.63087e-22 2.75599 	-0.797798 	-3.77897e-22 2.7666 	-0.791915 	-3.93009e-22 2.77727 	-0.786063 	-4.08419e-22 2.78799 	-0.780244 	-4.24125e-22 2.79101 	-0.768914 	-5.54769e-22 2.81137 	-0.768131 	-1.82931e-21 2.8241 	-0.761258 	-2.06784e-21 2.83691 	-0.754428 	-2.30335e-21 2.84601 	-0.744827 	-2.01874e-21 2.84646 	-0.728894 	-5.46509e-22 2.86832 	-0.729706 	-3.315e-22 2.88813 	-0.728842 	-1.35655e-22 2.90089 	-0.722254 	-4.66548e-24 2.90191 	-0.706712 	0 2.90263 	-0.691008 	0 2.92446 	-0.692218 	0 2.94633 	-0.693453 	0 2.95767 	-0.686301 	-3.91453e-23 2.95849 	-0.670665 	-1.13245e-22 2.95944 	-0.655179 	-1.87018e-22 2.98122 	-0.656783 	5.41583e-22 3.00069 	-0.65653 	1.06623e-21 3.01083 	-0.648811 	7.75381e-22 3.01569 	-0.636602 	1.4615e-22 3.01686 	-0.621314 	-7.18569e-22 3.03856 	-0.623312 	-1.91816e-21 3.05142 	-0.618035 	-2.1708e-21 3.06178 	-0.610683 	-2.14789e-21 3.07224 	-0.603396 	-2.12659e-21 3.07481 	-0.589331 	-1.3045e-21 3.09285 	-0.588707 	-2.29001e-21 3.10331 	-0.581643 	-1.61097e-21 3.11386 	-0.574642 	-9.35196e-22 3.1245 	-0.567702 	-2.62644e-22 3.13329 	-0.559167 	7.16665e-22 3.13861 	-0.558505 	1.03025e-21 3.14213 	-0.556257 	9.32466e-22 3.14565 	-0.554014 	8.35044e-22 3.14918 	-0.551779 	7.37983e-22 3.15288 	-0.549454 	6.37166e-22 3.15999 	-0.54502 	5.7268e-22 3.16713 	-0.54061 	5.08311e-22 3.17432 	-0.536226 	4.4406e-22 3.18154 	-0.531867 	3.79925e-22 3.18341 	-0.532117 	2.99812e-22 3.19959 	-0.521239 	-8.78028e-22 3.21037 	-0.514852 	-1.29548e-21 3.22123 	-0.50852 	-1.70924e-21 3.23217 	-0.502241 	-2.11936e-21 3.23045 	-0.507273 	-7.20045e-23 3.25422 	-0.490263 	2.00404e-21 3.2651 	-0.484197 	2.43798e-21 3.27604 	-0.478182 	2.8684e-21 3.28361 	-0.4754 	2.76539e-21 3.27898 	-0.48392 	7.86822e-22 3.30313 	-0.466403 	3.98526e-22 3.32026 	-0.455221 	1.5678e-22 3.33126 	-0.449504 	4.21035e-23 3.33276 	-0.453071 	0 3.3287 	-0.461941 	0 3.35246 	-0.444456 	0 3.37565 	-0.42778 	8.77095e-24 3.3863 	-0.422712 	1.53854e-22 3.38291 	-0.432024 	4.5299e-22 3.37943 	-0.441242 	7.50316e-22 3.40271 	-0.42377 	1.70561e-21 3.42624 	-0.406362 	2.66165e-21 3.43655 	-0.402482 	2.52961e-21 3.43379 	-0.412139 	1.25013e-21 3.43092 	-0.421705 	-2.28997e-23 3.45364 	-0.404247 	-4.80946e-23 3.4766 	-0.386851 	-7.21048e-23 3.48738 	-0.383388 	-5.07396e-22 3.48526 	-0.393366 	-9.1175e-22 3.48304 	-0.403258 	-1.31625e-21 3.50512 	-0.385826 	3.30051e-22 3.52627 	-0.36988 	1.87953e-21 3.53654 	-0.367613 	2.45879e-21 3.53719 	-0.375619 	1.75102e-21 3.53564 	-0.3858 	7.64994e-22 3.55703 	-0.368393 	-1.1492e-21 3.57383 	-0.357389 	-1.97688e-21 3.58413 	-0.355206 	-1.30146e-21 3.58941 	-0.35877 	2.31445e-23 3.58856 	-0.369213 	2.12427e-21 3.6092 	-0.351822 	5.10796e-23 3.62229 	-0.345597 	-9.67538e-22 3.6326 	-0.343489 	-1.59749e-21 3.64184 	-0.342733 	-2.02527e-21 3.64169 	-0.353422 	-7.31067e-22 3.66126 	-0.336482 	-6.00056e-22 3.67153 	-0.334444 	-5.40505e-22 3.68182 	-0.332407 	-4.80773e-22 3.69216 	-0.33037 	-4.2086e-22 3.69488 	-0.338365 	-5.41697e-22 3.7111 	-0.325856 	6.39467e-22 3.72133 	-0.323887 	7.43628e-22 3.73159 	-0.321918 	8.4863e-22 3.74187 	-0.319951 	9.54468e-22 3.74797 	-0.323989 	4.17743e-22 3.76138 	-0.315789 	5.42572e-22 3.77154 	-0.313886 	-1.49462e-22 3.78174 	-0.311983 	-8.40531e-22 3.79196 	-0.31008 	-1.53064e-21 3.80087 	-0.310256 	-2.38822e-21 3.80724 	-0.307105 	-2.75042e-21 3.81259 	-0.306128 	-2.69113e-21 3.81795 	-0.305151 	-2.63212e-21 3.82332 	-0.304174 	-2.57339e-21 3.82912 	-0.30312 	-2.51035e-21 3.83379 	-0.302271 	-2.48545e-21 3.83847 	-0.301423 	-2.46066e-21 3.84316 	-0.300575 	-2.43597e-21 3.84785 	-0.299727 	-2.41138e-21 3.84907 	-0.295689 	-2.44714e-21 3.86282 	-0.29718 	-2.30252e-21 3.87283 	-0.295401 	-1.82715e-21 3.88288 	-0.293621 	-1.35075e-21 3.89295 	-0.291841 	-8.73314e-22 3.89173 	-0.280096 	3.01946e-22 3.91377 	-0.288588 	4.6968e-22 3.92369 	-0.28687 	5.83037e-22 3.93363 	-0.285151 	6.96495e-22 3.9436 	-0.283431 	8.10053e-22 3.93411 	-0.265217 	7.45008e-22 3.96473 	-0.280455 	7.02252e-22 3.97454 	-0.278796 	4.80004e-22 3.98437 	-0.277136 	2.57837e-22 3.99422 	-0.275475 	3.57518e-23 3.97612 	-0.251 	0 4.01562 	-0.272762 	9.46798e-24 4.02532 	-0.271163 	1.28877e-22 4.03504 	-0.269562 	2.48341e-22 4.0426 	-0.266248 	3.89934e-22 4.01773 	-0.237411 	8.60714e-22 4.06103 	-0.261374 	3.0914e-21 4.07606 	-0.263962 	3.54736e-21 4.08567 	-0.262425 	3.65973e-21 4.08527 	-0.25329 	3.22431e-21 4.05898 	-0.224473 	1.36835e-21 4.1036 	-0.248636 	5.86307e-22 4.12678 	-0.257187 	2.00112e-22 4.13627 	-0.255715 	6.80108e-23 4.12761 	-0.240984 	1.73491e-22 4.09982 	-0.212188 	5.30859e-22 4.14581 	-0.236546 	2.00853e-22 4.1774 	-0.250829 	3.78058e-23 4.18676 	-0.249424 	1.34833e-22 4.16952 	-0.229301 	-4.65111e-22 4.14015 	-0.200521 	-1.38627e-21 4.1876 	-0.225077 	-3.21665e-21 4.2279 	-0.244882 	-4.78433e-21 4.23714 	-0.24354 	-5.14884e-21 4.21096 	-0.218207 	-4.51739e-21 4.17991 	-0.189426 	-3.73331e-21 4.22889 	-0.21419 	-7.51508e-21 4.27754 	-0.23886 	-1.13021e-20 4.28503 	-0.236521 	-1.10832e-20 4.25188 	-0.207668 	-6.44967e-21 4.21906 	-0.178865 	-1.80257e-21 4.26965 	-0.203847 	1.93527e-21 4.31991 	-0.228738 	5.66772e-21 4.32732 	-0.226568 	5.98867e-21 4.2923 	-0.197672 	3.14542e-21 4.2576 	-0.168827 	3.00552e-22 4.30986 	-0.194024 	2.10724e-22 4.36179 	-0.219131 	1.18196e-22 4.36908 	-0.217123 	-9.72961e-23 4.3321 	-0.188177 	-1.50264e-22 4.29543 	-0.159281 	-2.06508e-22 4.34943 	-0.184688 	-3.04848e-21 4.40309 	-0.210004 	-5.88709e-21 4.41023 	-0.208156 	-5.86446e-21 4.37121 	-0.179172 	-2.98291e-21 4.3325 	-0.15024 	-1.00204e-22 4.38829 	-0.175827 	-6.61379e-24 4.44373 	-0.201326 	8.97605e-23 4.45069 	-0.199629 	-7.06739e-22 4.40955 	-0.170634 	-1.64249e-21 4.36873 	-0.14169 	-2.57408e-21 4.42636 	-0.167437 	-4.51171e-21 4.48364 	-0.193097 	-6.45381e-21 4.49038 	-0.191533 	-6.65118e-21 4.44707 	-0.16253 	-5.65335e-21 4.40408 	-0.133578 	-4.65242e-21 4.46362 	-0.159484 	-5.86665e-21 4.52281 	-0.185305 	-7.0822e-21 4.52844 	-0.1834 	-5.29431e-21 4.48375 	-0.154846 	-2.17971e-21 4.43852 	-0.12588 	9.5552e-22 4.50004 	-0.151964 	6.76818e-21 4.55467 	-0.174689 	1.20229e-20 4.55938 	-0.172508 	1.30141e-20 4.51965 	-0.147614 	9.46008e-21 4.47209 	-0.118618 	5.06339e-21 4.53567 	-0.144892 	6.54545e-21 4.58486 	-0.164304 	7.58779e-21 4.58943 	-0.162245 	7.21919e-21 4.55473 	-0.140811 	5.66482e-21 4.50476 	-0.111761 	3.63357e-21 4.57045 	-0.138229 	2.87052e-21 4.61405 	-0.154488 	1.88688e-21 4.61848 	-0.152531 	4.96785e-22 4.58891 	-0.134365 	-5.16497e-22 4.53647 	-0.105234 	-1.27697e-21 4.60434 	-0.131908 	-6.50622e-21 4.64227 	-0.145175 	-9.38457e-21 4.64655 	-0.143323 	-9.60484e-21 4.62219 	-0.128268 	-7.36236e-21 4.5672 	-0.0990476 	-2.47173e-21 4.63731 	-0.12591 	-1.3304e-21 4.66945 	-0.13632 	-1.11217e-21 4.67358 	-0.134567 	-1.57864e-21 4.65452 	-0.12248 	-2.42816e-21 4.59692 	-0.0931827 	-3.91654e-21 4.66934 	-0.12022 	-1.1684e-20 4.69557 	-0.127909 	-1.43862e-20 4.69955 	-0.126251 	-1.46372e-20 4.68588 	-0.11699 	-1.30081e-20 4.62561 	-0.0876248 	-6.40516e-21 4.70039 	-0.114833 	-9.90525e-21 4.72063 	-0.119936 	-1.06153e-20 4.72444 	-0.118372 	-1.0483e-20 4.71625 	-0.1118 	-9.66449e-21 4.65324 	-0.0823701 	-5.71472e-21 4.73042 	-0.10975 	-9.71461e-21 4.74456 	-0.112386 	-9.51029e-21 4.74822 	-0.110903 	-8.60492e-21 4.74559 	-0.106878 	-7.25236e-21 4.67979 	-0.0773692 	-1.42293e-21 4.75945 	-0.10494 	5.18134e-21 4.7674 	-0.105239 	5.72821e-21 4.77091 	-0.103839 	5.89702e-21 4.77392 	-0.102241 	6.01249e-21 4.70527 	-0.0726409 	-1.20604e-21 4.78586 	-0.0998091 	-9.56273e-21 4.78917 	-0.098474 	-9.82493e-21 4.79252 	-0.09715 	-1.00894e-20 4.79592 	-0.095837 	-1.03562e-20 4.72973 	-0.0681614 	-3.06956e-21 4.80681 	-0.093353 	-1.47139e-21 4.80997 	-0.092086 	-6.13693e-22 4.81318 	-0.0908296 	2.44037e-22 4.81643 	-0.0895836 	1.1018e-21 4.75319 	-0.063899 	1.10936e-21 4.82683 	-0.0872424 	1.37594e-21 4.82985 	-0.0860409 	2.20244e-21 4.83291 	-0.0848494 	3.02859e-21 4.83601 	-0.0836678 	3.85438e-21 4.77567 	-0.0598394 	4.76961e-21 4.84591 	-0.0814595 	8.9559e-21 4.84879 	-0.080321 	8.65251e-21 4.8517 	-0.079192 	8.35007e-21 4.85464 	-0.0780723 	8.04858e-21 4.79714 	-0.0559739 	4.28817e-21 4.86405 	-0.0759805 	1.00331e-20 4.86678 	-0.0749052 	9.11783e-21 4.86954 	-0.0738388 	8.20439e-21 4.87233 	-0.0727814 	7.29275e-21 4.8176 	-0.0523087 	6.44749e-22 4.88124 	-0.0708026 	6.60309e-22 4.88381 	-0.0697897 	1.23335e-21 4.88643 	-0.0687852 	1.80623e-21 4.88907 	-0.0677891 	2.37895e-21 4.83704 	-0.0488459 	3.10099e-21 4.89749 	-0.0659269 	7.57638e-22 4.89992 	-0.0649786 	1.19973e-21 4.90239 	-0.0640382 	1.64087e-21 4.90489 	-0.0631057 	2.08108e-21 4.85548 	-0.0455999 	4.84761e-21 4.91283 	-0.0613678 	4.2926e-21 4.91512 	-0.0604792 	4.53142e-21 4.91745 	-0.059598 	4.769