# vtk DataFile Version 2.0
track0
ASCII
DATASET POLYDATA
POINTS 12202 double
-0.0205 0.001 1e-05
-0.0204991 0.00100536 1e-05
-0.0204976 0.00101063 1e-05
-0.0204947 0.00101518 1e-05
-0.0204905 0.00101864 1e-05
-0.0204746 0.00102682 1e-05
-0.0201832 0.00105567 1e-05
-0.0203617 0.00128791 1e-05
-0.0204489 0.00141936 1e-05
-0.0201625 0.00144446 1e-05
-0.0201525 0.00173172 1e-05
-0.0202223 0.00184007 1e-05
-0.0200499 0.00193025 1e-05
-0.0200812 0.00212231 1e-05
-0.0201297 0.00229098 1e-05
-0.0200091 0.00238763 1e-05
-0.0199914 0.00254124 1e-05
-0.0200044 0.00269532 1e-05
-0.019983 0.00277425 1e-05
-0.0198693 0.00287784 1e-05
-0.0198182 0.00302291 1e-05
-0.0198058 0.00317622 1e-05
-0.0197603 0.00329221 1e-05
-0.0196352 0.00340323 1e-05
-0.019549 0.00354671 1e-05
-0.0194782 0.0036983 1e-05
-0.0193916 0.00384149 1e-05
-0.0193847 0.00384734 1e-05
-0.0193112 0.00390819 1e-05
-0.0192443 0.00397617 1e-05
-0.0191793 0.00404612 1e-05
-0.0191115 0.00411319 1e-05
-0.0190172 0.00419856 1e-05
-0.0189566 0.00424731 1e-05
-0.0188943 0.00429379 1e-05
-0.0188303 0.00433797 1e-05
-0.0187648 0.00437984 1e-05
-0.0186598 0.00444232 1e-05
-0.0184273 0.00456559 1e-05
-0.0181859 0.00467012 1e-05
-0.0179374 0.00475655 1e-05
-0.0176828 0.00482308 1e-05
-0.0174976 0.00485468 1e-05
-0.0172058 0.00488545 1e-05
-0.0169124 0.00488724 1e-05
-0.0166198 0.004865 1e-05
-0.0163296 0.0048219 1e-05
-0.0160387 0.00475789 1e-05
-0.015828 0.00469478 1e-05
-0.0156211 0.00462044 1e-05
-0.0154183 0.00453527 1e-05
-0.0152185 0.00444353 1e-05
-0.0152161 0.00444232 1e-05
-0.0151005 0.00438431 1e-05
-0.0149876 0.00432111 1e-05
-0.0148779 0.00425264 1e-05
-0.0147705 0.00418062 1e-05
-0.0146381 0.00408605 1e-05
-0.0145766 0.00403831 1e-05
-0.014516 0.00398945 1e-05
-0.0144563 0.00393946 1e-05
-0.0143976 0.00388832 1e-05
-0.0143513 0.00384734 1e-05
-0.0142273 0.00373631 1e-05
-0.0141098 0.00361837 1e-05
-0.0139999 0.00349337 1e-05
-0.0138958 0.0033634 1e-05
-0.0138414 0.00329221 1e-05
-0.0137643 0.00318862 1e-05
-0.0136947 0.00307984 1e-05
-0.0136314 0.00296728 1e-05
-0.0135719 0.00285266 1e-05
-0.0135346 0.00277425 1e-05
-0.0134916 0.0026776 1e-05
-0.0134556 0.00257808 1e-05
-0.0134236 0.00247721 1e-05
-0.0133962 0.00237501 1e-05
-0.0133781 0.00229098 1e-05
-0.013363 0.0022008 1e-05
-0.0133538 0.00210982 1e-05
-0.01335 0.00201846 1e-05
-0.0133521 0.00192704 1e-05
-0.0133605 0.00184007 1e-05
-0.0133751 0.00175593 1e-05
-0.0133973 0.00167347 1e-05
-0.0134265 0.0015932 1e-05
-0.0134626 0.00151582 1e-05
-0.0135188 0.00141936 1e-05
-0.013576 0.00134085 1e-05
-0.0136441 0.00127161 1e-05
-0.013718 0.0012085 1e-05
-0.0137964 0.00115115 1e-05
-0.013989 0.00102682 1e-05
-0.0141188 0.000956558 1e-05
-0.0142556 0.000900967 1e-05
-0.0143956 0.00085439 1e-05
-0.0145364 0.000809963 1e-05
-0.0146381 0.000779626 1e-05
-0.0147213 0.000755814 1e-05
-0.0148049 0.000733304 1e-05
-0.0148888 0.000711895 1e-05
-0.0149732 0.000692496 1e-05
-0.0151448 0.000660566 1e-05
-0.0153236 0.000637937 1e-05
-0.0155028 0.000618772 1e-05
-0.0156822 0.000602292 1e-05
-0.0158618 0.000587816 1e-05
-0.0160387 0.000568185 1e-05
-0.0162843 0.000518317 1e-05
-0.0165337 0.000493692 1e-05
-0.0167841 0.000482754 1e-05
-0.0170347 0.000475874 1e-05
-0.0174976 0.000405803 1e-05
-0.0174976 0.000405803 1e-05
-0.0174976 0.000405803 1e-05
-0.0174976 0.000405803 1e-05
-0.0174976 0.000405803 1e-05
-0.0174976 0.000405803 1e-05
-0.0174951 0.00038841 1e-05
-0.0174897 0.000371695 1e-05
-0.017482 0.00035589 1e-05
-0.0174727 0.000341023 1e-05
-0.0174559 0.000318841 1e-05
-0.017384 0.000255072 1e-05
-0.017297 0.000214391 1e-05
-0.017205 0.000186598 1e-05
-0.017111 0.000167063 1e-05
-0.0160387 4.36907e-06 1e-05
-0.0160289 3.49526e-06 1e-05
-0.0160191 3.04913e-06 1e-05
-0.0160094 2.64377e-06 1e-05
-0.0159996 2.2384e-06 1e-05
-0.0159456 0 1e-05
-0.0205 0.00367778 1e-05
-0.0203956 0.00371169 1e-05
-0.0203046 0.00377318 1e-05
-0.0202172 0.00383974 1e-05
-0.0201981 0.00384734 1e-05
-0.0199619 0.00393435 1e-05
-0.0197661 0.00409255 1e-05
-0.0196203 0.0042977 1e-05
-0.0194756 0.00444232 1e-05
-0.0193839 0.0044962 1e-05
-0.0192965 0.00455676 1e-05
-0.0192133 0.00462306 1e-05
-0.0191278 0.00468624 1e-05
-0.0190172 0.00476182 1e-05
-0.0189142 0.00482546 1e-05
-0.0188086 0.00488458 1e-05
-0.0187006 0.00493925 1e-05
-0.0185905 0.00498959 1e-05
-0.0183697 0.00508 1e-05
-0.0181953 0.00513518 1e-05
-0.0180188 0.00518337 1e-05
-0.0178406 0.00522474 1e-05
-0.0176609 0.00525914 1e-05
-0.0174976 0.0052822 1e-05
-0.0172058 0.00531014 1e-05
-0.0169127 0.00531502 1e-05
-0.0166201 0.00529805 1e-05
-0.0163294 0.00526088 1e-05
-0.0160387 0.00520594 1e-05
-0.0159398 0.00518075 1e-05
-0.0158414 0.00515355 1e-05
-0.0157436 0.00512441 1e-05
-0.0156461 0.00509404 1e-05
-0.015603 0.00508 1e-05
-0.01541 0.00501588 1e-05
-0.0152204 0.00494236 1e-05
-0.0150349 0.00485908 1e-05
-0.0148537 0.00476681 1e-05
-0.0146381 0.00464732 1e-05
-0.0145716 0.00460632 1e-05
-0.0145056 0.00456443 1e-05
-0.0144402 0.00452163 1e-05
-0.0143753 0.00447804 1e-05
-0.0143228 0.00444232 1e-05
-0.0141494 0.00432332 1e-05
-0.0139825 0.00419531 1e-05
-0.0138233 0.00405778 1e-05
-0.0136688 0.00391504 1e-05
-0.0135984 0.00384734 1e-05
-0.0135374 0.0037875 1e-05
-0.0134785 0.00372558 1e-05
-0.0134211 0.00366228 1e-05
-0.0133646 0.00359819 1e-05
-0.0132934 0.00351511 1e-05
-0.0132567 0.00347053 1e-05
-0.0132205 0.00342558 1e-05
-0.0131847 0.00338025 1e-05
-0.0131494 0.00333454 1e-05
-0.0131173 0.00329221 1e-05
-0.0130393 0.00318862 1e-05
-0.0129632 0.0030836 1e-05
-0.0128899 0.00297658 1e-05
-0.0128198 0.00286743 1e-05
-0.0127626 0.00277425 1e-05
-0.0127049 0.0026776 1e-05
-0.0126487 0.00258012 1e-05
-0.012594 0.00248175 1e-05
-0.0125408 0.00238259 1e-05
-0.0124941 0.00229098 1e-05
-0.0124505 0.0022008 1e-05
-0.0124072 0.00211048 1e-05
-0.0123642 0.00202003 1e-05
-0.0123214 0.00192947 1e-05
-0.0122805 0.00184007 1e-05
-0.0122455 0.00175593 1e-05
-0.0122091 0.00167242 1e-05
-0.0121714 0.00158946 1e-05
-0.0121323 0.00150716 1e-05
-0.0120884 0.00141936 1e-05
-0.0120712 0.00138597 1e-05
-0.0120527 0.00135329 1e-05
-0.012033 0.0013213 1e-05
-0.0120122 0.00129008 1e-05
-0.0120025 0.00127678 1e-05
-0.0119648 0.00122678 1e-05
-0.011924 0.0011793 1e-05
-0.0118801 0.00113467 1e-05
-0.0118332 0.00109319 1e-05
-0.0117466 0.00102682 1e-05
-0.0116334 0.000953567 1e-05
-0.0115122 0.000894499 1e-05
-0.0113863 0.000846194 1e-05
-0.0112574 0.000806362 1e-05
-0.0107632 0.000715747 1e-05
-0.0105252 0.000725466 1e-05
-0.0102871 0.000723022 1e-05
-0.0100489 0.000721842 1e-05
-0.00981075 0.000721438 1e-05
-0.00957337 0.000721526 1e-05
-0.00934491 0.000731164 1e-05
-0.00911627 0.000727894 1e-05
-0.00888762 0.000725659 1e-05
-0.00865897 0.000724135 1e-05
-0.00843108 0.000723107 1e-05
-0.00821175 0.00073221 1e-05
-0.00799227 0.0007282 1e-05
-0.00777277 0.000725196 1e-05
-0.00755326 0.000722917 1e-05
-0.00733443 0.000721168 1e-05
-0.00712387 0.000729608 1e-05
-0.00691317 0.000725439 1e-05
-0.00670246 0.000722193 1e-05
-0.00649174 0.000719631 1e-05
-0.0062816 0.000717585 1e-05
-0.00607944 0.000725304 1e-05
-0.00587718 0.000721386 1e-05
-0.0056749 0.000718263 1e-05
-0.00547262 0.000715743 1e-05
-0.00527083 0.000713687 1e-05
-0.00507675 0.000720692 1e-05
-0.00488258 0.000717178 1e-05
-0.0046884 0.000714328 1e-05
-0.00449421 0.000711993 1e-05
-0.00430044 0.000710061 1e-05
-0.00411412 0.000716405 1e-05
-0.00392771 0.00071332 1e-05
-0.0037413 0.000710777 1e-05
-0.00355488 0.000708661 1e-05
-0.00336883 0.000706884 1e-05
-0.00318995 0.000712617 1e-05
-0.003011 0.000709892 1e-05
-0.00283204 0.000707615 1e-05
-0.00265308 0.000705697 1e-05
-0.00247443 0.000704069 1e-05
-0.0023027 0.00070924 1e-05
-0.00213091 0.000706836 1e-05
-0.00195911 0.000704787 1e-05
-0.00178731 0.000703027 1e-05
-0.00161577 0.000701503 1e-05
-0.0014509 0.000706108 1e-05
-0.00128598 0.000703966 1e-05
-0.00112106 0.000702137 1e-05
-0.000956128 0.000700565 1e-05
-0.000791418 0.000699206 1e-05
-0.000633135 0.000703345 1e-05
-0.000474807 0.000701519 1e-05
-0.000316476 0.000700138 1e-05
-0.000158141 0.000699124 1e-05
0 0.000698414 1e-05
0.000105677 0.000701562 1e-05
0.000211401 0.000701204 1e-05
0.000317125 0.000701015 1e-05
0.00042285 0.000700978 1e-05
0.000528387 0.000701074 1e-05
0.000634886 0.000704478 1e-05
0.00074144 0.00070462 1e-05
0.000847993 0.000704814 1e-05
0.000954546 0.000705053 1e-05
0.00106088 0.000705333 1e-05
0.00116821 0.000708706 1e-05
0.00127559 0.000709262 1e-05
0.00138297 0.000709964 1e-05
0.00149034 0.000710799 1e-05
0.00159752 0.000711752 1e-05
0.00170568 0.000715725 1e-05
0.0018139 0.000717255 1e-05
0.00192212 0.000718998 1e-05
0.00203034 0.000720936 1e-05
0.00213833 0.00072305 1e-05
0.00224733 0.000728253 1e-05
0.00235642 0.000731161 1e-05
0.0024655 0.000734293 1e-05
0.00257457 0.000737633 1e-05
0.00268334 0.000741159 1e-05
0.00279319 0.000747957 1e-05
0.00290316 0.000752452 1e-05
0.00301312 0.000757156 1e-05
0.00312307 0.000762059 1e-05
0.00323259 0.000767212 1e-05
0.00334329 0.000775753 1e-05
0.00345412 0.00078242 1e-05
0.00356497 0.000788879 1e-05
0.0036758 0.000795537 1e-05
0.00378611 0.000803256 1e-05
0.00389767 0.000813633 1e-05
0.00400934 0.000822866 1e-05
0.00412106 0.000831378 1e-05
0.00423277 0.000840099 1e-05
0.00434393 0.000850389 1e-05
0.00445636 0.000862695 1e-05
0.00456886 0.000874419 1e-05
0.00468141 0.000885574 1e-05
0.00479392 0.000897089 1e-05
0.00490609 0.000909896 1e-05
0.0050194 0.000924204 1e-05
0.00513273 0.000938301 1e-05
0.00524608 0.000952246 1e-05
0.00535937 0.000966662 1e-05
0.00547262 0.000981872 1e-05
0.00558681 0.000998188 1e-05
0.005701 0.00101449 1e-05
0.00581514 0.00103113 1e-05
0.00592922 0.00104819 1e-05
0.00604356 0.00106572 1e-05
0.00608485 0.00107226 1e-05
0.00612615 0.00107881 1e-05
0.00616744 0.0010854 1e-05
0.00620872 0.00109204 1e-05
0.00624793 0.00109839 1e-05
0.00632213 0.00111049 1e-05
0.00639631 0.00112273 1e-05
0.00647046 0.00113513 1e-05
0.00654458 0.00114768 1e-05
0.00661893 0.00116043 1e-05
0.0067349 0.00118021 1e-05
0.00685077 0.00120057 1e-05
0.00696659 0.00122122 1e-05
[...]
POINT_DATA 12202
 FIELD attributes 1
U 3 12202 float
1.13281 	6.39918 	0 1.59163 	5.97963 	0 3.06024 	4.66037 	0 4.29021 	3.52925 	0 5.18108 	2.68051 	0 7.15302 	0.70802 	0 -4.23555 	5.51022 	0 -5.18057 	7.81079 	0 7.56502 	0.663198 	0 0.162952 	4.67694 	0 -9.03532 	14.018 	0 5.93534 	3.10423 	0 -2.52866 	15.518 	0 -6.4132 	22.2853 	0 7.16862 	5.74105 	0 1.97732 	17.2232 	0 -2.24715 	26.6708 	0 4.29414 	15.8486 	0 9.0785 	8.27187 	0 6.22394 	17.6702 	0 2.38779 	29.3823 	0 7.48693 	19.1202 	0 11.952 	10.5996 	0 10.9772 	18.2907 	0 10.8594 	23.2298 	0 12.8615 	21.2707 	0 16.0819 	13.7059 	0 16.2306 	13.4335 	0 16.3912 	16.6386 	0 16.8093 	18.1126 	0 17.5805 	17.3709 	0 18.3644 	16.6276 	0 19.4241 	15.6363 	0 20.188 	15.0542 	0 20.9604 	14.4747 	0 21.7401 	13.8985 	0 22.0846 	13.1368 	0 22.0686 	11.7035 	0 24.2761 	10.5099 	0 26.3635 	9.17001 	0 27.083 	7.07782 	0 27.2388 	4.64627 	0 27.3664 	2.8859 	0 28.0871 	0.171409 	0 28.3352 	-2.15445 	0 28.2627 	-4.19723 	0 27.2188 	-5.98788 	0 25.8257 	-7.73776 	0 25.2137 	-9.05574 	0 24.5697 	-10.3226 	0 23.3537 	-10.7193 	0 22.1273 	-11.0917 	0 22.112 	-11.0959 	0 21.4888 	-12.0365 	0 20.8688 	-13.0223 	0 20.0349 	-13.4338 	0 19.1306 	-13.6645 	0 17.9913 	-13.9677 	0 17.55 	-14.1472 	0 17.1073 	-14.3301 	0 16.6633 	-14.5162 	0 16.3273 	-14.4642 	0 16.0761 	-14.3889 	0 14.8205 	-14.8772 	0 13.5236 	-15.3747 	0 12.3365 	-15.4125 	0 11.4631 	-14.9898 	0 10.9886 	-14.762 	0 9.66167 	-15.0999 	0 8.55446 	-15.2104 	0 7.78037 	-14.9891 	0 6.96733 	-14.674 	0 6.374 	-14.3069 	0 5.16895 	-14.3004 	0 4.42421 	-13.9632 	0 3.65746 	-13.6362 	0 2.86754 	-13.3212 	0 2.17821 	-12.9833 	0 1.27477 	-12.6215 	0 0.514548 	-12.2099 	0 -0.276249 	-11.8123 	0 -1.09804 	-11.4321 	0 -1.91827 	-11.0491 	0 -2.84752 	-10.5526 	0 -3.6619 	-10.0895 	0 -4.51134 	-9.65535 	0 -5.39108 	-9.25515 	0 -6.40586 	-8.79314 	0 -7.99417 	-8.12607 	0 -8.95291 	-7.65098 	0 -9.90457 	-7.24547 	0 -10.7055 	-6.90874 	0 -11.6124 	-6.28505 	0 -13.1467 	-5.34479 	0 -14.045 	-4.67045 	0 -13.1883 	-4.16241 	0 -12.3757 	-3.69223 	0 -11.8245 	-3.38235 	0 -12.4277 	-3.34594 	0 -13.0621 	-3.33321 	0 -13.8848 	-3.19206 	0 -15.0648 	-2.80348 	0 -17.5317 	-2.21909 	0 -18.2541 	-1.95244 	0 -19.3117 	-1.77349 	0 -20.6283 	-1.66246 	0 -19.9926 	-2.21917 	0 -16.4188 	-3.33352 	0 -24.6619 	-2.43475 	0 -37.3862 	-1.63327 	0 -49.7208 	-1.36533 	0 -35.1178 	-5.31585 	0 1.85131 	-13.079 	0 1.85131 	-13.079 	0 1.85131 	-13.079 	0 1.85131 	-13.079 	0 1.85131 	-13.079 	0 1.85131 	-13.079 	0 4.23738 	-13.1154 	0 6.35497 	-13.1016 	0 8.20912 	-13.0472 	0 9.82936 	-12.9615 	0 14.803 	-13.1394 	0 23.0401 	-10.7709 	0 29.9621 	-9.0563 	0 37.967 	-7.88585 	0 46.5591 	-7.06407 	0 0.346791 	-0.0310756 	0 1.16788 	-0.0532727 	0 1.46511 	-0.0607133 	0 1.27033 	-0.0526418 	0 1.07555 	-0.0445703 	0 0 	0 	0
9.83262 	3.19268 	0 9.65781 	6.52719 	0 10.0766 	7.67929 	0 11.815 	4.68348 	0 12.0607 	4.44304 	0 12.9622 	10.4748 	0 13.4034 	18.859 	0 15.3421 	15.331 	0 17.34 	10.1904 	0 17.8534 	12.3686 	0 18.3311 	14.6164 	0 18.9099 	13.9666 	0 19.5063 	13.3267 	0 20.2786 	12.5338 	0 21.1532 	11.8408 	0 22.0515 	11.1649 	0 22.9709 	10.5065 	0 23.0589 	9.43998 	0 23.1867 	7.33503 	0 24.2155 	6.61247 	0 25.2245 	5.8548 	0 26.0745 	4.99248 	0 26.1066 	3.68502 	0 26.1765 	2.50692 	0 26.7883 	0.44569 	0 27.5175 	-1.59545 	0 27.2259 	-3.48085 	0 26.2789 	-4.96657 	0 25.319 	-6.4477 	0 25.1545 	-6.95659 	0 24.9703 	-7.43694 	0 24.5471 	-7.65058 	0 24.1257 	-7.86133 	0 23.9394 	-7.9536 	0 23.302 	-9.03594 	0 22.7092 	-10.1934 	0 22.0233 	-11.2135 	0 20.9103 	-11.5882 	0 19.5827 	-12.0691 	0 19.2736 	-12.24 	0 18.9665 	-12.4138 	0 18.6729 	-12.5508 	0 18.4271 	-12.5258 	0 18.2281 	-12.506 	0 17.07 	-13.093 	0 15.9042 	-13.7436 	0 14.9727 	-13.8337 	0 14.1183 	-13.5797 	0 13.7221 	-13.4629 	0 13.0637 	-13.7332 	0 12.5348 	-13.8254 	0 12.1275 	-13.7503 	0 11.7182 	-13.679 	0 11.1914 	-13.5929 	0 10.9459 	-13.5727 	0 10.699 	-13.5541 	0 10.4508 	-13.5372 	0 10.2338 	-13.4943 	0 10.0962 	-13.402 	0 9.61467 	-13.2673 	0 8.94103 	-13.0585 	0 8.2511 	-12.8566 	0 7.7046 	-12.537 	0 7.29168 	-12.2272 	0 6.90512 	-11.9697 	0 6.51245 	-11.716 	0 6.0934 	-11.355 	0 5.55601 	-10.8844 	0 5.05165 	-10.4567 	0 4.82721 	-10.0707 	0 4.60523 	-9.68352 	0 4.38845 	-9.29393 	0 4.0649 	-8.87476 	0 3.48522 	-8.39191 	0 3.47865 	-7.97263 	0 3.39676 	-7.48305 	0 3.32225 	-6.99269 	0 3.25651 	-6.50155 	0 3.03643 	-5.90666 	0 3.21059 	-5.67299 	0 3.35897 	-5.46659 	0 3.51381 	-5.26194 	0 3.67522 	-5.05941 	0 3.74881 	-4.97183 	0 3.96545 	-4.61401 	0 4.19304 	-4.2623 	0 4.43114 	-3.91859 	0 4.67897 	-3.58477 	0 5.23934 	-3.38994 	0 6.38902 	-3.11327 	0 7.45973 	-2.86229 	0 8.4753 	-2.62052 	0 10.0841 	-1.84882 	0 15.3342 	0.626282 	0 15.4175 	-0.158233 	0 16.188 	-0.080203 	0 16.9278 	-0.0286872 	0 17.6487 	0.00654629 	0 18.8592 	0.795621 	0 18.7301 	-0.267889 	0 19.2579 	-0.188232 	0 19.7629 	-0.131804 	0 20.2521 	-0.0913039 	0 21.1606 	0.878202 	0 20.9295 	-0.382377 	0 21.3235 	-0.291783 	0 21.6965 	-0.225323 	0 22.0545 	-0.176224 	0 22.7676 	0.912606 	0 22.5057 	-0.445378 	0 22.8212 	-0.351528 	0 23.1181 	-0.281059 	0 23.4013 	-0.227897 	0 23.9885 	0.915984 	0 23.7151 	-0.459389 	0 23.9758 	-0.370119 	0 24.2207 	-0.30175 	0 24.4536 	-0.249211 	0 24.9614 	0.901005 	0 24.6806 	-0.446713 	0 24.9004 	-0.365347 	0 25.1068 	-0.301912 	0 25.303 	-0.252327 	0 25.7597 	0.877108 	0 25.4718 	-0.421554 	0 25.6582 	-0.350002 	0 25.8337 	-0.293294 	0 26.0005 	-0.248261 	0 26.4229 	0.846726 	0 26.1315 	-0.397921 	0 26.2992 	-0.334538 	0 26.4577 	-0.283579 	0 26.6087 	-0.242542 	0 27.0131 	0.813386 	0 26.7159 	-0.373825 	0 26.8714 	-0.320392 	0 27.0193 	-0.276859 	0 27.161 	-0.241347 	0 27.5579 	0.769713 	0 27.2592 	-0.354078 	0 27.4372 	-0.304221 	0 27.608 	-0.26312 	0 27.7729 	-0.229192 	0 28.2012 	0.737488 	0 27.8605 	-0.321365 	-3.81288e-21 28.0619 	-0.24479 	-1.32099e-20 28.2518 	-0.180945 	-2.25515e-20 28.4321 	-0.127599 	-3.18474e-20 28.9269 	0.861743 	-3.30253e-20 28.5565 	-0.0968273 	-1.13573e-19 28.7164 	-0.0511943 	-9.5936e-20 28.8713 	-0.0102556 	-7.86502e-20 29.022 	0.0265153 	-6.1676e-20 29.543 	0.944435 	2.28295e-20 29.163 	0.0388634 	8.59064e-21 29.2983 	0.0531343 	6.93597e-21 29.432 	0.0660614 	5.25558e-21 29.5644 	0.0777842 	3.55215e-21 30.0868 	0.945745 	6.38138e-21 29.7185 	0.153708 	3.83526e-21 29.8449 	0.195093 	-2.17995e-20 29.9668 	0.232998 	-4.73994e-20 30.0847 	0.267747 	-7.29678e-20 30.6092 	1.1242 	-9.63928e-20 30.2543 	0.42782 	-7.59282e-20 30.3668 	0.488988 	-5.8545e-20 30.473 	0.545758 	-4.10886e-20 30.5733 	0.598479 	-2.35649e-20 31.1129 	1.48506 	-5.60231e-20 30.7473 	0.819825 	-1.35206e-19 30.827 	0.885015 	-1.29606e-19 30.9004 	0.946297 	-1.24557e-19 30.9678 	1.00392 	-1.20023e-19 31.5195 	1.95051 	6.5501e-21 31.1748 	1.27416 	2.30451e-20 31.2076 	1.33507 	4.15037e-20 31.235 	1.39297 	5.98701e-20 31.269 	1.47127 	7.88026e-20 31.7552 	2.44986 	1.22959e-19 31.5743 	1.89927 	3.48605e-19 31.5218 	1.83681 	4.00443e-19 31.4954 	1.89199 	4.10127e-19 31.5616 	2.2086 	3.20558e-19 31.7668 	2.95471 	6.68083e-20 31.8298 	2.632 	-1.83201e-19 31.8583 	2.42713 	-3.73133e-19 31.7758 	2.48089 	-4.29043e-19 31.695 	2.93384 	-2.63442e-19 31.5904 	3.4576 	-5.59342e-20 31.9007 	3.32477 	-3.37347e-20 32.2204 	3.19329 	-1.15555e-20 32.1526 	3.29053 	-3.00074e-20 31.7454 	3.6247 	-1.00046e-19 31.3239 	3.95537 	-1.70659e-19 31.837 	3.96022 	-1.77225e-19 32.314 	3.97535 	-1.81528e-19 32.3166 	4.11225 	-1.59482e-19 31.84 	4.27613 	-1.35122e-19 31.1505 	4.45116 	-1.09955e-19 31.8119 	4.54044 	-8.25762e-20 31.8768 	4.64773 	-5.83861e-20 31.8193 	4.75824 	-3.49665e-20 31.7556 	4.86836 	-1.17199e-20 31.2874 	4.95456 	1.32297e-22 31.5252 	5.00034 	0 31.4926 	5.03012 	0 31.4596 	5.05987 	0 31.4261 	5.0896 	0 31.3939 	5.11781 	0 31.3507 	5.17622 	0 31.3062 	5.2346 	0 31.2604 	5.29295 	0 31.2133 	5.35128 	0 31.0315 	5.29157 	0 31.3621 	5.51085 	2.75792e-23 31.2815 	5.57754 	2.75759e-22 31.1997 	5.64436 	5.22673e-22 30.9203 	5.61198 	-4.81472e-21 30.4323 	5.47495 	-1.60578e-20 30.9243 	5.69223 	-4.34089e-20 31.4122 	5.90866 	-7.07957e-20 31.3296 	5.93671 	-8.023e-20 30.7111 	5.78246 	-7.32201e-20 30.0897 	5.62744 	-6.61319e-20 30.6703 	5.81959 	-9.78968e-20 30.9712 	5.92855 	-1.10838e-19 30.8983 	5.92628 	-9.85056e-20 30.825 	5.9239 	-8.61678e-20 30.1495 	5.76629 	-5.57233e-20 30.5232 	5.86207 	-5.3853e-20 30.4802 	5.85144 	-4.71037e-20 30.4373 	5.84082 	-4.03539e-20 30.3943 	5.8302 	-3.36036e-20 30.3521 	5.81976 	-2.69533e-20 30.3309 	5.81608 	-1.95363e-20 30.3096 	5.8124 	-1.21193e-20 30.2884 	5.80872 	-4.70212e-21 30.2671 	5.80504 	2.71518e-21 30.1418 	5.78677 	-8.56121e-22 30.3248 	5.80329 	1.56455e-22 30.2787 	5.77852 	9.76859e-23 30.2328 	5.75378 	3.89446e-23 30.0664 	5.71045 	6.49401e-21 29.6625 	5.63053 	2.57549e-20 30.0454 	5.66203 	1.36925e-20 30.4294 	5.69374 	1.59848e-21 30.337 	5.64739 	-1.86501e-22 29.8694 	5.54332 	-9.2166e-22 29.4032 	5.43952 	-1.65482e-21 29.8419 	5.45651 	-6.07679e-21 30.1927 	5.46131 	-1.28017e-20 30.1395 	5.40994 	-2.99915e-20 29.8857 	5.32863 	-4.68753e-20 29.3815 	5.21013 	-6.33283e-20 29.8301 	5.20498 	-4.85514e-20 29.7771 	5.13858 	-5.38013e-20 29.7259 	5.0724 	-5.89765e-20 29.6765 	5.00645 	-6.40765e-20 29.5683 	4.93319 	-7.17603e-20 29.6114 	4.92994 	-7.43065e-20 29.6064 	4.92178 	-7.18378e-20 29.6014 	4.91363 	-6.93706e-20 29.5964 	4.90548 	-6.69048e-20 29.5914 	4.89717 	-6.43932e-20 29.5575 	4.82962 	-3.79452e-20 29.525 	4.76217 	-1.16733e-20 29.4938 	4.69482 	1.44216e-20 29.4639 	4.62757 	4.03384e-20 29.2684 	4.52167 	8.9778e-21 29.4827 	4.48983 	1.80004e-21 29.4504 	4.40222 	1.10399e-21 29.4197 	4.31468 	4.09766e-22 29.2781 	4.20562 	0 28.9768 	4.06601 	0 29.2166 	4.02019 	0 29.4374 	3.97035 	0 29.3914 	3.86828 	0 29.0691 	3.72203 	0 28.7509 	3.57653 	0 29.0009 	3.5159 	0 29.2536 	3.45547 	0 29.2221 	3.35359 	-6.0959e-21 28.8905 	3.2028 	-3.50576e-20 28.5631 	3.05269 	-6.41468e-20 28.8134 	2.98144 	-3.47614e-19 29.0107 	2.90365 	-5.62605e-19 28.9523 	2.795 	-4.58996e-19 28.7108 	2.6539 	-1.79832e-19 28.3821 	2.49742 	1.84023e-19 28.6225 	2.42438 	6.61292e-19 28.679 	2.32656 	8.2289e-19 28.6175 	2.21274 	7.80127e-19 28.5027 	2.08754 	6.6538e-19 28.1796 	1.92009 	2.80352e-19 28.3997 	1.85306 	6.17345e-19 28.3472 	1.73881 	6.0876e-19 28.2802 	1.62149 	5.78088e-19 28.2176 	1.50437 	5.49237e-19 27.9235 	1.32713 	2.24865e-19 28.0665 	1.25535 	1.51832e-19 27.987 	1.13585 	2.20215e-19 27.9121 	1.01648 	2.87812e-19 27.8419 	0.897255 	3.54616e-19 27.5942 	0.720704 	4.52647e-19 27.6791 	0.642582 	3.86529e-19 27.5912 	0.523202 	4.33911e-19 27.508 	0.403853 	4.79863e-19 27.4295 	0.284539 	5.24376e-19 27.1921 	0.106427 	6.54982e-19 27.2517 	0.0272727 	1.13847e-18 27.1557 	-0.0895964 	1.15681e-18 27.0646 	-0.206578 	1.17775e-18 26.9783 	-0.323669 	1.20131e-18 26.726 	-0.506317 	6.56247e-19 26.7848 	-0.582561 	4.82352e-19 26.6821 	-0.694988 	3.73197e-19 26.5843 	-0.807695 	2.62809e-19 26.4658 	-0.930498 	1.77347e-19 26.2111 	-1.10814 	2.35502e-19 26.235 	-1.19027 	1.67831e-19 26.1751 	-1.28864 	3.44132e-20 26.0727 	-1.39595 	-1.34052e-19 25.8984 	-1.53165 	-2.71831e-19 25.6643 	-1.69212 	-3.83458e-19 25.6535 	-1.77891 	-1.12667e-18 25.6383 	-1.8673 	-1.80683e-18 25.5285 	-1.97051 	-1.68654e-18 25.3114 	-2.11108 	-7.46866e-19 25.0998 	-2.25322 	1.94378e-19 25.0587 	-2.34129 	1.00149e-18 25.0211 	-2.43007 	1.80798e-18 24.9061 	-2.5391 	1.85308e-18 24.714 	-2.66254 	1.19348e-18 24.5269 	-2.78768 	5.29842e-19 24.4605 	-2.87339 	2.17283e-19 24.3703 	-2.96696 	2.02605e-20 24.2403 	-3.07277 	8.95412e-21 24.1069 	-3.18019 	1.19589e-20 23.9462 	-3.29115 	7.12034e-20 23.8598 	-3.36742 	9.97587e-21 23.7367 	-3.45472 	8.06118e-20 23.6175 	-3.54302 	1.51545e-19 23.5022 	-3.63233 	2.22779e-19 23.4169 	-3.70147 	2.77528e-19 23.4048 	-3.71358 	2.82975e-19 23.3928 	-3.72572 	2.88415e-19 23.3808 	-3.73788 	2.93849e-19 23.3689 	-3.75005 	2.99277e-19 23.3438 	-3.75987 	3.15891e-19 23.2357 	-3.85249 	4.75165e-19 23.121 	-3.94348 	5.88756e-19 23.0111 	-4.03584 	7.04598e-19 22.8935 	-4.12765 	7.42024e-19 22.7064 	-4.21012 	3.03286e-19 22.6244 	-4.29878 	-2.9483e-19 22.5465 	-4.38869 	-8.93002e-19 22.4322 	-4.47148 	-8.85722e-19 22.2774 	-4.55007 	-2.18132e-19 22.1256 	-4.63073 	4.54533e-19 22.0299 	-4.70565 	1.01515e-18 21.9224 	-4.78092 	1.2855e-18 21.8 	-4.85641 	1.20593e-18 21.6817 	-4.93321 	1.12319e-18 21.565 	-5.01175 	8.20079e-19 21.5425 	-5.02573 	9.69823e-19 21.5178 	-5.0401 	9.49914e-19 21.4924 	-5.05467 	8.57574e-19 21.4671 	-5.0693 	7.65031e-19 21.4429 	-5.08348 	6.7551e-19 21.3619 	-5.14265 	4.07504e-19 21.2836 	-5.20273 	1.37597e-19 21.2078 	-5.26375 	-1.34227e-19 21.1117 	-5.32122 	-2.82067e-19 20.9795 	-5.37277 	-2.24998e-19 20.8989 	-5.44312 	-6.42159e-19 20.822 	-5.51481 	-1.06014e-18 20.7168 	-5.58242 	-1.01547e-18 20.5838 	-5.64604 	-5.11737e-19 20.4533 	-5.71185 	-3.07139e-21 20.3976 	-5.75056 	3.17427e-19 20.3351 	-5.78877 	4.16955e-19 20.2653 	-5.82641 	2.79377e-19 20.1969 	-5.8646 	1.40557e-19 20.1356 	-5.9001 	1.22492e-20 20.102 	-5.9259 	-6.71217e-20 20.0689 	-5.9519 	-1.46926e-19 20.0363 	-5.97813 	-2.27164e-19 19.9842 	-5.99952 	-1.71939e-19 19.9201 	-6.01816 	-3.41217e-20 19.8508 	-6.08179 	-1.09441e-20 19.7799 	-6.14599 	1.71835e-20 19.6834 	-6.20576 	6.21507e-20 19.5445 	-6.25614 	1.11315e-19 19.4076 	-6.30866 	1.60255e-19 19.3649 	-6.34147 	6.7251e-20 19.317 	-6.37347 	-8.83175e-21 19.2541 	-6.40263 	-4.06368e-20 19.1924 	-6.43228 	-7.25022e-20 19.1356 	-6.46043 	-1.02342e-19 19.0987 	-6.48483 	-1.08282e-19 19.0623 	-6.50948 	-1.14174e-19 19.0264 	-6.5344 	-1.20018e-19 18.9623 	-6.55159 	-1.26595e-19 18.892 	-6.56741 	-1.33333e-19 18.8261 	-6.62225 	-3.52091e-19 18.7627 	-6.67836 	-5.70341e-19 18.6624 	-6.726 	-6.09745e-19 18.5243 	-6.76637 	-4.58543e-19 18.3875 	-6.80879 	-3.05504e-19 18.3707 	-6.82191 	-4.67745e-19 18.3532 	-6.8349 	-6.09644e-19 18.3254 	-6.84563 	-5.31844e-19 18.2979 	-6.85645 	-4.53791e-19 18.2711 	-6.8671 	-3.77451e-19 18.2003 	-6.90286 	-2.11424e-19 18.1311 	-6.93941 	-4.37195e-20 18.0634 	-6.97675 	1.25675e-19 17.9464 	-7.00265 	-4.51168e-20 17.8292 	-7.02963 	-2.19918e-19 17.7773 	-7.06414 	-8.09221e-20 17.7266 	-7.09935 	5.85197e-20 17.6406 	-7.12805 	5.58405e-20 17.5547 	-7.15731 	4.8812e-20 17.4761 	-7.18529 	4.24149e-20 17.4447 	-7.19681 	2.79992e-20 17.4135 	-7.20844 	1.35705e-20 17.3815 	-7.21995 	0 17.334 	-7.22808 	0 17.2865 	-7.23638 	0 17.1988 	-7.27616 	0 17.1129 	-7.31721 	0 16.9952 	-7.35333 	0 16.853 	-7.38683 	0 16.706 	-7.4222 	0 16.6982 	-7.42648 	0 16.6904 	-7.43077 	0 16.6789 	-7.43477 	-5.41672e-21 16.6669 	-7.43873 	-1.18152e-20 16.6549 	-7.44266 	-1.81567e-20 16.5443 	-7.46829 	-2.68374e-20 16.4352 	-7.49498 	-3.52917e-20 16.3246 	-7.52223 	-3.61503e-20 16.1743 	-7.5439 	5.67041e-20 16.0233 	-7.56727 	1.51806e-19 15.9808 	-7.58271 	4.28025e-20 15.9386 	-7.59842 	-6.59369e-20 15.8743 	-7.61168 	-6.08099e-21 15.8069 	-7.62485 	7.9871e-20 15.7428 	-7.63782 	1.62878e-19 15.664 	-7.64859 	1.90856e-19 15.5857 	-7.65974 	2.19219e-19 15.5077 	-7.6715 	2.38657e-19 15.4292 	-7.68626 	1.4149e-19 15.3501 	-7.70164 	4.33184e-20 15.242 	-7.71941 	4.23179e-20 15.1351 	-7.73817 	4.15215e-20 15.0053 	-7.75682 	8.19305e-20 14.8738 	-7.77651 	1.27715e-19 14.7539 	-7.79578 	1.70237e-19 14.7268 	-7.79845 	1.63704e-19 14.6997 	-7.80117 	1.57158e-19 14.6739 	-7.80437 	1.50097e-19 14.6623 	-7.81277 	1.37129e-19 14.6507 	-7.82124 	1.24087e-19 14.4655 	-7.82443 	-3.44784e-19 14.2826 	-7.82949 	-8.1313e-19 14.143 	-7.85428 	-8.2539e-19 14.0384 	-7.89507 	-3.69543e-19 13.9323 	-7.9387 	9.78702e-20 13.9031 	-7.94066 	1.51463e-19 13.874 	-7.94267 	2.04997e-19 13.8462 	-7.9466 	1.92829e-19 13.8188 	-7.951 	1.66296e-19 13.792 	-7.95537 	1.40148e-19 13.6522 	-7.9643 	1.79463e-19 13.5137 	-7.97443 	2.18103e-19 13.3904 	-7.99138 	2.39841e-19 13.3957 	-8.06022 	1.1447e-19 13.4023 	-8.13201 	-1.52127e-20 13.2857 	-8.12628 	-3.06397e-19 13.1701 	-8.12129 	-5.97606e-19 13.1163 	-8.14423 	-6.26447e-19 13.0749 	-8.17301 	-6.0528e-19 13.0367 	-8.20077 	-5.84993e-19 12.9812 	-8.22018 	-5.35469e-19 12.9264 	-8.24016 	-4.85492e-19 12.8846 	-8.26533 	-4.3739e-19 12.9454 	-8.32972 	-4.08378e-19 13.0077 	-8.39556 	-3.78643e-19 12.8061 	-8.38965 	-2.10238e-19 12.6093 	-8.38679 	-4.05476e-20 12.6185 	-8.46877 	7.74612e-20 12.6634 	-8.56584 	1.87659e-19 12.7066 	-8.65553 	2.88244e-19 12.7095 	-8.67177 	3.34801e-19 12.7124 	-8.68808 	3.81411e-19 12.7178 	-8.70516 	4.18563e-19 12.7438 	-8.72832 	3.74931e-19 12.7699 	-8.75162 	3.31102e-19 12.6537 	-8.80411 	1.9644e-19 12.5454 	-8.86095 	6.32629e-20 12.6057 	-8.97864 	1.3275e-20 12.8281 	-9.15517 	3.1267e-20 13.0605 	-9.33942 	4.98614e-20 13.0253 	-9.34179 	2.69854e-20 12.9905 	-9.34431 	4.10224e-21 13.0058 	-9.36659 	-1.11312e-20 13.0321 	-9.3932 	-2.46945e-20 13.0581 	-9.41943 	-3.80394e-20 13.1536 	-9.53871 	-4.89078e-20 13.2515 	-9.65933 	-5.96083e-20 13.3553 	-9.7813 	-6.68769e-20 13.5002 	-9.90489 	-3.96983e-20 13.6484 	-10.031 	-1.20061e-20 13.6499 	-10.0888 	-1.74588e-19 13.6531 	-10.1475 	-3.36682e-19 13.7624 	-10.2411 	-1.76362e-19 13.8857 	-10.3393 	2.62948e-20 14.0057 	-10.4348 	2.23325e-19 14.1055 	-10.5177 	4.01613e-19 14.2055 	-10.6007 	5.79984e-19 14.3026 	-10.6822 	7.47011e-19 14.294 	-10.7083 	5.16459e-19 14.2863 	-10.7349 	2.85291e-19 14.5391 	-10.9393 	4.35804e-19 14.7926 	-11.1442 	5.86234e-19 14.9529 	-11.2869 	3.6153e-19 15.1095 	-11.4272 	1.18298e-19 15.2656 	-11.5666 	-1.22707e-19 15.2688 	-11.5693 	-1.26708e-19 15.2719 	-11.572 	-1.3071e-19 15.2751 	-11.5748 	-1.34711e-19 15.2715 	-11.574 	-1.31729e-19 15.2675 	-11.5731 	-1.28386e-19 15.5204 	-11.7594 	-1.20196e-19 15.7494 	-11.9336 	-1.1241e-19 15.9784 	-12.1078 	-1.04624e-19 15.8544 	-12.1048 	-5.13677e-20 15.7329 	-12.1033 	2.34709e-21 15.9249 	-12.2299 	2.76531e-20 16.1151 	-12.3555 	5.24384e-20 16.1723 	-12.4123 	3.36586e-20 16.2297 	-12.4693 	1.48861e-20 16.2877 	-12.5267 	-3.98601e-21 16.3553 	-12.5871 	-2.12365e-20 16.4231 	-12.6475 	-3.84827e-20 16.491 	-12.7081 	-5.57246e-20 16.3692 	-12.6726 	-6.44226e-20 16.2224 	-12.6248 	-7.19822e-20 16.6261 	-12.8733 	4.00311e-20 17.0288 	-13.1212 	1.52218e-19 17.0816 	-13.197 	1.274e-19 17.0004 	-13.2069 	5.70195e-20 16.7789 	-13.1476 	-4.78105e-20 16.8449 	-13.1865 	-4.53775e-20 16.9066 	-13.2232 	-4.27596e-20 16.914 	-13.2338 	-3.78304e-20 16.9214 	-13.2444 	-3.29005e-20 16.9288 	-13.2551 	-2.79527e-20 16.9983 	-13.3279 	9.12849e-22 17.0682 	-13.4009 	2.97959e-20 17.1385 	-13.4741 	5.86963e-20 16.919 	-13.3971 	4.35561e-20 16.6353 	-13.2873 	1.85877e-20 16.9584 	-13.4788 	2.24516e-20 17.2252 	-13.6422 	2.57393e-20 17.1641 	-13.6426 	2.57143e-20 17.1033 	-13.6433 	2.56982e-20 17.042 	-13.6442 	2.56909e-20 17.0402 	-13.6485 	2.53331e-20 17.0384 	-13.6529 	2.49753e-20 17.0366 	-13.6572 	2.46175e-20 16.9999 	-13.6422 	2.31053e-20 16.96 	-13.6253 	2.14856e-20 17.1647 	-13.7633 	5.01049e-20 17.2204 	-13.8248 	6.14008e-20 17.2112 	-13.8522 	6.24057e-20 16.9138 	-13.7278 	1.64652e-20 16.6174 	-13.6044 	-2.94521e-20 16.7438 	-13.6771 	-2.7525e-20 16.8643 	-13.7469 	-2.51506e-20 16.8204 	-13.7342 	-1.03332e-20 16.7765 	-13.7215 	4.48668e-21 16.7323 	-13.7088 	1.94017e-20 16.7047 	-13.7091 	2.13904e-20 16.6771 	-13.7094 	2.33656e-20 16.6495 	-13.7098 	2.53272e-20 16.4996 	-13.6366 	4.24598e-20 16.3444 	-13.5603 	6.02267e-20 16.4625 	-13.6369 	1.63367e-19 16.5789 	-13.7123 	2.65166e-19 16.4344 	-13.6425 	1.75027e-19 16.2895 	-13.5726 	8.47304e-20 16.1442 	-13.5026 	-5.71941e-21 16.141 	-13.5013 	-8.97194e-21 16.1377 	-13.5 	-1.22246e-20 16.1345 	-13.4987 	-1.54508e-20 16.1274 	-13.4946 	-9.23378e-21 16.1203 	-13.4905 	-3.01425e-21 16.0751 	-13.47 	-4.78967e-21 16.0074 	-13.4367 	-2.30614e-21 15.9271 	-13.3953 	4.03631e-21 15.6839 	-13.2488 	6.05504e-20 15.4388 	-13.1014 	1.175e-19 15.4683 	-13.1118 	1.12893e-19 15.4979 	-13.1223 	1.08273e-19 15.4385 	-13.0806 	1.0365e-19 15.3751 	-13.0366 	9.90368e-20 15.3114 	-12.9924 	9.44166e-20 15.2489 	-12.9502 	6.2495e-20 15.1862 	-12.908 	3.05736e-20 15.1211 	-12.864 	0 14.9