# vtk DataFile Version 2.0
track0
ASCII
DATASET POLYDATA
POINTS 12202 double
-0.0205 0.001 1e-05
-0.0204991 0.00100536 1e-05
-0.0204976 0.00101063 1e-05
-0.0204947 0.00101518 1e-05
-0.0204905 0.00101864 1e-05
-0.0204746 0.00102682 1e-05
-0.0201832 0.00105567 1e-05
-0.0203617 0.00128791 1e-05
-0.0204489 0.00141936 1e-05
-0.0201625 0.00144446 1e-05
-0.0201525 0.00173172 1e-05
-0.0202223 0.00184007 1e-05
-0.0200499 0.00193025 1e-05
-0.0200812 0.00212231 1e-05
-0.0201297 0.00229098 1e-05
-0.0200091 0.00238763 1e-05
-0.0199914 0.00254124 1e-05
-0.0200044 0.00269532 1e-05
-0.019983 0.00277425 1e-05
-0.0198693 0.00287784 1e-05
-0.0198182 0.00302291 1e-05
-0.0198058 0.00317622 1e-05
-0.0197603 0.00329221 1e-05
-0.0196352 0.00340323 1e-05
-0.019549 0.00354671 1e-05
-0.0194782 0.0036983 1e-05
-0.0193916 0.00384149 1e-05
-0.0193847 0.00384734 1e-05
-0.0193112 0.00390819 1e-05
-0.0192443 0.00397617 1e-05
-0.0191793 0.00404612 1e-05
-0.0191115 0.00411319 1e-05
-0.0190172 0.00419856 1e-05
-0.0189566 0.00424731 1e-05
-0.0188943 0.00429379 1e-05
-0.0188303 0.00433797 1e-05
-0.0187648 0.00437984 1e-05
-0.0186598 0.00444232 1e-05
-0.0184273 0.00456559 1e-05
-0.0181859 0.00467012 1e-05
-0.0179374 0.00475655 1e-05
-0.0176828 0.00482308 1e-05
-0.0174976 0.00485468 1e-05
-0.0172058 0.00488545 1e-05
-0.0169124 0.00488724 1e-05
-0.0166198 0.004865 1e-05
-0.0163296 0.0048219 1e-05
-0.0160387 0.00475789 1e-05
-0.015828 0.00469478 1e-05
-0.0156211 0.00462044 1e-05
-0.0154183 0.00453527 1e-05
-0.0152185 0.00444353 1e-05
-0.0152161 0.00444232 1e-05
-0.0151005 0.00438431 1e-05
-0.0149876 0.00432111 1e-05
-0.0148779 0.00425264 1e-05
-0.0147705 0.00418062 1e-05
-0.0146381 0.00408605 1e-05
-0.0145766 0.00403831 1e-05
-0.014516 0.00398945 1e-05
-0.0144563 0.00393946 1e-05
-0.0143976 0.00388832 1e-05
-0.0143513 0.00384734 1e-05
-0.0142273 0.00373631 1e-05
-0.0141098 0.00361837 1e-05
-0.0139999 0.00349337 1e-05
-0.0138958 0.0033634 1e-05
-0.0138414 0.00329221 1e-05
-0.0137643 0.00318862 1e-05
-0.0136947 0.00307984 1e-05
-0.0136314 0.00296728 1e-05
-0.0135719 0.00285266 1e-05
-0.0135346 0.00277425 1e-05
-0.0134916 0.0026776 1e-05
-0.0134556 0.00257808 1e-05
-0.0134236 0.00247721 1e-05
-0.0133962 0.00237501 1e-05
-0.0133781 0.00229098 1e-05
-0.013363 0.0022008 1e-05
-0.0133538 0.00210982 1e-05
-0.01335 0.00201846 1e-05
-0.0133521 0.00192704 1e-05
-0.0133605 0.00184007 1e-05
-0.0133751 0.00175593 1e-05
-0.0133973 0.00167347 1e-05
-0.0134265 0.0015932 1e-05
-0.0134626 0.00151582 1e-05
-0.0135188 0.00141936 1e-05
-0.013576 0.00134085 1e-05
-0.0136441 0.00127161 1e-05
-0.013718 0.0012085 1e-05
-0.0137964 0.00115115 1e-05
-0.013989 0.00102682 1e-05
-0.0141188 0.000956558 1e-05
-0.0142556 0.000900967 1e-05
-0.0143956 0.00085439 1e-05
-0.0145364 0.000809963 1e-05
-0.0146381 0.000779626 1e-05
-0.0147213 0.000755814 1e-05
-0.0148049 0.000733304 1e-05
-0.0148888 0.000711895 1e-05
-0.0149732 0.000692496 1e-05
-0.0151448 0.000660566 1e-05
-0.0153236 0.000637937 1e-05
-0.0155028 0.000618772 1e-05
-0.0156822 0.000602292 1e-05
-0.0158618 0.000587816 1e-05
-0.0160387 0.000568185 1e-05
-0.0162843 0.000518317 1e-05
-0.0165337 0.000493692 1e-05
-0.0167841 0.000482754 1e-05
-0.0170347 0.000475874 1e-05
-0.0174976 0.000405803 1e-05
-0.0174976 0.000405803 1e-05
-0.0174976 0.000405803 1e-05
-0.0174976 0.000405803 1e-05
-0.0174976 0.000405803 1e-05
-0.0174976 0.000405803 1e-05
-0.0174951 0.00038841 1e-05
-0.0174897 0.000371695 1e-05
-0.017482 0.00035589 1e-05
-0.0174727 0.000341023 1e-05
-0.0174559 0.000318841 1e-05
-0.017384 0.000255072 1e-05
-0.017297 0.000214391 1e-05
-0.017205 0.000186598 1e-05
-0.017111 0.000167063 1e-05
-0.0160387 4.36907e-06 1e-05
-0.0160289 3.49526e-06 1e-05
-0.0160191 3.04913e-06 1e-05
-0.0160094 2.64377e-06 1e-05
-0.0159996 2.2384e-06 1e-05
-0.0159456 0 1e-05
-0.0205 0.00367778 1e-05
-0.0203956 0.00371169 1e-05
-0.0203046 0.00377318 1e-05
-0.0202172 0.00383974 1e-05
-0.0201981 0.00384734 1e-05
-0.0199619 0.00393435 1e-05
-0.0197661 0.00409255 1e-05
-0.0196203 0.0042977 1e-05
-0.0194756 0.00444232 1e-05
-0.0193839 0.0044962 1e-05
-0.0192965 0.00455676 1e-05
-0.0192133 0.00462306 1e-05
-0.0191278 0.00468624 1e-05
-0.0190172 0.00476182 1e-05
-0.0189142 0.00482546 1e-05
-0.0188086 0.00488458 1e-05
-0.0187006 0.00493925 1e-05
-0.0185905 0.00498959 1e-05
-0.0183697 0.00508 1e-05
-0.0181953 0.00513518 1e-05
-0.0180188 0.00518337 1e-05
-0.0178406 0.00522474 1e-05
-0.0176609 0.00525914 1e-05
-0.0174976 0.0052822 1e-05
-0.0172058 0.00531014 1e-05
-0.0169127 0.00531502 1e-05
-0.0166201 0.00529805 1e-05
-0.0163294 0.00526088 1e-05
-0.0160387 0.00520594 1e-05
-0.0159398 0.00518075 1e-05
-0.0158414 0.00515355 1e-05
-0.0157436 0.00512441 1e-05
-0.0156461 0.00509404 1e-05
-0.015603 0.00508 1e-05
-0.01541 0.00501588 1e-05
-0.0152204 0.00494236 1e-05
-0.0150349 0.00485908 1e-05
-0.0148537 0.00476681 1e-05
-0.0146381 0.00464732 1e-05
-0.0145716 0.00460632 1e-05
-0.0145056 0.00456443 1e-05
-0.0144402 0.00452163 1e-05
-0.0143753 0.00447804 1e-05
-0.0143228 0.00444232 1e-05
-0.0141494 0.00432332 1e-05
-0.0139825 0.00419531 1e-05
-0.0138233 0.00405778 1e-05
-0.0136688 0.00391504 1e-05
-0.0135984 0.00384734 1e-05
-0.0135374 0.0037875 1e-05
-0.0134785 0.00372558 1e-05
-0.0134211 0.00366228 1e-05
-0.0133646 0.00359819 1e-05
-0.0132934 0.00351511 1e-05
-0.0132567 0.00347053 1e-05
-0.0132205 0.00342558 1e-05
-0.0131847 0.00338025 1e-05
-0.0131494 0.00333454 1e-05
-0.0131173 0.00329221 1e-05
-0.0130393 0.00318862 1e-05
-0.0129632 0.0030836 1e-05
-0.0128899 0.00297658 1e-05
-0.0128198 0.00286743 1e-05
-0.0127626 0.00277425 1e-05
-0.0127049 0.0026776 1e-05
-0.0126487 0.00258012 1e-05
-0.012594 0.00248175 1e-05
-0.0125408 0.00238259 1e-05
-0.0124941 0.00229098 1e-05
-0.0124505 0.0022008 1e-05
-0.0124072 0.00211048 1e-05
-0.0123642 0.00202003 1e-05
-0.0123214 0.00192947 1e-05
-0.0122805 0.00184007 1e-05
-0.0122455 0.00175593 1e-05
-0.0122091 0.00167242 1e-05
-0.0121714 0.00158946 1e-05
-0.0121323 0.00150716 1e-05
-0.0120884 0.00141936 1e-05
-0.0120712 0.00138597 1e-05
-0.0120527 0.00135329 1e-05
-0.012033 0.0013213 1e-05
-0.0120122 0.00129008 1e-05
-0.0120025 0.00127678 1e-05
-0.0119648 0.00122678 1e-05
-0.011924 0.0011793 1e-05
-0.0118801 0.00113467 1e-05
-0.0118332 0.00109319 1e-05
-0.0117466 0.00102682 1e-05
-0.0116334 0.000953567 1e-05
-0.0115122 0.000894499 1e-05
-0.0113863 0.000846194 1e-05
-0.0112574 0.000806362 1e-05
-0.0107632 0.000715747 1e-05
-0.0105252 0.000725466 1e-05
-0.0102871 0.000723022 1e-05
-0.0100489 0.000721842 1e-05
-0.00981075 0.000721438 1e-05
-0.00957337 0.000721526 1e-05
-0.00934491 0.000731164 1e-05
-0.00911627 0.000727894 1e-05
-0.00888762 0.000725659 1e-05
-0.00865897 0.000724135 1e-05
-0.00843108 0.000723107 1e-05
-0.00821175 0.00073221 1e-05
-0.00799227 0.0007282 1e-05
-0.00777277 0.000725196 1e-05
-0.00755326 0.000722917 1e-05
-0.00733443 0.000721168 1e-05
-0.00712387 0.000729608 1e-05
-0.00691317 0.000725439 1e-05
-0.00670246 0.000722193 1e-05
-0.00649174 0.000719631 1e-05
-0.0062816 0.000717585 1e-05
-0.00607944 0.000725304 1e-05
-0.00587718 0.000721386 1e-05
-0.0056749 0.000718263 1e-05
-0.00547262 0.000715743 1e-05
-0.00527083 0.000713687 1e-05
-0.00507675 0.000720692 1e-05
-0.00488258 0.000717178 1e-05
-0.0046884 0.000714328 1e-05
-0.00449421 0.000711993 1e-05
-0.00430044 0.000710061 1e-05
-0.00411412 0.000716405 1e-05
-0.00392771 0.00071332 1e-05
-0.0037413 0.000710777 1e-05
-0.00355488 0.000708661 1e-05
-0.00336883 0.000706884 1e-05
-0.00318995 0.000712617 1e-05
-0.003011 0.000709892 1e-05
-0.00283204 0.000707615 1e-05
-0.00265308 0.000705697 1e-05
-0.00247443 0.000704069 1e-05
-0.0023027 0.00070924 1e-05
-0.00213091 0.000706836 1e-05
-0.00195911 0.000704787 1e-05
-0.00178731 0.000703027 1e-05
-0.00161577 0.000701503 1e-05
-0.0014509 0.000706108 1e-05
-0.00128598 0.000703966 1e-05
-0.00112106 0.000702137 1e-05
-0.000956128 0.000700565 1e-05
-0.000791418 0.000699206 1e-05
-0.000633135 0.000703345 1e-05
-0.000474807 0.000701519 1e-05
-0.000316476 0.000700138 1e-05
-0.000158141 0.000699124 1e-05
0 0.000698414 1e-05
0.000105677 0.000701562 1e-05
0.000211401 0.000701204 1e-05
0.000317125 0.000701015 1e-05
0.00042285 0.000700978 1e-05
0.000528387 0.000701074 1e-05
0.000634886 0.000704478 1e-05
0.00074144 0.00070462 1e-05
0.000847993 0.000704814 1e-05
0.000954546 0.000705053 1e-05
0.00106088 0.000705333 1e-05
0.00116821 0.000708706 1e-05
0.00127559 0.000709262 1e-05
0.00138297 0.000709964 1e-05
0.00149034 0.000710799 1e-05
0.00159752 0.000711752 1e-05
0.00170568 0.000715725 1e-05
0.0018139 0.000717255 1e-05
0.00192212 0.000718998 1e-05
0.00203034 0.000720936 1e-05
0.00213833 0.00072305 1e-05
0.00224733 0.000728253 1e-05
0.00235642 0.000731161 1e-05
0.0024655 0.000734293 1e-05
0.00257457 0.000737633 1e-05
0.00268334 0.000741159 1e-05
0.00279319 0.000747957 1e-05
0.00290316 0.000752452 1e-05
0.00301312 0.000757156 1e-05
0.00312307 0.000762059 1e-05
0.00323259 0.000767212 1e-05
0.00334329 0.000775753 1e-05
0.00345412 0.00078242 1e-05
0.00356497 0.000788879 1e-05
0.0036758 0.000795537 1e-05
0.00378611 0.000803256 1e-05
0.00389767 0.000813633 1e-05
0.00400934 0.000822866 1e-05
0.00412106 0.000831378 1e-05
0.00423277 0.000840099 1e-05
0.00434393 0.000850389 1e-05
0.00445636 0.000862695 1e-05
0.00456886 0.000874419 1e-05
0.00468141 0.000885574 1e-05
0.00479392 0.000897089 1e-05
0.00490609 0.000909896 1e-05
0.0050194 0.000924204 1e-05
0.00513273 0.000938301 1e-05
0.00524608 0.000952246 1e-05
0.00535937 0.000966662 1e-05
0.00547262 0.000981872 1e-05
0.00558681 0.000998188 1e-05
0.005701 0.00101449 1e-05
0.00581514 0.00103113 1e-05
0.00592922 0.00104819 1e-05
0.00604356 0.00106572 1e-05
0.00608485 0.00107226 1e-05
0.00612615 0.00107881 1e-05
0.00616744 0.0010854 1e-05
0.00620872 0.00109204 1e-05
0.00624793 0.00109839 1e-05
0.00632213 0.00111049 1e-05
0.00639631 0.00112273 1e-05
0.00647046 0.00113513 1e-05
0.00654458 0.00114768 1e-05
0.00661893 0.00116043 1e-05
0.0067349 0.00118021 1e-05
0.00685077 0.00120057 1e-05
0.00696659 0.00122122 1e-05
[...]
POINT_DATA 12202
 FIELD attributes 2
p 1 12202 float
121.803 137.038 141.384 143.984 144.699 142.562 132.009 769.29 748.04 585.272 654.45 294.199 279.894 255.883 -51.4024 9.33225 101.763 -38.7311 -150.044 -59.0574 113.387 -32.1242 -173.21 -106.74 -47.6284 -73.3992 -214.958 -221.614 -203.425 -198.47 -214.399 -232.088 -257.986 -275.466 -294.083 -313.793 -313.382 -287.111 -332.908 -380.501 -393.345 -395.224 -401.295 -404.872 -408.036 -412.083 -395.08 -373.061 -356.41 -341.703 -320.358 -300.347 -300.118 -287.625 -276.124 -261.729 -246.737 -228.609 -220.69 -212.993 -205.529 -204.902 -205.445 -171.433 -139.353 -130.018 -138.322 -143.26 -108.304 -84.5532 -76.2657 -74.9726 -84.745 -55.8061 -48.4323 -41.3244 -34.5277 -37.4261 -22.8866 -17.2234 -11.9533 -7.14438 -9.8639 0.676682 3.15041 5.05351 6.34211 -16.9643 5.71803 4.39605 1.0582 -11.2508 -89.8517 -86.4597 -98.2814 -139.36 -180.543 -210.22 -232.231 -254.28 -280.498 -314.675 -381.67 -437.672 -494.226 -551.191 -615.215 -685.286 -798.922 -911.518 -1025.56 -1168.87 -1435.31 -1435.31 -1435.31 -1435.31 -1435.31 -1435.31 -1433.77 -1430.54 -1426.01 -1420.52 -1414.05 -1365.31 -1313.66 -1261.92 -1210.66 -708.051 -703.571 -699.662 -696.264 -692.865 -674.1
105.237 105.133 80.4719 2.35824 -8.96939 -17.2259 28.8541 -39.0675 -138.551 -134.736 -128.241 -142.119 -157.018 -177.044 -194.814 -213.804 -233.933 -230.407 -223.17 -242.674 -262.894 -281.536 -287.925 -295.472 -301.95 -313.365 -309.898 -299.986 -291.848 -288.073 -284.233 -277.071 -270.075 -267.044 -254.626 -243.68 -232.069 -214.451 -194.104 -187.825 -181.677 -176.576 -175.351 -174.41 -144.232 -113.806 -102.252 -105.015 -106.704 -89.1403 -78.1514 -73.2279 -68.3556 -62.1881 -59.153 -56.143 -53.1591 -51.2497 -51.5493 -37.2508 -28.5229 -19.9469 -18.482 -19.8172 -4.27516 11.3131 17.6829 15.3512 13.0905 28.6451 39.9671 44.1129 46.1378 42.9698 56.968 59.6339 62.2818 64.9077 64.6677 68.329 68.4865 68.6319 68.7645 68.8166 69.3425 69.8588 70.3626 70.8512 67.3126 68.3116 68.7075 68.5886 63.1993 43.4722 39.1749 33.1153 27.1231 21.1723 14.0415 10.9214 6.52665 2.1779 -2.13921 -7.25966 -8.19336 -10.8809 -13.5192 -16.1222 -19.939 -19.6859 -21.4161 -23.0997 -24.7487 -27.799 -27.0397 -28.1886 -29.2987 -30.3792 -32.8251 -31.7628 -32.4755 -33.157 -33.8145 -35.7666 -34.501 -34.9167 -35.3076 -35.6791 -37.3048 -35.9554 -36.1332 -36.2916 -36.4345 -37.7484 -36.29 -36.27 -36.235 -36.1881 -37.2771 -35.7129 -35.285 -34.846 -34.3977 -34.9469 -33.1132 -32.4498 -31.7709 -31.0793 -31.5231 -29.9623 -29.8583 -29.7476 -29.631 -30.8004 -29.8678 -30.0129 -30.1565 -30.2986 -31.3968 -30.6461 -30.5272 -30.4053 -30.2808 -30.8472 -30.2363 -29.9524 -29.6665 -29.3785 -29.5555 -29.0416 -28.6899 -28.3375 -27.9845 -27.9386 -27.4614 -27.0834 -26.7055 -26.3341 -26.2142 -25.7335 -25.3201 -24.9239 -24.6263 -24.4973 -23.9813 -23.5021 -23.1151 -23.01 -22.9709 -22.417 -21.8585 -21.6182 -21.7297 -21.8523 -21.2833 -20.7539 -20.7357 -20.9697 -21.3192 -20.7966 -20.8124 -20.9398 -21.0739 -21.4358 -21.3145 -21.4147 -21.5156 -21.6173 -21.7146 -21.8701 -22.0276 -22.1872 -22.3488 -22.1928 -22.8033 -23.1997 -23.5996 -23.7661 -23.6852 -24.3683 -25.0544 -25.4814 -25.6243 -25.7671 -26.5025 -27.0919 -27.4849 -27.8779 -28.2182 -28.684 -28.9712 -29.2584 -29.5456 -29.8286 -30.0202 -30.2117 -30.4033 -30.5948 -30.7727 -31.2299 -31.777 -32.3245 -32.8666 -33.3973 -33.844 -34.2915 -34.8799 -35.477 -36.0732 -36.5451 -37.0155 -37.4719 -38.0111 -38.6515 -39.142 -39.6062 -40.0728 -40.5418 -41.0346 -41.0847 -41.131 -41.1773 -41.2237 -41.271 -41.6836 -42.0991 -42.5175 -42.9389 -43.2852 -43.6115 -44.0554 -44.5045 -44.9286 -45.3134 -45.586 -45.8747 -46.2922 -46.6869 -47.0877 -47.3164 -47.552 -47.8307 -48.215 -48.6072 -48.7744 -48.9548 -49.167 -49.4914 -49.8757 -49.9745 -50.1244 -50.3112 -50.543 -50.9155 -50.9382 -51.0841 -51.2481 -51.4225 -51.7776 -51.7561 -51.8926 -52.04 -52.1986 -52.5289 -52.4738 -52.5975 -52.7324 -52.8787 -53.2125 -53.1014 -53.2139 -53.3376 -53.4725 -53.8421 -53.6325 -53.734 -53.8463 -54.0095 -54.4074 -54.1585 -54.1339 -54.2346 -54.4896 -54.8816 -54.6162 -54.3858 -54.488 -54.8493 -55.2269 -54.9602 -54.7029 -54.7088 -55.0491 -55.4039 -55.1473 -54.9887 -54.9828 -55.0514 -55.3774 -55.1848 -55.1675 -55.1597 -55.1615 -55.1704 -55.1753 -55.1804 -55.1856 -55.191 -55.2137 -55.1556 -55.1575 -55.1695 -55.2142 -55.402 -55.1676 -54.944 -54.9795 -55.1403 -55.3123 -55.1047 -54.9653 -54.9068 -54.8585 -54.9388 -54.9001 -54.8799 -54.8677 -54.8558 -54.8448 -54.8083 -54.7771 -54.7515 -54.7538 -54.7991 -54.6022 -54.4142 -54.3424 -54.3999 -54.4662 -54.3616 -54.2836 -54.2338 -54.1874 -54.1479 -54.1208 -54.0948 -54.0699 -54.0569 -54.0514 -53.8686 -53.7207 -53.6726 -53.6712 -53.6771 -53.5896 -53.5131 -53.4617 -53.4128 -53.3695 -53.3294 -53.2906 -53.253 -53.2307 -53.2127 -53.0504 -52.8947 -52.7855 -52.766 -52.7527 -52.7195 -52.6877 -52.6683 -52.6494 -52.6313 -52.5588 -52.4896 -52.4238 -52.4045 -52.3893 -52.2973 -52.2085 -52.1651 -52.1268 -52.0948 -52.0645 -52.0348 -52.0066 -51.9971 -51.9881 -51.8441 -51.7063 -51.6145 -51.5768 -51.5614 -51.549 -51.5367 -51.5299 -51.5243 -51.5187 -51.3985 -51.2824 -51.1773 -51.1602 -51.1483 -51.0764 -51.0057 -50.9784 -50.9591 -50.9422 -50.8766 -50.8127 -50.7556 -50.7628 -50.7721 -50.6448 -50.5224 -50.488 -50.4698 -50.4587 -50.4428 -50.4271 -50.4136 -50.4243 -50.4353 -50.2749 -50.1231 -50.085 -50.1338 -50.191 -50.1667 -50.1427 -50.1355 -50.1323 -50.1295 -50.0436 -49.9629 -49.903 -49.9895 -50.0825 -49.997 -49.9145 -49.9095 -49.9212 -49.9348 -49.8935 -49.8543 -49.8321 -49.9369 -50.0447 -49.8836 -49.7334 -49.7987 -49.9038 -50.0047 -50.0021 -49.9998 -50.0042 -50.0638 -50.1237 -49.9648 -49.8216 -49.9503 -50.3277 -50.7221 -50.7027 -50.6837 -50.7149 -50.757 -50.7987 -50.8721 -50.9492 -51.0623 -51.5183 -51.9831 -51.9567 -51.9336 -52.1256 -52.3462 -52.5609 -52.6728 -52.785 -52.9022 -53.182 -53.4642 -53.5285 -53.5945 -54.0197 -54.465 -54.9083 -54.9138 -54.9192 -54.9246 -54.9326 -54.9407 -55.1711 -55.4213 -55.6715 -56.1297 -56.5978 -56.6175 -56.6376 -56.7877 -56.9385 -57.0907 -57.1715 -57.2527 -57.3342 -57.402 -57.4707 -57.4621 -57.4473 -57.4706 -57.536 -57.6876 -57.6709 -57.6553 -57.6564 -57.6575 -57.6586 -57.5688 -57.4802 -57.3929 -57.1349 -56.8432 -56.6652 -56.4621 -56.1346 -55.8104 -55.4855 -55.4375 -55.3896 -55.3418 -55.2591 -55.1732 -54.7433 -54.3197 -53.8557 -53.1879 -52.5254 -52.3086 -52.0879 -51.7818 -51.4764 -51.1697 -50.7668 -50.3648 -49.9634 -49.4322 -48.8939 -48.1375 -47.3785 -46.412 -45.4483 -44.4874 -44.4571 -44.4268 -44.3965 -44.358 -44.3195 -43.2324 -42.15 -41.0509 -39.7237 -38.389 -37.8899 -37.3905 -36.804 -36.2138 -35.6217 -34.8169 -34.0124 -33.2025 -32.2659 -31.326 -30.033 -28.7394 -27.2922 -25.8353 -24.3709 -24.1511 -23.9313 -23.7105 -23.4719 -23.2332 -21.436 -19.6587 -17.8662 -16.0041 -14.1517 -13.6329 -13.114 -12.574 -12.0323 -11.4871 -10.0948 -8.70251 -7.30865 -5.89437 -4.48886 -3.0848 -1.68073 -0.273314 1.13435 2.56897 3.16277 3.75654 4.3496 4.93043 5.50865 7.60049 9.69189 11.7319 13.6916 15.5923 15.9231 16.2538 16.5679 16.8814 17.1975 18.8896 20.5802 22.2664 23.8355 25.3652 26.6894 28.0119 29.2242 30.4352 31.6976 32.3262 32.9543 33.5821 34.1432 34.6939 36.6 38.5029 40.2428 41.7957 43.2781 43.7812 44.2746 44.7016 45.1281 45.5674 46.6999 47.8289 48.9541 49.9144 50.8093 52.3584 53.8707 55.1055 56.3332 57.4086 57.5579 57.6955 57.8083 57.9211 58.036 59.0309 60.0164 60.992 61.7338 62.3164 63.379 64.43 65.0669 65.6252 66.0025 66.3379 66.5603 66.7141 66.8659 67.0362 67.2834 67.5256 67.7627 67.9514 68.0206 68.3552 68.5646 68.6907 68.5339 68.3404 68.3806 68.4078 68.1424 67.6413 67.1262 66.8694 66.364 65.7676 65.1637 64.4036 63.8845 63.1958 62.5034 61.8072 60.8028 60.7027 60.6024 60.5021 60.4017 60.2784 59.2611 58.2219 57.1776 56.1285 54.8917 53.8399 52.6605 51.478 50.2919 48.8078 47.7247 46.5097 45.2647 43.9181 42.4001 41.2968 40.1375 38.8995 37.497 36.0211 34.9687 33.9104 32.7468 31.3859 30.0209 29.0833 28.1473 27.089 25.8837 24.6748 23.8882 23.103 22.1884 21.1479 20.1043 19.4712 18.8393 18.0718 17.1853 16.2962 15.8015 15.2934 14.6538 13.9197 13.1638 12.7838 12.353 11.8284 11.2387 10.5934 10.3045 9.92814 9.49354 9.02442 8.46456 8.24208 7.89826 7.53093 7.16057 6.66639 6.48279 6.16322 5.84363 5.52402 5.10316 4.91976 4.63225 4.34473 4.05721 3.69704 3.50511 3.23793 2.97074 2.70355 2.38977 2.18215 1.92655 1.67094 1.41534 1.13759 0.91567 0.670686 0.425703 0.180722 -0.0841209 -0.0857109 -0.0873009 -0.0888908 -0.0904808 -0.0918699 -0.342076 -0.592073 -0.842064 -1.09205 -1.31165 -1.5948 -1.84652 -2.09822 -2.34992 -2.54321 -2.85846 -3.11269 -3.3669 -3.62111 -3.78991 -4.13565 -4.39181 -4.64795 -4.90407 -5.04868 -5.42189 -5.67801 -5.9341 -6.19017 -6.30952 -6.70547 -6.95848 -7.21146 -7.4644 -7.5572 -7.96943 -8.21573 -8.46199 -8.7082 -8.77335 -9.1938 -9.42895 -9.66404 -9.89908 -9.93573 -10.3543 -10.5741 -10.7937 -11.0133 -11.024 -11.4302 -11.6313 -11.8323 -12.0332 -12.0227 -12.4066 -12.5862 -12.7656 -12.9448 -12.9175 -13.2696 -13.4244 -13.5792 -13.7339 -13.6942 -14.005 -14.1325 -14.26 -14.3874 -14.3389 -14.6 -14.6972 -14.7943 -14.8914 -14.8368 -15.0409 -15.1041 -15.1673 -15.2305 -15.1703 -15.3101 -15.3356 -15.3612 -15.3867 -15.3208 -15.3904 -15.375 -15.3596 -15.3443 -15.2716 -15.267 -15.2087 -15.1504 -15.0922 -15.012 -14.967 -14.9011 -14.8351 -14.7692 -14.7185 -14.6806 -14.6426 -14.6047 -14.5668 -14.5374 -14.3871 -14.2454 -14.1037 -13.9621 -13.8524 -13.6379 -13.4563 -13.2747 -13.0933 -12.969 -12.689 -12.4717 -12.2545 -12.0381 -11.9077 -11.5777 -11.316 -11.0691 -10.8555 -10.6974 -10.3413 -10.0173 -9.74747 -9.54759 -9.36918 -8.99478 -8.62034 -8.33998 -8.14488 -7.95006 -7.56205 -7.17395 -6.87484 -6.66891 -6.46322 -6.06758 -5.68043 -5.37697 -5.14253 -4.92883 -4.52871 -4.18175 -3.87465 -3.58283 -3.36582 -2.97226 -2.66493 -2.35766 -2.05045 -1.7916 -1.49283 -1.23408 -0.975347 -0.716625 -0.4496 -0.405526 -0.361452 -0.317379 -0.273306 -0.225643 0.0725652 0.372858 0.673153 0.973451 1.30201 1.57877 1.8722 2.16564 2.46395 2.80345 3.06392 3.33888 3.6233 3.93621 4.26629 4.51514 4.76397 5.04341 5.36271 5.68211 5.91818 6.15421 6.42827 6.73691 7.04565 7.26939 7.50086 7.76834 8.0542 8.35033 8.56025 8.79918 9.05104 9.3029 9.58449 9.78699 10.0202 10.2534 10.4866 10.7304 10.8386 10.957 11.0754 11.1938 11.3093 11.4039 11.4984 11.5929 11.6874 11.7689 11.9712 12.161 12.3507 12.5405 12.6877 12.8926 13.0582 13.2237 13.3751 13.4842 13.6669 13.8328 13.9751 14.0754 14.1634 14.3223 14.4812 14.5954 14.6639 14.7323 14.8686 15.005 15.0972 15.1476 15.1979 15.3131 15.4075 15.4757 15.5342 15.5679 15.6624 15.7139 15.7655 15.8171 15.8517 15.894 15.9196 15.9452 15.9708 16.0008 16.0116 16.0224 16.0332 16.044 16.0562 16.0794 16.1041 16.129 16.154 16.185 16.191 16.2036 16.2164 16.2303 16.2518 16.2464 16.2461 16.2484 16.2545 16.2644 16.2503 16.2384 16.2318 16.2306 16.2308 16.2101 16.1897 16.1759 16.168 16.1602 16.1344 16.1085 16.089 16.0749 16.0608 16.0316 16.0023 15.9789 15.961 15.9432 15.9126 15.8819 15.8568 15.837 15.8172 15.7867 15.7561 15.7306 15.7102 15.6896 15.6603 15.6308 15.6054 15.584 15.5625 15.5339 15.5052 15.48 15.4582 15.4362 15.4088 15.3822 15.3572 15.3335 15.3107 15.2843 15.2586 15.233 15.2071 15.1823 15.157 15.1317 15.106 15.08 15.0674 15.0633 15.0593 15.0553 15.0512 15.045 15.0185 14.9897 14.9603 14.9281 14.8764 14.8535 14.8293 14.7889 14.73 14.6685 14.6462 14.6142 14.5692 14.523 14.4958 14.4737 14.4512 14.4284 14.3984 14.3663 14.2942 14.2179 14.1198 14.0083 13.8809 13.8796 13.8783 13.8768 13.8752 13.8735 13.7447 13.6108 13.4524 13.2709 13.1406 13.1236 13.1066 13.0882 13.0696 13.0507 12.9076 12.7626 12.6133 12.4536 12.3144 12.2374 12.1606 12.0831 12.0069 11.9352 11.8384 11.7445 11.6533 11.565 11.4458 11.3778 11.3145 11.2574 11.2101 11.173 11.0979 11.0476 11.0241 11.0271 11.049 11.0913 11.1514 11.2213 11.3025 11.3585 11.3684 11.3785 11.3882 11.3961 11.4041 11.4984 11.5988 11.691 11.7707 11.8531 11.8572 11.8613 11.8647 11.8677 11.8706 11.9311 11.9899 12.0401 12.0744 12.1049 12.1147 12.1245 12.1309 12.1366 12.1425 12.1556 12.1678 12.1779 12.1749 12.1711 12.1771 12.1818 12.1759 12.1692 12.1592 12.1564 12.1536 12.1507 12.1479 12.1451 12.1281 12.1151 12.1019 12.0961 12.0895 12.0771 12.0657 12.055 12.0432 12.0308 12.0285 12.028 12.0279 12.0277 12.0275 12.0211 12.0141 12.0066 11.9988 11.9981 12.0059 12.0095 12.0012 11.9655 11.9292 11.8938 11.858 11.8227 11.7896 11.7614 11.7347 11.7134 11.6915 11.6692 11.6501 11.6446 11.6375 11.6303 11.6232 11.6105 11.6032 11.5958 11.5884 11.581 11.5747 11.5531 11.5334 11.5136 11.4937 11.4754 11.451 11.4307 11.4105 11.3903 11.3715 11.3648 11.3595 11.3542 11.3489 11.3456 11.3341 11.3226 11.3112 11.2997 11.2875 11.271 11.2528 11.2347 11.2165 11.1904 11.1689 11.141 11.1123 11.0768 11.0341 10.9985 10.9628 10.9175 10.861 10.8044 10.7555 10.7055 10.6439 10.5786 10.5109 10.4518 10.3822 10.3122 10.2422 10.1709 10.1553 10.1376 10.1199 10.1023 10.0832 10.0254 9.96765 9.90999 9.85238 9.79757 9.71195 9.63163 9.55145 9.47382 9.40002 9.31095 9.2222 9.14041 9.06529 8.99045 8.90034 8.81028 8.72653 8.64926 8.57225 8.47991 8.38876 8.30051 8.21428 8.13005 8.03032 7.93569 7.84287 7.75026 7.66408 7.56239 7.4604 7.35863 7.25706 7.15628 7.04291 6.93706 6.83137 6.72583 6.62923 6.5153 6.38026 6.24619 6.10948 5.9473 5.76646 5.59166 5.42442 5.27576 5.1299 4.96507 4.8005 4.49083 4.13106 3.74277 3.51931 3.346 3.2078 3.06899 2.92124 2.76463 2.60803 2.45141 2.31787 2.22574 2.03496 1.74369 1.38979 0.702925 0