/*--------------------------------*- C++ -*----------------------------------*\
| =========                 |                                                 |
| \\      /  F ield         | OpenFOAM: The Open Source CFD Toolbox           |
|  \\    /   O peration     | Version:  v1906                                 |
|   \\  /    A nd           | Web:      www.OpenFOAM.com                      |
|    \\/     M anipulation  |                                                 |
\*---------------------------------------------------------------------------*/
FoamFile
{
    version     2.0;
    format      ascii;
    class       volScalarField;
    location    "1600";
    object      epsilon;
}
// * * * * * * * * * * * * * * * * * * * * * * * * * * * * * * * * * * * * * //

dimensions      [0 2 -3 0 0 0 0];


internalField   nonuniform List<scalar> 
12225
(
8534.34
8358.8
8007.13
7626.15
7271.65
6954.42
6675.17
6430.17
6214.5
6026.07
5857.17
5712.95
5599.35
5508.36
5427.48
5369.25
5302.71
5277.8
613.287
1491.92
1695.87
1687.49
1643.3
1583.09
1532.17
1488.39
1450.75
1417.24
1389.09
1363.36
1343.19
1325.18
1309.83
1297.17
1279.99
1269.56
136.159
458.044
618.07
686.265
715.015
720.43
717.9
711.337
701.485
690.679
680.356
669.894
660.341
651.253
642.726
635.439
626.672
621.771
58.5086
195.96
292.235
349.053
382.987
401.9
412.18
417.411
418.711
418.056
416.302
413.311
409.846
406.163
402.289
398.743
394.154
392.049
35.9874
104.726
162.903
203.31
231.116
249.902
262.568
271.153
276.673
280.103
282.134
283.065
283.051
282.71
281.902
280.878
279.173
278.881
26.8394
65.6077
102.204
130.479
151.699
167.441
179.107
187.806
194.231
198.949
202.409
204.897
206.576
207.716
208.401
208.755
208.762
209.149
22.305
46.1189
70.0856
90.0629
106.01
118.571
128.439
136.219
142.348
147.176
150.987
153.992
156.331
158.155
159.559
160.63
161.381
162.331
19.7661
35.2987
51.5652
65.9113
77.9228
87.8071
95.9011
102.535
107.977
112.447
116.127
119.163
121.663
123.723
125.419
126.814
127.945
129.122
18.2254
28.7907
40.1597
50.6292
59.7385
67.4982
74.0586
79.5977
84.2764
88.2334
91.587
94.4354
96.8568
98.918
100.676
102.175
103.463
104.713
17.2357
24.6382
32.7738
40.5276
47.4948
53.6031
58.9047
63.4907
67.455
70.8843
73.8553
76.4339
78.6751
80.6263
82.3282
83.8158
85.1287
86.3634
16.5722
21.8693
27.7997
33.6158
38.9889
43.8188
48.1065
51.8927
55.2298
58.1703
60.7635
63.0532
65.0777
66.8702
68.4604
69.8747
71.1439
72.3221
16.1504
20.1192
24.6318
29.1573
33.4317
37.3522
40.8968
44.0793
46.9279
49.4748
51.752
53.7894
55.614
57.2499
58.719
60.0416
61.2408
62.3495
15.8386
18.832
22.2878
25.8272
29.2411
32.4336
35.3705
38.0494
40.4821
42.6865
44.6823
46.4892
48.1258
49.6092
50.9554
52.1797
53.2988
54.3339
15.5803
17.7743
20.3508
23.0504
25.7144
28.2585
30.6438
32.8569
34.8979
36.7737
38.4943
40.0712
41.5159
42.8395
44.0532
45.1675
46.1941
47.1458
15.3749
16.9411
18.8163
20.8308
22.8691
24.8611
26.7679
28.5702
30.2601
31.8366
33.3025
34.6628
35.9234
37.091
38.1722
39.1741
40.104
40.9699
15.2205
16.3212
17.668
19.1552
20.7016
22.2515
23.7689
25.2318
26.6278
27.9506
29.1977
30.3696
31.468
32.496
33.457
34.3552
35.1946
35.9796
15.1157
15.9042
16.8914
18.0125
19.2111
20.443
21.6763
22.8887
24.0653
25.1967
26.2773
27.3044
28.2771
29.1959
30.0621
30.8777
31.6449
32.3655
15.0632
15.6965
16.5024
17.4359
18.4532
19.5173
20.5989
21.6763
22.7339
23.7609
24.7503
25.6978
26.6011
27.4594
28.273
29.0427
29.7702
30.4575
15.0795
15.76
16.62
17.6081
18.6773
19.7891
20.9137
22.0296
23.1214
24.179
25.1958
26.1678
27.0931
27.9711
28.8022
29.5871
30.3271
31.023
15.1995
16.2352
17.5048
18.9119
20.382
21.8627
23.3194
24.7306
26.0833
27.3705
28.5891
29.7386
30.8201
31.8357
32.7879
33.6793
34.5123
35.288
15.408
17.0694
19.0464
21.1591
23.2881
25.3627
27.3445
29.215
30.9675
32.6018
34.1215
35.5324
36.8409
38.0538
39.1777
40.2183
41.1801
42.0641
15.7679
18.5279
21.7182
25.0034
28.1937
31.1983
33.9821
36.5389
38.8764
41.0085
42.9517
44.7226
46.3375
47.8111
49.1573
50.3873
51.5097
52.524
16.3875
21.0686
26.3245
31.5256
36.3804
40.7909
44.7477
48.2773
51.4192
54.2154
56.706
58.9274
60.9122
62.6889
64.2833
65.7164
67.0054
68.1427
17.4994
25.6613
34.5362
42.9083
50.3701
56.8765
62.5038
67.3565
71.5417
75.1572
78.2871
81.0031
83.3657
85.426
87.2298
88.813
90.2122
91.4052
19.648
34.5715
50.1052
63.8457
75.402
84.9833
92.8986
99.4299
104.83
109.309
113.034
116.14
118.733
120.9
122.724
124.256
125.58
126.637
24.3005
53.8828
82.3919
105.375
123.243
137.073
147.773
156.019
162.398
167.357
171.196
174.165
176.433
178.154
179.472
180.426
181.199
181.648
36.4962
103.239
158.409
197.153
223.888
242.412
255.107
263.552
269.201
272.919
275.148
276.347
276.701
276.55
276.121
275.262
274.432
273.292
81.6393
262.166
371.72
432.695
465.703
483.261
490.785
492.008
491
488.447
484.417
479.845
475.091
470.126
465.485
460.6
456.57
452.067
390.391
972.811
1158.2
1204.52
1196.97
1173.41
1136.66
1105.35
1078.2
1054.44
1033.39
1014.55
997.916
982.744
969.684
957.205
947.3
936.64
6457.37
6263.49
6000.44
5747.77
5515.97
5307.58
5121.32
4955.57
4807.79
4675.68
4557.02
4450.07
4353.39
4265.47
4185.77
4112.41
4046
3983.65
4.19626
4.12396
6.59243
7.94848
9.13533
9.92617
10.6119
11.0871
11.478
11.7355
11.9192
12.004
12.0103
11.9508
11.7888
11.4968
11.0543
10.4352
9.62158
8.43166
6.86981
5.35943
4.29618
3.63956
3.34694
3.4095
3.86841
4.5966
5.49728
6.61964
8.0952
9.86927
11.6933
13.5633
15.4773
17.4306
19.4191
21.4356
23.4763
25.5393
27.6169
29.7136
31.8342
33.9869
36.1826
38.4357
40.7642
43.1787
45.6198
48.1182
50.6708
53.2863
55.9688
58.7234
61.5543
64.4653
67.4594
70.5389
73.7052
76.9587
80.2983
83.7219
87.225
90.8018
94.4436
98.1396
101.876
105.639
109.41
113.175
116.92
120.627
124.287
127.925
131.574
135.243
138.935
142.642
146.354
150.053
153.718
157.321
160.823
164.164
167.265
170.025
172.311
173.758
174.56
174.738
172.879
170.64
168.403
166.318
164.761
164.325
164.301
163.79
161.919
158.106
153.028
147.212
140.92
134.318
127.869
121.099
111.584
98.88
83.2355
65.8679
46.0544
37.8724
42.5409
59.6516
57.0205
32.659
26.1838
90.7511
261.162
394.15
519.879
627.848
723.537
806.483
878.142
938.237
987.138
1026
1057.75
1079.54
1091.97
1097.95
1096.37
1086.37
1073.97
1054.37
1031.09
1003.76
970.81
926.5
883.152
848.498
819.701
797.856
783.69
778.49
778.484
785.257
802.261
824.621
841.49
863.284
880.674
893.175
898.306
897.686
889.862
875.368
856.012
832.258
804.767
774.371
742.267
709.559
677.119
645.55
615.232
586.371
559.205
533.646
509.997
487.701
467.483
447.911
430.814
411.109
395.506
371.957
356.373
312.212
11.447
7.28509
6.2819
6.16227
6.18625
6.30147
6.41864
6.54157
6.64879
6.75742
6.86485
6.97622
7.08839
7.21456
7.39847
7.68863
8.05664
8.47473
8.91586
9.34152
9.77853
10.2343
10.7198
11.2377
11.7796
12.3165
12.8058
13.2232
13.5816
13.9149
14.255
14.6185
15.0121
15.4464
15.9275
16.4581
17.0192
17.6154
18.2466
18.9114
19.6081
20.3358
21.0941
21.8825
22.7011
23.5493
24.4264
25.3309
26.2602
27.2149
28.195
29.2008
30.2326
31.2904
32.3743
33.4843
34.6202
35.7818
36.9688
38.1808
39.4174
40.6786
41.9644
43.2755
44.6136
45.9821
47.387
48.8386
50.3544
51.9623
53.6679
55.4784
57.4314
59.5708
61.8233
64.1714
66.6073
69.1241
71.7152
74.3726
77.0851
79.8364
82.5995
85.3433
88.036
90.6409
93.1172
95.4155
97.5068
99.3328
100.72
101.854
102.767
103.447
103.754
103.18
101.644
99.526
96.8523
93.585
89.8196
85.6736
81.2598
76.6882
72.1463
68.1872
65.2208
62.3599
62.3761
65.8339
71.6611
84.9718
115.872
185.536
295.595
316.482
297.173
300.145
325.735
341.831
350.204
358.809
366.638
375.985
381.526
387.891
396.834
410.591
421.202
428.649
432.635
433.96
433.849
431.677
428.625
423.454
417.278
409.99
401.679
392.862
385.61
380.18
376.657
375.02
374.657
376.148
379.251
384.224
390.678
395.902
397.395
398.339
398.555
397.509
394.264
388.749
381.029
371.206
359.623
346.592
332.57
317.858
302.744
287.502
272.398
257.648
243.41
229.79
216.876
204.685
193.276
182.576
172.701
163.287
155.364
148.258
142.653
137.098
133.203
133.177
21.7921
10.6537
8.37756
7.49646
7.14262
6.99467
6.95954
7.01492
7.12115
7.28114
7.49109
7.73269
8.0172
8.34643
8.73532
9.18485
9.69384
10.2473
10.829
11.4188
11.9726
12.4749
12.9171
13.2893
13.5836
13.7993
13.9476
14.0507
14.1377
14.2366
14.3707
14.5563
14.8009
15.107
15.4724
15.8922
16.3694
16.8958
17.4643
18.069
18.7052
19.3692
20.0583
20.7703
21.5041
22.2588
23.0339
23.8295
24.6462
25.4849
26.3464
27.232
28.1427
29.0795
30.0435
31.0357
32.0572
33.109
34.1922
35.3082
36.4585
37.6447
38.8691
40.1344
41.444
42.8021
44.214
45.6861
47.2263
48.8425
50.5428
52.3368
54.2352
56.2458
58.3689
60.5988
62.9344
65.3762
67.9255
70.5828
73.3476
76.2197
79.1635
82.1314
85.0942
88.0252
90.9023
93.716
96.4564
99.0339
101.378
103.416
105.078
106.222
106.707
106.434
105.337
103.332
100.469
97.0848
93.2448
89.0325
84.64
80.2077
76.2291
74.5199
75.0324
77.9456
85.59
102.043
135.124
201.951
336.175
464.321
443.611
354.084
308.946
294.824
292.46
291.014
293.393
294.579
295.037
296.064
298.688
304.144
312.519
321.686
328.264
333.105
336.324
337.815
338.072
337.148
335.706
333.084
329.493
325.172
320.522
316.101
312.433
309.567
307.627
306.621
306.289
306.754
307.975
309.688
311.06
311.202
310.51
309.663
307.967
304.891
300.155
293.811
285.917
276.666
266.31
255.301
244.2
233.028
221.835
210.718
199.836
189.314
179.23
169.63
160.54
151.965
143.915
136.367
129.332
122.734
116.744
111.225
106.378
101.947
97.9126
96.0653
28.9892
13.7443
10.3609
9.03313
8.46678
8.19309
8.11987
8.14875
8.27572
8.47319
8.73623
9.04181
9.37738
9.72833
10.0904
10.4585
10.8267
11.1828
11.5175
11.8274
12.1155
12.3852
12.6344
12.8579
13.0553
13.2321
13.3987
13.5686
13.7549
13.9704
14.2257
14.5276
14.8792
15.2831
15.7388
16.243
16.7915
17.3792
18.0009
18.652
19.3293
20.03
20.7525
21.4961
22.2606
23.0463
23.8541
24.6851
25.5405
26.4218
27.3305
28.2684
29.2368
30.2374
31.2717
32.3412
33.4475
34.5922
35.7772
37.0043
38.2758
39.5941
40.9623
42.3837
43.8628
45.4044
47.0148
48.7013
50.4733
52.3418
54.321
56.4293
58.6905
61.1237
63.704
66.4325
69.3158
72.3617
75.5776
78.9684
82.5353
86.2693
90.1406
94.1185
98.1736
102.275
106.386
110.467
114.462
118.294
121.875
125.09
127.805
129.882
131.131
131.506
130.865
129.06
126.04
121.906
116.839
111.214
105.612
100.772
97.8726
99.1876
106.122
119.251
141.617
183.548
265.983
402.058
498.221
480.033
394.515
314.974
281.436
271.52
270.445
271.461
271.708
271.137
271.102
273.517
278.475
285.789
294.818
303.039
309.898
315.684
320.585
324.209
325.893
326.261
325.275
322.756
319.055
314.548
309.666
304.829
300.33
296.309
292.899
290.102
287.787
286.069
284.841
283.845
282.699
281.246
279.528
277.369
274.327
270.137
264.68
257.967
250.061
241.135
231.439
221.524
212.062
202.643
193.231
183.882
174.775
166.016
157.626
149.61
141.976
134.732
127.881
121.416
115.332
109.604
104.256
99.2688
94.6798
90.464
86.5305
83.6807
38.2971
16.8649
12.2954
10.5063
9.76556
9.39753
9.26889
9.25618
9.33893
9.48641
9.69431
9.94528
10.2256
10.5161
10.8045
11.081
11.3405
11.5785
11.7942
11.9912
12.1779
12.3613
12.5459
12.738
12.9431
13.1662
13.4115
13.6829
13.9875
14.3308
14.7175
15.1516
15.6333
16.1596
16.7269
17.3318
17.9707
18.6402
19.3376
20.0609
20.8091
21.5816
22.3788
23.2012
24.0498
24.9259
25.8309
26.7665
27.7343
28.7363
29.7742
30.8501
31.9659
33.1237
34.3254
35.5731
36.869
38.2155
39.615
41.0701
42.5839
44.1597
45.8011
47.5126
49.2988
51.1655
53.1189
55.1665
57.3165
59.5786
61.9632
64.4819
67.1465
69.9675
72.9534
76.1186
79.4814
83.0639
86.8903
90.9826
95.3711
100.088
105.064
110.258
115.638
121.166
126.799
132.483
138.145
143.691
149.003
153.926
158.254
161.782
164.266
165.46
165.337
163.576
160.072
154.902
148.382
141.184
134.516
130.14
130.381
138.172
156.92
188.34
238.318
318.58
426.051
488.624
480.39
401.087
314.327
275.781
264.023
262.6
264.662
266.03
266.638
267.635
270.154
274.727
281.374
289.695
298.917
308.181
317.13
325.33
332.23
337.2
339.686
340.414
339.298
336.249
331.707
326.11
319.909
313.505
307.203
301.226
295.747
290.85
286.586
282.82
279.561
276.663
273.859
271.072
268.246
265.091
261.257
256.524
250.779
243.99
236.203
227.558
218.305
208.815
199.343
189.868
180.464
171.249
162.469
154.174
146.318
138.872
131.83
125.194
118.951
113.085
107.582
102.417
97.5862
93.079
88.9207
85.0794
81.5546
78.5391
42.2211
19.0386
13.7803
11.7048
10.8158
10.3555
10.1704
10.1194
10.168
10.2754
10.4315
10.6191
10.8289
11.0451
11.2593
11.4654
11.6634
11.8548
12.0424
12.2284
12.4161
12.612
12.8248
13.0607
13.3257
13.6248
13.9635
14.3442
14.7665
15.2296
15.7322
16.2727
16.8512
17.4674
18.1198
18.8065
19.5255
20.2748
21.0532
21.8602
22.6963
23.5624
24.4599
25.3899
26.3536
27.3527
28.3888
29.4638
30.5799
31.7392
32.9439
34.1964
35.4989
36.854
38.2641
39.732
41.2603
42.8522
44.5108
46.2394
48.0418
49.9222
51.8851
53.9355
56.0792
58.3227
60.6731
63.1386
65.7283
68.4526
71.3226
74.3511
77.5519
80.9412
84.5379
88.3656
92.4539
96.8435
101.597
106.727
112.222
118.085
124.311
130.876
137.739
144.855
152.173
159.628
167.138
174.59
181.837
188.692
194.894
200.142
204.146
206.427
207.033
205.632
201.947
196.138
188.687
180.578
173.572
170.19
173.918
190.128
223.228
275.228
345.417
418.547
454.361
452.133
386.41
311.56
272.897
259.508
257.479
260.27
263.475
265.707
267.577
270.214
274.458
280.659
288.653
298.166
308.814
320.014
331.046
341.112
349.45
355.363
358.319
359.143
357.591
353.68
347.926
340.823
332.867
324.505
316.11
307.981
300.353
293.375
287.123
281.612
276.722
272.305
268.295
264.581
260.986
257.191
252.91
247.944
242.162
235.5
227.957
219.638
210.75
201.551
192.215
182.838
173.554
164.527
156.11
148.233
140.78
133.739
127.113
120.881
115.019
109.503
104.315
99.4307
94.8329
90.5185
86.4856
82.7317
79.2596
76.1179
49.6939
21.2338
15.097
12.709
11.6688
11.1172
10.8691
10.7746
10.7864
10.8614
10.9845
11.1362
11.3084
11.4895
11.6746
11.8596
12.0471
12.2416
12.4492
12.6743
12.9202
13.1893
13.4856
13.8123
14.1723
14.5672
14.9982
15.467
15.9751
16.523
17.1107
17.7376
18.4026
19.1047
19.8429
20.616
21.4229
22.2631
23.1366
24.0444
24.9877
25.9682
26.9875
28.0469
29.1482
30.2934
31.4848
32.7248
34.016
35.3612
36.7631
38.2247
39.7489
41.3388
42.9979
44.7294
46.537
48.4247
50.3964
52.4567
54.6105
56.8629
59.2198
61.6877
64.2736
66.9856
69.8324
72.824
75.9712
79.2862
82.7822
86.4739
90.3772
94.5097
98.8904
103.54
108.483
113.747
119.36
125.345
131.73
138.558
145.909
153.762
162.015
170.597
179.442
188.478
197.613
206.723
215.645
224.164
232.009
238.828
244.257
247.8
249.258
248.607
245.33
239.656
232.212
224.175
217.824
215.714
222.264
244.914
285.77
338.567
386.331
409.635
405.295
354.758
300.857
267.799
255.09
252.923
256.23
260.874
264.995
268.619
272.579
277.445
283.632
291.389
300.829
311.867
324.134
336.995
349.631
361.107
370.55
377.153
380.382
381.134
378.948
374.003
366.864
358.091
348.242
337.831
327.302
317.027
307.301
298.322
290.198
282.948
276.536
270.884
265.89
261.403
257.199
252.988
248.501
243.517
237.865
231.43
224.175
216.17
207.595
198.655
189.495
180.255
171.101
162.215
153.776
145.789
138.245
131.19
124.62
118.484
112.741
107.362
102.324
97.6031
93.1758
89.0277
85.1568
81.549
78.2003
75.0499
51.7282
22.5401
16.0827
13.5577
12.4197
11.8039
11.5139
11.3859
11.3708
11.4198
11.5192
11.6487
11.8024
11.9711
12.1518
12.3416
12.5431
12.7607
13.0014
13.2714
13.5755
13.9164
14.2956
14.7129
15.1676
15.6588
16.1858
16.7489
17.3486
17.9859
18.6614
19.375
20.1266
20.9159
21.7426
22.6067
23.5083
24.4483
25.4276
26.4477
27.5105
28.6177
29.7713
30.9734
32.2262
33.5326
34.8955
36.318
37.8033
39.3547
40.9755
42.6694
44.44
46.2913
48.2273
50.2524
52.3712
54.5886
56.9099
59.3407
61.8874
64.5567
67.356
70.2935
73.3783
76.6203
80.0306
83.6213
87.4057
91.3983
95.6148
100.072
104.789
109.783
115.077
120.691
126.649
132.973
139.682
146.799
154.348
162.358
170.864
179.918
189.403
199.233
209.332
219.621
230.004
240.358
250.508
260.211
269.181
277.082
283.512
288.03
290.188
290.28
287.609
282.372
275.181
267.195
260.602
257.944
262.731
280.217
309.019
338.531
355.019
347.982
316.21
281.099
257.572
248.049
246.768
251.029
257.08
263.214
269.116
274.766
280.469
286.704
293.935
302.554
312.829
324.83
338.3
352.53
366.507
379.159
389.507
396.656
400.064
400.63
397.74
391.754
383.273
372.917
361.307
349.021
336.566
324.376
312.802
302.086
292.376
283.737
276.166
269.571
263.832
258.775
254.169
249.746
245.231
240.375
234.965
228.849
221.96
214.301
206.039
197.35
188.35
179.233
170.185
161.376
152.936
144.913
137.349
130.349
123.876
117.834
112.179
106.884
101.928
97.2886
92.9343
88.848
85.021
81.4498
78.1235
74.9849
55.5599
23.7838
16.9598
14.3044
13.0862
12.4252
12.1112
11.9687
11.947
11.9928
12.0922
12.2234
12.3814
12.5581
12.7529
12.9639
13.1939
13.4457
13.7259
14.0402
14.3944
14.7925
15.2371
15.7281
16.2644
16.8436
17.4634
18.122
18.8185
19.5527
20.3247
21.1348
21.9832
22.8704
23.797
24.7642
25.7736
26.8269
27.926
29.0729
30.2701
31.5198
32.8245
34.1871
35.6107
37.0987
38.6547
40.2824
41.9855
43.7681
45.6342
47.5884
49.6353
51.7799
54.0274
56.3834
58.854
61.4456
64.1651
67.02
70.0183
73.1691
76.4818
79.9669
83.636
87.5017
91.5776
95.8787
100.421
105.222
110.3
115.675
121.366
127.395
133.781
140.547
147.709
155.287
163.298
171.756
180.673
190.051
199.885
210.146
220.783
231.737
242.943
254.325
265.796
277.267
288.57
299.367
309.333
318.119
325.334
330.519
333.111
333.478
331.023
325.768
318.252
309.453
300.812
295.35
294.532
299.598
305.134
306.71
297.024
279.887
259.498
244.941
239.271
240.008
245.209
252.27
260.079
268.039
275.519
282.533
289.377
296.524
304.516
313.862
324.93
337.835
352.265
367.466
382.371
395.824
406.756
414.227
417.69
417.917
414.281
407.3
397.586
385.807
372.64
358.712
344.582
330.735
317.571
305.38
294.323
284.531
276.076
268.685
262.319
256.812
251.941
247.442
243.025
238.404
233.321
227.577
221.061
213.755
205.808
197.355
188.543
179.576
170.645
161.915
153.506
145.493
137.936
130.884
124.315
118.188
112.47
107.139
102.179
97.5591
93.2407
89.1967
85.4173
81.8833
78.5779
75.4118
57.4212
24.7477
17.7138
14.9917
13.7159
13.0276
12.706
12.5637
12.5492
12.6065
12.7217
12.8713
13.0507
13.2516
13.4747
13.7187
13.9866
14.2808
14.6062
14.9672
15.3692
15.8166
16.3129
16.8599
17.4582
18.1066
18.8028
19.5444
20.3295
21.1567
22.0254
22.9353
23.8867
24.8798
25.9159
26.9966
28.1247
29.3029
30.5344
31.8221
33.169
34.5778
36.0517
37.594
39.2087
40.8998
42.6714
44.528
46.4741
48.5146
50.6548
52.9003
55.2569
57.7311
60.3295
63.0595
65.9286
68.9452
72.118
75.4564
78.9707
82.6718
86.5715
90.6826
95.019
99.5957
104.429
109.536
114.936
120.647
126.692
133.091
139.867
147.043
154.64
162.68
171.184
180.17
189.654
199.645
210.147
221.154
232.654
244.623
257.026
269.815
282.931
296.291
309.784
323.252
336.474
349.165
360.988
371.542
380.365
386.994
390.732
391.722
389.69
384.483
376.574
366.736
355.976
345.209
334.542
323.224
309.887
293.378
274.514
257.17
244.678
239.086
238.487
241.867
248.35
256.627
265.724
274.654
283.018
290.809
298.29
305.918
314.258
323.868
335.201
348.491
363.487
379.348
394.887
408.857
420.118
427.719
431.19
430.935
426.632
418.803
408.072
395.151
380.753
365.544
350.117
334.999
320.617
307.29
295.245
284.694
275.445
267.405
260.553
254.734
249.726
245.265
241.031
236.709
231.998
226.651
220.525
213.577
205.935
197.714
189.097
180.287
171.48
162.838
154.487
146.513
138.976
131.908
125.302
119.136
113.388
108.038
103.088
98.4838
94.1794
90.1469
86.3725
82.8428
79.5336
76.3759
59.8902
25.6449
18.417
15.6401
14.3317
13.6338
13.3182
13.1878
13.1924
13.274
13.4183
13.6001
13.8151
14.054
14.3178
14.6051
14.9194
15.2629
15.6402
16.0556
16.5119
17.0093
17.5512
18.1443
18.793
19.4974
20.2567
21.0692
21.9331
22.8468
23.8092
24.8197
25.8782
26.9848
28.1407
29.3484
30.6111
31.9326
33.3171
34.7684
36.2899
37.8848
39.5566
41.3094
43.1478
45.0767
47.1011
49.2262
51.4578
53.8019
56.2651
58.8545
61.5775
64.4419
67.4562
70.6293
73.9707
77.4902
81.1985
85.1069
89.2274
93.5729
98.1571
102.995
108.102
113.497
119.196
125.22
131.59
138.327
145.455
152.998
160.979
169.423
178.355
187.797
197.77
208.291
219.373
231.028
243.259
256.065
269.436
283.352
297.782
312.685
327.998
343.64
359.494
375.405
391.168
406.517
421.119
434.564
446.364
455.965
462.757
466.037
465.964
461.807
453.536
441.34
425.556
406.485
384.397
359.684
333.009
307.562
284.728
266.44
254.377
248.865
248.047
251.481
257.839
266.037
274.81
283.489
291.729
299.469
306.921
314.515
322.835
332.487
343.976
357.539
372.847
389.004
404.779
418.891
430.161
437.654
440.946
440.156
435.281
426.758
415.233
401.455
386.152
370.008
353.64
337.595
322.355
308.238
295.579
284.338
274.384
265.807
258.559
252.51
247.469
243.127
239.134
235.152
230.837
225.907
220.183
213.604
206.263
198.308
189.915
181.294
172.641
164.125
155.873
147.976
140.493
133.452
126.855
120.689
114.939
109.586
104.612
99.9787
95.6535
91.6054
87.8195
84.2644
80.9188
77.6825
61.5331
26.4161
19.0607
16.2612
14.9371
14.2457
13.9423
13.8316
13.8654
13.9813
14.1655
14.3911
14.6538
14.9431
15.2597
15.6015
15.9721
16.3735
16.8109
17.2886
17.806
18.3637
18.963
19.6078
20.305
21.0628
21.8814
22.76
23.698
24.6945
25.7489
26.8608
28.0301
29.2578
30.5456
31.8968
33.315
34.8049
36.3708
38.0168
39.7466
41.5637
43.4726
45.4782
47.5863
49.8025
52.1329
54.5841
57.1631
59.8775
62.7352
65.7447
68.9149
72.2553
75.7756
79.486
83.3974
87.521
91.8686
96.4526
101.286
106.384
111.76
117.431
123.414
129.728
136.391
143.426
150.854
158.7
166.987
175.741
184.991
194.762
205.082
215.976
227.47
239.584
252.335
265.737
279.792
294.499
309.846
325.814
342.371
359.472
377.053
395.027
413.275
431.643
449.931
467.879
485.157
501.352
515.958
528.373
537.923
543.6
545.212
541.995
533.185
518.569
498.209
472.52
442.474
409.681
376.347
344.906
318.01
297.294
283.186
275.232
272.17
272.978
276.685
282.178
288.656
295.49
302.286
308.921
315.533
322.478
330.304
339.602
350.876
364.362
379.667
395.788
411.461
425.408
436.343
443.408
446.255
444.967
439.697
430.712
418.72
404.461
388.658
372.002
355.137
338.61
322.974
308.425
295.167
283.221
272.725
263.721
256.154
249.924
244.863
240.665
236.961
233.339
229.426
224.908
219.583
213.382
206.354
198.663
190.528
182.126
173.665
165.313
157.2
149.418
142.025
135.051
128.501
122.369
116.64
111.298
106.32
101.676
97.3389
93.2788
89.4743
85.8857
82.4925
79.1984
63.3254
27.122
19.6546
16.8401
15.5181
14.8463
14.5658
14.485
14.5586
14.72
14.9558
15.2375
15.561
15.9145
16.2981
16.7088
17.1496
17.6221
18.131
18.6797
19.2707
19.9043
20.5811
21.3035
22.0752
22.9017
23.7921
24.7479
25.7703
26.8602
28.0185
29.2459
30.5439
31.9148
33.3619
34.8892
36.5011
38.202
39.9963
41.8882
43.8816
45.9814
48.1931
50.523
52.9781
55.5652
58.2918
61.1656
64.1952
67.3894
70.7573
74.3084
78.0527
82.0001
86.1612
90.5466
95.1674
100.035
105.161
110.559
116.241
122.222
128.516
135.141
142.114
149.453
157.179
165.314
173.882
182.909
192.42
202.446
213.017
224.162
235.913
248.298
261.344
275.074
289.504
304.648
320.511
337.092
354.382
372.361
390.995
410.236
430.013
450.23
470.756
491.423
512.011
532.244
551.774
570.17
586.905
601.348
612.752
620.112
622.842
620.139
610.965
594.891
571.909
542.604
508.397
471.485
434.506
400.081
370.323
346.391
328.481
316.129
308.523
304.852
304.102
305.48
308.274
311.899
315.979
320.37
325.146
330.625
337.367
345.969
356.862
370.077
385.036
400.69
415.813
429.132
439.342
445.794
448.187
446.614
441.137
431.91
419.743
405.331
389.381
372.574
355.531
338.796
322.862
307.813
293.98
281.554
270.635
261.26
253.4
247.008
241.923
237.844
234.397
231.137
227.622
223.508
218.577
212.753
206.084
198.705
190.837
182.694
174.484
166.353
158.434
150.818
143.564
136.703
130.243
124.181
118.505
113.198
108.241
103.605
99.2685
95.2001
91.3804
87.7695
84.3477
81.0198
64.5742
27.6874
20.1604
17.3575
16.0527
15.4147
15.1685
15.1296
15.2563
15.4774
15.7803
16.1347
16.5367
16.9733
17.4445
17.9459
18.4801
19.0477
19.6527
20.298
20.9879
21.7254
22.5106
23.3457
24.2331
25.1759
26.1782
27.2447
28.3834
29.6009
30.899
32.2808
33.7508
35.3135
36.9742
38.7379
40.6093
42.593
44.6935
46.9154
49.2641
51.7458
54.3679
57.1382
60.0647
63.1555
66.4192
69.8649
73.5016
77.3388
81.3861
85.653
90.1491
94.8839
99.867
105.108
110.617
116.404
122.48
128.856
135.544
142.557
149.908
157.614
165.691
174.158
183.034
192.343
202.109
212.358
223.119
234.424
246.305
258.797
271.933
285.745
300.262
315.51
331.509
348.275
365.814
384.128
403.21
423.041
443.591
464.81
486.623
508.926
531.573
554.373
577.075
599.366
620.86
641.087
659.483
675.388
688.025
696.46
699.906
697.54
688.359
671.883
648.099
617.649
582.02
543.446
504.498
467.625
434.716
406.862
384.383
367.03
354.243
345.318
339.467
335.972
334.186
333.616
333.94
335.034
337.004
340.22
345.277
352.728
362.794
375.247
389.367
404.11
418.276
430.565
439.992
445.811
447.65
445.833
440.231
430.935
418.772
404.414
388.533
371.769
354.702
337.839
321.594
306.274
292.15
279.401
268.132
258.41
250.258
243.684
238.547
234.552
231.312
228.36
225.216
221.488
216.939
211.491
205.19
198.177
190.651
182.808
174.869
167.008
159.335
151.933
144.865
138.158
131.826
125.867
120.272
115.025
110.109
105.5
101.178
97.1146
93.2897
89.6613
86.2125
82.8522
65.6167
28.1021
20.5596
17.7902
16.5245
15.9373
15.7429
15.7641
15.9635
16.2648
16.6569
17.1081
17.6153
18.1643
18.755
19.3821
20.0477
20.7515
21.4969
22.2862
23.1237
24.0127
24.9576
25.9632
27.0314
28.1646
29.3656
30.636
31.98
33.4055
34.9224
36.5428
38.2769
40.1314
42.1132
44.2284
46.4823
48.8804
51.428
54.1315
56.9981
60.036
63.254
66.6611
70.2663
74.0785
78.1066
82.3598
86.8469
91.5765
96.5569
101.796
107.301
113.079
119.138
125.483
132.121
139.061
146.308
153.871
161.758
169.98
178.548
187.475
196.776
206.467
216.568
227.1
238.089
249.563
261.553
274.094
287.221
300.972
315.382
330.486
346.311
362.883
380.224
398.349
417.275
437.01
457.555
478.901
501.023
523.876
547.389
571.454
595.919
620.577
645.155
669.307
692.607
714.535
734.478
751.726
765.473
774.843
778.975
777.05
768.289
752.212
728.797
698.63
663.04
624.025
583.886
544.85
508.727
476.702
449.322
426.615
408.249
393.676
382.248
373.325
366.353
360.917
356.765
353.842
352.349
352.735
355.488
361.201
369.776
380.806
393.513
406.852
419.626
430.66
438.978
443.935
445.107
443.025
437.244
427.9
415.824
401.646
385.986
369.432
352.526
335.747
319.501
304.112
289.83
276.834
265.248
255.187
246.727
239.934
234.702
230.751
227.67
224.965
222.135
218.763
214.585
209.515
203.603
196.985
189.848
182.391
174.807
167.251
159.86
152.733
145.901
139.397
133.235
127.417
121.936
116.779
111.932
107.374
103.087
99.0441
95.2269
91.5971
88.1401
84.7697
65.7173
28.2639
20.8143
18.1337
16.9401
16.4358
16.3198
16.4339
16.7359
17.1516
17.672
18.2634
18.9238
19.638
20.4067
21.2238
22.0915
23.0088
23.9793
25.005
26.0903
27.2389
28.4558
29.7454
31.113
32.5644
34.1069
35.7407
37.4686
39.2957
41.2298
43.2861
45.4877
47.8478
50.3756
53.0791
55.9649
59.0399
62.3119
65.7894
69.4819
73.3991
77.5507
81.9459
86.5934
91.5013
96.6774
102.129
107.862
113.882
120.194
126.8
133.704
140.908
148.412
156.219
164.328
172.741
181.46
190.486
199.824
209.477
219.454
229.762
240.414
251.424
262.809
274.592
286.799
299.46
312.608
326.28
340.515
355.351
370.824
386.968
403.811
421.382
439.709
458.82
478.738
499.48
521.056
543.463
566.685
590.682
615.39
640.704
666.475
692.496
718.493
744.115
768.923
792.378
813.829
832.515
847.572
858.08
863.127
861.962
854.066
838.825
816.295
786.991
752.015
713.033
672.024
630.997
591.71
555.471
523.065
494.785
470.534
449.944
432.509
417.702
405.065
394.267
385.137
377.711
372.285
369.371
369.48
372.439
378.672
387.54
398.253
409.708
420.72
430.174
437.179
441.06
441.418
438.978
432.871
423.465
411.513
397.576
382.212
365.961
349.33
332.766
316.651
301.288
286.916
273.718
261.842
251.45
242.678
235.645
230.282
226.328
223.361
220.854
218.281
215.217
211.393
206.707
201.204
195.016
188.316
181.292
174.123
166.961
159.915
153.086
146.531
140.273
134.318
128.674
123.337
118.298
113.543
109.056
104.821
100.815
97.0212
93.4022
89.9459
86.5721
65.6959
28.2174
20.9429
18.3938
17.3179
16.9376
16.9471
17.206
17.6648
18.255
18.9711
19.7774
20.6749
21.6475
22.6982
23.8207
25.019
26.2922
27.6454
29.0809
30.6046
32.2208
33.9363
35.7569
37.69
39.7426
41.9215
44.2317
46.6793
49.2725
52.0186
54.9282
58.0228
61.3278
64.8557
68.614
72.6104
76.8564
81.3621
86.1385
91.1954
96.5422
102.187
108.137
114.397
120.973
127.868
135.083
142.62
150.476
158.648
167.132
175.921
185.01
194.391
204.055
213.996
224.205
234.677
245.406
256.387
267.62
279.106
290.849
302.858
315.146
327.729
340.632
353.883
367.514
381.563
396.068
411.071
426.61
442.719
459.431
476.777
494.794
513.518
532.986
553.229
574.274
596.139
618.831
642.344
666.648
691.687
717.365
743.54
770.016
796.535
822.766
848.294
872.601
895.052
914.875
931.167
942.931
949.162
949.033
942.34
928.118
906.548
878.104
843.731
804.829
763.095
720.331
678.224
638.15
601.07
567.491
537.531
511.009
487.579
466.847
448.468
432.205
417.978
405.914
396.367
389.812
386.614
386.841
389.919
396.145
404.35
413.457
422.333
429.945
435.35
437.874
437.433
434.376
427.738
418.204
406.325
392.591
377.506
361.565
345.232
328.92
312.972
297.671
283.243
269.883
257.763
247.087
238.039
230.784
225.291
221.313
218.42
216.063
213.699
210.895
207.388
203.076
197.995
192.262
186.036
179.49
172.786
166.064
159.43
152.968
146.724
140.737
135.033
129.603
124.445
119.554
114.921
110.533
106.376
102.429
98.6781
95.0893
91.6536
88.2997
64.8151
27.9659
20.9467
18.5967
17.6902
17.4897
17.6875
18.1602
18.8505
19.7008
20.7098
21.8401
23.0979
24.4674
25.9565
27.5603
29.2871
31.1383
33.1223
35.2437
37.5112
39.9318
42.5151
45.2696
48.2055
51.3322
54.6585
58.1914
61.9387
65.906
70.0994
74.5279
79.207
84.1604
89.3914
94.9095
100.728
106.856
113.306
120.088
127.209
134.672
142.482
150.64
159.146
167.998
177.193
186.723
196.579
206.749
217.218
227.97
238.989
250.258
261.757
273.47
285.378
297.466
309.718
322.121
334.664
347.34
360.147
373.085
386.162
399.39
412.788
426.379
440.197
454.278
468.662
483.392
498.508
514.05
530.054
546.557
563.597
581.22
599.47
618.389
638.017
658.391
679.541
701.488
724.239
747.777
772.06
797.006
822.492
848.342
874.323
900.133
925.392
949.617
972.213