/*--------------------------------*- C++ -*----------------------------------*\
| =========                 |                                                 |
| \\      /  F ield         | OpenFOAM: The Open Source CFD Toolbox           |
|  \\    /   O peration     | Version:  v1906                                 |
|   \\  /    A nd           | Web:      www.OpenFOAM.com                      |
|    \\/     M anipulation  |                                                 |
\*---------------------------------------------------------------------------*/
FoamFile
{
    version     2.0;
    format      ascii;
    class       volScalarField;
    location    "1600";
    object      k;
}
// * * * * * * * * * * * * * * * * * * * * * * * * * * * * * * * * * * * * * //

dimensions      [0 2 -2 0 0 0 0];


internalField   nonuniform List<scalar> 
12225
(
2.2588
2.22771
2.16479
2.09556
2.03011
1.97063
1.91751
1.8703
1.82824
1.7911
1.75747
1.7285
1.70551
1.68699
1.67043
1.65846
1.64473
1.63958
2.25089
2.14399
1.999
1.8892
1.80209
1.73417
1.67966
1.63407
1.59656
1.56413
1.53801
1.51368
1.49598
1.47714
1.46603
1.45045
1.44365
1.4285
2.25785
2.21948
2.14545
2.07335
2.0064
1.94667
1.89408
1.84731
1.80628
1.76963
1.73765
1.70847
1.68348
1.65994
1.64055
1.62109
1.60652
1.59052
2.2584
2.23556
2.18865
2.13683
2.08599
2.03838
1.99481
1.95498
1.91891
1.88605
1.85643
1.82927
1.80492
1.78237
1.76231
1.74337
1.72709
1.71019
2.25893
2.24471
2.21551
2.18075
2.1448
2.10948
2.07576
2.04391
2.01413
1.98636
1.96064
1.93669
1.9146
1.89402
1.8751
1.85739
1.84148
1.82576
2.25905
2.24845
2.22782
2.20229
2.17486
2.1471
2.11991
2.09371
2.06874
2.04509
2.02283
2.00187
1.98222
1.96378
1.94655
1.93038
1.91535
1.90069
2.25919
2.25084
2.2358
2.21686
2.19601
2.17444
2.15285
2.13166
2.11112
2.09137
2.0725
2.05452
2.03746
2.02128
2.006
1.99156
1.97803
1.96494
2.25923
2.25214
2.24043
2.22562
2.20904
2.1916
2.17388
2.15624
2.13893
2.1221
2.10585
2.09023
2.07527
2.06098
2.04736
2.03441
2.02209
2.01023
2.25928
2.25314
2.24374
2.23193
2.21861
2.20444
2.18987
2.17522
2.16069
2.14642
2.13252
2.11904
2.10603
2.09351
2.0815
2.07001
2.05904
2.04846
2.25929
2.25379
2.24591
2.23616
2.22512
2.21328
2.20101
2.18855
2.1761
2.16378
2.15169
2.13989
2.12842
2.11733
2.10662
2.09631
2.08639
2.07684
2.25933
2.25433
2.24758
2.23938
2.2301
2.22012
2.20971
2.19907
2.18837
2.17771
2.16718
2.15685
2.14675
2.13693
2.12741
2.1182
2.10931
2.1007
2.25934
2.25468
2.24867
2.24149
2.23341
2.22469
2.21557
2.20621
2.19674
2.18726
2.17786
2.16859
2.15949
2.15061
2.14196
2.13357
2.12542
2.11754
2.25937
2.255
2.24958
2.24321
2.23609
2.22842
2.22037
2.21208
2.20366
2.1952
2.18677
2.17843
2.17022
2.16216
2.1543
2.14663
2.13918
2.13194
2.25939
2.25526
2.25034
2.24468
2.23839
2.23163
2.22452
2.21718
2.20969
2.20215
2.1946
2.1871
2.17969
2.1724
2.16525
2.15826
2.15145
2.14483
2.25943
2.25554
2.25105
2.24598
2.24042
2.23445
2.22818
2.22168
2.21505
2.20833
2.20159
2.19487
2.1882
2.18162
2.17514
2.16879
2.16258
2.15652
2.25946
2.25574
2.25159
2.24699
2.24199
2.23666
2.23105
2.22524
2.21929
2.21325
2.20717
2.20109
2.19504
2.18905
2.18314
2.17734
2.17165
2.16609
2.25949
2.25593
2.25202
2.24777
2.24318
2.23831
2.2332
2.2279
2.22246
2.21693
2.21135
2.20575
2.20017
2.19463
2.18915
2.18376
2.17846
2.17327
2.25951
2.25604
2.25227
2.2482
2.24385
2.23923
2.2344
2.22938
2.22424
2.219
2.21371
2.2084
2.20309
2.19782
2.1926
2.18746
2.18239
2.17741
2.2595
2.25599
2.25218
2.24806
2.24365
2.23896
2.23405
2.22896
2.22374
2.21842
2.21305
2.20765
2.20227
2.19692
2.19163
2.18641
2.18129
2.17628
2.2595
2.25587
2.25183
2.24737
2.24254
2.23738
2.23197
2.22636
2.22062
2.21478
2.2089
2.20301
2.19715
2.19133
2.18559
2.17993
2.17437
2.16889
2.25943
2.25552
2.25102
2.24593
2.24033
2.23432
2.228
2.22145
2.21476
2.20799
2.20119
2.19441
2.18769
2.18104
2.17451
2.1681
2.16184
2.15577
2.25942
2.25522
2.25006
2.24406
2.23736
2.23015
2.22258
2.21476
2.20682
2.19882
2.19083
2.1829
2.17508
2.16739
2.15987
2.15251
2.14534
2.13831
2.25935
2.25456
2.24827
2.24068
2.23212
2.22289
2.21323
2.20333
2.19334
2.18335
2.17346
2.16371
2.15416
2.14483
2.13574
2.12692
2.11837
2.11019
2.25936
2.25388
2.24593
2.23608
2.22494
2.21302
2.20067
2.18814
2.17561
2.16321
2.15104
2.13914
2.12758
2.11638
2.10556
2.09515
2.08515
2.07547
2.25926
2.25242
2.24128
2.22724
2.21148
2.19485
2.17788
2.16094
2.14426
2.128
2.11226
2.09708
2.0825
2.06853
2.05515
2.04235
2.03006
2.01848
2.25926
2.25048
2.2342
2.21399
2.19193
2.1692
2.1465
2.12426
2.10273
2.08206
2.06232
2.04353
2.02569
2.00878
1.9928
1.9777
1.96356
1.95028
2.25889
2.24476
2.21641
2.18263
2.14755
2.11293
2.07974
2.04839
2.01904
1.99166
1.96616
1.94244
1.92038
1.89987
1.88073
1.86295
1.84602
1.83035
2.2587
2.2346
2.18651
2.13451
2.0837
2.03553
1.99099
1.95035
1.9133
1.87954
1.84873
1.82067
1.79496
1.77151
1.74992
1.73021
1.71202
1.69636
2.25373
2.17683
2.06324
1.96597
1.88598
1.81865
1.7635
1.71727
1.67768
1.64347
1.61354
1.5875
1.56431
1.54415
1.52583
1.50998
1.49519
1.48145
2.25477
2.20941
2.14711
2.0864
2.02992
1.97847
1.93191
1.89
1.85223
1.81815
1.78725
1.75918
1.73361
1.71019
1.68882
1.66903
1.65101
1.63401
0.0197075
0.0322772
0.0441013
0.0499393
0.0547731
0.0578727
0.0604893
0.0622645
0.063702
0.0646348
0.0652914
0.0655741
0.0655818
0.0653588
0.0647605
0.0636808
0.0620329
0.0596932
0.0565621
0.051825
0.0452618
0.038363
0.0330986
0.0296084
0.0279372
0.0281909
0.0305541
0.0342346
0.0385388
0.0435747
0.0497593
0.0568404
0.0636864
0.0703371
0.0768277
0.0831759
0.0893935
0.0954794
0.101441
0.107289
0.113014
0.118642
0.124193
0.129698
0.135187
0.140699
0.146277
0.151951
0.157572
0.163218
0.168879
0.174577
0.18032
0.186117
0.191975
0.197902
0.2039
0.209973
0.21612
0.222342
0.228632
0.234986
0.241395
0.247845
0.254321
0.260805
0.267273
0.273701
0.280061
0.286329
0.292489
0.298514
0.304393
0.310159
0.315879
0.321567
0.327232
0.332865
0.33845
0.343963
0.349375
0.354647
0.359728
0.364536
0.368968
0.372885
0.376106
0.378101
0.379046
0.379279
0.376853
0.373236
0.369793
0.366511
0.363823
0.362755
0.362551
0.361666
0.358886
0.353217
0.345533
0.33656
0.326772
0.316229
0.305782
0.294785
0.279652
0.258389
0.230915
0.198232
0.157095
0.134502
0.143401
0.179379
0.177586
0.127065
0.099441
0.214084
0.469866
0.624703
0.756052
0.859359
0.946071
1.01767
1.07754
1.12627
1.16494
1.19473
1.21872
1.23498
1.24378
1.2475
1.24575
1.23719
1.22702
1.2111
1.19228
1.17021
1.14372
1.10839
1.0718
1.04248
1.01734
0.997722
0.984495
0.978663
0.977383
0.981278
0.99375
1.01238
1.024
1.04063
1.05388
1.06312
1.06671
1.06546
1.05877
1.04661
1.03045
1.01063
0.987568
0.961821
0.934268
0.905782
0.877083
0.848704
0.821004
0.794198
0.768545
0.744018
0.720944
0.698867
0.678502
0.658542
0.640846
0.620352
0.603762
0.578783
0.561744
0.513624
0.0384638
0.0740906
0.0993901
0.113258
0.124241
0.132509
0.139663
0.145655
0.151
0.155581
0.159621
0.16318
0.166548
0.169941
0.173559
0.177503
0.181879
0.186735
0.192086
0.197743
0.203377
0.208616
0.213371
0.217848
0.222214
0.226439
0.230266
0.233459
0.236021
0.238121
0.239946
0.241749
0.243934
0.246779
0.250429
0.254923
0.260216
0.266218
0.272829
0.279951
0.287493
0.29538
0.303547
0.311941
0.320517
0.329242
0.338086
0.347026
0.356047
0.365146
0.374324
0.383583
0.392925
0.402355
0.411875
0.421487
0.431191
0.440986
0.45087
0.460835
0.470875
0.48098
0.491134
0.501321
0.511519
0.521704
0.531847
0.541915
0.551874
0.561688
0.571327
0.580759
0.589941
0.598859
0.607592
0.616248
0.624893
0.633565
0.642284
0.651055
0.659874
0.668722
0.677572
0.686352
0.694942
0.70318
0.710852
0.717685
0.72339
0.727486
0.729599
0.730073
0.728379
0.72395
0.71759
0.712152
0.706626
0.697416
0.683998
0.667236
0.648589
0.629846
0.612778
0.598712
0.588548
0.577727
0.56393
0.55575
0.562398
0.591871
0.647075
0.710856
0.79672
0.941919
1.07065
1.0447
1.00626
1.06314
1.11597
1.20725
1.3119
1.41828
1.52082
1.61508
1.70068
1.7762
1.8419
1.89702
1.94546
1.98788
2.0224
2.04754
2.06001
2.06407
2.06343
2.05508
2.04046
2.02128
1.99897
1.97542
1.95327
1.93375
1.91713
1.90406
1.8949
1.889
1.88499
1.88222
1.8803
1.88217
1.89346
1.90559
1.90844
1.9025
1.887
1.86293
1.83118
1.79243
1.74777
1.698
1.64398
1.58701
1.52853
1.46985
1.41199
1.35563
1.30118
1.24901
1.1994
1.15247
1.10836
1.06691
1.02836
0.99211
0.957743
0.923423
0.892234
0.856523
0.831874
0.779649
0.0590979
0.107851
0.138644
0.156248
0.170597
0.181877
0.192014
0.201038
0.209662
0.217764
0.225597
0.233105
0.240571
0.248095
0.25591
0.264031
0.272404
0.280799
0.288972
0.296634
0.303608
0.309824
0.315243
0.319792
0.323433
0.326214
0.328298
0.329966
0.331559
0.333414
0.335821
0.339003
0.343122
0.348257
0.354415
0.361533
0.369509
0.37822
0.387537
0.397337
0.407513
0.417973
0.428646
0.439478
0.450428
0.461467
0.472578
0.483753
0.49499
0.506294
0.517671
0.529128
0.540672
0.552308
0.564038
0.575865
0.587787
0.599802
0.611903
0.624083
0.636332
0.64864
0.660993
0.67338
0.685785
0.698195
0.710597
0.722979
0.735332
0.747649
0.759922
0.772156
0.784373
0.796611
0.808909
0.821282
0.833728
0.846237
0.858798
0.871394
0.884006
0.896604
0.909147
0.921554
0.933706
0.94544
0.956539
0.966735
0.975725
0.983187
0.988763
0.991955
0.992961
0.99116
0.985735
0.976708
0.963945
0.947205
0.926984
0.904532
0.881872
0.861528
0.846214
0.838768
0.839988
0.848393
0.865707
0.896566
0.949714
1.03114
1.1449
1.31558
1.57185
1.77067
1.71684
1.53421
1.46108
1.48791
1.60125
1.73797
1.86658
1.97431
2.06095
2.13326
2.19876
2.26246
2.32641
2.39017
2.45043
2.50352
2.54663
2.57835
2.59589
2.60245
2.60202
2.59213
2.57471
2.55209
2.52658
2.50063
2.47634
2.45489
2.43722
2.42396
2.41531
2.41097
2.40969
2.41096
2.4139
2.41655
2.41847
2.41692
2.40822
2.39089
2.36452
2.32918
2.2852
2.23333
2.17473
2.11059
2.04213
1.97089
1.89846
1.82622
1.75517
1.68605
1.61926
1.55534
1.4946
1.4372
1.38319
1.33254
1.2852
1.24099
1.19974
1.16056
1.12404
1.08759
1.0558
1.00544
0.0715228
0.132086
0.168854
0.190177
0.207601
0.221832
0.234658
0.24624
0.257296
0.267932
0.278382
0.288524
0.298319
0.30766
0.316555
0.324984
0.332911
0.340218
0.346834
0.352775
0.358155
0.363089
0.367647
0.371873
0.375844
0.379673
0.383504
0.387506
0.391855
0.396721
0.402245
0.408529
0.41563
0.423554
0.43227
0.44171
0.451789
0.46241
0.473478
0.484905
0.496617
0.508553
0.520669
0.532932
0.545323
0.557832
0.570455
0.583193
0.596052
0.60904
0.622164
0.635431
0.648847
0.662416
0.676141
0.690022
0.704056
0.718239
0.732566
0.74703
0.761622
0.776334
0.791157
0.806081
0.8211
0.836208
0.8514
0.866675
0.882036
0.897486
0.913033
0.928685
0.944452
0.96034
0.976344
0.992443
1.00861
1.02483
1.04106
1.05727
1.07343
1.08947
1.10533
1.12093
1.13612
1.15072
1.16452
1.17723
1.18853
1.19805
1.20535
1.20984
1.21149
1.20991
1.20415
1.19376
1.17856
1.15892
1.13593
1.11164
1.089
1.07165
1.06322
1.06594
1.082
1.11586
1.16617
1.23207
1.32038
1.44971
1.65067
1.92242
2.1036
2.05853
1.85602
1.75436
1.74581
1.85097
1.9956
2.13285
2.24492
2.33304
2.40687
2.47588
2.54589
2.61875
2.69332
2.7666
2.83454
2.89374
2.94146
2.97564
2.9936
2.99966
2.99566
2.98039
2.95619
2.92577
2.89187
2.85706
2.82348
2.79267
2.7659
2.74396
2.72716
2.71528
2.70761
2.70334
2.70128
2.69992
2.69697
2.68953
2.67512
2.65254
2.62103
2.58031
2.53055
2.47253
2.40745
2.3367
2.26175
2.1842
2.10564
2.02742
1.95054
1.87577
1.80369
1.73478
1.66932
1.60744
1.5492
1.49455
1.44341
1.39562
1.35106
1.30925
1.2701
1.23256
1.19721
1.1517
0.0861237
0.155256
0.196279
0.219985
0.239437
0.255596
0.270216
0.283422
0.295781
0.307416
0.318631
0.32944
0.339829
0.349653
0.35883
0.367298
0.375052
0.382086
0.388444
0.394226
0.399594
0.404721
0.409768
0.414867
0.420142
0.425707
0.43166
0.438079
0.445022
0.452533
0.460646
0.469386
0.478762
0.488764
0.499361
0.510504
0.522135
0.534191
0.546611
0.559346
0.572355
0.585611
0.599092
0.612785
0.626685
0.640789
0.655098
0.669617
0.684351
0.699308
0.714493
0.729914
0.745576
0.761481
0.777633
0.794032
0.810677
0.827566
0.844696
0.862064
0.879664
0.897493
0.915547
0.933824
0.95232
0.971037
0.989976
1.00914
1.02854
1.04818
1.06807
1.08822
1.10863
1.1293
1.15021
1.17134
1.19266
1.21413
1.23571
1.25734
1.27896
1.30049
1.32181
1.34278
1.36323
1.38293
1.4016
1.41888
1.43438
1.44765
1.45817
1.46532
1.46862
1.46804
1.46263
1.45198
1.43583
1.41467
1.38992
1.36413
1.3412
1.32596
1.32242
1.33187
1.35844
1.40783
1.48393
1.5882
1.72824
1.91914
2.14101
2.26958
2.23011
2.07475
1.97644
1.96317
2.04786
2.18568
2.32713
2.44868
2.54755
2.63079
2.70685
2.78193
2.8592
2.93926
3.02052
3.09976
3.17331
3.23742
3.28886
3.32447
3.34211
3.34686
3.33815
3.31618
3.28383
3.24413
3.20013
3.15465
3.11009
3.06836
3.031
2.99903
2.97291
2.95259
2.93753
2.92681
2.91897
2.91229
2.90469
2.89348
2.8763
2.85152
2.818
2.77514
2.72294
2.66209
2.59379
2.5196
2.44119
2.3602
2.27819
2.19653
2.11626
2.0382
1.96298
1.89104
1.82264
1.75792
1.6969
1.63956
1.5858
1.53547
1.48843
1.4444
1.40322
1.36414
1.32635
1.28224
0.0919169
0.169461
0.215749
0.242233
0.263725
0.281519
0.297596
0.312086
0.325561
0.338067
0.34986
0.360972
0.371476
0.381303
0.39045
0.398925
0.406809
0.4142
0.421203
0.427906
0.434411
0.440835
0.447318
0.453995
0.460977
0.468354
0.476196
0.484553
0.493458
0.502924
0.512951
0.523532
0.534657
0.546307
0.558455
0.571065
0.584097
0.59751
0.61127
0.625354
0.639748
0.654444
0.669441
0.684734
0.700323
0.716208
0.732395
0.748889
0.765697
0.782826
0.800283
0.818075
0.836206
0.854683
0.873507
0.892682
0.912208
0.932088
0.95232
0.972906
0.993844
1.01514
1.03678
1.05878
1.08115
1.10387
1.12698
1.15047
1.17436
1.19867
1.2234
1.24858
1.27421
1.3003
1.32686
1.35388
1.38132
1.40916
1.43735
1.46583
1.49451
1.52328
1.55195
1.58036
1.60826
1.63538
1.66136
1.68575
1.70804
1.72765
1.74395
1.75623
1.76354
1.76582
1.76255
1.75294
1.73683
1.71464
1.68789
1.65934
1.63325
1.61516
1.61029
1.62216
1.65468
1.71327
1.80614
1.93759
2.09992
2.25618
2.3309
2.29794
2.19516
2.12314
2.11731
2.19298
2.31981
2.46107
2.59202
2.70406
2.79911
2.88301
2.96188
3.04048
3.12165
3.20609
3.29247
3.37752
3.4567
3.52546
3.57992
3.61588
3.63216
3.63416
3.61925
3.58923
3.54738
3.49705
3.44162
3.3842
3.32752
3.27389
3.22514
3.18255
3.14681
3.11803
3.09584
3.0794
3.06732
3.05759
3.04773
3.03513
3.01741
2.99265
2.95934
2.91655
2.86412
2.80263
2.73325
2.65758
2.5774
2.49445
2.41039
2.32669
2.24446
2.16455
2.08759
2.01399
1.94399
1.8777
1.81515
1.7563
1.70105
1.64924
1.60075
1.55528
1.51258
1.47196
1.4322
1.38839
0.102453
0.18509
0.233567
0.261356
0.283898
0.302582
0.319427
0.334618
0.348733
0.361817
0.374102
0.385614
0.396446
0.406591
0.4161
0.425023
0.433487
0.441634
0.449621
0.457571
0.465576
0.473704
0.482027
0.490615
0.499531
0.508822
0.518532
0.528699
0.539354
0.550514
0.562186
0.574363
0.587032
0.600175
0.613771
0.627796
0.642226
0.657041
0.672229
0.687786
0.703714
0.720018
0.736699
0.753762
0.771208
0.789044
0.80728
0.825925
0.844991
0.864488
0.884425
0.904811
0.925655
0.946964
0.968745
0.991004
1.01375
1.03698
1.0607
1.08493
1.10966
1.1349
1.16065
1.18694
1.21376
1.24114
1.26909
1.29763
1.32679
1.35658
1.38704
1.41819
1.45005
1.48264
1.51598
1.55006
1.58489
1.62044
1.6567
1.69359
1.73102
1.76883
1.80684
1.84483
1.88252
1.91958
1.95554
1.98989
2.02198
2.05108
2.0764
2.09704
2.11208
2.12021
2.12169
2.11564
2.10156
2.07975
2.05165
2.01984
1.98831
1.96233
1.94819
1.95077
1.97504
2.02408
2.10126
2.19998
2.28887
2.32687
2.30943
2.24659
2.20713
2.21822
2.2952
2.41727
2.55784
2.69616
2.821
2.9297
3.02477
3.11093
3.19324
3.27585
3.36132
3.45025
3.54102
3.63009
3.71279
3.78405
3.83937
3.8738
3.88783
3.88481
3.86229
3.82309
3.77073
3.70891
3.64134
3.57144
3.50229
3.43655
3.37638
3.32329
3.2782
3.24146
3.21284
3.1916
3.17628
3.16473
3.15429
3.14233
3.12624
3.10369
3.07276
3.03219
2.98157
2.92134
2.85265
2.77713
2.69664
2.61306
2.52817
2.44353
2.36036
2.27957
2.20178
2.12737
2.05656
1.98947
1.9261
1.86639
1.81023
1.75745
1.70788
1.66126
1.61732
1.57536
1.53409
1.48975
0.105237
0.194009
0.245864
0.275693
0.299822
0.319682
0.337497
0.353455
0.368216
0.381828
0.394573
0.406495
0.417747
0.428369
0.438448
0.448044
0.457291
0.466332
0.475341
0.484468
0.493831
0.503505
0.513536
0.523942
0.53473
0.545898
0.557451
0.569401
0.581765
0.594563
0.607807
0.621501
0.635641
0.650221
0.665234
0.680673
0.696533
0.712812
0.729514
0.746645
0.764215
0.782232
0.800705
0.819643
0.839056
0.85896
0.879369
0.900299
0.921763
0.943776
0.96635
0.989498
1.01323
1.03756
1.0625
1.08806
1.11425
1.14108
1.16856
1.1967
1.22551
1.25502
1.28524
1.31618
1.34787
1.38033
1.41359
1.44769
1.48265
1.51852
1.55534
1.59314
1.63197
1.67186
1.71285
1.75495
1.79819
1.84255
1.888
1.93448
1.98188
2.03007
2.07888
2.12807
2.17731
2.2262
2.27424
2.32083
2.36525
2.40667
2.44413
2.47657
2.50283
2.52176
2.53168
2.53301
2.52471
2.5066
2.47972
2.44625
2.40956
2.37392
2.34383
2.32303
2.31366
2.31424
2.32229
2.32903
2.32552
2.30132
2.26723
2.25224
2.27502
2.35957
2.4818
2.62292
2.76678
2.90256
3.02497
3.13313
3.22917
3.31683
3.40045
3.48395
3.57014
3.66013
3.75278
3.8442
3.92883
4.00085
4.05519
4.08655
4.09708
4.08726
4.05617
4.00711
3.94386
3.87044
3.79087
3.70886
3.62777
3.55064
3.47992
3.41734
3.36414
3.32089
3.28752
3.26333
3.24674
3.23537
3.22633
3.21708
3.2046
3.18619
3.15946
3.12277
3.07548
3.0179
2.95115
2.87689
2.79711
2.71384
2.62898
2.54417
2.46073
2.37962
2.3015
2.22677
2.15565
2.08822
2.02448
1.96434
1.90768
1.85432
1.8041
1.75672
1.71185
1.66872
1.62618
1.58136
0.110328
0.203362
0.257073
0.288249
0.313551
0.334365
0.353033
0.369747
0.385217
0.399485
0.412855
0.425372
0.437217
0.448458
0.459228
0.469613
0.479741
0.489732
0.499749
0.509941
0.520445
0.531357
0.542741
0.554615
0.566969
0.579776
0.593008
0.606645
0.620679
0.635112
0.649949
0.665195
0.680856
0.696935
0.713439
0.730378
0.747767
0.765618
0.783947
0.802768
0.822099
0.841954
0.862349
0.883302
0.904831
0.926957
0.949699
0.973076
0.997108
1.02181
1.0472
1.0733
1.10013
1.1277
1.15602
1.18513
1.21504
1.24576
1.27732
1.30975
1.34305
1.37727
1.41241
1.44853
1.48564
1.5238
1.56302
1.60337
1.64489
1.68763
1.73164
1.77696
1.82366
1.87177
1.92133
1.97235
2.02486
2.07883
2.13423
2.19101
2.24908
2.30831
2.36852
2.42945
2.49077
2.55206
2.61284
2.67248
2.73027
2.78534
2.83668
2.88312
2.92334
2.95591
2.97944
2.99196
2.99398
2.98444
2.96325
2.93168
2.89187
2.84649
2.79813
2.74765
2.69372
2.63355
2.56449
2.4879
2.41433
2.35881
2.33585
2.35479
2.43045
2.54466
2.68026
2.82374
2.96487
3.09705
3.21679
3.32338
3.41853
3.50557
3.58866
3.67179
3.7579
3.84815
3.94099
4.03223
4.11593
4.18593
4.23666
4.26309
4.26814
4.24994
4.20941
4.15003
4.07578
3.99097
3.89992
3.80646
3.71417
3.62621
3.54547
3.47425
3.41396
3.36544
3.32877
3.30328
3.28735
3.27835
3.27311
3.2685
3.26148
3.24909
3.22828
3.19706
3.15454
3.1009
3.03725
2.96534
2.88727
2.80522
2.72122
2.63703
2.55402
2.47321
2.39532
2.32079
2.24981
2.18247
2.11874
2.05852
2.00166
1.94797
1.89727
1.84925
1.8036
1.75957
1.7161
1.67082
0.11275
0.20993
0.265942
0.298677
0.325272
0.347118
0.366717
0.384256
0.40051
0.415519
0.429618
0.442847
0.455407
0.467373
0.478905
0.490101
0.501103
0.512026
0.523009
0.534174
0.545661
0.557583
0.57002
0.583005
0.596544
0.610618
0.625194
0.640238
0.655724
0.671635
0.687966
0.704715
0.721885
0.739482
0.757517
0.776011
0.79499
0.814484
0.834521
0.855126
0.876324
0.898136
0.920583
0.943686
0.967471
0.991964
1.01719
1.04317
1.06993
1.09749
1.12588
1.15512
1.18524
1.21627
1.24824
1.28116
1.31508
1.35002
1.38601
1.42308
1.46127
1.50061
1.54113
1.58289
1.62591
1.67025
1.71595
1.76306
1.81164
1.86175
1.91343
1.96674
2.02174
2.07847
2.13696
2.19725
2.25934
2.32323
2.38888
2.45621
2.52511
2.59544
2.66699
2.7395
2.81266
2.88609
2.9593
3.03175
3.10275
3.17148
3.23695
3.29798
3.35318
3.40101
3.43977
3.46787
3.48299
3.4855
3.47405
3.44814
3.40831
3.35537
3.28998
3.21212
3.12109
3.01655
2.90046
2.78022
2.66898
2.60062
2.58179
2.61431
2.68997
2.79332
2.9141
3.04249
3.1705
3.29222
3.404
3.50467
3.59528
3.67855
3.75815
3.83785
3.92064
4.00798
4.09842
4.18717
4.26768
4.33338
4.37819
4.39873
4.39622
4.36871
4.31846
4.24883
4.16401
4.06845
3.96646
3.86245
3.76008
3.66291
3.57409
3.49647
3.43123
3.37927
3.34079
3.3152
3.30093
3.29532
3.29545
3.29786
3.29844
3.29367
3.28018
3.25565
3.21898
3.17022
3.11051
3.04172
2.96608
2.88593
2.80342
2.72041
2.63836
2.55835
2.48111
2.40711
2.33656
2.26953
2.20601
2.14588
2.08901
2.03519
1.98422
1.9358
1.88953
1.84468
1.80036
1.75465
0.115915
0.216392
0.274043
0.308039
0.335763
0.358576
0.379084
0.397461
0.414533
0.430335
0.445227
0.459248
0.472607
0.485374
0.497718
0.50974
0.521588
0.533375
0.545236
0.557291
0.569663
0.582457
0.595761
0.609627
0.624082
0.639123
0.654735
0.670891
0.687566
0.704738
0.722396
0.74053
0.759138
0.778223
0.797799
0.81789
0.838532
0.859765
0.881627
0.904154
0.927373
0.951307
0.97598
1.00142
1.02766
1.05472
1.08264
1.11145
1.14118
1.17185
1.20351
1.2362
1.26993
1.30476
1.34072
1.37784
1.41617
1.45574
1.49659
1.53876
1.5823
1.62723
1.67361
1.72147
1.77087
1.82185
1.87447
1.92877
1.98481
2.04265
2.10235
2.16394
2.22749
2.29304
2.36061
2.43022
2.50186
2.57552
2.65112
2.72859
2.80781
2.88861
2.97079
3.0541
3.13823
3.2228
3.30739
3.39147
3.4744
3.55542
3.63362
3.70787
3.77683
3.83896
3.89247
3.93538
3.96563
3.98068
3.98035
3.96211
3.92488
3.86797
3.7911
3.69441
3.57943
3.45037
3.3154
3.18656
3.07901
3.00934
2.98185
2.99229
3.03657
3.10681
3.19537
3.29475
3.39803
3.49941
3.59488
3.68266
3.76301
3.83795
3.91066
3.98456
4.06245
4.14541
4.23128
4.31483
4.38927
4.44791
4.48476
4.49774
4.48572
4.44825
4.3877
4.30797
4.21323
4.10813
3.99729
3.88558
3.7761
3.67233
3.57753
3.49438
3.42451
3.36949
3.32982
3.30509
3.29381
3.29287
3.2988
3.3088
3.31863
3.32308
3.31824
3.30182
3.27189
3.22885
3.17387
3.10894
3.03646
2.95892
2.87859
2.79742
2.71693
2.63827
2.56218
2.48914
2.41938
2.35299
2.28995
2.23015
2.17346
2.11967
2.06857
2.01982
1.97308
1.92766
1.8828
1.83683
0.117989
0.221375
0.28071
0.315968
0.344812
0.368587
0.39001
0.409237
0.427146
0.443767
0.459487
0.474337
0.488539
0.502152
0.515345
0.528212
0.540902
0.553526
0.566222
0.579105
0.592293
0.605877
0.619938
0.634542
0.649738
0.665547
0.681976
0.699014
0.716649
0.734868
0.753662
0.773023
0.792949
0.813445
0.834531
0.856239
0.878607
0.901677
0.925492
0.950086
0.975484
1.00171
1.0288
1.05678
1.08568
1.11556
1.14643
1.17834
1.21134
1.24545
1.28072
1.3172
1.35493
1.39396
1.43432
1.47606
1.51923
1.56386
1.61
1.65768
1.70696
1.75787
1.81044
1.86474
1.92079
1.97864
2.03835
2.09996
2.16351
2.22907
2.29667
2.36637
2.43821
2.51222
2.58844
2.66688
2.74753
2.83035
2.91528
3.00222
3.09104
3.18153
3.27349
3.36664
3.46066
3.55519
3.64978
3.74393
3.83703
3.92835
4.01702
4.10197
4.18195
4.25544
4.32065
4.37549
4.41763
4.44399
4.45297
4.44226
4.40888
4.35135
4.26921
4.16356
4.03827
3.9007
3.76145
3.63316
3.52769
3.45288
3.41236
3.40201
3.41799
3.45585
3.51041
3.57628
3.64813
3.72136
3.79263
3.86024
3.92409
3.98554
4.04717
4.11181
4.18171
4.25749
4.33631
4.41224
4.47828
4.52767
4.55492
4.5578
4.53536
4.48813
4.41883
4.33166
4.23011
4.11853
4.00147
3.88331
3.76721
3.65718
3.5566
3.46835
3.39477
3.3376
3.29764
3.27475
3.26738
3.27132
3.28487
3.30431
3.32393
3.33845
3.34325
3.33551
3.31343
3.27663
3.22692
3.16641
3.09766
3.02329
2.94569
2.86689
2.78847
2.71159
2.63705
2.56531
2.49663
2.43112
2.36875
2.30945
2.25307
2.19942
2.1483
2.09937
2.05227
2.00632
1.96089
1.91462
0.120227
0.225794
0.286403
0.322687
0.352494
0.377136
0.399413
0.419455
0.438185
0.455622
0.472177
0.487874
0.502942
0.517432
0.531509
0.545258
0.558822
0.572308
0.585848
0.59955
0.613526
0.627867
0.642663
0.65798
0.673869
0.690375
0.70753
0.725346
0.743833
0.762995
0.782833
0.80335
0.824554
0.846462
0.869105
0.892518
0.91674
0.941809
0.96776
0.994624
1.02243
1.05119
1.08097
1.11179
1.14369
1.17673
1.21094
1.24637
1.28306
1.32106
1.36042
1.40118
1.4434
1.48712
1.53237
1.57921
1.62767
1.67779
1.72961
1.78316
1.83849
1.89561
1.95458
2.01543
2.07819
2.14291
2.20962
2.27837
2.3492
2.42216
2.4973
2.57466
2.65428
2.7362
2.82044
2.90702
2.9959
3.08704
3.18036
3.27572
3.37299
3.47196
3.57241
3.67405
3.77658
3.8796
3.98267
4.08526
4.18676
4.28639
4.38329
4.47638
4.56441
4.64587
4.71898
4.78167
4.83147
4.86555
4.88112
4.87613
4.84708
4.79226
4.71138
4.60627
4.48193
4.34667
4.211
4.0858
3.9801
3.89932
3.84473
3.81507
3.8067
3.81598
3.83918
3.87222
3.91123
3.95306
3.99553
4.03758
4.0793
4.12204
4.16835
4.22079
4.28076
4.34741
4.41667
4.4822
4.53684
4.57405
4.58999
4.58336
4.55313
4.49871
4.4229
4.32936
4.22153
4.10406
3.98133
3.85747
3.73629
3.62154
3.51663
3.42464
3.34823
3.28947
3.24961
3.22894
3.22576
3.23511
3.25738
3.28667
3.31678
3.34189
3.35704
3.35798
3.34452
3.31453
3.27058
3.21501
3.15056
3.07996
3.00571
2.92987
2.85407
2.7795
2.70695
2.63692
2.56968
2.50534
2.44392
2.38533
2.32946
2.27612
2.22511
2.1761
2.12876
2.08248
2.03675
1.99035
0.121768
0.228897
0.290566
0.327734
0.358397
0.383829
0.406901
0.427721
0.447247
0.465493
0.482887
0.499447
0.515409
0.530814
0.545827
0.560519
0.575029
0.58945
0.603908
0.618502
0.633341
0.648516
0.664119
0.680221
0.69689
0.714176
0.732118
0.750763
0.770156
0.790319
0.811272
0.83303
0.855621
0.879079
0.903445
0.928756
0.95505
0.982358
1.01071
1.04013
1.07066
1.10232
1.13517
1.16925
1.20461
1.24129
1.27933
1.31879
1.35971
1.40213
1.44611
1.49169
1.5389
1.58779
1.63838
1.69072
1.74483
1.80074
1.85848
1.91808
1.97955
2.04293
2.10824
2.1755
2.24475
2.31602
2.38934
2.46475
2.54228
2.62198
2.70389
2.78806
2.87453
2.96333
3.05449
3.14801
3.24386
3.34199
3.4423
3.54468
3.64896
3.75494
3.86239
3.97105
4.0806
4.19066
4.30077
4.4104
4.51887
4.62539
4.72899
4.82855
4.92273
5.00997
5.08849
5.1562
5.21074
5.24951
5.26957
5.26893
5.24449
5.19478
5.11981
5.02167
4.9053
4.77834
4.64985
4.52875
4.42216
4.33439
4.26684
4.21863
4.1875
4.17066
4.1649
4.16698
4.17411
4.18425
4.19622
4.2098
4.22579
4.24629
4.27423
4.3118
4.35911
4.41372
4.4705
4.52255
4.56404
4.59021
4.59654
4.58182
4.54326
4.4815
4.39932
4.30011
4.18776
4.06646
3.94031
3.81325
3.68904
3.57133
3.46356
3.36892
3.29031
3.23023
3.19049
3.17198
3.17254
3.18782
3.21892
3.25821
3.29893
3.33458
3.35968
3.37013
3.36457
3.34253
3.30452
3.25426
3.19457
3.12825
3.05785
2.98547
2.91277
2.84093
2.77076
2.70277
2.63725
2.57434
2.51405
2.45635
2.40112
2.34821
2.29741
2.24844
2.20097
2.15443
2.10841
2.06186
0.123038
0.230842
0.293184
0.330996
0.362347
0.38845
0.412232
0.43377
0.454061
0.473104
0.491347
0.508798
0.525699
0.542086
0.55812
0.573862
0.589444
0.604947
0.62049
0.636164
0.652074
0.668308
0.684957
0.702099
0.719806
0.738145
0.75718
0.776968
0.797574
0.819047
0.84143
0.864763
0.889086
0.91445
0.940909
0.968506
0.997277
1.02725
1.05846
1.09094
1.12472
1.15984
1.19636
1.23432
1.27377
1.31474
1.35728
1.40143
1.44723
1.49471
1.54392
1.59487
1.6476
1.70212
1.75846
1.81664
1.87666
1.93854
2.0023
2.06793
2.13545
2.20488
2.27622
2.3495
2.42473
2.50194
2.58114
2.66238
2.74569
2.83112
2.9187
3.0085
3.10056
3.19492
3.2916
3.39059
3.49186
3.59533
3.70091
3.80848
3.91789
4.02898
4.14154
4.25534
4.37008
4.48542
4.6009
4.71598
4.82998
4.94206
5.05119
5.15617
5.25557
5.34775
5.43082
5.50268
5.56102
5.60338
5.62725
5.63051
5.61108
5.56784
5.50101
5.41254
5.30665
5.18965
5.06885
4.95141
4.84319
4.74804
4.66764
4.6019
4.54939
4.50793
4.47489
4.44775
4.4245
4.40388
4.38557
4.37018
4.35952
4.35665
4.3644
4.38475
4.41645
4.45592
4.49761
4.53626
4.56565
4.57991
4.57613
4.55282
4.50647
4.43878
4.35201
4.24943
4.13476
4.01186
3.88452
3.75642
3.63115
3.5122
3.40293
3.30658
3.2263
3.16499
3.12513
3.10839
3.11198
3.13309
3.17249
3.22149
3.27253
3.31838
3.35305
3.3726
3.37436
3.36054
3.32898
3.2844
3.2299
3.16835
3.10231
3.03391
2.96479
2.89614
2.82877
2.76319
2.69973
2.63853
2.57964
2.52305
2.46868
2.41638
2.36597
2.31718
2.26972
2.22309
2.17697
2.13044
0.12315
0.230898
0.293773
0.332092
0.364041
0.390747
0.415195
0.437439
0.458516
0.478404
0.497571
0.516013
0.533984
0.55151
0.568755
0.585771
0.602686
0.619571
0.63654
0.653676
0.671082
0.688843
0.70705
0.725784
0.745127
0.765158
0.785956
0.807597
0.830138
0.853634
0.878161
0.903784
0.930562
0.958572
0.987883
1.01855
1.0506
1.08408
1.11901
1.15543
1.19339
1.23292
1.27407
1.31688
1.36138
1.40759
1.45556
1.50529
1.55682
1.61017
1.66533
1.72233
1.78116
1.84183
1.90433
1.96865
2.03479
2.10274
2.17249
2.24403
2.31735
2.39246
2.46935
2.54802
2.6285
2.71079
2.79492
2.88093
2.96886
3.05876
3.15068
3.24469
3.34083
3.43914
3.53964
3.64231
3.74711
3.85397
3.96283
4.0736
4.18616
4.3004
4.41612
4.53314
4.65117
4.7699
4.88891
5.00765
5.12547
5.24151
5.35477
5.46401
5.5678
5.66445
5.75201
5.82829
5.89093
5.93745
5.96552
5.97316
5.95922
5.92286
5.86438
5.78557
5.68978
5.58191
5.46763
5.35266
5.24193
5.13902
5.04593
4.96314
4.88989
4.82459
4.76525
4.71
4.65749
4.6072
4.5595
4.51592
4.47915
4.45267
4.4393
4.44002
4.45242
4.47465
4.50118
4.52553
4.54131
4.54367
4.53123
4.49939
4.44668
4.37444
4.28484
4.18087
4.06593
3.94347
3.81694
3.68974
3.56523
3.44669
3.33735
3.24041
3.15913
3.09685
3.05671
3.0413
3.04733
3.07354
3.12045
3.17841
3.23906
3.29442
3.33805
3.36566
3.37534
3.36786
3.3438
3.30528
3.2563
3.19993
3.1387
3.07472
3.0096
2.94452
2.88028
2.81742
2.75627
2.69701
2.63972
2.58441
2.53103
2.47945
2.42954
2.38103
2.3337
2.28706
2.24089
2.19436
0.1231
0.229979
0.292574
0.331016
0.363311
0.390484
0.415558
0.438533
0.460451
0.481271
0.501488
0.521086
0.540335
0.559252
0.578012
0.596659
0.615327
0.634081
0.653036
0.672271
0.691888
0.711973
0.732619
0.75391
0.775938
0.798786
0.822537
0.847257
0.87301
0.899868
0.927877
0.95708
0.987582
1.01953
1.05301
1.08805
1.12467
1.16292
1.20284
1.24447
1.28784
1.33298
1.37992
1.42868
1.47927
1.53169
1.58596
1.64208
1.70003
1.75981
1.8214
1.88479
1.94994
2.01684
2.08545
2.15574
2.22768
2.30125
2.37641
2.45313
2.53139
2.61119
2.6925
2.77533
2.85969
2.94561
3.0331
3.12223
3.21303
3.30559
3.39996
3.49621
3.59439
3.69454
3.79665
3.9007
4.00668
4.11453
4.22423
4.33573
4.44896
4.5638
4.68015
4.79782
4.9166
5.0362
5.15622
5.27616
5.39538
5.51307
5.62825
5.73976
5.84621
5.94598
6.03716
6.11756
6.18474
6.23611
6.26919
6.28198
6.27366
6.24391
6.1926
6.12154
6.03349
5.93229
5.82242
5.70848
5.59468
5.48433
5.37954
5.28117
5.18895
5.10183
5.01842
4.93747
4.85828
4.78095
4.70655
4.63733
4.57653
4.52771
4.49333
4.47379
4.46778
4.47217
4.48258
4.49209
4.49461
4.48725
4.46577