/*--------------------------------*- C++ -*----------------------------------*\
| =========                 |                                                 |
| \\      /  F ield         | OpenFOAM: The Open Source CFD Toolbox           |
|  \\    /   O peration     | Version:  v1906                                 |
|   \\  /    A nd           | Web:      www.OpenFOAM.com                      |
|    \\/     M anipulation  |                                                 |
\*---------------------------------------------------------------------------*/
FoamFile
{
    version     2.0;
    format      ascii;
    class       volScalarField;
    location    "1600";
    object      nut;
}
// * * * * * * * * * * * * * * * * * * * * * * * * * * * * * * * * * * * * * //

dimensions      [0 2 -1 0 0 0 0];


internalField   nonuniform List<scalar> 
12225
(
5.38055e-05
5.3434e-05
5.26739e-05
5.18249e-05
5.10091e-05
5.02563e-05
4.95744e-05
4.89603e-05
4.84066e-05
4.79123e-05
4.74604e-05
4.70676e-05
4.67536e-05
4.64989e-05
4.62702e-05
4.61041e-05
4.59129e-05
4.58409e-05
0.000743512
0.000277295
0.000212069
0.000190351
0.000177861
0.000170971
0.000165721
0.000161461
0.000158133
0.000155362
0.00015326
0.000151252
0.000149953
0.000148188
0.000147677
0.000145966
0.000146541
0.00014466
0.00336964
0.000967916
0.000670258
0.000563761
0.000506714
0.000473408
0.000449756
0.000431763
0.000418594
0.000408068
0.000399423
0.000392148
0.00038627
0.000380781
0.000376876
0.000372206
0.000370658
0.000366176
0.00784556
0.00229534
0.00147524
0.00117731
0.00102254
0.000930453
0.000868879
0.000824066
0.000791472
0.0007658
0.000745056
0.00072865
0.000715379
0.000703944
0.000694813
0.000686004
0.00068109
0.000671416
0.0127613
0.00433023
0.00271183
0.00210521
0.00179137
0.00160259
0.00147691
0.0013866
0.00131963
0.00126777
0.00122626
0.00119256
0.00116556
0.00114202
0.00112252
0.00110543
0.00109321
0.00107574
0.0171129
0.0069351
0.00437054
0.00334542
0.00280621
0.00247791
0.00225821
0.00210071
0.00198307
0.00189202
0.00181941
0.00176026
0.00171185
0.00167093
0.00163634
0.00160654
0.00158156
0.00155456
0.0205943
0.00988668
0.00641916
0.00491103
0.00409415
0.00358887
0.00324767
0.0030022
0.00281784
0.00267465
0.0025603
0.00246698
0.00238986
0.00232495
0.00226977
0.00222231
0.002182
0.00214061
0.0232403
0.0129323
0.00876092
0.00676372
0.0056362
0.00492306
0.00443495
0.00408097
0.00381333
0.00360436
0.00343688
0.00329981
0.00318592
0.00308987
0.00300794
0.00293733
0.0028762
0.00281664
0.0252062
0.0158697
0.0112823
0.0088553
0.00741565
0.00647956
0.00582779
0.00534992
0.00498563
0.00469936
0.00446882
0.00427942
0.00412136
0.00398765
0.00387323
0.00377435
0.00368798
0.00360659
0.0266538
0.0185549
0.0138517
0.0111045
0.00938213
0.00822479
0.00740176
0.00678964
0.0063181
0.00594456
0.00564183
0.00539186
0.00518228
0.00500427
0.00485138
0.00471876
0.00460212
0.00449487
0.0277218
0.0209142
0.0163544
0.0134262
0.0114802
0.0101236
0.00913498
0.00838715
0.00780386
0.00733737
0.00695649
0.00664009
0.00637345
0.00614598
0.00594985
0.00577906
0.00562842
0.00549163
0.0284462
0.0227406
0.0184756
0.0155085
0.0134283
0.0119252
0.0108025
0.00993801
0.0092548
0.00870282
0.0082485
0.00786865
0.00754679
0.00727095
0.00703213
0.00682342
0.00663885
0.0064725
0.029007
0.0243018
0.0204352
0.0175351
0.0153897
0.0137798
0.0125445
0.0115743
0.0107961
0.0101602
0.00963197
0.00918709
0.00880787
0.0084812
0.00819716
0.00794798
0.00772718
0.0075287
0.0294883
0.0257541
0.0223954
0.0196731
0.0175363
0.0158612
0.0145336
0.0134653
0.0125924
0.0118686
0.0112605
0.0107435
0.0102995
0.00991461
0.00957812
0.00928165
0.00901821
0.00878182
0.0298833
0.0270272
0.024237
0.0217946
0.0197539
0.0180744
0.0166927
0.0155487
0.0145928
0.0137862
0.013099
0.0125082
0.011996
0.0115486
0.011155
0.0108064
0.0104955
0.0102161
0.0301872
0.0280589
0.0258246
0.0237225
0.0218528
0.020234
0.0188474
0.0176623
0.0166469
0.0157729
0.0150163
0.0143575
0.0137802
0.0132716
0.0128209
0.0124195
0.01206
0.0117366
0.0303975
0.0287993
0.0270223
0.0252447
0.0235733
0.0220566
0.0207067
0.0195169
0.0184722
0.017555
0.0167484
0.0160369
0.015407
0.0148471
0.0143474
0.0138997
0.013497
0.0131337
0.030504
0.0291832
0.0276653
0.0260897
0.0245559
0.0231218
0.0218131
0.020636
0.0195853
0.0186506
0.0178198
0.0170805
0.0164213
0.015832
0.0153035
0.0148281
0.0143988
0.0140097
0.0304705
0.0290642
0.0274675
0.0258314
0.024257
0.0227987
0.0214782
0.0202975
0.0192484
0.0183185
0.0174943
0.0167624
0.0161111
0.0155296
0.0150089
0.0145413
0.0141201
0.01374
0.03023
0.0282107
0.026071
0.0240357
0.0222063
0.0206073
0.0192266
0.0180385
0.0170148
0.0161295
0.0153601
0.0146878
0.014097
0.0135751
0.0131119
0.0126988
0.0123292
0.0119975
0.0298191
0.0268238
0.0239435
0.0214555
0.0193969
0.0177148
0.0163381
0.0152023
0.0142558
0.0134585
0.01278
0.012197
0.0116918
0.0112505
0.0108624
0.0105191
0.0102142
0.00994347
0.0291383
0.0247055
0.0209802
0.0181265
0.0159795
0.0143476
0.0130829
0.0120821
0.0112743
0.0106108
0.0100573
0.00958925
0.00918886
0.00884279
0.00854098
0.00827584
0.00804165
0.00783479
0.0280346
0.0217136
0.0172814
0.0143331
0.0123257
0.0109022
0.00985203
0.00905024
0.00842032
0.00791348
0.00749748
0.00715028
0.00685634
0.00660444
0.00638618
0.00619542
0.0060275
0.00588122
0.0262537
0.0178167
0.013145
0.0104876
0.00884519
0.00774962
0.00697344
0.00639755
0.00595451
0.00560365
0.00531921
0.00508417
0.00488682
0.00471888
0.00457419
0.00444831
0.00433764
0.00424137
0.0233807
0.0132076
0.009023
0.00699267
0.00583749
0.00510173
0.00459517
0.00422679
0.00394742
0.00372846
0.00355244
0.00340794
0.00328734
0.00318522
0.00309742
0.00302124
0.00295353
0.00289555
0.0189042
0.00845945
0.00545259
0.00418655
0.0035086
0.0030895
0.00280614
0.00260303
0.00245034
0.00233123
0.00223594
0.00215796
0.00209318
0.00203852
0.00199147
0.00195103
0.00191502
0.00188454
0.012583
0.00439275
0.002791
0.00217471
0.00185394
0.00165752
0.00152594
0.00143286
0.00136287
0.00130809
0.00126448
0.00122881
0.00119951
0.00117468
0.00115292
0.00113475
0.00111758
0.00110327
0.00562421
0.00171422
0.00115753
0.000947666
0.000839084
0.000771639
0.000726928
0.000695817
0.000671008
0.000650918
0.000634999
0.000621731
0.000610347
0.00060078
0.000592068
0.000584946
0.000577765
0.000572897
0.00117097
0.000438392
0.000330795
0.000288789
0.000267444
0.000253683
0.000246243
0.000240115
0.000234943
0.000230539
0.000226746
0.00022356
0.000220697
0.000218363
0.000216085
0.000214377
0.000212395
0.000210884
7.08584e-05
7.01421e-05
6.91461e-05
6.81616e-05
6.72327e-05
6.63751e-05
6.55894e-05
6.48741e-05
6.42227e-05
6.3629e-05
6.30861e-05
6.25887e-05
6.21322e-05
6.17111e-05
6.13243e-05
6.0964e-05
6.06341e-05
6.0321e-05
8.32994e-06
2.27362e-05
2.65522e-05
2.82386e-05
2.95565e-05
3.03675e-05
3.10317e-05
3.14708e-05
3.18186e-05
3.20385e-05
3.2189e-05
3.22389e-05
3.22297e-05
3.21702e-05
3.20179e-05
3.17455e-05
3.13297e-05
3.07322e-05
2.99258e-05
2.86686e-05
2.68387e-05
2.47143e-05
2.29499e-05
2.16783e-05
2.09875e-05
2.09783e-05
2.17194e-05
2.29476e-05
2.43159e-05
2.58153e-05
2.75273e-05
2.94626e-05
3.12176e-05
3.2828e-05
3.43229e-05
3.57211e-05
3.70361e-05
3.8276e-05
3.94492e-05
4.05641e-05
4.16229e-05
4.26345e-05
4.36059e-05
4.45447e-05
4.54582e-05
4.63542e-05
4.72407e-05
4.81261e-05
4.89834e-05
4.98273e-05
5.06568e-05
5.14757e-05
5.22857e-05
5.30886e-05
5.38858e-05
5.46784e-05
5.5467e-05
5.62523e-05
5.70343e-05
5.78131e-05
5.85883e-05
5.93593e-05
6.01252e-05
6.08847e-05
6.16361e-05
6.23778e-05
6.31073e-05
6.38221e-05
6.45194e-05
6.51966e-05
6.58523e-05
6.64854e-05
6.70945e-05
6.76794e-05
6.82517e-05
6.88131e-05
6.93656e-05
6.99087e-05
7.04412e-05
7.09612e-05
7.14662e-05
7.19529e-05
7.24172e-05
7.28528e-05
7.3251e-05
7.36003e-05
7.38839e-05
7.40481e-05
7.40767e-05
7.40924e-05
7.39339e-05
7.34735e-05
7.30819e-05
7.26907e-05
7.23048e-05
7.20718e-05
7.20015e-05
7.18735e-05
7.15911e-05
7.10194e-05
7.02185e-05
6.92509e-05
6.81959e-05
6.70059e-05
6.58112e-05
6.45821e-05
6.30781e-05
6.0769e-05
5.76554e-05
5.36929e-05
4.82276e-05
4.29908e-05
4.35054e-05
4.8547e-05
4.97771e-05
4.44931e-05
3.39891e-05
4.54525e-05
7.60817e-05
8.91102e-05
9.89565e-05
0.000105861
0.000111334
0.000115574
0.000119
0.000121678
0.000123728
0.00012521
0.000126377
0.000127153
0.000127502
0.000127568
0.000127394
0.000126805
0.00012617
0.000125202
0.000124082
0.000122783
0.000121269
0.00011934
0.000117067
0.000115272
0.000113636
0.000112289
0.000111308
0.000110728
0.000110439
0.000110361
0.000110785
0.00011186
0.000112147
0.000112896
0.000113503
0.000113886
0.000114002
0.000113813
0.000113378
0.000112621
0.000111639
0.00011045
0.00010907
0.000107518
0.000105834
0.000104064
0.000102249
0.000100421
9.86039e-05
9.68116e-05
9.50627e-05
9.33591e-05
9.17229e-05
9.01317e-05
8.86297e-05
8.71399e-05
8.57945e-05
8.42485e-05
8.29509e-05
8.10552e-05
7.96921e-05
7.60475e-05
1.1632e-05
6.78163e-05
0.000141527
0.000187343
0.000224567
0.000250779
0.000273503
0.000291887
0.000308642
0.000322384
0.000334032
0.000343522
0.000352188
0.000360272
0.000366433
0.00036881
0.000369535
0.000370312
0.000372451
0.000376726
0.00038069
0.000382717
0.000382232
0.000380076
0.000377273
0.000374678
0.000372644
0.000370961
0.000369142
0.00036674
0.000363499
0.000359807
0.000356735
0.000354839
0.000354376
0.000355369
0.000358071
0.000362096
0.000367147
0.000372976
0.000379369
0.000386139
0.000393128
0.000400211
0.000407286
0.000414281
0.000421149
0.000427874
0.00043447
0.000440931
0.000447267
0.000453488
0.000459608
0.000465641
0.000471599
0.000477496
0.00048334
0.000489137
0.000494891
0.000500598
0.000506251
0.000511834
0.000517322
0.000522674
0.000527835
0.000532724
0.000537226
0.000541179
0.000544359
0.000546443
0.00054739
0.000547155
0.000545394
0.000541823
0.00053742
0.000532612
0.000527633
0.000522631
0.000517708
0.000512939
0.000508387
0.000504119
0.000500237
0.000496782
0.000493719
0.000490965
0.000488394
0.000485837
0.000483006
0.000479512
0.00047566
0.000470975
0.000464627
0.000455974
0.000446674
0.000442376
0.00044212
0.000439835
0.000434753
0.000428149
0.000421512
0.000416738
0.000415885
0.000420678
0.000432108
0.00044054
0.000438841
0.000445755
0.000456364
0.000478902
0.000525858
0.000535218
0.000493031
0.00043037
0.000349014
0.000310368
0.00030666
0.000338915
0.000344095
0.000383728
0.000442303
0.000504551
0.000567752
0.000624399
0.000682282
0.000732005
0.000769423
0.000788821
0.000808716
0.000829697
0.000850856
0.000869473
0.000880323
0.000888243
0.000894016
0.000897623
0.000897989
0.000896852
0.000895317
0.000893967
0.000890471
0.000885224
0.000878208
0.00087006
0.000862539
0.000853784
0.000843205
0.000829846
0.000814478
0.00080533
0.000811956
0.000820441
0.000822454
0.000819493
0.000812829
0.000803466
0.000792037
0.000778955
0.000764478
0.000748688
0.0007314
0.00071313
0.000694564
0.000676315
0.000658721
0.000641948
0.00062601
0.000611005
0.000596975
0.000584006
0.000572037
0.000561115
0.000551114
0.000542514
0.000531361
0.000517639
0.00050225
0.000481603
0.000467566
0.000410784
1.4424e-05
9.82626e-05
0.000206503
0.000293101
0.000366714
0.00042563
0.000476788
0.000518534
0.000555561
0.000586157
0.000611452
0.000632434
0.000649692
0.000663709
0.000674745
0.000683092
0.000688926
0.000692507
0.000694008
0.00069353
0.000692918
0.000692525
0.000692418
0.000692587
0.000693102
0.000694046
0.000695472
0.000697398
0.00069982
0.000702756
0.000706282
0.000710557
0.000715898
0.000722547
0.000730647
0.000740212
0.000750688
0.000761996
0.000773958
0.000786368
0.000799026
0.000811757
0.000824418
0.000836899
0.000849123
0.000861039
0.000872615
0.000883842
0.000894716
0.000905245
0.000915438
0.000925305
0.000934857
0.0009441
0.000953036
0.000961663
0.00096997
0.000977941
0.000985553
0.000992774
0.000999566
0.00100588
0.00101165
0.00101682
0.00102131
0.00102502
0.00102785
0.0010297
0.00103045
0.00103001
0.0010283
0.00102529
0.00102095
0.00101542
0.00100893
0.00100176
0.000994039
0.000985841
0.000977218
0.000968219
0.000958886
0.000949242
0.000939692
0.000930625
0.000922069
0.000913909
0.000905886
0.000897519
0.000888313
0.000878479
0.000867926
0.000856322
0.00084449
0.000832366
0.000819542
0.00080666
0.000793899
0.000781439
0.000769759
0.000758471
0.000750636
0.000750296
0.000761425
0.000789423
0.000833045
0.000869289
0.000898951
0.000928145
0.000948431
0.000937767
0.000873066
0.000771312
0.000661453
0.000607712
0.000597999
0.000598282
0.000621886
0.000675819
0.000789036
0.000934148
0.00106878
0.00119089
0.00129569
0.00138339
0.00145674
0.0015147
0.00155861
0.00159834
0.00164628
0.00169342
0.00173547
0.00177111
0.00179393
0.00180795
0.00181511
0.00181552
0.00181073
0.00180269
0.00179246
0.00178039
0.00176646
0.00175208
0.00173784
0.00172462
0.00171418
0.00170544
0.00169687
0.00168927
0.00168593
0.00168885
0.00169531
0.00169777
0.00169484
0.0016874
0.00167642
0.00166181
0.0016438
0.00162252
0.00159833
0.00157036
0.00153695
0.00150024
0.00146223
0.00142444
0.00138742
0.00135145
0.00131663
0.00128348
0.0012523
0.00122329
0.00119647
0.00117191
0.00114942
0.00112931
0.00110964
0.00108987
0.00106894
0.00104424
0.00102463
0.000947077
1.58816e-05
0.000114244
0.000247666
0.000360348
0.000458125
0.000540561
0.000610327
0.000669683
0.000719951
0.000762506
0.000798361
0.000828611
0.00085413
0.000875683
0.000893782
0.00090886
0.000921305
0.000931554
0.000939998
0.000946994
0.000952885
0.000958002
0.00096283
0.000967974
0.000973803
0.000980462
0.000987916
0.000996013
0.0010047
0.00101392
0.00102365
0.00103394
0.0010449
0.00105645
0.00106852
0.00108107
0.00109402
0.00110731
0.00112085
0.00113457
0.00114834
0.00116208
0.0011757
0.00118912
0.0012023
0.0012152
0.00122778
0.00124003
0.00125194
0.00126349
0.00127469
0.00128552
0.00129597
0.00130605
0.00131573
0.00132499
0.00133381
0.00134215
0.00134999
0.00135727
0.00136395
0.00136996
0.00137526
0.00137975
0.00138337
0.00138603
0.00138764
0.00138808
0.00138725
0.001385
0.00138117
0.00137554
0.00136784
0.00135795
0.00134673
0.00133436
0.00132087
0.00130628
0.00129063
0.00127399
0.00125645
0.00123827
0.00121985
0.0012015
0.0011833
0.00116524
0.00114722
0.0011291
0.00111072
0.00109202
0.00107289
0.00105312
0.00103355
0.00101438
0.000995174
0.000975284
0.000955257
0.000936613
0.000921377
0.00091232
0.000913497
0.000929372
0.000963332
0.00101478
0.00107655
0.00112981
0.00115335
0.00114564
0.00110797
0.00103052
0.000921957
0.000827273
0.00079937
0.000794486
0.000785855
0.000879444
0.000974669
0.00113563
0.00132529
0.00150819
0.00166932
0.00180676
0.00192317
0.00201706
0.00209477
0.00215965
0.00221444
0.00227319
0.0023334
0.00238731
0.00242899
0.00245797
0.00247488
0.00248211
0.002483
0.00247693
0.00246513
0.00244927
0.00243056
0.00241005
0.00238898
0.00236884
0.00235069
0.00233587
0.0023259
0.00231954
0.00231639
0.00231719
0.00232304
0.00233269
0.0023419
0.00234714
0.0023478
0.00234414
0.00233596
0.00232286
0.00230476
0.00228174
0.00225383
0.00221833
0.00217104
0.00211884
0.00206506
0.00201182
0.00195918
0.00190744
0.00185755
0.00181039
0.00176647
0.00172601
0.00168909
0.00165571
0.00162581
0.00159936
0.00157576
0.00155408
0.00153341
0.00151142
0.00149078
0.00142658
1.7431e-05
0.000128635
0.000282
0.00041455
0.000528359
0.00062566
0.000708985
0.000781045
0.000843114
0.00089659
0.000942541
0.000982151
0.00101643
0.00104631
0.00107254
0.00109572
0.00111633
0.00113478
0.00115142
0.00116647
0.00118007
0.00119259
0.00120453
0.00121607
0.00122743
0.00123881
0.0012504
0.00126232
0.00127428
0.00128609
0.0012976
0.00130871
0.00131956
0.00133048
0.0013417
0.00135331
0.00136535
0.0013778
0.00139058
0.00140363
0.00141684
0.00143013
0.00144342
0.00145663
0.0014697
0.00148259
0.00149525
0.00150766
0.00151979
0.00153161
0.00154312
0.00155428
0.00156509
0.00157551
0.00158554
0.00159513
0.00160427
0.0016129
0.00162101
0.00162853
0.00163543
0.00164164
0.00164713
0.00165182
0.00165566
0.00165858
0.00166051
0.00166139
0.00166113
0.00165968
0.00165694
0.00165286
0.00164738
0.00164047
0.00163212
0.00162224
0.00161067
0.0015972
0.00158162
0.00156384
0.00154362
0.0015208
0.00149667
0.00147178
0.00144639
0.00142058
0.00139436
0.00136765
0.00134041
0.00131262
0.0012843
0.00125543
0.00122661
0.00119892
0.0011721
0.00114675
0.00112223
0.00110112
0.00108619
0.00108118
0.00109106
0.00112077
0.00117006
0.00122674
0.00127383
0.00129098
0.00126297
0.00120534
0.00112796
0.00104049
0.000968318
0.000948768
0.000931752
0.000965911
0.00111849
0.00125775
0.00142955
0.00163727
0.00184159
0.0020285
0.00219061
0.0023274
0.00244096
0.00253532
0.00261486
0.00268396
0.00274698
0.00280604
0.00285779
0.00289944
0.00293018
0.00294985
0.00295941
0.00296149
0.00295578
0.00294346
0.00292583
0.00290453
0.00288106
0.00285695
0.00283375
0.00281295
0.00279572
0.00278314
0.00277557
0.00277421
0.00277799
0.00278664
0.00280011
0.00281597
0.0028308
0.00284243
0.00284999
0.00285278
0.00284993
0.0028408
0.00282509
0.00280282
0.00277363
0.00273617
0.00269057
0.00264051
0.00258839
0.00253565
0.00248091
0.00242508
0.00237016
0.00231756
0.00226794
0.00222155
0.00217866
0.00213939
0.00210378
0.00207181
0.0020432
0.00201727
0.00199291
0.0019685
0.00194137
0.00188407
1.80096e-05
0.000135752
0.000304005
0.000451175
0.000578744
0.000688786
0.00078372
0.000866235
0.000938152
0.00100104
0.00105605
0.00110434
0.00114689
0.00118471
0.0012186
0.00124921
0.00127703
0.00130248
0.0013259
0.00134763
0.00136791
0.00138678
0.00140418
0.00142029
0.0014352
0.00144897
0.00146157
0.00147316
0.00148411
0.00149472
0.00150524
0.0015159
0.00152673
0.00153776
0.00154905
0.00156065
0.00157257
0.00158481
0.00159732
0.00161006
0.00162295
0.00163594
0.00164897
0.00166198
0.00167494
0.0016878
0.00170054
0.00171312
0.00172552
0.00173771
0.00174966
0.00176136
0.00177278
0.00178389
0.00179467
0.00180508
0.00181509
0.00182466
0.00183376
0.00184235
0.00185037
0.00185779
0.00186455
0.0018706
0.0018759
0.00188038
0.00188399
0.00188668
0.0018884
0.00188907
0.00188865
0.00188706
0.00188422
0.00188002
0.00187431
0.00186688
0.00185741
0.00184542
0.00183015
0.0018119
0.00179128
0.0017685
0.00174377
0.00171748
0.00169004
0.00166167
0.00163241
0.0016022
0.00157096
0.00153864
0.00150531
0.00147113
0.00143621
0.00140215
0.00136957
0.00133971
0.00131134
0.00128675
0.00126968
0.00126343
0.00127235
0.0013002
0.00134453
0.00139155
0.00141686
0.00138947
0.00131522
0.00122765
0.00114896
0.00109457
0.00107619
0.00105112
0.00112234
0.00130214
0.00147847
0.00166787
0.00188108
0.00209443
0.00229498
0.00247669
0.00263532
0.00276838
0.00287674
0.00296448
0.00303833
0.00310268
0.0031593
0.00320826
0.00324845
0.00327926
0.00330069
0.0033113
0.00331363
0.00330966
0.0032968
0.00327819
0.00325515
0.00322937
0.00320256
0.00317638
0.00315244
0.00313218
0.0031168
0.00310721
0.00310396
0.00310708
0.00311713
0.00313415
0.00315608
0.00318011
0.00320316
0.00322361
0.00324
0.00325088
0.00325481
0.00325081
0.00323871
0.00321859
0.00319031
0.00315378
0.00311042
0.00306284
0.0030129
0.00296128
0.00290426
0.00284467
0.00278608
0.00272961
0.00267571
0.00262503
0.0025781
0.00253522
0.00249649
0.00246201
0.00243182
0.00240504
0.00238087
0.00235702
0.00232916
0.00227919
1.90104e-05
0.000145204
0.000325218
0.000483725
0.000621641
0.000741197
0.000844875
0.000935279
0.00101473
0.00108476
0.00114668
0.00120174
0.00125087
0.00129496
0.00133474
0.00137087
0.00140382
0.00143394
0.00146149
0.00148674
0.00150993
0.00153121
0.00155066
0.00156841
0.00158463
0.00159955
0.00161345
0.0016265
0.00163888
0.00165078
0.00166239
0.00167387
0.00168534
0.00169691
0.00170864
0.00172058
0.00173276
0.00174519
0.00175783
0.00177066
0.00178365
0.00179674
0.00180993
0.00182316
0.00183642
0.00184968
0.0018629
0.00187606
0.00188914
0.0019021
0.00191493
0.00192759
0.00194006
0.00195232
0.00196433
0.00197606
0.00198748
0.00199855
0.00200924
0.0020195
0.00202929
0.00203857
0.00204729
0.00205542
0.0020629
0.00206969
0.00207574
0.002081
0.00208544
0.00208899
0.00209162
0.00209327
0.00209386
0.00209334
0.00209159
0.00208849
0.0020839
0.00207763
0.00206952
0.00205945
0.00204721
0.00203227
0.00201371
0.00199207
0.00196865
0.00194394
0.00191802
0.00189077
0.001862
0.00183155
0.00179939
0.00176558
0.00173046
0.00169401
0.00165867
0.00162565
0.00159468
0.00156585
0.00154418
0.0015321
0.00153223
0.00154597
0.00156819
0.00158773
0.00157953
0.00150552
0.00139054
0.00128657
0.00122046
0.00118957
0.00118435
0.00128043
0.00145727
0.00165364
0.00185862
0.00207924
0.00229805
0.00250785
0.00270279
0.00287575
0.00302089
0.0031394
0.00323556
0.00331449
0.0033802
0.00343538
0.00348157
0.00351927
0.0035484
0.00356879
0.00358026
0.00358096
0.00357632
0.00356373
0.00354285
0.00351719
0.00348809
0.00345734
0.00342676
0.00339806
0.00337286
0.00335268
0.00333872
0.0033319
0.00333288
0.00334207
0.00335945
0.00338435
0.00341491
0.0034483
0.00348158
0.00351274
0.00353964
0.00356017
0.00357248
0.00357549
0.00356898
0.00355313
0.00352796
0.0034941
0.00345374
0.00340921
0.00336204
0.00331272
0.0032607
0.00320793
0.00315603
0.00310474
0.00305448
0.00300646
0.00296154
0.00292011
0.00288227
0.00284803
0.00281743
0.00278992
0.0027645
0.00273894
0.00270854
0.00266146
1.92688e-05
0.00015029
0.000338278
0.000504554
0.000651415
0.000779207
0.000890346
0.000987514
0.00107314
0.001149
0.0012164
0.00127666
0.00133076
0.00137957
0.00142376
0.00146391
0.00150045
0.00153376
0.00156409
0.00159168
0.00161675
0.00163954
0.00166028
0.00167924
0.00169666
0.00171281
0.00172791
0.00174218
0.00175579
0.00176891
0.00178168
0.00179425
0.00180674
0.00181923
0.00183181
0.00184452
0.00185739
0.00187044
0.00188367
0.00189707
0.00191063
0.00192433
0.00193816
0.0019521
0.00196614
0.00198025
0.00199441
0.0020086
0.00202279
0.00203697
0.0020511
0.00206517
0.00207915
0.00209302
0.00210673
0.00212028
0.00213361
0.00214669
0.0021595
0.00217199
0.00218412
0.00219586
0.00220715
0.00221797
0.00222827
0.00223801
0.00224716
0.00225566
0.0022635
0.00227063
0.00227702
0.00228265
0.00228746
0.00229144
0.00229452
0.00229665
0.00229778
0.00229783
0.00229671
0.00229427
0.00229031
0.00228451
0.00227641
0.00226537
0.00225265
0.00223876
0.00222371
0.00220727
0.00218908
0.00216878
0.00214619
0.00212138
0.00209441
0.00206559
0.00203465
0.00200483
0.00197691
0.00194803
0.00192417
0.00190732
0.00189888
0.00189823
0.00189721
0.0018829
0.0018337
0.00172014
0.00157069
0.0014421
0.00137098
0.00136975
0.00146305
0.00162411
0.00180849
0.00202009
0.00224641
0.00246654
0.00267993
0.00288068
0.00306016
0.00321543
0.0033461
0.00345346
0.00354048
0.00361064
0.00366695
0.00371175
0.00374667
0.00377276
0.0037904
0.00379949
0.00379971
0.00378915
0.00377626
0.00375287
0.00372286
0.00368885
0.00365239
0.00361535
0.00357967
0.00354709
0.00351927
0.0034979
0.00348426
0.00347926
0.00348376
0.00349812
0.00352216
0.00355542
0.00359592
0.00364055
0.00368585
0.00372964
0.0037689
0.00380099
0.00382354
0.00383508
0.00383525
0.00382496
0.0038043
0.00377444
0.00373849
0.00369822
0.00365506
0.0036099
0.00356337
0.0035168
0.00347086
0.00342361
0.00337608
0.00333061
0.00328818
0.00324912
0.00321337
0.00318091
0.00315201
0.00312609
0.00310203
0.00307695
0.00304647
0.00300146
1.97175e-05
0.000156495
0.000350699
0.000522769
0.000676153
0.000809805
0.000926162
0.00102803
0.00111787
0.00119763
0.00126862
0.00133226
0.00138953
0.00144133
0.0014883
0.00153104
0.00156994
0.00160537
0.00163759
0.0016669
0.00169355
0.0017178
0.00173991
0.00176014
0.00177878
0.00179608
0.00181232
0.0018277
0.00184243
0.00185668
0.00187058
0.00188427
0.00189785
0.00191141
0.00192501
0.00193871
0.00195254
0.00196651
0.00198065
0.00199496
0.00200945
0.00202412
0.00203897
0.00205399
0.00206917
0.0020845
0.00209996
0.00211554
0.00213121
0.00214697
0.00216279
0.00217864
0.00219451
0.00221037
0.00222619
0.00224195
0.0022576
0.00227312
0.00228848
0.00230363
0.00231855
0.00233319
0.00234752
0.00236149
0.00237508
0.00238825
0.00240096
0.00241318
0.00242489
0.00243607
0.00244669
0.00245675
0.00246623
0.00247512
0.00248341
0.0024911
0.00249818
0.00250463
0.0025104
0.00251547
0.00251977
0.00252326
0.0025259
0.00252777
0.00252897
0.00252948
0.00252908
0.00252745
0.00252409
0.00251826
0.00250965
0.002499
0.00248643
0.00247191
0.00245574
0.00243757
0.00242187
0.00240382
0.00238737
0.00237447
0.00236498
0.0023565
0.00234252
0.00230053
0.00221726
0.00208346
0.00193979
0.00181628
0.00176622
0.00178915
0.00189234
0.00203743
0.00222191
0.00242815
0.00263669
0.00284463
0.00304193
0.00322063
0.00338015
0.00351831
0.00363461
0.00372994
0.00380625
0.00386597
0.0039115
0.00394496
0.00396812
0.00398212
0.00398744
0.00398405
0.00397152
0.00394868
0.00392523
0.00388972
0.00384938
0.00380566
0.0037604
0.00371559
0.00367336
0.00363528
0.00360307
0.00357822
0.00356246
0.00355733
0.00356398
0.00358259
0.00361229
0.00365502
0.0037077
0.0037665
0.00382706
0.00388568
0.00393933
0.00398521
0.00402005
0.00404219
0.00405137
0.00404856
0.00403404
0.00400999
0.0039793
0.00394392
0.0039055
0.00386531
0.00382442
0.00378377
0.00374365
0.00370363
0.00366449
0.00362717
0.00359219
0.00355963
0.00352906
0.00350059
0.00347453
0.00345054
0.00342749
0.00340297
0.00337307
0.00333167
1.99252e-05
0.000160272
0.000359341
0.000535546
0.000694246
0.000832404
0.000952565
0.00105771
0.00115041
0.00123263
0.00130576
0.00137129
0.00143024
0.00148355
0.00153187
0.0015758
0.00161579
0.00165224
0.00168547
0.00171581
0.00174356
0.00176908
0.00179263
0.00181439
0.00183454
0.0018533
0.0018709
0.00188757
0.00190352
0.00191894
0.00193398
0.00194879
0.00196346
0.00197811
0.00199279
0.00200756
0.00202245
0.00203749
0.00205271
0.00206811
0.00208373
0.00209957
0.00211564
0.00213196
0.0021485
0.00216528
0.00218227
0.00219947
0.00221686
0.00223444
0.00225218
0.00227007
0.00228808
0.00230619
0.00232438
0.00234261
0.00236088
0.00237913
0.00239734
0.00241549
0.00243353
0.00245143
0.00246916
0.00248668
0.00250395
0.00252095
0.00253764
0.002554
0.00257
0.00258562
0.00260086
0.00261569
0.00263012
0.00264415
0.00265776
0.00267097
0.00268377
0.00269615
0.00270812
0.00271966
0.00273075
0.00274139
0.00275153
0.00276114
0.00277014
0.0027784
0.00278574
0.00279196
0.00279689
0.00280043
0.00280262
0.00280354
0.00280326
0.00280188
0.00279963
0.00279682
0.00279426
0.00279123
0.00278738
0.00278314
0.00277632
0.00276294
0.00273658
0.00268995
0.00262063
0.00253373
0.00244327
0.00237123
0.00233544
0.00236687
0.00245182
0.00257278
0.00273069
0.0029034
0.00307743
0.00324637
0.0034046
0.00355169
0.00368474
0.00380128
0.00390004
0.00398097
0.00404487
0.00409308
0.00412715
0.00414861
0.00415897
0.00415954
0.004151
0.00413356
0.0041064
0.00407136
0.00403396
0.00398601
0.00393411
0.00387946
0.0038241
0.00376997
0.00371883
0.00367307
0.00363433
0.00360455
0.00358581
0.00358058
0.00358889
0.00361003
0.00364676
0.00369907
0.00376374
0.00383664
0.00391389
0.00399091
0.00406244
0.00412465
0.00417403
0.00420881
0.00422883
0.00423513
0.00422841
0.00421155
0.0041872
0.00415765
0.00412483
0.0040903
0.00405525
0.00402054
0.00398653
0.00395331
0.00392136
0.00389111
0.00386271
0.00383598
0.00380991
0.00378517
0.00376242
0.00374121
0.00372028
0.00369685
0.00366783
0.00362799
2.01915e-05
0.000164333
0.000366996
0.000546029
0.000707966
0.000848764
0.000971106
0.0010781
0.00117229
0.0012556
0.00132956
0.00139571
0.00145508
0.00150867
0.00155716
0.00160116
0.00164114
0.00167753
0.00171068
0.00174092
0.00176881
0.00179508
0.00182004
0.00184345
0.00186522
0.00188554
0.0019046
0.00192264
0.00193986
0.00195647
0.00197264
0.00198852
0.00200424
0.00201991
0.00203561
0.00205139
0.0020673
0.00208337
0.00209964
0.00211613
0.00213287
0.0021499
0.00216723
0.00218487
0.00220282
0.00222108
0.00223965
0.00225853
0.0022777
0.00229716
0.00231689
0.00233688
0.00235712
0.00237758
0.00239825
0.00241911
0.00244013
0.00246129
0.00248257
0.00250393
0.00252534
0.00254678
0.0025682
0.00258956
0.00261084
0.002632
0.002653
0.0026738
0.00269438
0.00271472
0.00273477
0.00275454
0.002774
0.00279313
0.00281193
0.00283037
0.00284846
0.00286618
0.00288349
0.00290038
0.00291681
0.00293271
0.00294802
0.00296267
0.00297654
0.00298953
0.00300152
0.00301241
0.00302211
0.00303057
0.00303779
0.00304377
0.00304855
0.00305222
0.00305495
0.00305693
0.00305853
0.0030601
0.00306008
0.00305939
0.00305691
0.00305095
0.0030396
0.00302196
0.00299979
0.00297889
0.0029707
0.00297135
0.00299663
0.00305904
0.00314584
0.00323806
0.0033456
0.00345435
0.00356398
0.00367236
0.00378151
0.00388771
0.00398687
0.00407581
0.00415229
0.00421502
0.00426345
0.00429762
0.00431807
0.00432568
0.00432171
0.00430742
0.00428361
0.00425064
0.00420815
0.00416006
0.00410697
0.00404589
0.00398059
0.00391386
0.00384753
0.00378351
0.00372405
0.00367234
0.00362884
0.00359526
0.00357335
0.00356531
0.00357081
0.00359366
0.00363684
0.00369865
0.00377642
0.00386469
0.00395762
0.00405277
0.00414495
0.00422643
0.00429292
0.00434328
0.00437579
0.00439267
0.00439541
0.00438659
0.00436937
0.00434635
0.00431973
0.00429123
0.00426216
0.0042334
0.0042054
0.00417845
0.00415283
0.00412872
0.00410608
0.00408468
0.00406411
0.00404457
0.00402607
0.00400818
0.00398972
0.00396882
0.00394275
0.00390892
2.0362e-05
0.000166967
0.000372066
0.000552552
0.000716377
0.000858296
0.00098188
0.00108973
0.0011843
0.00126766
0.0013414
0.0014071
0.00146585
0.0015187
0.00156636
0.0016095
0.00164861
0.00168413
0.00171642
0.00174581
0.00177317
0.00179909
0.00182403
0.00184814
0.00187118
0.00189271
0.00191296
0.00193215
0.00195049
0.00196817
0.00198535
0.00200221
0.00201887
0.00203544
0.00205201
0.00206864
0.00208541
0.00210235
0.00211951
0.00213694
0.00215468
0.00217277
0.00219123
0.00221007
0.0022293
0.00224893
0.00226896
0.00228939
0.00231023
0.00233147
0.0023531
0.00237513
0.00239753
0.00242031
0.00244345
0.00246694
0.00249077
0.00251492
0.00253937
0.00256408
0.00258904
0.0026142
0.00263953
0.00266498
0.00269052
0.0027161
0.00274166
0.00276717
0.00279257
0.00281782
0.00284288
0.0028677
0.00289223
0.00291645
0.00294031
0.00296376
0.00298677
0.00300929
0.00303127
0.00305265
0.00307337
0.00309337
0.00311257
0.00313088
0.00314821
0.00316447
0.00317961
0.00319354
0.00320623
0.00321765
0.00322778
0.00323664
0.00324428
0.00325079
0.00325631
0.00326103
0.00326513
0.00326971
0.00327322
0.00327683
0.00328111
0.00328612
0.0032925
0.00330181
0.003317
0.00334258
0.00338348
0.00344437
0.00352194
0.00360928