/*--------------------------------*- C++ -*----------------------------------*\
| =========                 |                                                 |
| \\      /  F ield         | OpenFOAM: The Open Source CFD Toolbox           |
|  \\    /   O peration     | Version:  v1906                                 |
|   \\  /    A nd           | Web:      www.OpenFOAM.com                      |
|    \\/     M anipulation  |                                                 |
\*---------------------------------------------------------------------------*/
FoamFile
{
    version     2.0;
    format      ascii;
    class       volScalarField;
    location    "1600";
    object      p;
}
// * * * * * * * * * * * * * * * * * * * * * * * * * * * * * * * * * * * * * //

dimensions      [0 2 -2 0 0 0 0];


internalField   nonuniform List<scalar> 
12225
(
-2.52865
-3.79266
-3.79848
-3.83687
-3.99459
-4.12831
-4.23354
-4.33311
-4.42853
-4.51849
-4.60393
-4.68855
-4.77591
-4.86904
-4.96842
-5.08106
-5.21679
-5.39633
-4.4634
-4.97304
-5.07875
-5.0711
-5.13142
-5.18372
-5.22716
-5.27822
-5.3349
-5.39335
-5.4535
-5.51638
-5.58517
-5.66016
-5.74347
-5.83791
-5.94478
-6.09926
-3.65432
-4.49978
-4.5929
-4.57857
-4.63268
-4.6862
-4.73307
-4.78484
-4.83973
-4.8954
-4.95232
-5.01134
-5.07512
-5.14353
-5.21931
-5.30032
-5.38916
-5.46532
-4.5142
-4.97078
-5.16093
-5.25044
-5.35357
-5.43086
-5.48867
-5.54364
-5.59861
-5.65322
-5.7087
-5.76645
-5.82823
-5.89482
-5.96673
-6.04473
-6.12666
-6.22439
-4.14526
-4.64044
-4.82733
-4.89233
-4.96305
-5.01821
-5.06379
-5.11049
-5.15836
-5.20668
-5.25596
-5.30711
-5.36096
-5.4185
-5.47789
-5.54109
-5.59269
-5.63698
-4.6782
-4.97879
-5.16552
-5.28048
-5.39656
-5.49033
-5.56714
-5.63698
-5.70262
-5.76541
-5.82689
-5.88861
-5.95155
-6.01669
-6.08296
-6.15176
-6.21887
-6.29413
-4.47856
-4.74106
-4.92742
-5.02749
-5.1172
-5.18585
-5.24243
-5.2952
-5.34596
-5.39545
-5.44444
-5.49376
-5.54357
-5.59441
-5.64377
-5.69234
-5.72677
-5.74933
-4.83581
-5.02479
-5.18748
-5.30216
-5.41616
-5.51268
-5.59696
-5.67413
-5.74611
-5.81431
-5.88
-5.94433
-6.00784
-6.07109
-6.13322
-6.19465
-6.25482
-6.3165
-4.7221
-4.85033
-5.00525
-5.10782
-5.20272
-5.27902
-5.34434
-5.40356
-5.45872
-5.51105
-5.56139
-5.61037
-5.6579
-5.70411
-5.74671
-5.78573
-5.81181
-5.82784
-4.9706
-5.08893
-5.22252
-5.32623
-5.432
-5.5252
-5.61023
-5.6891
-5.763
-5.83296
-5.8998
-5.96421
-6.02646
-6.08674
-6.14481
-6.2003
-6.25509
-6.30656
-4.90442
-4.96415
-5.08175
-5.17255
-5.2628
-5.34
-5.40915
-5.47214
-5.5304
-5.58497
-5.63645
-5.68529
-5.7313
-5.77443
-5.81309
-5.84726
-5.87142
-5.88927
-5.06632
-5.14106
-5.24756
-5.33678
-5.43084
-5.51658
-5.59717
-5.67279
-5.74406
-5.81153
-5.87562
-5.93664
-5.9947
-6.04973
-6.10178
-6.15003
-6.19687
-6.23758
-5.03096
-5.06159
-5.15023
-5.22758
-5.30934
-5.38351
-5.45254
-5.5165
-5.57605
-5.63175
-5.6839
-5.73273
-5.77811
-5.81995
-5.85748
-5.89066
-5.91782
-5.94075
-5.1659
-5.21756
-5.30104
-5.37719
-5.45982
-5.53866
-5.61473
-5.68729
-5.75625
-5.82166
-5.88359
-5.94206
-5.9971
-6.04849
-6.09629
-6.13963
-6.17929
-6.21179
-5.13955
-5.15535
-5.21711
-5.27968
-5.34936
-5.41724
-5.48286
-5.54527
-5.6042
-5.65964
-5.71162
-5.76015
-5.80528
-5.84693
-5.8854
-5.92043
-5.95378
-5.98404
-5.24536
-5.27714
-5.33729
-5.39807
-5.46526
-5.53246
-5.59855
-5.66244
-5.72338
-5.78099
-5.83499
-5.88518
-5.93125
-5.97307
-6.0099
-6.04197
-6.06689
-6.08722
-5.24456
-5.26205
-5.30977
-5.36426
-5.42653
-5.4914
-5.55664
-5.62086
-5.68314
-5.74299
-5.80018
-5.85454
-5.90635
-5.95531
-6.00269
-6.04698
-6.09274
-6.13275
-5.24629
-5.25811
-5.29477
-5.33705
-5.38433
-5.43296
-5.4807
-5.5263
-5.56879
-5.60763
-5.64233
-5.67279
-5.69848
-5.71997
-5.7358
-5.74864
-5.75324
-5.75986
-5.34626
-5.38076
-5.44251
-5.51045
-5.58658
-5.66701
-5.74909
-5.83145
-5.91302
-5.99306
-6.07123
-6.14705
-6.22062
-6.29105
-6.35925
-6.42255
-6.48468
-6.53692
-5.08602
-5.08101
-5.10693
-5.1384
-5.17216
-5.20485
-5.23436
-5.26003
-5.28147
-5.29862
-5.31146
-5.32031
-5.32508
-5.32681
-5.32481
-5.32245
-5.31609
-5.31688
-5.24057
-5.29909
-5.38255
-5.46478
-5.55302
-5.64206
-5.72947
-5.81453
-5.89669
-5.97575
-6.0519
-6.12533
-6.19668
-6.26582
-6.33424
-6.39964
-6.46669
-6.52399
-4.91247
-4.91689
-4.97259
-5.02053
-5.06494
-5.1025
-5.13274
-5.15705
-5.17628
-5.19099
-5.20148
-5.208
-5.21023
-5.20847
-5.20109
-5.19032
-5.17009
-5.15334
-5.0904
-5.18596
-5.30478
-5.40854
-5.51451
-5.61538
-5.70857
-5.79502
-5.87532
-5.9501
-6.02026
-6.08673
-6.15079
-6.21337
-6.27724
-6.34226
-6.41681
-6.49074
-4.66406
-4.73173
-4.84506
-4.91288
-4.9662
-5.00613
-5.03494
-5.05757
-5.07621
-5.09155
-5.10394
-5.11355
-5.11996
-5.12282
-5.11973
-5.11025
-5.0839
-5.04768
-4.90338
-5.06795
-5.23466
-5.35936
-5.47958
-5.58574
-5.67462
-5.75169
-5.82013
-5.88144
-5.93719
-5.98873
-6.03737
-6.08415
-6.1319
-6.18243
-6.24854
-6.33002
-4.29483
-4.55503
-4.7218
-4.78006
-4.82323
-4.85623
-4.879
-4.89913
-4.9188
-4.93722
-4.95405
-4.96936
-4.98291
-4.99444
-5.00235
-5.00535
-4.99106
-4.95379
-4.7007
-4.99216
-5.20949
-5.33241
-5.44531
-5.53358
-5.59518
-5.64492
-5.6889
-5.72819
-5.76404
-5.79753
-5.8293
-5.85963
-5.8898
-5.92091
-5.96458
-6.03177
-3.72579
-4.38761
-4.51138
-4.49497
-4.52021
-4.55505
-4.58156
-4.60884
-4.63816
-4.66659
-4.69339
-4.71885
-4.74287
-4.76532
-4.78575
-4.80403
-4.81213
-4.79839
-4.60007
-4.97715
-5.15714
-5.16408
-5.20461
-5.23849
-5.25937
-5.28325
-5.31173
-5.3411
-5.37029
-5.39931
-5.42781
-5.45546
-5.48215
-5.50825
-5.53925
-5.58742
-2.54601
-3.72577
-3.75028
-3.75322
-3.87533
-3.9901
-4.07598
-4.15292
-4.22531
-4.29102
-4.35043
-4.40485
-4.4549
-4.50077
-4.54267
-4.58028
-4.61224
-4.63663
-5.51027
-5.53048
-5.54572
-5.56458
-5.58333
-5.60366
-5.62285
-5.64219
-5.66018
-5.67745
-5.69335
-5.70841
-5.72159
-5.73235
-5.73918
-5.7421
-5.74208
-5.7393
-5.73351
-5.72448
-5.71256
-5.69999
-5.68985
-5.68348
-5.68069
-5.6815
-5.68588
-5.69308
-5.70235
-5.71396
-5.72822
-5.74452
-5.76213
-5.78088
-5.80069
-5.82143
-5.84288
-5.86481
-5.88699
-5.90918
-5.93118
-5.95282
-5.97397
-5.99452
-6.01443
-6.03371
-6.05238
-6.07029
-6.08734
-6.10353
-6.11892
-6.13351
-6.14732
-6.16035
-6.17261
-6.18407
-6.19472
-6.20451
-6.2134
-6.22131
-6.22817
-6.23386
-6.23826
-6.24122
-6.24254
-6.24203
-6.23945
-6.23452
-6.22688
-6.21623
-6.20245
-6.1853
-6.16376
-6.13612
-6.10174
-6.06069
-6.01256
-5.95681
-5.89289
-5.82019
-5.73823
-5.6466
-5.54523
-5.43411
-5.31367
-5.18442
-5.04818
-4.9076
-4.76504
-4.62332
-4.48758
-4.36288
-4.25502
-4.17252
-4.1212
-4.09424
-4.09086
-4.11897
-4.17877
-4.26721
-4.37856
-4.50514
-4.63781
-4.76495
-4.87272
-4.9441
-4.96463
-4.93582
-4.86359
-4.7596
-4.65936
-4.60656
-4.62004
-4.65017
-4.6504
-4.54546
-4.46943
-4.69594
-5.38082
-6.35208
-7.46653
-8.57349
-9.54483
-10.2978
-10.7837
-10.9811
-10.8775
-10.4565
-9.75871
-8.84828
-7.76855
-6.56337
-5.2776
-3.94608
-2.58724
-1.22521
0.118941
1.43484
2.71902
3.9717
5.18951
6.36943
7.5115
8.61569
9.67897
10.6955
11.6602
12.5667
13.3965
14.1494
14.8422
15.4652
15.9935
16.4232
16.7579
17.0051
17.1738
17.2755
17.3228
17.3279
17.3015
17.2533
17.1911
17.1212
17.0485
16.9766
16.908
16.8444
16.787
16.7367
16.6942
16.6604
16.6367
16.627
16.637
16.6675
16.733
16.8374
17.0508
17.2931
-5.53489
-5.58118
-5.59988
-5.63078
-5.64838
-5.67127
-5.68771
-5.7072
-5.72206
-5.73792
-5.75103
-5.76483
-5.77725
-5.7888
-5.79741
-5.80157
-5.7999
-5.79407
-5.78429
-5.77139
-5.75568
-5.73903
-5.72434
-5.71372
-5.70798
-5.70833
-5.71453
-5.72453
-5.73734
-5.75277
-5.77067
-5.79068
-5.81248
-5.83585
-5.86052
-5.88618
-5.9125
-5.93915
-5.96585
-5.99235
-6.01845
-6.04402
-6.06896
-6.09321
-6.11673
-6.13952
-6.16159
-6.18289
-6.20344
-6.2233
-6.24249
-6.26106
-6.27904
-6.29642
-6.31324
-6.32948
-6.34513
-6.36017
-6.37454
-6.38819
-6.40104
-6.41298
-6.42389
-6.4336
-6.44192
-6.4486
-6.45337
-6.45586
-6.45567
-6.45234
-6.44518
-6.43331
-6.41665
-6.39612
-6.37173
-6.34235
-6.30705
-6.26501
-6.2155
-6.15783
-6.09141
-6.01575
-5.93058
-5.83573
-5.73138
-5.61785
-5.49622
-5.36801
-5.23491
-5.10001
-4.96753
-4.84288
-4.73068
-4.63705
-4.56701
-4.5342
-4.53855
-4.56864
-4.62312
-4.69769
-4.78789
-4.88799
-4.99148
-5.0909
-5.17491
-5.23914
-5.2792
-5.26377
-5.15785
-4.99023
-4.82938
-4.73498
-4.73589
-4.76338
-4.77905
-4.76576
-4.78322
-5.22579
-6.15256
-7.35654
-8.64618
-9.84945
-10.8581
-11.6084
-12.0623
-12.1978
-12.0217
-11.5982
-10.956
-10.1008
-9.06882
-7.8994
-6.63637
-5.31638
-3.96487
-2.60269
-1.25236
0.0756096
1.37508
2.63999
3.86427
5.04772
6.19212
7.29719
8.36019
9.37915
10.3518
11.2712
12.1277
12.9074
13.5796
14.1524
14.6486
15.0622
15.3971
15.6581
15.8544
15.9952
16.0909
16.1515
16.1859
16.2012
16.2035
16.1973
16.1864
16.1734
16.1603
16.1485
16.139
16.1327
16.1305
16.1334
16.143
16.1585
16.1855
16.2273
16.2975
16.3905
16.5699
16.7791
-5.52669
-5.58788
-5.59901
-5.63311
-5.64273
-5.66838
-5.67983
-5.69924
-5.70994
-5.7248
-5.73359
-5.74561
-5.75473
-5.76543
-5.77246
-5.7781
-5.78014
-5.78055
-5.77841
-5.77465
-5.76849
-5.76123
-5.75454
-5.74987
-5.74791
-5.74919
-5.75378
-5.76146
-5.7719
-5.78481
-5.7999
-5.81686
-5.83534
-5.85505
-5.87568
-5.89696
-5.91864
-5.94049
-5.96233
-5.98402
-6.00544
-6.0265
-6.04715
-6.06736
-6.0871
-6.10636
-6.12514
-6.14341
-6.16116
-6.17838
-6.19509
-6.21128
-6.22694
-6.24209
-6.25671
-6.27079
-6.2843
-6.29722
-6.30951
-6.32111
-6.33196
-6.34198
-6.35107
-6.3591
-6.36594
-6.37142
-6.37535
-6.37749
-6.37759
-6.37542
-6.37067
-6.36281
-6.35137
-6.33574
-6.31492
-6.28841
-6.2558
-6.21655
-6.17007
-6.11576
-6.05309
-5.98162
-5.90107
-5.8113
-5.7125
-5.60514
-5.49037
-5.37002
-5.24594
-5.12061
-4.99884
-4.88507
-4.78494
-4.7041
-4.64671
-4.61425
-4.60751
-4.62605
-4.66895
-4.73256
-4.81158
-4.90049
-4.99421
-5.08413
-5.15673
-5.19799
-5.21575
-5.21774
-5.1697
-5.06292
-4.95221
-4.87951
-4.84973
-4.89275
-4.9572
-5.10089
-5.4084
-6.01201
-6.88105
-7.88415
-8.90435
-9.86575
-10.7072
-11.3736
-11.8149
-11.9893
-11.874
-11.4783
-10.8279
-9.96271
-8.92198
-7.7474
-6.48072
-5.15731
-3.80645
-2.45087
-1.10859
0.208759
1.49491
2.7449
3.95476
5.12385
6.2528
7.34114
8.38607
9.38423
10.3322
11.222
12.0426
12.7844
13.4536
14.0492
14.5689
15.0065
15.3635
15.647
15.8636
16.0226
16.1347
16.2096
16.2563
16.2822
16.2934
16.2949
16.2903
16.2825
16.2736
16.2651
16.2582
16.2538
16.2528
16.2561
16.2653
16.2815
16.3082
16.3465
16.4128
16.4962
16.6457
16.7752
-5.51916
-5.59756
-5.61251
-5.65328
-5.66339
-5.69052
-5.70371
-5.72518
-5.73825
-5.7536
-5.76409
-5.77637
-5.78693
-5.79844
-5.80747
-5.81447
-5.81826
-5.81995
-5.81926
-5.81699
-5.81329
-5.80932
-5.80603
-5.80446
-5.80521
-5.80878
-5.81524
-5.82445
-5.83612
-5.85004
-5.86593
-5.88355
-5.90265
-5.92302
-5.94446
-5.96676
-5.98973
-6.01316
-6.03689
-6.06074
-6.08459
-6.10832
-6.13183
-6.15506
-6.17795
-6.20047
-6.22259
-6.2443
-6.26559
-6.28646
-6.30693
-6.32701
-6.34669
-6.36599
-6.3849
-6.40341
-6.42151
-6.43916
-6.45632
-6.47294
-6.48894
-6.50422
-6.51866
-6.5321
-6.54438
-6.55526
-6.5645
-6.57179
-6.57678
-6.5791
-6.57831
-6.57401
-6.56582
-6.5533
-6.53634
-6.51449
-6.48692
-6.45287
-6.41158
-6.36235
-6.30454
-6.23762
-6.16122
-6.07514
-5.97944
-5.8745
-5.76122
-5.64114
-5.51631
-5.38956
-5.2651
-5.14708
-5.04151
-4.95347
-4.8881
-4.85009
-4.83947
-4.85432
-4.89246
-4.94941
-5.02032
-5.10018
-5.18538
-5.27098
-5.34288
-5.39692
-5.43654
-5.4502
-5.40498
-5.31145
-5.20629
-5.12646
-5.10965
-5.13798
-5.28493
-5.62388
-6.16795
-6.90994
-7.82156
-8.84386
-9.90226
-10.9152
-11.7979
-12.4771
-12.898
-13.0285
-12.8636
-12.4225
-11.7378
-10.8391
-9.7664
-8.56407
-7.27478
-5.92893
-4.55714
-3.18529
-1.82887
-0.499603
0.795711
2.05229
3.26761
4.4418
5.57541
6.66847
7.7188
8.72324
9.67782
10.5743
11.4046
12.161
12.8356
13.4308
13.9467
14.3818
14.7385
15.0237
15.2453
15.413
15.5367
15.626
15.6892
15.7332
15.7637
15.785
15.8006
15.8127
15.8232
15.8334
15.8443
15.8567
15.8716
15.8896
15.9122
15.9399
15.9764
16.0237
16.0908
16.1657
16.2911
16.3889
-5.49415
-5.58719
-5.60193
-5.64679
-5.65435
-5.68259
-5.69283
-5.71342
-5.72474
-5.74045
-5.74998
-5.76131
-5.76985
-5.78001
-5.78857
-5.79737
-5.80466
-5.8116
-5.81744
-5.82276
-5.82716
-5.83114
-5.83495
-5.83915
-5.84403
-5.84999
-5.85724
-5.86596
-5.8762
-5.88794
-5.90113
-5.91568
-5.93146
-5.94833
-5.96616
-5.98478
-6.00404
-6.02377
-6.04382
-6.06405
-6.08434
-6.1046
-6.12474
-6.14471
-6.16447
-6.18398
-6.20321
-6.22216
-6.2408
-6.25912
-6.27712
-6.2948
-6.31214
-6.32915
-6.34582
-6.36213
-6.37808
-6.39363
-6.40876
-6.42344
-6.4376
-6.45119
-6.46413
-6.47632
-6.48763
-6.49794
-6.50705
-6.51477
-6.52085
-6.52501
-6.52691
-6.52615
-6.52232
-6.51515
-6.50402
-6.48773
-6.46577
-6.43754
-6.40242
-6.35976
-6.30893
-6.2494
-6.18073
-6.10264
-6.01512
-5.91849
-5.81354
-5.7016
-5.58453
-5.46504
-5.34703
-5.23457
-5.1327
-5.0476
-4.98317
-4.943
-4.92865
-4.939
-4.97059
-5.01891
-5.07927
-5.1465
-5.21756
-5.28775
-5.34603
-5.38683
-5.4278
-5.47638
-5.50023
-5.47073
-5.41396
-5.35868
-5.34985
-5.46144
-5.75734
-6.22976
-6.8582
-7.63004
-8.51984
-9.48026
-10.4506
-11.3658
-12.1581
-12.7649
-13.1334
-13.226
-13.0278
-12.5581
-11.8358
-10.8987
-9.7897
-8.55608
-7.2418
-5.87802
-4.49378
-3.11683
-1.76008
-0.434756
0.853435
2.10104
3.30673
4.47082
5.59424
6.67709
7.71744
8.71161
9.65547
10.5416
11.3635
12.1166
12.7992
13.4062
13.9346
14.3822
14.7516
15.0491
15.2825
15.4613
15.5956
15.6945
15.7664
15.8182
15.8556
15.8831
15.9038
15.9203
15.9343
15.9473
15.9603
15.9742
15.9898
16.0079
16.0299
16.0561
16.0898
16.1296
16.1851
16.2443
16.3375
16.3828
-5.48889
-5.59104
-5.60914
-5.66008
-5.66762
-5.69934
-5.70921
-5.73218
-5.74348
-5.76113
-5.77241
-5.78665
-5.79691
-5.80824
-5.81739
-5.82689
-5.83498
-5.84315
-5.8506
-5.85807
-5.86513
-5.87222
-5.87922
-5.88644
-5.89395
-5.9021
-5.91113
-5.92132
-5.93278
-5.9456
-5.95974
-5.97517
-5.99181
-6.00959
-6.0284
-6.04813
-6.06865
-6.08983
-6.11149
-6.13351
-6.15575
-6.17811
-6.20051
-6.22289
-6.24519
-6.26736
-6.28938
-6.31123
-6.33289
-6.35435
-6.37561
-6.39667
-6.41753
-6.43818
-6.45861
-6.47882
-6.49879
-6.51849
-6.53789
-6.55694
-6.57557
-6.5937
-6.61125
-6.62807
-6.64403
-6.65894
-6.67259
-6.68474
-6.69509
-6.70332
-6.70907
-6.71193
-6.71143
-6.70706
-6.69813
-6.68429
-6.66518
-6.64003
-6.60808
-6.56859
-6.52086
-6.46427
-6.39832
-6.32268
-6.23726
-6.14228
-6.03838
-5.92675
-5.8092
-5.68819
-5.56737
-5.45105
-5.34309
-5.25004
-5.1778
-5.12959
-5.10749
-5.111
-5.13689
-5.18033
-5.23505
-5.29477
-5.35612
-5.41854
-5.47891
-5.52641
-5.56747
-5.60826
-5.62529
-5.5974
-5.53889
-5.49793
-5.55948
-5.79774
-6.22565
-6.81176
-7.53555
-8.3891
-9.34851
-10.3719
-11.3994
-12.3615
-13.1848
-13.8012
-14.1558
-14.2116
-13.9594
-13.4165
-12.6193
-11.6105
-10.4368
-9.14851
-7.78747
-6.38666
-4.97361
-3.57512
-2.20248
-0.865822
0.4302
1.68343
2.89374
4.06213
5.19004
6.27795
7.32434
8.32541
9.2764
10.1711
11.0034
11.7647
12.4511
13.0587
13.5856
14.0311
14.3984
14.6941
14.9266
15.106
15.2423
15.3448
15.4215
15.4795
15.5238
15.5587
15.5872
15.6115
15.6332
15.6537
15.6739
15.6944
15.7162
15.7396
15.766
15.7954
15.831
15.8711
15.9262
15.9794
16.0571
16.0953
-5.47471
-5.58527
-5.60278
-5.65692
-5.66417
-5.69728
-5.70693
-5.73035
-5.74137
-5.75948
-5.77072
-5.78533
-5.79626
-5.8091
-5.81977
-5.8314
-5.84217
-5.85372
-5.86485
-5.87628
-5.88728
-5.89816
-5.90855
-5.91865
-5.92837
-5.93804
-5.94788
-5.95826
-5.96934
-5.98131
-5.9942
-6.00804
-6.02282
-6.0385
-6.05505
-6.07239
-6.09044
-6.10907
-6.12815
-6.14758
-6.16723
-6.18705
-6.20696
-6.22693
-6.2469
-6.26685
-6.28673
-6.30653
-6.32623
-6.34582
-6.36529
-6.38464
-6.40386
-6.42296
-6.44191
-6.46072
-6.47939
-6.49789
-6.51621
-6.53433
-6.5522
-6.56979
-6.58703
-6.60385
-6.62015
-6.6358
-6.65066
-6.66454
-6.67722
-6.68843
-6.69788
-6.7052
-6.71002
-6.71191
-6.71038
-6.70497
-6.69461
-6.67848
-6.65593
-6.62624
-6.58868
-6.54256
-6.48728
-6.42238
-6.3476
-6.26296
-6.16886
-6.06617
-5.95634
-5.84153
-5.72474
-5.6102
-5.50166
-5.40323
-5.32219
-5.26318
-5.22846
-5.21912
-5.23294
-5.2655
-5.30967
-5.35778
-5.40478
-5.44607
-5.48039
-5.51383
-5.55202
-5.58066
-5.57338
-5.5305
-5.48796
-5.52069
-5.70509
-6.07555
-6.61811
-7.30715
-8.12461
-9.05288
-10.0616
-11.1072
-12.1328
-13.0739
-13.8625
-14.4342
-14.7359
-14.732
-14.4186
-13.8158
-12.9554
-11.8837
-10.6529
-9.31621
-7.91537
-6.48495
-5.05326
-3.64297
-2.26517
-0.92819
0.364591
1.61249
2.81641
3.97801
5.09946
6.18162
7.22269
8.21946
9.16821
10.0632
10.8979
11.665
12.3594
12.9761
13.5121
13.9668
14.3433
14.6483
14.8902
15.0792
15.2253
15.3377
15.4244
15.4921
15.546
15.5899
15.6267
15.6585
15.687
15.7134
15.7388
15.7639
15.7894
15.8159
15.8445
15.875
15.91
15.9468
15.9903
16.0279
16.0793
16.0829
-5.48274
-5.60015
-5.6172
-5.67641
-5.68266
-5.71954
-5.72857
-5.75467
-5.76559
-5.78564
-5.79728
-5.81363
-5.8252
-5.8391
-5.85054
-5.86344
-5.87492
-5.88719
-5.89909
-5.91165
-5.92394
-5.93638
-5.94844
-5.96032
-5.97183
-5.98326
-5.99473
-6.00658
-6.01899
-6.03215
-6.04612
-6.06098
-6.07672
-6.09336
-6.11088
-6.12923
-6.14834
-6.16811
-6.18843
-6.20919
-6.23029
-6.25167
-6.27329
-6.29511
-6.31706
-6.33911
-6.36123
-6.38339
-6.40557
-6.42776
-6.44996
-6.47215
-6.49434
-6.51652
-6.53868
-6.56082
-6.58292
-6.60498
-6.62696
-6.64885
-6.6706
-6.69215
-6.71344
-6.73438
-6.75486
-6.77474
-6.79386
-6.81202
-6.82898
-6.84446
-6.85813
-6.86961
-6.87847
-6.8842
-6.88626
-6.88403
-6.87682
-6.86421
-6.84542
-6.81971
-6.78634
-6.74458
-6.69379
-6.63342
-6.56309
-6.48268
-6.39236
-6.29272
-6.18487
-6.07048
-5.95191
-5.83256
-5.71663
-5.60717
-5.50882
-5.42887
-5.37109
-5.337
-5.32662
-5.33721
-5.36311
-5.39662
-5.42927
-5.45231
-5.45949
-5.44321
-5.40779
-5.35604
-5.29725
-5.25843
-5.28586
-5.44019
-5.76687
-6.26979
-6.93244
-7.73629
-8.66491
-9.69708
-10.8004
-11.9307
-13.0304
-14.0314
-14.8598
-15.4462
-15.7339
-15.6847
-15.2952
-14.5978
-13.6395
-12.4756
-11.1642
-9.76017
-8.30549
-6.83345
-5.37337
-3.94263
-2.55146
-1.20596
0.0919568
1.34316
2.54967
3.71387
4.83805
5.9229
6.96779
7.96983
8.92427
9.82574
10.6672
11.4395
12.137
12.7554
13.2918
13.7458
14.121
14.4244
14.6649
14.8529
14.9987
15.1117
15.1998
15.2695
15.3259
15.3726
15.4123
15.447
15.4784
15.5073
15.5349
15.5616
15.5883
15.6151
15.6432
15.6721
15.7044
15.7367
15.7778
15.8118
15.8558
15.8597
-5.48565
-5.60619
-5.6205
-5.68228
-5.68741
-5.72652
-5.73526
-5.76319
-5.77438
-5.79602
-5.80835
-5.82622
-5.83896
-5.85462
-5.86744
-5.88182
-5.89497
-5.90932
-5.92282
-5.93677
-5.95041
-5.96411
-5.97737
-5.99043
-6.00304
-6.01546
-6.02771
-6.04009
-6.05272
-6.06582
-6.07945
-6.09372
-6.10866
-6.12431
-6.14066
-6.1577
-6.17538
-6.19364
-6.21238
-6.23153
-6.25104
-6.27085
-6.29095
-6.31129
-6.33183
-6.35255
-6.3734
-6.39438
-6.41547
-6.43666
-6.45795
-6.47933
-6.5008
-6.52237
-6.54402
-6.56578
-6.58762
-6.60956
-6.6316
-6.65371
-6.67589
-6.69812
-6.72036
-6.74255
-6.76464
-6.78652
-6.80809
-6.82918
-6.84961
-6.86915
-6.88752
-6.90439
-6.91937
-6.93202
-6.94183
-6.9482
-6.95054
-6.94807
-6.93979
-6.92499
-6.90279
-6.87239
-6.83299
-6.78389
-6.72453
-6.65452
-6.57375
-6.48246
-6.38121
-6.27118
-6.15395
-6.0318
-5.90784
-5.78578
-5.66788
-5.5584
-5.46422
-5.38844
-5.33115
-5.29175
-5.26656
-5.24887
-5.23006
-5.20398
-5.16451
-5.09999
-5.009
-4.91233
-4.85134
-4.86825
-5.00436
-5.29604
-5.75884
-6.38704
-7.16882
-8.08854
-9.12754
-10.2605
-11.4513
-12.6527
-13.8045
-14.8363
-15.6722
-16.2418
-16.487
-16.3715
-15.9103
-15.1303
-14.0867
-12.8413
-11.4591
-9.99604
-8.49594
-6.99159
-5.51083
-4.06745
-2.67013
-1.32291
-0.0263433
1.22163
2.42408
3.58385
4.70415
5.78706
6.83113
7.83357
8.7898
9.69499
10.5418
11.3209
12.0261
12.6511
13.1934
13.6533
14.0348
14.3446
14.592
14.7874
14.9412
15.0628
15.1599
15.2389
15.3046
15.3605
15.409
15.4522
15.4913
15.5274
15.5615
15.5941
15.6261
15.6575
15.6895
15.7212
15.7548
15.7864
15.8201
15.8404
15.8643
15.8437
-5.50089
-5.62444
-5.63812
-5.70344
-5.70813
-5.75027
-5.75885
-5.78913
-5.80046
-5.82387
-5.83658
-5.85582
-5.86906
-5.88576
-5.89916
-5.91442
-5.92789
-5.94241
-5.95628
-5.97104
-5.98513
-5.99929
-6.01319
-6.02705
-6.04064
-6.05422
-6.06773
-6.08142
-6.09533
-6.10966
-6.12444
-6.13982
-6.1558
-6.17245
-6.18978
-6.20777
-6.22641
-6.24564
-6.2654
-6.28564
-6.30631
-6.32738
-6.34883
-6.37063
-6.39274
-6.41513
-6.43778
-6.46067
-6.48378
-6.50712
-6.53066
-6.55442
-6.57837
-6.60254
-6.6269
-6.65148
-6.67627
-6.70126
-6.72647
-6.75187
-6.77746
-6.80322
-6.8291
-6.85508
-6.88106
-6.90697
-6.93269
-6.95805
-6.98288
-7.00692
-7.02989
-7.05144
-7.07118
-7.08861
-7.10322
-7.11438
-7.12144
-7.12356
-7.12014
-7.11032
-7.09331
-7.06827
-7.03435
-6.99074
-6.93672
-6.87169
-6.79527
-6.70727
-6.60789
-6.49754
-6.37722
-6.24824
-6.11228
-5.97177
-5.82977
-5.6873
-5.54749
-5.41716
-5.29719
-5.18701
-5.0863
-4.99186
-4.89913
-4.80409
-4.69947
-4.58981
-4.48354
-4.40464
-4.39415
-4.49953
-4.74871
-5.15877
-5.73365
-6.47035
-7.35979
-8.38861
-9.5371
-10.7781
-12.0738
-13.3741
-14.6151
-15.7198
-16.6039
-17.1911
-17.4187
-17.2475
-16.6946
-15.8087
-14.6588
-13.3167
-11.8528
-10.3242
-8.77427
-7.23591
-5.73227
-4.27491
-2.86992
-1.51908
-0.221401
1.02655
2.22934
3.39099
4.51327
5.59793
6.64517
7.65196
8.61274
9.52311
10.375
11.1582
11.8672
12.4958
13.0401
13.4998
13.8803
14.1891
14.4355
14.6302
14.7836
14.9053
15.003
15.083
15.1498
15.2069
15.2565
15.3006
15.3404
15.3769
15.4109
15.4429
15.4735
15.5029
15.532
15.5597
15.5882
15.6135
15.6419
15.6607
15.6827
15.6648
-5.51466
-5.63895
-5.65055
-5.71743
-5.72103
-5.76492
-5.77304
-5.80494
-5.81641
-5.84132
-5.85461
-5.87527
-5.88939
-5.90743
-5.92182
-5.93827
-5.95269
-5.96828
-5.98272
-5.99802
-6.0129
-6.02775
-6.04199
-6.05634
-6.07044
-6.08455
-6.09855
-6.11269
-6.12693
-6.1415
-6.15638
-6.17172
-6.18755
-6.20393
-6.22087
-6.23836
-6.25641
-6.27498
-6.29403
-6.31354
-6.3335
-6.35388
-6.37469
-6.39589
-6.41747
-6.43939
-6.46166
-6.48426
-6.50718
-6.53042
-6.55398
-6.57785
-6.60203
-6.62654
-6.65138
-6.67656
-6.70209
-6.72798
-6.75425
-6.7809
-6.80793
-6.83536
-6.86318
-6.89135
-6.91984
-6.9486
-6.97754
-7.00654
-7.03544
-7.06403
-7.09206
-7.11919
-7.14506
-7.16921
-7.19109
-7.2101
-7.22556
-7.23667
-7.24263
-7.24254
-7.23542
-7.22025
-7.19598
-7.16161
-7.11617
-7.05881
-6.98879
-6.9056
-6.8089
-6.69869
-6.57518
-6.43894
-6.29089
-6.13189
-5.96364
-5.78828
-5.60499
-5.41774
-5.23123
-5.0443
-4.8587
-4.67575
-4.49733
-4.32947
-4.17562
-4.04918
-3.96649
-3.95005
-4.02433
-4.22378
-4.5708
-5.07253
-5.7354
-6.5588
-7.53667
-8.65661
-9.89869
-11.2339
-12.6213
-14.0059
-15.3183
-16.4755
-17.3866
-17.9715
-18.1638
-17.9276
-17.2942
-16.3175
-15.0767
-13.6529
-12.121
-10.54
-8.9527
-7.39113
-5.87378
-4.40997
-3.00304
-1.65187
-0.35485
0.891388
2.09261
3.25379
4.37802
5.46607
6.51765
7.52891
8.49375
9.40804
10.2635
11.0499
11.7609
12.3924
12.9407
13.4055
13.7892
14.1014
14.3523
14.5523
14.7118
14.8402
14.9454
15.0331
15.108
15.1731
15.2307
15.2824
15.3296
15.373
15.4135
15.4516
15.4879
15.5223
15.5558
15.5872
15.618
15.644
15.6692
15.6767
15.6836
15.6472
-5.53298
-5.65831
-5.66927
-5.7383
-5.74152
-5.78753
-5.79557
-5.82924
-5.84093
-5.86727
-5.88103
-5.90285
-5.91754
-5.93653
-5.95149
-5.96868
-5.9836
-5.99969
-6.01454
-6.03008
-6.04488
-6.06017
-6.07528
-6.09027
-6.10485
-6.11962
-6.13442
-6.14942
-6.16456
-6.18004
-6.19583
-6.21209
-6.22882
-6.24609
-6.2639
-6.28226
-6.30117
-6.32062
-6.34058
-6.36107
-6.38206
-6.40356
-6.42557
-6.44806
-6.47102
-6.49443
-6.51828
-6.54258
-6.56729
-6.59243
-6.61799
-6.64396
-6.67035
-6.69717
-6.72442
-6.75211
-6.78027
-6.8089
-6.83801
-6.86763
-6.89777
-6.92844
-6.95962
-6.99131
-7.02348
-7.05608
-7.08902
-7.12218
-7.15541
-7.18849
-7.22116
-7.25308
-7.28385
-7.313
-7.33999
-7.36417
-7.38486
-7.40124
-7.41238
-7.4174
-7.41534
-7.40513
-7.38566
-7.35578
-7.31431
-7.26014
-7.19222
-7.10963
-7.01165
-6.89768
-6.76746
-6.62088
-6.45811
-6.27957
-6.08558
-5.87738
-5.65576
-5.42046
-5.17627
-4.92506
-4.66941
-4.41461
-4.167
-3.93961
-3.74697
-3.60914
-3.54643
-3.58093
-3.72892
-4.00842
-4.43892
-5.02187
-5.76132
-6.65952
-7.71215
-8.90821
-10.2291
-11.6458
-13.1159
-14.5813
-15.9681
-17.1863
-18.1348
-18.7278
-18.8948
-18.5985
-17.8765
-16.8049
-15.4746
-13.9749
-12.383
-10.7584
-9.14189
-7.5616
-6.0338
-4.56608
-3.15824
-1.80732
-0.510208
0.73726
1.94079
3.10486
4.23306
5.32667
6.38451
7.4021
8.37248
9.29147
10.1507
10.9397
11.6511
12.2807
12.8265
13.2908
13.6751
13.9856
14.2352
14.4348
14.5944
14.7232
14.829
14.9176
14.9933
15.0591
15.1171
15.1691
15.216
15.2588
15.2982
15.3346
15.3685
15.3999
15.4295
15.4559
15.4811
15.5005
15.5195
15.5258
15.5336
15.5005
-5.55069
-5.67608
-5.68557
-5.75539
-5.75776
-5.80481
-5.81248
-5.84719
-5.85897
-5.88633
-5.90053
-5.92336
-5.93875
-5.95874
-5.97453
-5.99267
-6.00844
-6.02537
-6.04095
-6.05711
-6.07251
-6.08813
-6.10327
-6.11873
-6.13418
-6.14949
-6.16456
-6.17993
-6.19531
-6.21102
-6.22701
-6.24343
-6.26028
-6.27763
-6.29547
-6.31382
-6.33268
-6.35207
-6.37199
-6.39245
-6.41346
-6.43503
-6.45716
-6.47985
-6.50307
-6.52684
-6.55114
-6.57597
-6.60133
-6.6272
-6.6536
-6.68052
-6.70797
-6.73595
-6.76448
-6.79356
-6.82323
-6.8535
-6.88439
-6.91593
-6.94815
-6.98106
-7.01469
-7.04903
-7.08408
-7.11982
-7.15618
-7.19307
-7.23035
-7.26783
-7.30525
-7.34229
-7.37855
-7.41354
-7.44669
-7.47734
-7.50477
-7.52807
-7.54635
-7.55863
-7.56382
-7.56064
-7.54775
-7.5238
-7.48735
-7.43703
-7.37145
-7.28938
-7.18964
-7.0713
-6.93357
-6.77594
-6.59807
-6.39991
-6.18168
-5.94358
-5.68707
-5.41247
-5.12205
-4.82024
-4.51213
-4.20574
-3.91197
-3.64923
-3.43752
-3.29829
-3.25253
-3.32038
-3.51721
-3.85425
-4.34537
-4.99429
-5.80034
-6.76393
-7.88021
-9.1388
-10.5217
-11.9996
-13.5286
-15.0477
-16.4791
-17.7272
-18.6845
-19.2636
-19.3897
-19.0402
-18.2529
-17.1166
-15.7262
-14.1755
-12.5456
-10.897
-9.26766
-7.68148
-6.15247
-4.68585
-3.28015
-1.932
-0.636921
0.610484
1.8153
2.98192
4.11365
5.21225
6.27642
7.30082
8.27726
9.20071
10.0637
10.8557
11.5698
12.1997
12.7439
13.2056
13.5913
13.9048
14.156
14.3586
14.5226
14.6566
14.7682
14.863
14.9451
15.0174
15.082
15.1403
15.1935
15.2424
15.2876
15.3294
15.3686
15.4047
15.4386
15.4688
15.4967
15.5172
15.5353
15.5338
15.5303
15.4828
-5.57004
-5.69531
-5.70414
-5.77483
-5.77699
-5.82515
-5.83286
-5.86861
-5.88065
-5.90894
-5.92358
-5.94725
-5.96319
-5.98393
-6.00033
-6.01916
-6.03555
-6.0531
-6.06926
-6.08596
-6.10188
-6.11804
-6.13379
-6.14964
-6.16526
-6.18122
-6.19741
-6.21356
-6.2296
-6.24609
-6.26279
-6.27995
-6.29755
-6.31564
-6.33424
-6.35338
-6.37307
-6.39334
-6.4142
-6.43568
-6.45779
-6.48055
-6.50396
-6.528
-6.55269
-6.57801
-6.60397
-6.63054
-6.65774
-6.68555
-6.71396
-6.74299
-6.77262
-6.80288
-6.83375
-6.86528
-6.89746
-6.93034
-6.96393
-6.99827
-7.03338
-7.0693
-7.10605
-7.14365
-7.18208
-7.22134
-7.26135
-7.30204
-7.34325
-7.38478
-7.42636
-7.46762
-7.50813
-7.54736
-7.58474
-7.61957
-7.65111
-7.67848
-7.70067
-7.71659
-7.72508
-7.72487
-7.71456
-7.69263
-7.65752
-7.60758
-7.5412
-7.4568
-7.35292
-7.22821
-7.08155
-6.91205
-6.71907
-6.5023
-6.26195
-5.99837
-5.71304
-5.40787
-5.08438
-4.74807
-4.4069
-4.07018
-3.75108
-3.46968
-3.24928
-3.11229
-3.08073
-3.17336
-3.40425
-3.78319
-4.31776
-5.01246
-5.86699
-6.87843
-8.04087
-9.34383
-10.7689
-12.2857
-13.8494
-15.3977
-16.8511
-18.1099
-19.061
-19.616
-19.7059
-19.3146
-18.4812
-17.3009
-15.8747
-14.3002
-12.657
-11.0016
-9.36997
-7.78658
-6.26296
-4.80149
-3.40077
-2.05699
-0.765129
0.480995
1.68714
2.85754
3.99533
5.10135
6.17364
7.20637
8.18999
9.11846
9.98515
10.7789
11.4924
12.1207
12.6633
13.1211
13.5016
13.8143
14.0653
14.2669
14.431
14.5658
14.6783
14.774
14.8569
14.9298
14.9947
15.0529
15.1056
15.1534
15.1971
15.2369
15.2733
15.3061
15.3359
15.3611
15.3834
15.3979
15.4101
15.4061
15.4049
15.3606
-5.5886
-5.71278
-5.72051
-5.79107
-5.79266
-5.8411
-5.84855
-5.88478
-5.89689
-5.92576
-5.94075
-5.9651
-5.9816
-6.0031
-6.02021
-6.03985
-6.05703
-6.0754
-6.09238
-6.10986
-6.12654
-6.14341
-6.15985
-6.17636
-6.19275
-6.20914
-6.2258
-6.2428
-6.25957
-6.2764
-6.2936
-6.3113
-6.3294
-6.34793
-6.367
-6.38657
-6.40676
-6.42753
-6.44897
-6.47109
-6.49391
-6.51746
-6.54173
-6.56674
-6.59248
-6.61895
-6.64614
-6.67405
-6.70267
-6.73198
-6.76199
-6.79269
-6.82407
-6.85615
-6.88892
-6.92241
-6.95663
-6.9916
-7.02736
-7.06394
-7.10138
-7.13971
-7.17897
-7.21917
-7.26034
-7.30246
-7.34548
-7.38933
-7.43384
-7.47883
-7.52399
-7.56897
-7.61332
-7.65649
-7.69783
-7.73664
-7.77214
-7.80331
-7.82918
-7.84873
-7.86064
-7.86346
-7.85563
-7.83547
-7.80121
-7.75104
-7.6831
-7.59563
-7.48691
-7.35542
-7.19978
-7.01894
-6.81211
-6.57897
-6.31988
-6.03559
-5.72789
-5.3998
-5.05382
-4.69603
-4.33701
-3.98692
-3.65991
-3.37634
-3.16043
-3.03365
-3.01731
-3.12935
-3.3834
-3.78938
-4.35349
-5.07789
-5.96218
-7.00256
-8.19237
-9.52
-10.9656
-12.497
-14.0682
-15.6156
-17.0578
-18.2923
-19.2086
-19.7244
-19.7788
-19.3614
-18.5096
-17.3191
-15.8904
-14.3214
-12.6889
-11.0443
-9.42477
-7.85529
-6.34561
-4.89663
-3.50568
-2.16869
-0.880401
0.364886
1.57261
2.74697
3.89081
5.00444
6.08521
7.1267
8.11785
9.05174
9.92253
10.7188
11.4321
12.0585
12.5986
13.0552
13.433
13.7432
13.9958
14.1996
14.3667
14.5053
14.6222
14.7227
14.8105
14.8885
14.9584
15.0216
15.0793
15.132
15.1805
15.2249
15.2658
15.3027
15.3363
15.3648
15.3897
15.4057
15.4179
15.4098
15.4
15.3447
-5.60834
-5.73025
-5.73783
-5.80815
-5.80989
-5.85867
-5.86634
-5.90297
-5.91534
-5.94473
-5.96014
-5.98506
-6.0021
-6.02422
-6.04195
-6.06226
-6.08014
-6.09924
-6.117
-6.1353
-6.15285
-6.17063
-6.18802
-6.20552
-6.22287
-6.24031
-6.25786
-6.27542
-6.29337
-6.31181
-6.3302
-6.34874
-6.36796
-6.38743
-6.40745
-6.42812
-6.44944
-6.47148
-6.49425
-6.5178
-6.54216
-6.56734
-6.59336
-6.62021
-6.64789
-6.67639
-6.70569
-6.73579
-6.76666
-6.7983
-6.83067
-6.86378
-6.89761
-6.93217
-6.96744
-7.00346
-7.04023
-7.07779
-7.11616
-7.15538
-7.19547
-7.23648
-7.27843
-7.32136
-7.36527
-7.41015
-7.45595
-7.50256
-7.54984
-7.59754
-7.64537
-7.69291
-7.73967
-7.78507
-7.82844
-7.86907
-7.90614
-7.93871
-7.9657
-7.98595
-7.99807
-8.00057
-7.99183
-7.97005
-7.93337
-7.87981
-7.80742
-7.71428
-7.59862
-7.45883
-7.29353
-7.10168
-6.88259
-6.63608
-6.36268
-6.06367
-5.74137
-5.39952
-5.04236
-4.67617
-4.31308
-3.96439