/*--------------------------------*- C++ -*----------------------------------*\
| =========                 |                                                 |
| \\      /  F ield         | OpenFOAM: The Open Source CFD Toolbox           |
|  \\    /   O peration     | Version:  v1906                                 |
|   \\  /    A nd           | Web:      www.OpenFOAM.com                      |
|    \\/     M anipulation  |                                                 |
\*---------------------------------------------------------------------------*/
FoamFile
{
    version     2.0;
    format      ascii;
    class       surfaceScalarField;
    location    "1600";
    object      phi;
}
// * * * * * * * * * * * * * * * * * * * * * * * * * * * * * * * * * * * * * //

dimensions      [0 3 -1 0 0 0 0];
oriented        oriented;


internalField   nonuniform List<scalar> 
24170
(
3.08265e-06
1.05753e-07
2.99015e-06
9.25074e-08
2.92442e-06
6.57301e-08
2.86882e-06
5.55934e-08
2.82074e-06
4.80829e-08
2.77865e-06
4.20925e-08
2.74118e-06
3.74665e-08
2.70755e-06
3.36327e-08
2.67732e-06
3.02262e-08
2.65016e-06
2.71608e-08
2.62567e-06
2.44921e-08
2.60347e-06
2.21996e-08
2.58344e-06
2.0033e-08
2.56564e-06
1.78007e-08
2.55045e-06
1.51873e-08
2.53839e-06
1.20557e-08
2.53057e-06
7.8248e-09
-4.36415e-09
2.53493e-06
3.44174e-06
8.12577e-08
3.44163e-06
9.2624e-08
3.4298e-06
7.75606e-08
3.41582e-06
6.95748e-08
3.40097e-06
6.29314e-08
3.38632e-06
5.67402e-08
3.3722e-06
5.15882e-08
3.35866e-06
4.71662e-08
3.34572e-06
4.31699e-08
3.33338e-06
3.94999e-08
3.32169e-06
3.61863e-08
3.3107e-06
3.31874e-08
3.30037e-06
3.03629e-08
3.29071e-06
2.74649e-08
3.28159e-06
2.43074e-08
3.2731e-06
2.05381e-08
3.26596e-06
1.49666e-08
4.63019e-09
3.25697e-06
3.67699e-06
6.67809e-08
3.67937e-06
9.0249e-08
3.67356e-06
8.33681e-08
3.66584e-06
7.72916e-08
3.65808e-06
7.06957e-08
3.65077e-06
6.40479e-08
3.64396e-06
5.83956e-08
3.63759e-06
5.35394e-08
3.63161e-06
4.91549e-08
3.62597e-06
4.51321e-08
3.62071e-06
4.14516e-08
3.61585e-06
3.80516e-08
3.61142e-06
3.47908e-08
3.60744e-06
3.14408e-08
3.60392e-06
2.78308e-08
3.60098e-06
2.34736e-08
3.59741e-06
1.85357e-08
1.05211e-08
3.59152e-06
3.93504e-06
5.7132e-08
3.94211e-06
8.31791e-08
3.94429e-06
8.11803e-08
3.94436e-06
7.72219e-08
3.94305e-06
7.20095e-08
3.94087e-06
6.62274e-08
3.93828e-06
6.09873e-08
3.93554e-06
5.62749e-08
3.9328e-06
5.19002e-08
3.93012e-06
4.78099e-08
3.92758e-06
4.39875e-08
3.92526e-06
4.03758e-08
3.92321e-06
3.6843e-08
3.92146e-06
3.31882e-08
3.92006e-06
2.92366e-08
3.91897e-06
2.45627e-08
3.91856e-06
1.8944e-08
1.03818e-08
3.9187e-06
4.21871e-06
4.55529e-08
4.22811e-06
7.37741e-08
4.23195e-06
7.73366e-08
4.2333e-06
7.58801e-08
4.23346e-06
7.18419e-08
4.23303e-06
6.66586e-08
4.23236e-06
6.16575e-08
4.23161e-06
5.70255e-08
4.23084e-06
5.26719e-08
4.23008e-06
4.85674e-08
4.22938e-06
4.46881e-08
4.22879e-06
4.09681e-08
4.22834e-06
3.72937e-08
4.22805e-06
3.34778e-08
4.22785e-06
2.94392e-08
4.22766e-06
2.4753e-08
4.22657e-06
2.00265e-08
1.39614e-08
4.22299e-06
4.51693e-06
3.77069e-08
4.52531e-06
6.53973e-08
4.53116e-06
7.14824e-08
4.53552e-06
7.15196e-08
4.53875e-06
6.86135e-08
4.54106e-06
6.435e-08
4.54275e-06
5.99652e-08
4.54406e-06
5.57187e-08
4.54512e-06
5.16104e-08
4.54604e-06
4.76517e-08
4.54689e-06
4.38344e-08
4.54775e-06
4.01067e-08
4.54867e-06
3.63768e-08
4.54965e-06
3.24953e-08
4.55073e-06
2.83648e-08
4.55177e-06
2.37086e-08
4.55328e-06
1.85134e-08
1.22397e-08
4.55501e-06
4.84015e-06
3.0278e-08
4.84859e-06
5.69537e-08
4.85454e-06
6.55365e-08
4.85868e-06
6.73793e-08
4.86164e-06
6.56499e-08
4.86383e-06
6.21587e-08
4.8656e-06
5.8202e-08
4.86713e-06
5.41826e-08
4.86854e-06
5.02071e-08
4.86986e-06
4.63258e-08
4.87115e-06
4.25447e-08
4.87244e-06
3.88204e-08
4.87373e-06
3.50876e-08
4.875e-06
3.12227e-08
4.87615e-06
2.72162e-08
4.877e-06
2.28612e-08
4.87688e-06
1.86327e-08
1.39335e-08
4.87518e-06
5.1854e-06
2.44629e-08
5.19286e-06
4.94849e-08
5.19933e-06
5.90746e-08
5.20489e-06
6.18165e-08
5.20965e-06
6.0894e-08
5.21368e-06
5.81281e-08
5.21716e-06
5.4715e-08
5.22026e-06
5.10838e-08
5.22308e-06
4.73901e-08
5.2257e-06
4.37088e-08
5.22818e-06
4.00609e-08
5.23058e-06
3.64204e-08
5.23293e-06
3.27404e-08
5.23521e-06
2.89358e-08
5.23746e-06
2.49669e-08
5.2396e-06
2.07257e-08
5.24202e-06
1.62106e-08
1.15202e-08
5.24443e-06
5.55573e-06
2.00702e-08
5.56242e-06
4.27982e-08
5.56862e-06
5.28685e-08
5.57385e-06
5.65923e-08
5.57817e-06
5.65735e-08
5.58177e-06
5.45259e-08
5.58489e-06
5.1595e-08
5.5877e-06
4.82758e-08
5.59029e-06
4.47949e-08
5.59274e-06
4.12644e-08
5.59507e-06
3.77291e-08
5.59731e-06
3.41819e-08
5.59944e-06
3.06065e-08
5.60143e-06
2.69447e-08
5.60317e-06
2.32343e-08
5.60449e-06
1.93995e-08
5.60494e-06
1.57613e-08
1.1955e-08
5.60451e-06
5.95405e-06
1.5797e-08
5.96045e-06
3.64011e-08
5.9668e-06
4.65147e-08
5.97276e-06
5.06295e-08
5.97822e-06
5.11141e-08
5.98316e-06
4.95916e-08
5.98765e-06
4.71023e-08
5.99179e-06
4.41367e-08
5.99564e-06
4.09398e-08
5.99927e-06
3.76364e-08
6.00272e-06
3.42826e-08
6.00601e-06
3.08876e-08
6.00917e-06
2.74453e-08
6.01219e-06
2.3927e-08
6.01509e-06
2.03339e-08
6.01784e-06
1.66529e-08
6.02069e-06
1.29075e-08
9.38716e-09
6.02326e-06
6.37929e-06
1.33144e-08
6.38441e-06
3.12848e-08
6.3902e-06
4.07305e-08
6.39573e-06
4.50912e-08
6.40076e-06
4.60892e-08
6.40524e-06
4.51052e-08
6.40929e-06
4.30559e-08
6.413e-06
4.04311e-08
6.41643e-06
3.75021e-08
6.41965e-06
3.44164e-08
6.42269e-06
3.12514e-08
6.42554e-06
2.80354e-08
6.42819e-06
2.47894e-08
6.43062e-06
2.15027e-08
6.43272e-06
1.82323e-08
6.43442e-06
1.49545e-08
6.43545e-06
1.18803e-08
8.85518e-09
6.43598e-06
5.74348e-06
1.0666e-08
5.74805e-06
2.67168e-08
5.75309e-06
3.56884e-08
5.75813e-06
4.00519e-08
5.76297e-06
4.12488e-08
5.76752e-06
4.05596e-08
5.77177e-06
3.87992e-08
5.77577e-06
3.64372e-08
5.77953e-06
3.37421e-08
5.78308e-06
3.08643e-08
5.78645e-06
2.78865e-08
5.78963e-06
2.48473e-08
5.79265e-06
2.1771e-08
5.79549e-06
1.86663e-08
5.79816e-06
1.55581e-08
5.80064e-06
1.24756e-08
5.80308e-06
9.44331e-09
6.73519e-09
5.8052e-06
6.99961e-06
9.2104e-09
7.00354e-06
2.2785e-08
7.00863e-06
3.06026e-08
7.01397e-06
3.47132e-08
7.01915e-06
3.60664e-08
7.02402e-06
3.56935e-08
7.02855e-06
3.42657e-08
7.03277e-06
3.22119e-08
7.03672e-06
2.97937e-08
7.04042e-06
2.7167e-08
7.04388e-06
2.44254e-08
7.04711e-06
2.16199e-08
7.05009e-06
1.87893e-08
7.0528e-06
1.59531e-08
7.05521e-06
1.31512e-08
7.05729e-06
1.03985e-08
7.05898e-06
7.75084e-09
5.06805e-09
7.06065e-06
8.53357e-06
6.48296e-09
8.53874e-06
1.7618e-08
8.54487e-06
2.44697e-08
8.55138e-06
2.82109e-08
8.5579e-06
2.9544e-08
8.56425e-06
2.93398e-08
8.57036e-06
2.81618e-08
8.57618e-06
2.63896e-08
8.58171e-06
2.42619e-08
8.58695e-06
2.19254e-08
8.59191e-06
1.94709e-08
8.59657e-06
1.69542e-08
8.60095e-06
1.44158e-08
8.60501e-06
1.18862e-08
8.60876e-06
9.40266e-09
8.61215e-06
7.00838e-09
8.61516e-06
4.74246e-09
2.83124e-09
8.6174e-06
1.04003e-05
5.39394e-09
1.04042e-05
1.3687e-08
1.04099e-05
1.87698e-08
1.04165e-05
2.16497e-08
1.04233e-05
2.27384e-08
1.043e-05
2.26147e-08
1.04365e-05
2.16765e-08
1.04427e-05
2.02134e-08
1.04485e-05
1.84207e-08
1.0454e-05
1.6427e-08
1.04592e-05
1.43162e-08
1.0464e-05
1.21447e-08
1.04685e-05
9.94828e-09
1.04726e-05
7.75787e-09
1.04764e-05
5.58414e-09
1.048e-05
3.45658e-09
1.04833e-05
1.35558e-09
-7.55293e-10
1.04869e-05
1.26793e-05
2.92633e-09
1.26846e-05
8.33354e-09
1.26915e-05
1.18616e-08
1.26993e-05
1.38873e-08
1.27074e-05
1.46274e-08
1.27155e-05
1.4471e-08
1.27235e-05
1.37001e-08
1.27312e-05
1.25269e-08
1.27385e-05
1.11007e-08
1.27454e-05
9.52194e-09
1.27519e-05
7.86216e-09
1.27579e-05
6.17225e-09
1.27633e-05
4.49492e-09
1.27682e-05
2.86072e-09
1.27725e-05
1.31085e-09
1.27761e-05
-1.31837e-10
1.27789e-05
-1.43454e-09
-2.51537e-09
1.27806e-05
1.54548e-05
1.289e-09
1.54597e-05
3.47888e-09
1.54668e-05
4.73043e-09
1.54754e-05
5.28693e-09
1.54848e-05
5.23935e-09
1.54945e-05
4.76212e-09
1.55042e-05
3.98e-09
1.55138e-05
2.9895e-09
1.5523e-05
1.86162e-09
1.55319e-05
6.47892e-10
1.55404e-05
-6.17289e-10
1.55484e-05
-1.90393e-09
1.55561e-05
-3.20009e-09
1.55635e-05
-4.47928e-09
1.55705e-05
-5.75171e-09
1.55774e-05
-6.97362e-09
1.55841e-05
-8.17732e-09
-9.26115e-09
1.55909e-05
1.88389e-05
3.73495e-11
1.88433e-05
-8.98863e-10
1.88498e-05
-1.84537e-09
1.88578e-05
-2.62623e-09
1.88663e-05
-3.2996e-09
1.8875e-05
-3.90617e-09
1.88834e-05
-4.47816e-09
1.88914e-05
-5.03171e-09
1.88989e-05
-5.57188e-09
1.89056e-05
-6.09823e-09
1.89116e-05
-6.60673e-09
1.89168e-05
-7.09535e-09
1.89212e-05
-7.55738e-09
1.89247e-05
-7.9925e-09
1.89273e-05
-8.39568e-09
1.89291e-05
-8.7655e-09
1.89301e-05
-9.13621e-09
-9.48918e-09
1.89303e-05
2.29683e-05
-4.88605e-09
2.29786e-05
-1.12584e-08
2.29923e-05
-1.55493e-08
2.30083e-05
-1.85537e-08
2.30256e-05
-2.0605e-08
2.30436e-05
-2.19535e-08
2.30619e-05
-2.28122e-08
2.30802e-05
-2.33379e-08
2.30983e-05
-2.36393e-08
2.3116e-05
-2.37877e-08
2.31332e-05
-2.38266e-08
2.31499e-05
-2.37755e-08
2.3166e-05
-2.36395e-08
2.31814e-05
-2.34074e-08
2.31961e-05
-2.30649e-08
2.32099e-05
-2.25812e-08
2.32227e-05
-2.1955e-08
-2.08584e-08
2.32341e-05
1.681e-05
-4.1843e-09
1.68119e-05
-1.31888e-08
1.68159e-05
-1.95118e-08
1.68209e-05
-2.35236e-08
1.68261e-05
-2.58007e-08
1.6831e-05
-2.69146e-08
1.68355e-05
-2.72945e-08
1.68394e-05
-2.7222e-08
1.68426e-05
-2.68739e-08
1.68452e-05
-2.63605e-08
1.68471e-05
-2.5746e-08
1.68484e-05
-2.50728e-08
1.68491e-05
-2.43621e-08
1.68494e-05
-2.36435e-08
1.68492e-05
-2.29253e-08
1.68489e-05
-2.22647e-08
1.68486e-05
-2.16576e-08
-2.1529e-08
1.68493e-05
1.46398e-05
-9.44184e-09
1.46491e-05
-2.25114e-08
1.46602e-05
-3.05783e-08
1.46722e-05
-3.54852e-08
1.46845e-05
-3.81349e-08
1.46968e-05
-3.92333e-08
1.47089e-05
-3.93625e-08
1.47206e-05
-3.89135e-08
1.47318e-05
-3.81341e-08
1.47427e-05
-3.71822e-08
1.47531e-05
-3.61577e-08
1.47631e-05
-3.51177e-08
1.47729e-05
-3.41006e-08
1.47823e-05
-3.3113e-08
1.47916e-05
-3.2172e-08
1.48005e-05
-3.12236e-08
1.48092e-05
-3.02947e-08
-2.8792e-08
1.48164e-05
1.27405e-05
-9.80669e-09
1.27443e-05
-2.63042e-08
1.27496e-05
-3.58831e-08
1.2755e-05
-4.0884e-08
1.27598e-05
-4.29713e-08
1.27639e-05
-4.33126e-08
1.27673e-05
-4.27095e-08
1.277e-05
-4.16141e-08
1.27721e-05
-4.02636e-08
1.27737e-05
-3.87917e-08
1.27748e-05
-3.72696e-08
1.27754e-05
-3.57345e-08
1.27755e-05
-3.41908e-08
1.2775e-05
-3.26472e-08
1.27739e-05
-3.10689e-08
1.27722e-05
-2.94987e-08
1.27698e-05
-2.78582e-08
-2.68575e-08
1.27678e-05
1.10974e-05
-1.62938e-08
1.11078e-05
-3.66659e-08
1.11189e-05
-4.69661e-08
1.11299e-05
-5.19406e-08
1.11406e-05
-5.36198e-08
1.11505e-05
-5.3278e-08
1.11597e-05
-5.19143e-08
1.11682e-05
-5.0089e-08
1.1176e-05
-4.8077e-08
1.11833e-05
-4.60315e-08
1.119e-05
-4.40415e-08
1.11965e-05
-4.21531e-08
1.12027e-05
-4.04031e-08
1.12088e-05
-3.8811e-08
1.12152e-05
-3.74403e-08
1.1222e-05
-3.62795e-08
1.12296e-05
-3.54932e-08
-3.42681e-08
1.1237e-05
9.65929e-06
-2.0374e-08
9.66686e-06
-4.42275e-08
9.67383e-06
-5.39433e-08
9.67925e-06
-5.73589e-08
9.68322e-06
-5.75928e-08
9.68607e-06
-5.61272e-08
9.68816e-06
-5.39991e-08
9.68974e-06
-5.16709e-08
9.69096e-06
-4.92954e-08
9.69188e-06
-4.69519e-08
9.69252e-06
-4.46851e-08
9.69288e-06
-4.25117e-08
9.6929e-06
-4.04172e-08
9.69247e-06
-3.83859e-08
9.69135e-06
-3.63187e-08
9.68925e-06
-3.41764e-08
9.68535e-06
-3.15931e-08
-2.92579e-08
9.68034e-06
8.41371e-06
-2.87328e-08
8.42529e-06
-5.581e-08
8.4359e-06
-6.45525e-08
8.44532e-06
-6.67735e-08
8.45344e-06
-6.57139e-08
8.46019e-06
-6.28786e-08
8.46576e-06
-5.95728e-08
8.47041e-06
-5.63175e-08
8.47433e-06
-5.32162e-08
8.47769e-06
-5.03071e-08
8.48061e-06
-4.76092e-08
8.48322e-06
-4.51173e-08
8.48563e-06
-4.28295e-08
8.48799e-06
-4.07443e-08
8.49061e-06
-3.89383e-08
8.49389e-06
-3.74566e-08
8.49907e-06
-3.67759e-08
-3.63597e-08
8.50617e-06
7.32836e-06
-3.98126e-08
7.3397e-06
-6.71506e-08
7.34578e-06
-7.06301e-08
7.34859e-06
-6.95813e-08
7.34968e-06
-6.68034e-08
7.34983e-06
-6.30292e-08
7.34954e-06
-5.92835e-08
7.34906e-06
-5.58326e-08
7.34845e-06
-5.26085e-08
7.34773e-06
-4.95908e-08
7.34691e-06
-4.67855e-08
7.34597e-06
-4.41834e-08
7.34491e-06
-4.17599e-08
7.34366e-06
-3.95031e-08
7.34204e-06
-3.73159e-08
7.33973e-06
-3.51486e-08
7.33526e-06
-3.23018e-08
-2.87817e-08
7.32768e-06
6.38074e-06
-5.04874e-08
6.39203e-06
-7.84424e-08
6.39899e-06
-7.75887e-08
6.4033e-06
-7.38946e-08
6.40542e-06
-6.89206e-08
6.40582e-06
-6.34229e-08
6.40512e-06
-5.85899e-08
6.40379e-06
-5.44968e-08
6.40207e-06
-5.08952e-08
6.40014e-06
-4.76572e-08
6.39808e-06
-4.47278e-08
6.39596e-06
-4.20614e-08
6.39382e-06
-3.96251e-08
6.39171e-06
-3.7391e-08
6.3898e-06
-3.54025e-08
6.3883e-06
-3.36511e-08
6.38884e-06
-3.28356e-08
-3.30277e-08
6.39308e-06
5.5641e-06
-6.91179e-08
5.57019e-06
-8.454e-08
5.56579e-06
-7.31812e-08
5.55833e-06
-6.64419e-08
5.55051e-06
-6.11003e-08
5.54302e-06
-5.59349e-08
5.53603e-06
-5.15913e-08
5.52946e-06
-4.79279e-08
5.52323e-06
-4.46686e-08
5.51728e-06
-4.17106e-08
5.51158e-06
-3.90201e-08
5.50608e-06
-3.65639e-08
5.50076e-06
-3.43094e-08
5.49562e-06
-3.2252e-08
5.49056e-06
-3.03415e-08
5.48553e-06
-2.86172e-08
5.47906e-06
-2.63645e-08
-2.28932e-08
5.46892e-06
4.85182e-06
-9.33285e-08
4.85532e-06
-8.80394e-08
4.84523e-06
-6.30951e-08
4.83341e-06
-5.46209e-08
4.82063e-06
-4.83242e-08
4.80813e-06
-4.343e-08
4.79629e-06
-3.9752e-08
4.78513e-06
-3.67717e-08
4.77458e-06
-3.41157e-08
4.76455e-06
-3.16755e-08
4.75496e-06
-2.94329e-08
4.74577e-06
-2.73737e-08
4.73695e-06
-2.54885e-08
4.72847e-06
-2.37732e-08
4.72039e-06
-2.2262e-08
4.71275e-06
-2.09787e-08
4.70704e-06
-2.06513e-08
-2.13759e-08
4.70552e-06
4.10935e-06
4.02131e-06
3.95821e-06
3.90359e-06
3.85527e-06
3.81184e-06
3.77209e-06
3.73531e-06
3.7012e-06
3.66952e-06
3.64009e-06
3.61272e-06
3.58723e-06
3.56345e-06
3.54119e-06
3.52021e-06
3.49956e-06
3.47819e-06
5.50866e-08
-5.50867e-08
1.09391e-07
-5.43091e-08
1.69744e-07
-6.03486e-08
2.18333e-07
-4.859e-08
2.65174e-07
-4.68357e-08
3.04687e-07
-3.9513e-08
3.41095e-07
-3.64022e-08
3.71831e-07
-3.07354e-08
3.992e-07
-2.73631e-08
4.2234e-07
-2.31406e-08
4.42808e-07
-2.0463e-08
4.60018e-07
-1.72114e-08
4.7362e-07
-1.35977e-08
4.81056e-07
-7.43575e-09
4.80614e-07
4.45391e-10
4.7144e-07
9.17335e-09
4.53723e-07
1.77187e-08
4.27464e-07
2.62576e-08
3.92945e-07
3.45185e-08
3.49957e-07
4.29908e-08
2.98529e-07
5.14263e-08
2.40617e-07
5.79199e-08
1.79322e-07
6.12942e-08
1.17266e-07
6.20701e-08
5.631e-08
6.09564e-08
-2.27013e-09
5.85951e-08
-5.91012e-08
5.68296e-08
-1.15939e-07
5.68439e-08
-1.73596e-07
5.76552e-08
-2.32022e-07
5.84246e-08
-2.91065e-07
5.90414e-08
-3.50688e-07
5.9619e-08
-4.10771e-07
6.00839e-08
-4.71012e-07
6.02368e-08
-5.30967e-07
5.99583e-08
-5.90198e-07
5.92274e-08
-6.48277e-07
5.80838e-08
-7.04879e-07
5.65987e-08
-7.59735e-07
5.48609e-08
-8.12694e-07
5.29567e-08
-8.63655e-07
5.09655e-08
-9.12606e-07
4.89496e-08
-9.59564e-07
4.69609e-08
-1.0046e-06
4.50361e-08
-1.0478e-06
4.32026e-08
-1.08928e-06
4.14823e-08
-1.12918e-06
3.99048e-08
-1.16769e-06
3.85031e-08
-1.20495e-06
3.72649e-08
-1.2411e-06
3.6156e-08
-1.27626e-06
3.51569e-08
-1.31051e-06
3.42474e-08
-1.34391e-06
3.34069e-08
-1.37653e-06
3.26172e-08
-1.40839e-06
3.18591e-08
-1.4395e-06
3.11151e-08
-1.46987e-06
3.03669e-08
-1.49946e-06
2.95964e-08
-1.52825e-06
2.87852e-08
-1.55616e-06
2.79136e-08
-1.58312e-06
2.69613e-08
-1.60903e-06
2.59059e-08
-1.63375e-06
2.47236e-08
-1.65713e-06
2.33875e-08
-1.679e-06
2.18705e-08
-1.69914e-06
2.01411e-08
-1.71731e-06
1.81675e-08
-1.73322e-06
1.59146e-08
-1.74657e-06
1.3353e-08
-1.75702e-06
1.04575e-08
-1.76422e-06
7.20327e-09
-1.76782e-06
3.60907e-09
-1.76764e-06
-1.80795e-10
-1.76372e-06
-3.9204e-09
-1.75604e-06
-7.67298e-09
-1.74439e-06
-1.16437e-08
-1.72839e-06
-1.60011e-08
-1.70753e-06
-2.08478e-08
-1.68126e-06
-2.62609e-08
-1.64895e-06
-3.22945e-08
-1.60994e-06
-3.90017e-08
-1.5635e-06
-4.64174e-08
-1.50893e-06
-5.45789e-08
-1.4454e-06
-6.34882e-08
-1.37224e-06
-7.31644e-08
-1.28861e-06
-8.35822e-08
-1.19386e-06
-9.47772e-08
-1.08725e-06
-1.06636e-07
-9.68638e-07
-1.18725e-07
-8.38194e-07
-1.30641e-07
-6.95887e-07
-1.42495e-07
-5.42088e-07
-1.53976e-07
-3.77918e-07
-1.64355e-07
-2.06161e-07
-1.7198e-07
-3.28367e-08
-1.73581e-07
1.46981e-07
-1.80076e-07
3.36972e-07
-1.90197e-07
5.27455e-07
-1.90671e-07
7.12331e-07
-1.85028e-07
8.86977e-07
-1.74782e-07
1.04769e-06
-1.60821e-07
1.19137e-06
-1.43757e-07
1.31458e-06
-1.23264e-07
1.41241e-06
-9.78391e-08
1.48141e-06
-6.90092e-08
1.51391e-06
-3.2486e-08
1.49247e-06
2.14308e-08
1.40138e-06
9.11177e-08
1.2444e-06
1.57002e-07
1.04534e-06
1.99093e-07
8.28084e-07
2.17255e-07
6.2074e-07
2.07198e-07
4.81636e-07
1.38859e-07
4.53171e-07
2.8234e-08
3.92334e-07
6.07148e-08
9.03607e-08
3.01899e-07
-5.15489e-07
6.0574e-07
-1.27718e-06
7.616e-07
-2.05273e-06
7.75479e-07
-2.76715e-06
7.1438e-07
-3.37843e-06
6.11233e-07
-3.87205e-06
4.9354e-07
-4.25042e-06
3.78299e-07
-4.52177e-06
2.7124e-07
-4.69505e-06
1.73204e-07
-4.77917e-06
8.40565e-08
-4.78589e-06
6.70538e-09
-4.73582e-06
-5.00794e-08
-4.64733e-06
-8.84434e-08
-4.52703e-06
-1.20248e-07
-4.38097e-06
-1.45971e-07
-4.21436e-06
-1.66505e-07
-4.03206e-06
-1.82185e-07
-3.83753e-06
-1.94404e-07
-3.6333e-06
-2.04097e-07
-3.42243e-06
-2.1073e-07
-3.20699e-06
-2.15308e-07
-2.9881e-06
-2.18756e-07
-2.76652e-06
-2.21454e-07
-2.54229e-06
-2.24113e-07
-2.31464e-06
-2.27549e-07
-2.08247e-06
-2.32075e-07
-1.84466e-06
-2.37724e-07
-1.6e-06
-2.44583e-07
-1.34748e-06
-2.52439e-07
-1.0866e-06
-2.60796e-07
-8.17277e-07
-2.6924e-07
-5.3978e-07
-2.77417e-07
-2.56151e-07
-2.83546e-07
3.25281e-08
-2.88576e-07
3.33811e-07
-3.01171e-07
6.46296e-07
-3.12382e-07
9.55954e-07
-3.09585e-07
1.25764e-06
-3.01621e-07
1.54774e-06
-2.90058e-07
1.82289e-06
-2.75124e-07
2.0807e-06
-2.57794e-07
2.31948e-06
-2.38769e-07
2.53804e-06
-2.18557e-07
2.73578e-06
-1.97752e-07
2.91269e-06
-1.76926e-07
3.06924e-06
-1.56575e-07
3.20631e-06
-1.37105e-07
3.3251e-06
-1.18828e-07
3.427e-06
-1.01941e-07
3.5135e-06
-8.65343e-08
3.58604e-06
-7.25888e-08
3.64604e-06
-6.0044e-08
3.69479e-06
-4.8791e-08
3.73344e-06
-3.86956e-08
3.76301e-06
-2.9613e-08
3.78417e-06
-2.11993e-08
3.79759e-06
-1.34561e-08
3.8012e-06
-3.64839e-09
3.79029e-06
1.08843e-08
3.76032e-06
2.99385e-08
3.70502e-06
5.52664e-08
3.61389e-06
9.11038e-08
3.45043e-06
1.63443e-07
2.18412e-07
3.23199e-06
3.8853e-08
-9.39406e-08
5.55404e-08
-7.09982e-08
7.10662e-08
-7.58728e-08
8.44294e-08
-6.19531e-08
1.02679e-07
-6.50831e-08
1.19621e-07
-5.64549e-08
1.376e-07
-5.43787e-08
1.51648e-07
-4.47836e-08
1.63836e-07
-3.95489e-08
1.73102e-07
-3.24068e-08
1.81902e-07
-2.92617e-08
1.89566e-07
-2.48749e-08
1.9539e-07
-1.94201e-08
1.96185e-07
-8.23066e-09
1.89968e-07
6.66333e-09
1.75966e-07
2.31757e-08
1.54646e-07
3.90393e-08
1.25869e-07
5.50342e-08
8.91973e-08
7.11902e-08
4.45022e-08
8.76865e-08
-7.09378e-09
1.03023e-07
-6.37881e-08
1.14615e-07
-1.24151e-07
1.21658e-07
-1.87452e-07
1.25372e-07
-2.53477e-07
1.26983e-07
-3.2232e-07
1.27438e-07
-3.92901e-07
1.27411e-07
-4.63085e-07
1.27028e-07
-5.31459e-07
1.26029e-07
-5.97277e-07
1.24242e-07
-6.59919e-07
1.21683e-07
-7.18734e-07
1.18432e-07
-7.73183e-07
1.14533e-07
-8.23004e-07
1.10057e-07
-8.68177e-07
1.05131e-07
-9.08861e-07
9.99101e-08
-9.45333e-07
9.45564e-08
-9.77954e-07
8.92194e-08
-1.00712e-06
8.40256e-08
-1.03323e-06
7.90712e-08
-1.05669e-06
7.44242e-08
-1.07787e-06
7.0125e-08
-1.0971e-06
6.61929e-08
-1.11469e-06
6.26293e-08
-1.13091e-06
5.94235e-08
-1.14599e-06
5.65586e-08
-1.1601e-06
5.4018e-08
-1.17337e-06
5.17796e-08
-1.18591e-06
4.98011e-08
-1.19779e-06
4.80358e-08
-1.20908e-06
4.6445e-08
-1.21982e-06
4.49943e-08
-1.23007e-06
4.36527e-08
-1.23984e-06
4.23937e-08
-1.24918e-06
4.1193e-08
-1.25809e-06
4.00297e-08
-1.26661e-06
3.8884e-08
-1.27475e-06
3.77382e-08
-1.28254e-06
3.65748e-08
-1.29e-06
3.53772e-08
-1.29717e-06
3.41284e-08
-1.30407e-06
3.28107e-08
-1.31075e-06
3.14044e-08
-1.31725e-06
2.98883e-08
-1.32362e-06
2.82371e-08
-1.3299e-06
2.64218e-08
-1.33614e-06
2.44069e-08
-1.34237e-06
2.21499e-08
-1.34861e-06
1.95964e-08
-1.35484e-06
1.66823e-08
-1.36098e-06
1.33469e-08
-1.3669e-06
9.52972e-09
-1.37218e-06
5.10163e-09
-1.37599e-06
-1.10265e-10
-1.37743e-06
-6.23332e-09
-1.37569e-06
-1.33781e-08
-1.37013e-06
-2.15635e-08
-1.36013e-06
-3.08365e-08
-1.34513e-06
-4.12606e-08
-1.32452e-06
-5.29012e-08
-1.29769e-06
-6.58292e-08
-1.264e-06
-8.00987e-08
-1.22282e-06
-9.57562e-08
-1.17348e-06
-1.12815e-07
-1.11535e-06
-1.31291e-07
-1.04777e-06
-1.51153e-07
-9.70196e-07
-1.72354e-07
-8.8215e-07
-1.94699e-07
-7.83206e-07
-2.17736e-07
-6.73014e-07
-2.40916e-07
-5.51228e-07
-2.64362e-07
-4.18442e-07
-2.86828e-07
-2.74566e-07
-3.08294e-07
-1.18772e-07
-3.2784e-07
5.03036e-08
-3.42731e-07
2.21693e-07
-3.51538e-07
3.84758e-07
-3.53333e-07
5.40893e-07
-3.46874e-07
6.88452e-07
-3.3265e-07
8.24474e-07
-3.1086e-07
9.4585e-07
-2.8224e-07
1.05029e-06
-2.48233e-07
1.13608e-06
-2.09056e-07
1.20133e-06
-1.6309e-07
1.24509e-06
-1.12757e-07
1.27717e-06
-6.45578e-08
1.30537e-06
-6.74692e-09
1.3013e-06
9.52055e-08
1.22243e-06
2.3591e-07
1.06171e-06
3.59844e-07
8.58034e-07
4.20927e-07
6.73893e-07
3.91295e-07
5.05557e-07
3.07095e-07
1.42446e-07
3.91259e-07
-5.48906e-07
7.52017e-07
-1.41183e-06
1.1648e-06
-2.222e-06
1.41585e-06
-2.8889e-06
1.42844e-06
-3.38688e-06
1.27339e-06
-3.72126e-06
1.04869e-06
-3.92872e-06
8.18617e-07
-4.05251e-06
6.17252e-07
-4.12592e-06
4.51629e-07
-4.17068e-06
3.15924e-07
-4.19912e-06
2.01584e-07
-4.21682e-06
1.0171e-07
-4.22187e-06
1.17382e-08
-4.19855e-06
-7.34078e-08
-4.13495e-06
-1.52023e-07
-4.03535e-06
-2.19816e-07
-3.90537e-06
-2.75902e-07
-3.75153e-06
-3.20275e-07
-3.57972e-06
-3.53924e-07
-3.39501e-06
-3.7904e-07
-3.20208e-06
-3.96946e-07
-3.00384e-06
-4.08885e-07
-2.8032e-06
-4.15866e-07
-2.60198e-06
-4.19896e-07
-2.40068e-06
-4.22676e-07
-2.1985e-06
-4.26228e-07
-1.99421e-06
-4.31791e-07
-1.78661e-06
-4.39622e-07
-1.57428e-06
-4.50012e-07
-1.35572e-06
-4.63113e-07
-1.12956e-06
-4.78559e-07
-8.94883e-07
-4.95437e-07
-6.5067e-07
-5.13415e-07
-3.94999e-07
-5.33057e-07
-1.22744e-07
-5.5578e-07
1.69285e-07
-5.80583e-07
4.65781e-07
-5.9764e-07
7.54459e-07
-6.01035e-07
1.03801e-06
-5.93109e-07
1.31452e-06
-5.78116e-07
1.58136e-06
-5.56883e-07
1.83531e-06
-5.29051e-07
2.07389e-06
-4.96364e-07
2.29537e-06
-4.60237e-07
2.49859e-06
-4.2177e-07
2.68305e-06
-3.82214e-07
2.84886e-06
-3.42734e-07
2.99655e-06
-3.04276e-07
3.127e-06
-2.67562e-07
3.24127e-06
-2.33112e-07
3.34054e-06
-2.01239e-07
3.42604e-06
-1.72055e-07
3.49896e-06
-1.45527e-07
3.56042e-06
-1.21533e-07
3.61149e-06
-9.98805e-08
3.65308e-06
-8.03106e-08
3.68596e-06
-6.25288e-08
3.71087e-06
-4.6135e-08
3.72799e-06
-3.05979e-08
3.73978e-06
-1.54645e-08
3.75115e-06
-5.06531e-10
3.76485e-06
1.62149e-08
3.78068e-06
3.9408e-08
3.80034e-06
7.14326e-08
3.82019e-06
1.43571e-07
2.39937e-07
3.79865e-06
-4.21223e-09
-8.97294e-08
-1.06193e-08
-6.45923e-08
-1.5566e-08
-7.09249e-08
-1.59035e-08
-6.16152e-08
-1.5164e-08
-6.58213e-08
-1.04651e-08
-6.11533e-08
-5.80452e-09
-5.90382e-08
-2.61528e-09
-4.79726e-08
-4.78272e-09
-3.73805e-08
-1.24698e-08
-2.47197e-08
-2.45517e-08
-1.7179e-08
-3.82881e-08
-1.11386e-08
-5.37339e-08
-3.97355e-09
-7.07395e-08
8.77492e-09
-9.10976e-08
2.70219e-08
-1.16414e-07
4.8492e-08
-1.4757e-07
7.01956e-08
-1.8428e-07
9.17448e-08
-2.25991e-07
1.12901e-07
-2.71166e-07
1.32862e-07
-3.18036e-07
1.49893e-07
-3.66186e-07
1.62766e-07
-4.16043e-07
1.71515e-07
-4.67491e-07
1.7682e-07
-5.19731e-07
1.79223e-07
-5.71489e-07
1.79197e-07
-6.21293e-07
1.77216e-07
-6.67963e-07
1.73699e-07
-7.10849e-07
1.68915e-07
-7.49693e-07
1.63085e-07
-7.84456e-07
1.56446e-07
-8.15266e-07
1.49242e-07
-8.42427e-07
1.41694e-07
-8.66386e-07
1.34015e-07
-8.87657e-07
1.26403e-07
-9.06776e-07
1.19029e-07
-9.24247e-07
1.12028e-07
-9.40519e-07
1.05491e-07
-9.55964e-07
9.9471e-08
-9.7088e-07
9.3987e-08
-9.85491e-07
8.90353e-08
-9.99962e-07
8.45964e-08
-1.01441e-06
8.06402e-08
-1.02891e-06
7.71282e-08
-1.0435e-06
7.40175e-08
-1.05821e-06
7.12645e-08
-1.07302e-06
6.88288e-08
-1.08791e-06
6.66707e-08
-1.10285e-06
6.4747e-08
-1.11783e-06
6.30171e-08
-1.13283e-06
6.1445e-08
-1.14784e-06
5.99987e-08
-1.16283e-06
5.86496e-08
-1.17781e-06
5.73718e-08
-1.19276e-06
5.61414e-08
-1.20767e-06
5.49357e-08
-1.22252e-06
5.3733e-08
-1.23729e-06
5.25113e-08
-1.25196e-06
5.12482e-08
-1.2665e-06
4.992e-08
-1.28088e-06
4.85007e-08
-1.29503e-06
4.69615e-08
-1.30889e-06
4.52701e-08
-1.32239e-06
4.33891e-08
-1.33543e-06
4.12761e-08
-1.34789e-06
3.88812e-08
-1.35963e-06
3.61474e-08
-1.37049e-06
3.30072e-08
-1.38027e-06
2.93815e-08
-1.38876e-06
2.51744e-08
-1.39569e-06
2.02763e-08
-1.40071e-06
1.4547e-08
-1.40342e-06
7.81021e-09
-1.40347e-06
-5.7784e-11
-1.40055e-06
-9.14929e-09
-1.39442e-06
-1.95147e-08
-1.38471e-06
-3.12714e-08
-1.37099e-06
-4.45497e-08
-1.35278e-06
-5.94773e-08
-1.3295e-06
-7.61798e-08
-1.30055e-06
-9.47773e-08
-1.26527e-06
-1.15374e-07
-1.22297e-06
-1.38054e-07
-1.17292e-06
-1.62863e-07
-1.1144e-06
-1.89811e-07
-1.04671e-06
-2.1884e-07
-9.69233e-07
-2.49833e-07
-8.81411e-07
-2.82535e-07
-7.82672e-07
-3.16507e-07
-6.72454e-07
-3.51178e-07
-5.50978e-07
-3.85877e-07
-4.18708e-07
-4.1912e-07
-2.77208e-07
-4.49821e-07
-1.28183e-07
-4.76885e-07
2.70136e-08
-4.97959e-07
1.86074e-07
-5.10623e-07
3.44735e-07
-5.12029e-07
4.98376e-07
-5.00541e-07
6.42035e-07
-4.76341e-07
7.71298e-07
-4.40144e-07
8.83262e-07
-3.94222e-07
9.7767e-07
-3.42647e-07
1.05413e-06
-2.85509e-07
1.10375e-06
-2.1269e-07
1.11485e-06
-1.23831e-07
1.09292e-06
-4.2621e-08
1.04943e-06
3.67703e-08
9.76223e-07
1.68434e-07
8.55547e-07
3.5662e-07
6.91468e-07
5.23954e-07
5.16353e-07
5.96076e-07
2.82444e-07
6.25178e-07
-2.03377e-07
7.92871e-07
-9.99136e-07
1.18696e-06
-1.86294e-06
1.61578e-06
-2.57464e-06
1.87646e-06
-3.05927e-06
1.90042e-06
-3.3673e-06
1.73639e-06
-3.58078e-06
1.48679e-06
-3.76346e-06
1.23128e-06
-3.94938e-06
1.00444e-06
-4.13963e-06
8.07402e-07
-4.31855e-06
6.30453e-07
-4.4675e-06
4.6481e-07
-4.57183e-06
3.05858e-07
-4.62322e-06
1.53065e-07
-4.62009e-06
8.58312e-09
-4.56924e-06
-1.24249e-07
-4.47921e-06
-2.42047e-07
-4.35622e-06
-3.42778e-07
-4.20621e-06
-4.25875e-07
-4.03471e-06
-4.91728e-07
-3.8468e-06
-5.41785e-07
-3.64733e-06
-5.78464e-07
-3.44014e-06
-6.04072e-07
-3.22755e-06
-6.21424e-07
-3.01138e-06
-6.31978e-07
-2.79268e-06
-6.38549e-07
-2.57156e-06
-6.4375e-07
-2.34774e-06
-6.50012e-07
-2.12065e-06
-6.58849e-07
-1.88926e-06
-6.70987e-07
-1.65223e-06
-6.87023e-07
-1.40824e-06
-7.07082e-07
-1.15613e-06
-7.30652e-07
-8.94947e-07
-7.56604e-07
-6.24346e-07
-7.83997e-07
-3.4506e-07
-8.12329e-07
-6.02382e-08
-8.40594e-07
2.25884e-07
-8.66703e-07
5.12313e-07
-8.84067e-07
7.98259e-07
-8.86981e-07
1.08113e-06
-8.75985e-07
1.35677e-06
-8.53755e-07
1.62144e-06
-8.21565e-07
1.87259e-06
-7.80197e-07
2.10791e-06
-7.3169e-07
2.32583e-06
-6.78149e-07
2.52564e-06
-6.21577e-07
2.70735e-06
-5.63919e-07
2.87147e-06
-5.0685e-07
3.01887e-06
-4.5168e-07
3.15066e-06
-3.99344e-07
3.268e-06
-3.50454e-07
3.37209e-06
-3.05329e-07
3.46408e-06
-2.64042e-07
3.54506e-06
-2.26506e-07
3.61604e-06
-1.92507e-07
3.6779e-06
-1.61749e-07
3.73144e-06
-1.33848e-07
3.77729e-06
-1.0838e-07
3.81595e-06
-8.48001e-08
3.84778e-06
-6.24237e-08
3.87297e-06
-4.06641e-08
3.89095e-06
-1.84922e-08
3.90026e-06
6.9037e-09
3.89991e-06
3.976e-08
3.8889e-06
8.24368e-08
3.87339e-06
1.5908e-07
2.64651e-07
3.84868e-06
-1.82331e-08
-7.14978e-08
-3.19374e-08
-5.08891e-08
-4.86211e-08
-5.42401e-08
-6.30989e-08
-4.71369e-08
-8.00071e-08
-4.89122e-08
-9.45297e-08
-4.66303e-08
-1.08103e-07
-4.54642e-08
-1.1861e-07
-3.74656e-08
-1.30563e-07
-2.54266e-08
-1.46451e-07
-8.83238e-09
-1.69549e-07
5.91937e-09
-1.98717e-07
1.80293e-08
-2.31717e-07
2.90274e-08
-2.66051e-07
4.31079e-08
-3.0063e-07
6.1602e-08
-3.35724e-07
8.35859e-08
-3.72051e-07
1.06523e-07
-4.08827e-07
1.2852e-07
-4.44491e-07
1.48566e-07
-4.77882e-07
1.66253e-07
-5.09107e-07
1.81118e-07
-5.38969e-07
1.92629e-07
-5.67782e-07
2.00329e-07
-5.95175e-07
2.04214e-07
-6.20715e-07
2.04764e-07
-6.44193e-07
2.02675e-07
-6.65504e-07
1.98527e-07
-6.84612e-07
1.92807e-07
-7.01628e-07
1.85931e-07
-7.16818e-07
1.78276e-07
-7.30552e-07
1.7018e-07
-7.43249e-07
1.61938e-07
-7.55328e-07
1.53774e-07
-7.6717e-07
1.45857e-07
-7.79078e-07
1.38312e-07
-7.9128e-07
1.3123e-07
-8.03916e-07
1.24664e-07
-8.17059e-07
1.18634e-07
-8.30722e-07
1.13134e-07
-8.44874e-07
1.08139e-07
-8.59457e-07
1.03618e-07
-8.74394e-07
9.9534e-08
-8.89602e-07
9.58484e-08
-9.04999e-07
9.25253e-08
-9.20513e-07
8.95314e-08
-9.36083e-07
8.68353e-08
-9.51661e-07
8.44067e-08
-9.67206e-07
8.22159e-08
-9.82691e-07
8.02328e-08
-9.98104e-07
7.84297e-08
-1.01344e-06
7.67802e-08
-1.0287e-06
7.52595e-08
-1.04389e-06
7.38435e-08
-1.05903e-06
7.25096e-08
-1.07412e-06
7.1235e-08
-1.08918e-06
6.99966e-08
-1.10422e-06
6.87698e-08
-1.11924e-06
6.75284e-08
-1.13423e-06
6.62437e-08
-1.1492e-06
6.48837e-08
-1.16411e-06
6.34125e-08
-1.17894e-06
6.17892e-08
-1.19363e-06
5.99664e-08
-1.20813e-06
5.78903e-08
-1.22235e-06
5.54986e-08
-1.23619e-06
5.27211e-08
-1.24952e-06
4.94772e-08
-1.26219e-06
4.56768e-08
-1.27403e-06
4.12175e-08
-1.28484e-06
3.59858e-08
-1.29442e-06
2.98564e-08
-1.30256e-06
2.26843e-08
-1.30905e-06
1.43005e-08
-1.31366e-06
4.55645e-09
-1.31615e-06
-6.66339e-09
-1.31617e-06
-1.94877e-08
-1.31328e-06
-3.41663e-08
-1.30697e-06
-5.08543e-08
-1.29674e-06
-6.97108e-08
-1.28202e-06
-9.08986e-08
-1.26222e-06
-1.14579e-07
-1.2367e-06
-1.40898e-07
-1.20477e-06
-1.69978e-07
-1.16574e-06
-2.019e-07
-1.11885e-06
-2.36698e-07
-1.06336e-06
-2.74327e-07
-9.98556e-07
-3.14642e-07
-9.23763e-07
-3.57337e-07
-8.38383e-07
-4.01909e-07
-7.41941e-07
-4.47644e-07
-6.3431e-07
-4.93524e-07
-5.15567e-07
-5.37874e-07
-3.86763e-07
-5.78629e-07
-2.49588e-07
-6.14066e-07
-1.06069e-07
-6.41485e-07
4.07008e-08
-6.57404e-07
1.86828e-07
-6.58167e-07
3.27684e-07
-6.41411e-07
4.57764e-07
-6.06433e-07
5.71758e-07
-5.54147e-07
6.65856e-07
-4.88321e-07
7.38624e-07
-4.15408e-07
7.89344e-07
-3.36213e-07
8.14751e-07
-2.38072e-07
8.05024e-07
-1.14076e-07
7.45686e-07
1.67439e-08
6.38921e-07
1.43561e-07
5.07123e-07
3.00262e-07
3.6893e-07
4.94855e-07
2.16056e-07
6.76876e-07
-4.0549e-08
8.52708e-07
-5.43632e-07
1.12826e-06