/*--------------------------------*- C++ -*----------------------------------*\
| =========                 |                                                 |
| \\      /  F ield         | OpenFOAM: The Open Source CFD Toolbox           |
|  \\    /   O peration     | Version:  v1906                                 |
|   \\  /    A nd           | Web:      www.OpenFOAM.com                      |
|    \\/     M anipulation  |                                                 |
\*---------------------------------------------------------------------------*/
FoamFile
{
    version     2.0;
    format      ascii;
    class       volSymmTensorField;
    location    "1600";
    object      R;
}
// * * * * * * * * * * * * * * * * * * * * * * * * * * * * * * * * * * * * * //

dimensions      [0 2 -2 0 0 0 0];


internalField   nonuniform List<symmTensor> 
12225
(
(1.62959 -0.334085 0 1.36039 0 1.52762)
(1.99802 -0.598254 0 0.914528 0 1.54288)
(2.153 -0.586763 0 0.685977 0 1.49059)
(2.1673 -0.548841 0 0.594997 0 1.42882)
(2.13585 -0.52172 0 0.550068 0 1.3743)
(2.09128 -0.502166 0 0.522076 0 1.32789)
(2.04518 -0.486893 0 0.501622 0 1.28823)
(2.00145 -0.474232 0 0.485304 0 1.25385)
(1.96104 -0.463361 0 0.47168 0 1.22377)
(1.92474 -0.453934 0 0.460097 0 1.19735)
(1.89116 -0.44549 0 0.449975 0 1.17381)
(1.86255 -0.438542 0 0.441227 0 1.15322)
(1.84005 -0.433323 0 0.434219 0 1.13676)
(1.82241 -0.429049 0 0.428447 0 1.12312)
(1.80623 -0.425275 0 0.42344 0 1.1112)
(1.79488 -0.422779 0 0.419844 0 1.1022)
(1.7817 -0.419273 0 0.41547 0 1.09229)
(1.7767 -0.41972 0 0.414308 0 1.08814)
(1.52344 -0.0379077 0 1.46191 0 1.51644)
(1.578 -0.141072 0 1.19701 0 1.51298)
(1.59295 -0.19295 0 0.943756 0 1.46129)
(1.58108 -0.213881 0 0.791929 0 1.4054)
(1.55688 -0.224289 0 0.694867 0 1.35245)
(1.53228 -0.231662 0 0.62886 0 1.30721)
(1.50954 -0.237787 0 0.58103 0 1.26874)
(1.48862 -0.242987 0 0.54444 0 1.23508)
(1.47074 -0.247696 0 0.515811 0 1.20657)
(1.45469 -0.251644 0 0.492527 0 1.18104)
(1.44206 -0.255645 0 0.47376 0 1.1602)
(1.42991 -0.25858 0 0.457437 0 1.14002)
(1.42182 -0.262465 0 0.444845 0 1.1253)
(1.41324 -0.264437 0 0.432392 0 1.10865)
(1.4083 -0.268464 0 0.424623 0 1.09914)
(1.40265 -0.269147 0 0.413693 0 1.08456)
(1.39852 -0.272909 0 0.409867 0 1.07892)
(1.39293 -0.271833 0 0.399505 0 1.06456)
(1.51181 -0.00787699 0 1.49346 0 1.51042)
(1.53547 -0.0360031 0 1.38416 0 1.51932)
(1.54923 -0.0630793 0 1.23412 0 1.50756)
(1.54699 -0.0823518 0 1.11551 0 1.48419)
(1.53456 -0.0967665 0 1.02238 0 1.45586)
(1.5184 -0.108828 0 0.947862 0 1.42708)
(1.50121 -0.119388 0 0.887287 0 1.39967)
(1.48381 -0.128696 0 0.837062 0 1.37374)
(1.46749 -0.137146 0 0.794958 0 1.35011)
(1.45211 -0.144707 0 0.759022 0 1.32814)
(1.43837 -0.15183 0 0.728294 0 1.30865)
(1.42555 -0.158061 0 0.70125 0 1.29013)
(1.41428 -0.164231 0 0.678269 0 1.27442)
(1.40438 -0.169297 0 0.65685 0 1.25865)
(1.3943 -0.174668 0 0.640267 0 1.24655)
(1.38916 -0.178636 0 0.620758 0 1.23226)
(1.3745 -0.182886 0 0.61369 0 1.22485)
(1.38822 -0.185417 0 0.583694 0 1.20912)
(1.51159 -0.00601285 0 1.49404 0 1.51116)
(1.52772 -0.0162118 0 1.42126 0 1.52215)
(1.54102 -0.0301576 0 1.31221 0 1.52407)
(1.54447 -0.0430278 0 1.21299 0 1.51619)
(1.54015 -0.0537096 0 1.12943 0 1.5024)
(1.53168 -0.0630224 0 1.05921 0 1.48587)
(1.52111 -0.0714228 0 1.00007 0 1.46845)
(1.50936 -0.079025 0 0.949763 0 1.45084)
(1.49742 -0.0860436 0 0.9066 0 1.43379)
(1.48558 -0.0924702 0 0.869169 0 1.41735)
(1.47428 -0.0985044 0 0.836574 0 1.402)
(1.46347 -0.10399 0 0.807773 0 1.38729)
(1.45332 -0.109231 0 0.782605 0 1.37391)
(1.44403 -0.113829 0 0.759779 0 1.36094)
(1.43474 -0.118287 0 0.740303 0 1.34957)
(1.42766 -0.121923 0 0.721073 0 1.338)
(1.41792 -0.125298 0 0.70734 0 1.32891)
(1.41453 -0.127902 0 0.687663 0 1.31819)
(1.50982 -0.00438426 0 1.49832 0 1.50971)
(1.52112 -0.00867111 0 1.44939 0 1.51892)
(1.53281 -0.015223 0 1.37327 0 1.52494)
(1.53866 -0.0225597 0 1.29849 0 1.52435)
(1.53899 -0.0294558 0 1.23177 0 1.51883)
(1.53572 -0.0360107 0 1.17291 0 1.51033)
(1.53017 -0.0423128 0 1.12119 0 1.50016)
(1.52311 -0.0482812 0 1.07567 0 1.48904)
(1.51526 -0.053943 0 1.03541 0 1.4776)
(1.507 -0.0592633 0 0.999636 0 1.46608)
(1.49868 -0.0643012 0 0.967767 0 1.45484)
(1.4904 -0.0689887 0 0.939156 0 1.44383)
(1.48231 -0.0734157 0 0.913521 0 1.43337)
(1.47458 -0.0774167 0 0.89025 0 1.42322)
(1.46698 -0.0811151 0 0.869437 0 1.41378)
(1.46023 -0.0843081 0 0.849986 0 1.40457)
(1.45326 -0.0869968 0 0.833216 0 1.39649)
(1.44823 -0.0894237 0 0.815034 0 1.38825)
(1.50979 -0.00405575 0 1.49852 0 1.5098)
(1.51868 -0.00571323 0 1.46042 0 1.51779)
(1.52872 -0.00855516 0 1.40204 0 1.52487)
(1.53528 -0.0125237 0 1.34161 0 1.52768)
(1.53796 -0.0166969 0 1.28507 0 1.52668)
(1.53771 -0.0209364 0 1.23352 0 1.52298)
(1.53533 -0.0252079 0 1.18705 0 1.51744)
(1.53141 -0.0294002 0 1.14533 0 1.51068)
(1.52648 -0.0334769 0 1.10781 0 1.50319)
(1.5209 -0.0373962 0 1.07402 0 1.49527)
(1.51494 -0.0411548 0 1.04351 0 1.48721)
(1.50877 -0.0447055 0 1.01587 0 1.4791)
(1.50253 -0.0480542 0 0.99079 0 1.47112)
(1.49637 -0.0511176 0 0.967911 0 1.46328)
(1.49027 -0.0538962 0 0.947074 0 1.45575)
(1.48453 -0.0563254 0 0.927775 0 1.44845)
(1.47883 -0.0583623 0 0.910243 0 1.44163)
(1.47384 -0.060256 0 0.89264 0 1.4349)
(1.50943 -0.00327446 0 1.49944 0 1.50951)
(1.51644 -0.004188 0 1.46907 0 1.51617)
(1.52473 -0.00514177 0 1.42397 0 1.52289)
(1.53102 -0.00690176 0 1.37574 0 1.52696)
(1.53462 -0.00906994 0 1.32917 0 1.52823)
(1.53596 -0.0115375 0 1.28563 0 1.52728)
(1.5355 -0.0142353 0 1.24553 0 1.52467)
(1.53366 -0.017038 0 1.20883 0 1.52083)
(1.5308 -0.0198678 0 1.17528 0 1.51616)
(1.52722 -0.0226654 0 1.1446 0 1.51092)
(1.52314 -0.0253935 0 1.11654 0 1.50532)
(1.51873 -0.0280042 0 1.0908 0 1.49951)
(1.51411 -0.0304684 0 1.06718 0 1.49362)
(1.50942 -0.0327332 0 1.04542 0 1.48773)
(1.50472 -0.0347659 0 1.02534 0 1.48194)
(1.50017 -0.0365509 0 1.00666 0 1.4763)
(1.49582 -0.0380406 0 0.989298 0 1.47094)
(1.49165 -0.0394927 0 0.972521 0 1.4657)
(1.50952 -0.00294144 0 1.49931 0 1.50963)
(1.51542 -0.00348761 0 1.47339 0 1.51547)
(1.52233 -0.00349675 0 1.43695 0 1.52159)
(1.52809 -0.00402064 0 1.39707 0 1.52608)
(1.53203 -0.0049652 0 1.35748 0 1.52857)
(1.53425 -0.00626491 0 1.31965 0 1.5293)
(1.535 -0.00784702 0 1.28416 0 1.52859)
(1.53454 -0.00960016 0 1.25119 0 1.52676)
(1.53313 -0.011444 0 1.22066 0 1.52408)
(1.531 -0.0133186 0 1.19243 0 1.52077)
(1.52834 -0.0151776 0 1.16634 0 1.51703)
(1.52529 -0.016975 0 1.14221 0 1.51297)
(1.52196 -0.0186724 0 1.11986 0 1.50872)
(1.51847 -0.0202306 0 1.09912 0 1.50437)
(1.5149 -0.0216185 0 1.07982 0 1.50001)
(1.51135 -0.0228331 0 1.06177 0 1.49569)
(1.50781 -0.0238921 0 1.04489 0 1.49148)
(1.5042 -0.0249187 0 1.0289 0 1.48735)
(1.50946 -0.00236309 0 1.49952 0 1.50958)
(1.51444 -0.00291246 0 1.47717 0 1.51467)
(1.52015 -0.00252484 0 1.44727 0 1.52005)
(1.52524 -0.00229939 0 1.41417 0 1.52445)
(1.52908 -0.00238606 0 1.3807 0 1.52743)
(1.53164 -0.00280992 0 1.34818 0 1.52905)
(1.53303 -0.00353073 0 1.31724 0 1.52948)
(1.5334 -0.00446202 0 1.28811 0 1.52893)
(1.53294 -0.00552891 0 1.26083 0 1.5276)
(1.53183 -0.0066709 0 1.23534 0 1.52567)
(1.5302 -0.00783732 0 1.21155 0 1.52328)
(1.52818 -0.00898251 0 1.18934 0 1.52056)
(1.52586 -0.0100667 0 1.16861 0 1.51759)
(1.52336 -0.0110582 0 1.1492 0 1.51446)
(1.52073 -0.0119326 0 1.13101 0 1.51126)
(1.51807 -0.0126957 0 1.11391 0 1.50805)
(1.51537 -0.0133545 0 1.09782 0 1.50489)
(1.51238 -0.0140517 0 1.08278 0 1.50176)
(1.5095 -0.00205188 0 1.49944 0 1.50964)
(1.51391 -0.00260438 0 1.47939 0 1.51426)
(1.51874 -0.00205224 0 1.45404 0 1.51904)
(1.5232 -0.00144133 0 1.42592 0 1.52319)
(1.52681 -0.00103797 0 1.39708 0 1.52634)
(1.52948 -0.000920781 0 1.36863 0 1.52846)
(1.53121 -0.0010744 0 1.34119 0 1.52961)
(1.53212 -0.00143557 0 1.31505 0 1.52994)
(1.53232 -0.00194159 0 1.29031 0 1.52957)
(1.53194 -0.00253824 0 1.26698 0 1.52864)
(1.53108 -0.00317848 0 1.24503 0 1.52727)
(1.52984 -0.0038213 0 1.22438 0 1.52555)
(1.52831 -0.00443176 0 1.20496 0 1.52358)
(1.52657 -0.00498552 0 1.18667 0 1.52141)
(1.52468 -0.00546827 0 1.16943 0 1.51913)
(1.52267 -0.00589141 0 1.15316 0 1.51679)
(1.52051 -0.00629263 0 1.13786 0 1.51442)
(1.518 -0.00671607 0 1.12361 0 1.51205)
(1.50947 -0.00160912 0 1.49958 0 1.50961)
(1.51338 -0.00218452 0 1.48147 0 1.5138)
(1.51747 -0.00163047 0 1.45967 0 1.51802)
(1.52133 -0.00083467 0 1.43559 0 1.52183)
(1.52461 -0.000119757 0 1.41066 0 1.52492)
(1.52719 0.000385761 0 1.38581 0 1.52723)
(1.52906 0.000663523 0 1.36157 0 1.52878)
(1.53025 0.000749188 0 1.33825 0 1.52964)
(1.53085 0.000689838 0 1.31598 0 1.5299)
(1.53095 0.000531408 0 1.2948 0 1.52967)
(1.53063 0.000315832 0 1.2747 0 1.52903)
(1.52997 7.9393e-05 0 1.25567 0 1.52806)
(1.52903 -0.000147906 0 1.23765 0 1.52683)
(1.52789 -0.00034666 0 1.22057 0 1.52541)
(1.52658 -0.000507006 0 1.20439 0 1.52386)
(1.52513 -0.000640692 0 1.18906 0 1.52222)
(1.52348 -0.000765625 0 1.17462 0 1.52053)
(1.52141 -0.000975273 0 1.16122 0 1.51878)
(1.50944 -0.00137028 0 1.49966 0 1.50959)
(1.51305 -0.00194108 0 1.48278 0 1.51352)
(1.51665 -0.00142613 0 1.46334 0 1.51735)
(1.52006 -0.000582754 0 1.44206 0 1.52086)
(1.52304 0.00026134 0 1.41994 0 1.52384)
(1.52548 0.000957886 0 1.3977 0 1.5262)
(1.52736 0.00146984 0 1.37582 0 1.52795)
(1.5287 0.00181416 0 1.35459 0 1.52913)
(1.52954 0.00202511 0 1.33414 0 1.52979)
(1.52995 0.00213995 0 1.31456 0 1.53001)
(1.52999 0.00219396 0 1.29586 0 1.52987)
(1.52972 0.00221738 0 1.27804 0 1.52942)
(1.52919 0.00223432 0 1.26108 0 1.52872)
(1.52846 0.00225876 0 1.24493 0 1.52783)
(1.52756 0.00229516 0 1.22958 0 1.52679)
(1.52648 0.00233102 0 1.215 0 1.52565)
(1.52515 0.00233853 0 1.20127 0 1.52443)
(1.52343 0.00229893 0 1.18851 0 1.52314)
(1.50937 -0.0010815 0 1.49985 0 1.50953)
(1.51271 -0.00160648 0 1.48407 0 1.51321)
(1.51589 -0.00115102 0 1.46657 0 1.5167)
(1.51889 -0.000315887 0 1.44762 0 1.51991)
(1.52157 0.000592168 0 1.4279 0 1.52272)
(1.52385 0.00141517 0 1.40795 0 1.52505)
(1.52567 0.00209977 0 1.38818 0 1.52689)
(1.52706 0.00264532 0 1.36884 0 1.52825)
(1.52804 0.00307312 0 1.35009 0 1.52919)
(1.52866 0.0034113 0 1.33201 0 1.52973)
(1.52895 0.00368817 0 1.31465 0 1.52995)
(1.52897 0.00392844 0 1.298 0 1.52989)
(1.52876 0.0041512 0 1.28207 0 1.5296)
(1.52835 0.0043678 0 1.26685 0 1.52912)
(1.52777 0.00458094 0 1.25232 0 1.5285)
(1.527 0.004784 0 1.23851 0 1.52776)
(1.52597 0.00496377 0 1.22546 0 1.52693)
(1.52454 0.00506575 0 1.21332 0 1.52601)
(1.50928 -0.00088143 0 1.50006 0 1.50944)
(1.51239 -0.00135508 0 1.48521 0 1.51293)
(1.51523 -0.000967953 0 1.46934 0 1.51612)
(1.51787 -0.000189618 0 1.45243 0 1.51906)
(1.52025 0.000709063 0 1.43485 0 1.52168)
(1.52233 0.00157495 0 1.417 0 1.52394)
(1.52406 0.0023466 0 1.39917 0 1.5258)
(1.52546 0.0030108 0 1.3816 0 1.52729)
(1.52653 0.00357759 0 1.36444 0 1.52842)
(1.5273 0.00406585 0 1.34777 0 1.52923)
(1.52779 0.00449612 0 1.33166 0 1.52975)
(1.52805 0.00488628 0 1.31613 0 1.53002)
(1.52811 0.00524964 0 1.30119 0 1.53008)
(1.52798 0.00559235 0 1.28685 0 1.52996)
(1.52766 0.00591383 0 1.27313 0 1.5297)
(1.52716 0.00620606 0 1.26004 0 1.52932)
(1.52641 0.00645297 0 1.24765 0 1.52884)
(1.52532 0.00667999 0 1.23606 0 1.52828)
(1.50917 -0.00057434 0 1.50036 0 1.50934)
(1.51203 -0.000889886 0 1.48646 0 1.51259)
(1.51455 -0.000541273 0 1.47206 0 1.5155)
(1.51685 0.000165371 0 1.45696 0 1.51816)
(1.51894 0.00102182 0 1.44133 0 1.52057)
(1.5208 0.00189529 0 1.4254 0 1.52271)
(1.52241 0.0027226 0 1.4094 0 1.52454)
(1.52377 0.00348075 0 1.39352 0 1.52608)
(1.52487 0.00416885 0 1.37789 0 1.52733)
(1.52573 0.00479619 0 1.36261 0 1.52832)
(1.52637 0.00537525 0 1.34774 0 1.52906)
(1.52681 0.00591791 0 1.33333 0 1.52959)
(1.52707 0.00643294 0 1.31939 0 1.52993)
(1.52716 0.00692535 0 1.30596 0 1.53011)
(1.52708 0.00739479 0 1.29306 0 1.53015)
(1.5268 0.00783579 0 1.28073 0 1.53006)
(1.52628 0.00823773 0 1.26902 0 1.52986)
(1.52544 0.00854339 0 1.25804 0 1.52956)
(1.50903 -0.000413668 0 1.5007 0 1.50919)
(1.51167 -0.000621066 0 1.48757 0 1.51225)
(1.51395 -0.000329023 0 1.47429 0 1.51494)
(1.51599 0.000260862 0 1.46061 0 1.51739)
(1.51784 0.000996973 0 1.44653 0 1.51962)
(1.51951 0.00177479 0 1.43218 0 1.52162)
(1.52099 0.00253845 0 1.41771 0 1.5234)
(1.52227 0.0032627 0 1.40326 0 1.52494)
(1.52337 0.00394044 0 1.38895 0 1.52626)
(1.52428 0.00457365 0 1.37486 0 1.52736)
(1.52501 0.00516775 0 1.36107 0 1.52826)
(1.52557 0.00572807 0 1.34763 0 1.52897)
(1.52599 0.00625836 0 1.33457 0 1.52951)
(1.52625 0.00675964 0 1.32194 0 1.52991)
(1.52635 0.00723095 0 1.30975 0 1.53018)
(1.52629 0.00767189 0 1.29805 0 1.53034)
(1.52603 0.0080813 0 1.28689 0 1.5304)
(1.52551 0.00850271 0 1.27632 0 1.53035)
(1.50889 -7.98009e-05 0 1.50104 0 1.50906)
(1.51134 5.06286e-06 0 1.4886 0 1.51191)
(1.51341 0.000364992 0 1.4762 0 1.51443)
(1.51525 0.000916158 0 1.46358 0 1.5167)
(1.51692 0.00158041 0 1.45068 0 1.51877)
(1.51843 0.00229632 0 1.43753 0 1.52066)
(1.51979 0.0030268 0 1.42423 0 1.52237)
(1.52101 0.00375179 0 1.4109 0 1.52389)
(1.52208 0.00446219 0 1.39762 0 1.52522)
(1.523 0.00515496 0 1.38448 0 1.52638)
(1.52377 0.00582964 0 1.37156 0 1.52736)
(1.5244 0.00648635 0 1.35891 0 1.52818)
(1.5249 0.00712418 0 1.34659 0 1.52885)
(1.52526 0.00774068 0 1.33462 0 1.52938)
(1.52547 0.00833062 0 1.32305 0 1.52979)
(1.52552 0.0088844 0 1.31192 0 1.53008)
(1.52539 0.00938944 0 1.30126 0 1.53026)
(1.52506 0.00979711 0 1.29113 0 1.53034)
(1.50878 4.17231e-06 0 1.50131 0 1.50894)
(1.51111 0.000216652 0 1.4893 0 1.51167)
(1.51309 0.00054634 0 1.47736 0 1.51409)
(1.51484 0.000955361 0 1.46529 0 1.51628)
(1.51643 0.00141756 0 1.45299 0 1.51828)
(1.51787 0.00191253 0 1.44049 0 1.52011)
(1.51919 0.00242653 0 1.42783 0 1.52177)
(1.52037 0.00295033 0 1.41512 0 1.52327)
(1.52144 0.00347792 0 1.40243 0 1.52461)
(1.52237 0.00400523 0 1.38984 0 1.52579)
(1.52319 0.00452926 0 1.37741 0 1.52682)
(1.52388 0.00504752 0 1.36522 0 1.5277)
(1.52446 0.00555777 0 1.35329 0 1.52844)
(1.52491 0.00605871 0 1.34167 0 1.52906)
(1.52525 0.00654975 0 1.33041 0 1.52955)
(1.52545 0.00703506 0 1.31951 0 1.52994)
(1.52551 0.00751881 0 1.30904 0 1.53023)
(1.5254 0.0080383 0 1.29901 0 1.53041)
(1.50879 0.000494479 0 1.50125 0 1.50896)
(1.51113 0.0012246 0 1.48913 0 1.51171)
(1.51315 0.00179516 0 1.47707 0 1.51415)
(1.51493 0.00228844 0 1.46483 0 1.51636)
(1.51655 0.00276197 0 1.45237 0 1.51838)
(1.51802 0.00325083 0 1.43969 0 1.52022)
(1.51935 0.00377308 0 1.42687 0 1.52189)
(1.52054 0.00433469 0 1.414 0 1.52339)
(1.5216 0.0049341 0 1.40116 0 1.52471)
(1.52252 0.00556536 0 1.38844 0 1.52587)
(1.52331 0.00622007 0 1.37591 0 1.52687)
(1.52398 0.00688845 0 1.36361 0 1.52771)
(1.52452 0.00755991 0 1.35161 0 1.52841)
(1.52494 0.00822303 0 1.33991 0 1.52898)
(1.52525 0.00886552 0 1.32856 0 1.52943)
(1.52546 0.00947261 0 1.31758 0 1.52978)
(1.52557 0.0100281 0 1.30696 0 1.53003)
(1.5256 0.0104979 0 1.29673 0 1.53021)
(1.50906 0.000541391 0 1.50073 0 1.5092)
(1.51179 0.00128552 0 1.48769 0 1.51227)
(1.51414 0.00170003 0 1.47455 0 1.51497)
(1.51625 0.00192885 0 1.46107 0 1.51743)
(1.51818 0.00208489 0 1.44723 0 1.51966)
(1.51993 0.00224469 0 1.43315 0 1.52168)
(1.52151 0.00245014 0 1.41895 0 1.52349)
(1.5229 0.00271798 0 1.40476 0 1.52506)
(1.52412 0.00304968 0 1.3907 0 1.52642)
(1.52515 0.00343813 0 1.37684 0 1.52757)
(1.52601 0.00387195 0 1.36327 0 1.52852)
(1.52671 0.00433801 0 1.35003 0 1.52928)
(1.52726 0.00482338 0 1.33716 0 1.52988)
(1.52766 0.00531628 0 1.3247 0 1.53031)
(1.52792 0.00580863 0 1.31266 0 1.5306)
(1.52803 0.00629712 0 1.30108 0 1.53075)
(1.528 0.00678833 0 1.28995 0 1.53077)
(1.52781 0.00731677 0 1.27931 0 1.53067)
(1.50922 0.000982468 0 1.50027 0 1.50936)
(1.51228 0.00205812 0 1.48603 0 1.51274)
(1.51503 0.00252311 0 1.47122 0 1.51579)
(1.51756 0.00270909 0 1.45572 0 1.51858)
(1.51987 0.00281689 0 1.4397 0 1.52109)
(1.52193 0.00295978 0 1.4234 0 1.5233)
(1.52374 0.00318971 0 1.40704 0 1.52521)
(1.52527 0.00352039 0 1.39082 0 1.52681)
(1.52654 0.00394641 0 1.37487 0 1.52811)
(1.52757 0.00445432 0 1.35928 0 1.52913)
(1.52835 0.0050284 0 1.34413 0 1.5299)
(1.52893 0.00565376 0 1.32946 0 1.53043)
(1.52931 0.0063178 0 1.31531 0 1.53076)
(1.52951 0.00701132 0 1.30167 0 1.53091)
(1.52956 0.00772749 0 1.28857 0 1.53089)
(1.52948 0.00846195 0 1.27598 0 1.53074)
(1.5293 0.00920591 0 1.26391 0 1.53048)
(1.52908 0.00992631 0 1.2523 0 1.53016)
(1.50944 0.00115036 0 1.49985 0 1.50955)
(1.51291 0.00227045 0 1.48427 0 1.51326)
(1.51618 0.00262073 0 1.46724 0 1.51671)
(1.51928 0.00267373 0 1.44894 0 1.5199)
(1.52208 0.00267602 0 1.42994 0 1.5227)
(1.52451 0.00275735 0 1.41072 0 1.52507)
(1.52655 0.00297261 0 1.39162 0 1.52698)
(1.52818 0.00332955 0 1.3729 0 1.52845)
(1.52944 0.0038143 0 1.35468 0 1.52952)
(1.53036 0.00440531 0 1.33705 0 1.53023)
(1.53097 0.00507925 0 1.32006 0 1.53063)
(1.53132 0.00581342 0 1.30374 0 1.53075)
(1.53145 0.00658675 0 1.28808 0 1.53063)
(1.53138 0.00737902 0 1.27308 0 1.53032)
(1.53115 0.00817165 0 1.25873 0 1.52985)
(1.53077 0.00894632 0 1.24503 0 1.52922)
(1.53024 0.0096939 0 1.23196 0 1.52847)
(1.52951 0.0104405 0 1.21955 0 1.52757)
(1.50957 0.00179246 0 1.49944 0 1.50968)
(1.51362 0.00313483 0 1.48161 0 1.51389)
(1.51775 0.0035139 0 1.46078 0 1.51802)
(1.52165 0.00370094 0 1.43796 0 1.52176)
(1.52506 0.00395838 0 1.41431 0 1.52488)
(1.52787 0.00437946 0 1.39061 0 1.52731)
(1.53005 0.00498351 0 1.36735 0 1.52906)
(1.53164 0.00574744 0 1.34484 0 1.53019)
(1.53269 0.00663682 0 1.3232 0 1.53078)
(1.53328 0.00761957 0 1.30252 0 1.5309)
(1.53347 0.00866834 0 1.28282 0 1.53063)
(1.53331 0.00976073 0 1.26408 0 1.53002)
(1.53287 0.0108797 0 1.2463 0 1.52914)
(1.53218 0.0120144 0 1.22943 0 1.52804)
(1.53128 0.0131605 0 1.21346 0 1.52674)
(1.53022 0.0143244 0 1.19832 0 1.5253)
(1.52902 0.0155169 0 1.18399 0 1.52374)
(1.52785 0.0167314 0 1.17036 0 1.52217)
(1.50959 0.00204383 0 1.49946 0 1.50967)
(1.51428 0.00347091 0 1.47914 0 1.51435)
(1.51947 0.00403121 0 1.4532 0 1.51919)
(1.52431 0.00456803 0 1.4245 0 1.52336)
(1.52824 0.00526443 0 1.3952 0 1.52645)
(1.53116 0.00617433 0 1.36642 0 1.52846)
(1.53314 0.00730522 0 1.33872 0 1.52949)
(1.53426 0.00861744 0 1.31233 0 1.52969)
(1.53468 0.0100607 0 1.28734 0 1.5292)
(1.53451 0.011593 0 1.26374 0 1.52817)
(1.53388 0.0131812 0 1.24149 0 1.5267)
(1.53287 0.0147993 0 1.22052 0 1.52489)
(1.53156 0.0164273 0 1.20077 0 1.52283)
(1.53004 0.0180482 0 1.18214 0 1.52057)
(1.52838 0.0196449 0 1.16457 0 1.51819)
(1.52661 0.021189 0 1.14797 0 1.51571)
(1.52481 0.0226427 0 1.13229 0 1.51321)
(1.52281 0.0239722 0 1.11753 0 1.51061)
(1.5098 0.00303828 0 1.49889 0 1.50984)
(1.51586 0.00472285 0 1.47334 0 1.51563)
(1.52286 0.00604543 0 1.43812 0 1.52158)
(1.52888 0.00780074 0 1.39954 0 1.52605)
(1.53323 0.00982741 0 1.36104 0 1.52868)
(1.53597 0.0120132 0 1.32406 0 1.52966)
(1.53729 0.014322 0 1.28919 0 1.52928)
(1.53745 0.0166998 0 1.25662 0 1.52781)
(1.53667 0.0190954 0 1.22634 0 1.5255)
(1.53519 0.0214774 0 1.19824 0 1.52258)
(1.53315 0.0238262 0 1.17215 0 1.51921)
(1.53072 0.0261269 0 1.14793 0 1.51552)
(1.52798 0.0283687 0 1.12541 0 1.51161)
(1.52503 0.0305427 0 1.10446 0 1.50757)
(1.52192 0.0326418 0 1.08495 0 1.50343)
(1.51868 0.0346725 0 1.06678 0 1.49924)
(1.51525 0.0366564 0 1.04987 0 1.495)
(1.51195 0.038675 0 1.03414 0 1.49087)
(1.50952 0.00322259 0 1.49949 0 1.5095)
(1.51716 0.00619251 0 1.46757 0 1.51622)
(1.52636 0.00966036 0 1.41928 0 1.52277)
(1.53317 0.0136146 0 1.36858 0 1.52622)
(1.53699 0.0176258 0 1.32023 0 1.52664)
(1.53828 0.0215949 0 1.27537 0 1.52474)
(1.53767 0.0255561 0 1.23417 0 1.52117)
(1.53562 0.0294723 0 1.19648 0 1.51642)
(1.53255 0.033285 0 1.16202 0 1.51088)
(1.52877 0.0369647 0 1.1305 0 1.50485)
(1.52451 0.0405035 0 1.10161 0 1.49851)
(1.51995 0.0438991 0 1.07507 0 1.49204)
(1.51523 0.0471542 0 1.05062 0 1.48553)
(1.51044 0.0502754 0 1.02807 0 1.47906)
(1.50567 0.0532711 0 1.00721 0 1.47271)
(1.50101 0.0561472 0 0.987869 0 1.46652)
(1.49666 0.0588894 0 0.969848 0 1.46061)
(1.49247 0.0613268 0 0.953131 0 1.45495)
(1.51082 0.00499689 0 1.49633 0 1.51063)
(1.52255 0.0112948 0 1.44724 0 1.51972)
(1.53513 0.0203346 0 1.37178 0 1.5259)
(1.54217 0.0292808 0 1.29717 0 1.52592)
(1.54396 0.0371158 0 1.22986 0 1.52128)
(1.54194 0.0439067 0 1.17034 0 1.51358)
(1.53745 0.0500329 0 1.11795 0 1.50407)
(1.53139 0.0556653 0 1.07182 0 1.49357)
(1.52437 0.0608518 0 1.03107 0 1.48263)
(1.51683 0.0656501 0 0.994901 0 1.47159)
(1.50905 0.0701197 0 0.962608 0 1.46066)
(1.50126 0.0742995 0 0.933629 0 1.44999)
(1.49358 0.0782146 0 0.907506 0 1.43967)
(1.48612 0.0818917 0 0.883855 0 1.42977)
(1.47887 0.0853354 0 0.862348 0 1.42026)
(1.47195 0.0885662 0 0.842741 0 1.41121)
(1.46491 0.0915407 0 0.824761 0 1.40237)
(1.45809 0.0943701 0 0.808583 0 1.39403)
(1.51 0.00556681 0 1.4981 0 1.5093)
(1.52772 0.0254715 0 1.42335 0 1.51814)
(1.54393 0.0466116 0 1.3119 0 1.5172)
(1.54831 0.0624392 0 1.21456 0 1.50614)
(1.54446 0.0746902 0 1.13318 0 1.48976)
(1.53551 0.084589 0 1.06476 0 1.47077)
(1.52429 0.0932175 0 1.00656 0 1.45114)
(1.51211 0.100894 0 0.956765 0 1.43183)
(1.4996 0.107734 0 0.913783 0 1.41322)
(1.48723 0.113881 0 0.876325 0 1.39552)
(1.47524 0.119466 0 0.843416 0 1.37881)
(1.46388 0.124588 0 0.81429 0 1.36317)
(1.4531 0.129289 0 0.788336 0 1.34849)
(1.44307 0.133652 0 0.765095 0 1.33485)
(1.43368 0.137706 0 0.744108 0 1.32205)
(1.42497 0.141485 0 0.725221 0 1.31023)
(1.41709 0.145152 0 0.707843 0 1.2991)
(1.41061 0.148346 0 0.692643 0 1.28947)
(1.51865 0.0283668 0 1.47424 0 1.51456)
(1.56412 0.112031 0 1.27056 0 1.51897)
(1.58669 0.162409 0 1.05048 0 1.48932)
(1.58152 0.18453 0 0.90283 0 1.44759)
(1.56507 0.1962 0 0.801412 0 1.40547)
(1.54334 0.20343 0 0.728563 0 1.3654)
(1.52265 0.20955 0 0.674036 0 1.33032)
(1.50327 0.214898 0 0.631835 0 1.29943)
(1.48535 0.219696 0 0.598033 0 1.27198)
(1.46913 0.22406 0 0.570259 0 1.24756)
(1.4544 0.228004 0 0.547047 0 1.22563)
(1.44146 0.23164 0 0.527383 0 1.20616)
(1.4297 0.234946 0 0.510472 0 1.18846)
(1.41963 0.23802 0 0.495845 0 1.17282)
(1.41031 0.240844 0 0.483018 0 1.15833)
(1.40257 0.243448 0 0.471732 0 1.14565)
(1.39504 0.245914 0 0.461742 0 1.13359)
(1.38777 0.247926 0 0.452583 0 1.12254)
(1.59295 0.292543 0 1.39559 0 1.521)
(1.91798 0.579349 0 0.967321 0 1.53352)
(2.07147 0.58608 0 0.732453 0 1.49029)
(2.10685 0.55346 0 0.628552 0 1.43741)
(2.09681 0.526167 0 0.574413 0 1.38863)
(2.06962 0.506063 0 0.541282 0 1.34603)
(2.03633 0.490642 0 0.518263 0 1.30923)
(2.00211 0.478228 0 0.500662 0 1.27722)
(1.96903 0.467787 0 0.486363 0 1.24908)
(1.93788 0.458738 0 0.474302 0 1.22411)
(1.90888 0.45074 0 0.463881 0 1.20175)
(1.882 0.443583 0 0.454736 0 1.18162)
(1.85721 0.437128 0 0.446615 0 1.16339)
(1.83424 0.431264 0 0.439341 0 1.1468)
(1.81317 0.425906 0 0.432778 0 1.13169)
(1.79343 0.421019 0 0.426845 0 1.11778)
(1.77552 0.416444 0 0.421384 0 1.10511)
(1.75829 0.412222 0 0.416511 0 1.09321)
(0.00558725 0.00224445 0 0.0178232 0 0.0160045)
(0.0135964 -0.000377637 0 0.02206 0 0.028898)
(0.0233363 -0.0013175 0 0.0256542 0 0.0392122)
(0.0299106 -0.00263205 0 0.0255801 0 0.0443879)
(0.0356217 -0.00330626 0 0.0255749 0 0.0483497)
(0.0400386 -0.00394611 0 0.0249037 0 0.0508031)
(0.0439855 -0.00438856 0 0.0242889 0 0.0527041)
(0.0472339 -0.00480668 0 0.0234145 0 0.0538806)
(0.0501217 -0.00510147 0 0.0225703 0 0.054712)
(0.0525089 -0.0053569 0 0.0216565 0 0.0551042)
(0.0545219 -0.0055781 0 0.0208228 0 0.0552382)
(0.0563032 -0.00584815 0 0.0198887 0 0.0549563)
(0.0577685 -0.00621603 0 0.0189601 0 0.054435)
(0.058538 -0.00650537 0 0.0182893 0 0.0538903)
(0.0593482 -0.00687932 0 0.0173332 0 0.0528396)
(0.0598543 -0.00716404 0 0.0162413 0 0.0512661)
(0.0597138 -0.00720397 0 0.0151141 0 0.0492378)
(0.0587492 -0.00695861 0 0.0139352 0 0.0467021)
(0.0568015 -0.00641779 0 0.0126977 0 0.0436249)
(0.0527904 -0.00541701 0 0.0113306 0 0.0395289)
(0.0465188 -0.00420824 0 0.00978365 0 0.0342212)
(0.0397169 -0.00291269 0 0.00820035 0 0.0288087)
(0.034585 -0.0016029 0 0.00686564 0 0.0247466)
(0.0311093 -0.000443231 0 0.00596814 0 0.0221394)
(0.0292005 0.000375076 0 0.00563378 0 0.0210401)
(0.029117 0.000735525 0 0.00583821 0 0.0214266)
(0.0313401 0.00113311 0 0.00646631 0 0.0233018)
(0.0351468 0.0017695 0 0.00731194 0 0.0260106)
(0.0395813 0.00256423 0 0.00835467 0 0.0291415)
(0.0447392 0.00346745 0 0.00959722 0 0.032813)
(0.0511195 0.00444571 0 0.0110461 0 0.037353)
(0.058481 0.00548035 0 0.012618 0 0.0425818)
(0.0655564 0.0065429 0 0.0141767 0 0.0476397)
(0.0723916 0.00763274 0 0.0157257 0 0.0525569)
(0.079027 0.00873464 0 0.0172675 0 0.0573609)
(0.0854849 0.00983364 0 0.0188013 0 0.0620656)
(0.0917817 0.0109193 0 0.0203251 0 0.0666802)
(0.0979197 0.0119837 0 0.0218357 0 0.0712034)
(0.103909 0.013022 0 0.0233319 0 0.0756404)
(0.109765 0.0140321 0 0.0248142 0 0.0799987)
(0.115481 0.0150108 0 0.0262775 0 0.0842696)
(0.121085 0.0159605 0 0.0277267 0 0.0884712)
(0.126603 0.0168843 0 0.0291658 0 0.0926182)
(0.132066 0.0177874 0 0.0306004 0 0.0967292)
(0.137512 0.0186779 0 0.0320366 0 0.100825)
(0.142989 0.0195713 0 0.0334808 0 0.104928)
(0.148551 0.0204992 0 0.0349388 0 0.109064)
(0.154241 0.021506 0 0.036413 0 0.113248)
(0.159852 0.0224927 0 0.0378866 0 0.117406)
(0.165475 0.0234854 0 0.0393751 0 0.121585)
(0.171097 0.0244805 0 0.0408784 0 0.125783)
(0.176736 0.0254827 0 0.0424028 0 0.130016)
(0.182399 0.026494 0 0.0439517 0 0.134288)
(0.188093 0.0275171 0 0.0455294 0 0.13861)
(0.193823 0.028554 0 0.0471399 0 0.142988)
(0.19959 0.0296066 0 0.048787 0 0.147426)
(0.205396 0.0306768 0 0.0504745 0 0.151929)
(0.211239 0.031766 0 0.0522062 0 0.156501)
(0.217113 0.0328755 0 0.053986 0 0.161142)
(0.223012 0.0340066 0 0.0558179 0 0.165853)
(0.228926 0.0351599 0 0.0577058 0 0.170633)
(0.234841 0.0363361 0 0.059654 0 0.175478)
(0.240739 0.0375352 0 0.0616668 0 0.180383)
(0.2466 0.038757 0 0.0637487 0 0.185341)
(0.252398 0.0400004 0 0.0659046 0 0.19034)
(0.258101 0.041264 0 0.0681395 0 0.195369)
(0.263677 0.0425456 0 0.0704587 0 0.200411)
(0.269087 0.0438416 0 0.072868 0 0.205447)
(0.27429 0.0451461 0 0.0753727 0 0.21046)
(0.27925 0.0464508 0 0.077979 0 0.215429)
(0.283937 0.0477496 0 0.0806957 0 0.220344)
(0.288309 0.0490419 0 0.0835331 0 0.225185)
(0.292336 0.0503282 0 0.0865109 0 0.22994)
(0.29603 0.0515998 0 0.0896597 0 0.234629)
(0.299442 0.0528741 0 0.0930147 0 0.239301)
(0.302572 0.0541562 0 0.0965938 0 0.243969)
(0.305411 0.0554298 0 0.100419 0 0.248635)
(0.307928 0.0566885 0 0.104513 0 0.25329)
(0.310084 0.0579162 0 0.108896 0 0.257919)
(0.311833 0.0590931 0 0.113592 0 0.2625)
(0.313121 0.0601927 0 0.118623 0 0.267006)
(0.313881 0.0611812 0 0.124012 0 0.271402)
(0.314035 0.0620155 0 0.129781 0 0.27564)
(0.313471 0.062642 0 0.135948 0 0.279652)
(0.312045 0.0629884 0 0.142539 0 0.283351)
(0.309548 0.0629399 0 0.149601 0 0.28662)
(0.305627 0.0623035 0 0.157287 0 0.289298)
(0.300473 0.0608775 0 0.164843 0 0.290886)
(0.295466 0.0589637 0 0.17102 0 0.291606)
(0.287928 0.0559571 0 0.178622 0 0.292008)
(0.277364 0.0500206 0 0.185977 0 0.290364)
(0.267332 0.0411855 0 0.19098 0 0.28816)
(0.258375 0.0310746 0 0.195533 0 0.285678)
(0.251106 0.0193165 0 0.198972 0 0.282945)
(0.246254 0.0058157 0 0.200998 0 0.280394)
(0.244871 -0.00953902 0 0.201457 0 0.279182)
(0.246984 -0.0237754 0 0.199398 0 0.27872)
(0.251544 -0.0364644 0 0.194368 0 0.27742)
(0.256881 -0.0456538 0 0.185863 0 0.275029)
(0.262086 -0.0521701 0 0.17384 0 0.270508)
(0.266219 -0.056203 0 0.160496 0 0.264351)
(0.269397 -0.0583393 0 0.146694 0 0.257029)
(0.271761 -0.0590122 0 0.132937 0 0.248846)
(0.27332 -0.0583373 0 0.119272 0 0.239866)
(0.274025 -0.0565184 0 0.106737 0 0.230801)
(0.272911 -0.0539079 0 0.0954186 0 0.22124)
(0.266114 -0.0501118 0 0.0845194 0 0.208671)
(0.252388 -0.0445935 0 0.0727233 0 0.191667)
(0.230401 -0.037348 0 0.0608885 0 0.170541)
(0.200831 -0.029129 0 0.0495919 0 0.146042)
(0.160653 -0.0208766 0 0.0377461 0 0.115791)
(0.141243 -0.0110678 0 0.0298443 0 0.0979168)
(0.153349 -0.00583571 0 0.030502 0 0.102952)
(0.192993 -0.00145861 0 0.039123 0 0.126642)
(0.191571 -3.90185e-05 0 0.0388435 0 0.124758)
(0.134462 0.000102182 0 0.0283968 0 0.0912716)
(0.0880907 0.0087258 0 0.0299582 0 0.0808331)
(0.203201 0.0265217 0 0.061758 0 0.163208)
(0.482163 0.0637988 0 0.116946 0 0.340623)
(0.645079 0.0995579 0 0.154703 0 0.449623)
(0.778956 0.130167 0 0.189805 0 0.543343)
(0.880053 0.154769 0 0.221098 0 0.617568)
(0.961046 0.17431 0 0.251075 0 0.68002)
(1.02379 0.189392 0 0.280083 0 0.73146)
(1.07206 0.200445 0 0.30887 0 0.774155)
(1.10692 0.207965 0 0.33728 0 0.808332)
(1.13016 0.212325 0 0.364927 0 0.834788)
(1.14371 0.213721 0 0.391301 0 0.85446)
(1.15126 0.212835 0 0.416567 0 0.869615)
(1.15225 0.20954 0 0.438532 0 0.879187)
(1.14902 0.204579 0 0.454638 0 0.883907)
(1.14313 0.199765 0 0.466221 0 0.885653)
(1.12516 0.193613 0 0.482154 0 0.884197)
(1.10888 0.186739 0 0.487483 0 0.87801)
(1.08757 0.1789 0 0.495479 0 0.870985)
(1.06336 0.170429 0 0.498398 0 0.860436)
(1.03598 0.161798 0 0.500262 0 0.848329)
(1.00519 0.152528 0 0.501039 0 0.834187)
(0.96876 0.141805 0 0.501264 0 0.817423)
(0.921223 0.123691 0 0.499618 0 0.795946)
(0.871906 0.0974267 0 0.497121 0 0.774571)
(0.830347 0.0726723 0 0.49734 0 0.757271)
(0.793037 0.0467721 0 0.499273 0 0.742364)
(0.761375 0.0195086 0 0.503457 0 0.730612)
(0.736447 -0.00997986 0 0.510037 0 0.722507)
(0.72145 -0.0394572 0 0.517445 0 0.718432)
(0.713699 -0.066498 0 0.524292 0 0.716774)
(0.710759 -0.102326 0 0.534015 0 0.717783)
(0.719849 -0.137312 0 0.544212 0 0.723438)
(0.742671 -0.178757 0 0.54883 0 0.733257)
(0.77929 -0.206929 0 0.522674 0 0.746027)
(0.807242 -0.223641 0 0.51559 0 0.758419)
(0.828151 -0.235716 0 0.512678 0 0.766926)
(0.845164 -0.245505 0 0.508588 0 0.772484)
(0.860547 -0.253289 0 0.498924 0 0.773951)
(0.868828 -0.257185 0 0.48907 0 0.773021)
(0.87539 -0.259138 0 0.473769 0 0.768391)
(0.878446 -0.258453 0 0.454741 0 0.760029)
(0.877857 -0.255513 0 0.43405 0 0.748995)
(0.873796 -0.250669 0 0.412064 0 0.735394)
(0.866366 -0.244272 0 0.389353 0 0.719417)
(0.855855 -0.236699 0 0.366452 0 0.701335)
(0.842788 -0.228406 0 0.344043 0 0.681705)