/*--------------------------------*- C++ -*----------------------------------*\
| =========                 |                                                 |
| \\      /  F ield         | OpenFOAM: The Open Source CFD Toolbox           |
|  \\    /   O peration     | Version:  v1906                                 |
|   \\  /    A nd           | Web:      www.OpenFOAM.com                      |
|    \\/     M anipulation  |                                                 |
\*---------------------------------------------------------------------------*/
FoamFile
{
    version     2.0;
    format      ascii;
    class       volVectorField;
    location    "1600";
    object      U;
}
// * * * * * * * * * * * * * * * * * * * * * * * * * * * * * * * * * * * * * //

dimensions      [0 1 -1 0 0 0 0];


internalField   nonuniform List<vector> 
12225
(
(9.79814 -0.0863308 0)
(9.51357 -0.307495 0)
(9.27248 -0.419782 0)
(9.07765 -0.461264 0)
(8.91785 -0.474669 0)
(8.77856 -0.478083 0)
(8.65417 -0.477588 0)
(8.54281 -0.475309 0)
(8.4429 -0.472078 0)
(8.35306 -0.468237 0)
(8.27242 -0.463901 0)
(8.19928 -0.459017 0)
(8.13302 -0.453968 0)
(8.07342 -0.449031 0)
(8.0214 -0.444502 0)
(7.97808 -0.4416 0)
(7.94589 -0.436078 0)
(7.9307 -0.455928 0)
(10.05 0.14679 0)
(10.0863 0.250743 0)
(10.0599 0.305907 0)
(10.0171 0.343268 0)
(9.9743 0.365676 0)
(9.93125 0.378579 0)
(9.88887 0.386331 0)
(9.84827 0.39091 0)
(9.80958 0.393222 0)
(9.77254 0.393931 0)
(9.73735 0.393531 0)
(9.70411 0.392334 0)
(9.67295 0.390381 0)
(9.64365 0.387803 0)
(9.61637 0.384106 0)
(9.59023 0.380249 0)
(9.56736 0.371421 0)
(9.5448 0.364912 0)
(10.0185 0.00425476 0)
(10.0533 -0.0206978 0)
(10.0428 -0.0638937 0)
(10.0197 -0.102032 0)
(9.99823 -0.133176 0)
(9.97788 -0.157459 0)
(9.95852 -0.175705 0)
(9.94052 -0.189613 0)
(9.92369 -0.200527 0)
(9.90786 -0.209301 0)
(9.89292 -0.216395 0)
(9.87911 -0.222224 0)
(9.8663 -0.227108 0)
(9.85495 -0.231672 0)
(9.84449 -0.236059 0)
(9.83575 -0.24168 0)
(9.82806 -0.247686 0)
(9.81423 -0.263554 0)
(10.0096 0.0630148 0)
(10.0375 0.104544 0)
(10.0479 0.125872 0)
(10.0491 0.147203 0)
(10.0473 0.165869 0)
(10.0428 0.18093 0)
(10.0364 0.193097 0)
(10.0295 0.202814 0)
(10.0224 0.210495 0)
(10.0155 0.216569 0)
(10.0088 0.221389 0)
(10.0026 0.225187 0)
(9.99692 0.228023 0)
(9.99209 0.229885 0)
(9.98801 0.230648 0)
(9.98487 0.230021 0)
(9.98262 0.227486 0)
(9.98251 0.222148 0)
(10.0105 0.0166002 0)
(10.0427 0.021166 0)
(10.0571 0.0116647 0)
(10.0614 -0.00164503 0)
(10.0629 -0.0169445 0)
(10.0624 -0.0323597 0)
(10.0609 -0.0463352 0)
(10.0591 -0.0586301 0)
(10.0573 -0.0694908 0)
(10.0555 -0.0791433 0)
(10.0537 -0.08779 0)
(10.0521 -0.0956544 0)
(10.0509 -0.102998 0)
(10.05 -0.110173 0)
(10.0495 -0.11746 0)
(10.0488 -0.125618 0)
(10.0488 -0.134246 0)
(10.0423 -0.146898 0)
(10.0059 0.0365267 0)
(10.028 0.0670919 0)
(10.0437 0.081077 0)
(10.0543 0.0918933 0)
(10.0627 0.101305 0)
(10.0688 0.109667 0)
(10.073 0.117348 0)
(10.0763 0.124238 0)
(10.0788 0.130259 0)
(10.081 0.135457 0)
(10.0829 0.139904 0)
(10.0848 0.143639 0)
(10.0867 0.146643 0)
(10.0888 0.148806 0)
(10.0911 0.15005 0)
(10.0935 0.150077 0)
(10.0959 0.148865 0)
(10.1002 0.146722 0)
(10.005 0.0137587 0)
(10.025 0.0240982 0)
(10.0403 0.0246546 0)
(10.05 0.0209786 0)
(10.0572 0.0144525 0)
(10.0624 0.00633392 0)
(10.0663 -0.00216388 0)
(10.0697 -0.0105361 0)
(10.0727 -0.0186167 0)
(10.0755 -0.0263465 0)
(10.0782 -0.0337397 0)
(10.0808 -0.0408815 0)
(10.0835 -0.0479058 0)
(10.0861 -0.0550271 0)
(10.0888 -0.0623691 0)
(10.0908 -0.0703727 0)
(10.0924 -0.0785835 0)
(10.0898 -0.0891151 0)
(10.0034 0.0223333 0)
(10.0185 0.0470143 0)
(10.0324 0.0599569 0)
(10.0437 0.0683276 0)
(10.0537 0.0744729 0)
(10.0622 0.0795055 0)
(10.0693 0.0840839 0)
(10.0756 0.0883117 0)
(10.0813 0.092159 0)
(10.0865 0.0956092 0)
(10.0914 0.098645 0)
(10.0961 0.101229 0)
(10.1007 0.103308 0)
(10.1052 0.104783 0)
(10.1095 0.105599 0)
(10.1139 0.10564 0)
(10.1178 0.104892 0)
(10.1233 0.104395 0)
(10.002 0.0100626 0)
(10.0135 0.0206636 0)
(10.026 0.0244587 0)
(10.0361 0.0244887 0)
(10.0447 0.0218788 0)
(10.0518 0.0175688 0)
(10.0577 0.0123829 0)
(10.063 0.0067414 0)
(10.0679 0.000868622 0)
(10.0724 -0.0051121 0)
(10.0767 -0.0111518 0)
(10.0808 -0.0172678 0)
(10.0848 -0.0235082 0)
(10.0885 -0.0299836 0)
(10.0919 -0.0367243 0)
(10.0947 -0.0439482 0)
(10.0968 -0.0513148 0)
(10.0961 -0.0602928 0)
(10.0019 0.0139206 0)
(10.0122 0.0333823 0)
(10.0234 0.0452018 0)
(10.0337 0.0528347 0)
(10.0434 0.0580061 0)
(10.0521 0.0618355 0)
(10.06 0.0650161 0)
(10.0672 0.0678112 0)
(10.0739 0.0703133 0)
(10.0802 0.0725498 0)
(10.0861 0.0745151 0)
(10.0918 0.0761769 0)
(10.0972 0.0775004 0)
(10.1024 0.0784266 0)
(10.1073 0.0789517 0)
(10.1121 0.079081 0)
(10.1165 0.0788227 0)
(10.1218 0.0793504 0)
(10.0006 0.00702941 0)
(10.0071 0.0160868 0)
(10.0165 0.0204481 0)
(10.0254 0.021788 0)
(10.0338 0.0208713 0)
(10.0412 0.0184101 0)
(10.0478 0.0149724 0)
(10.0539 0.0108872 0)
(10.0595 0.00635875 0)
(10.0647 0.00150921 0)
(10.0696 -0.0035971 0)
(10.0742 -0.0089447 0)
(10.0785 -0.0145376 0)
(10.0825 -0.0204177 0)
(10.0862 -0.0265806 0)
(10.0891 -0.033138 0)
(10.0915 -0.0398343 0)
(10.0922 -0.0477701 0)
(10.0011 0.00879345 0)
(10.008 0.0231175 0)
(10.0169 0.0327459 0)
(10.0257 0.0392528 0)
(10.0344 0.0435781 0)
(10.0426 0.046568 0)
(10.0502 0.0487795 0)
(10.0574 0.0505098 0)
(10.0642 0.0519138 0)
(10.0705 0.053066 0)
(10.0765 0.0539974 0)
(10.0822 0.0547075 0)
(10.0877 0.0551975 0)
(10.0928 0.0554489 0)
(10.0975 0.0555052 0)
(10.1021 0.0554067 0)
(10.1062 0.0552066 0)
(10.1107 0.0559561 0)
(10.0001 0.00508137 0)
(10.004 0.0123043 0)
(10.0111 0.0161792 0)
(10.0187 0.0177795 0)
(10.0263 0.0175165 0)
(10.0335 0.0159396 0)
(10.0402 0.0134304 0)
(10.0465 0.010248 0)
(10.0523 0.00656134 0)
(10.0578 0.00247718 0)
(10.0629 -0.00194101 0)
(10.0677 -0.00666233 0)
(10.0721 -0.0116741 0)
(10.0762 -0.0169758 0)
(10.0799 -0.0225737 0)
(10.0831 -0.0284991 0)
(10.0859 -0.0346584 0)
(10.0879 -0.0419702 0)
(10.0006 0.00587239 0)
(10.0056 0.016816 0)
(10.0127 0.0250597 0)
(10.0201 0.0312553 0)
(10.0278 0.0357777 0)
(10.0354 0.0392005 0)
(10.0427 0.0419101 0)
(10.0497 0.0441649 0)
(10.0564 0.0461218 0)
(10.0627 0.0478696 0)
(10.0687 0.0494598 0)
(10.0743 0.0509159 0)
(10.0796 0.0522659 0)
(10.0846 0.0535226 0)
(10.0892 0.0547474 0)
(10.0934 0.0560133 0)
(10.0971 0.0572867 0)
(10.1005 0.0596076 0)
(9.99991 0.00273443 0)
(10.0022 0.00658431 0)
(10.0072 0.00829043 0)
(10.0133 0.00845116 0)
(10.0198 0.00723848 0)
(10.0264 0.00498667 0)
(10.0328 0.00191811 0)
(10.0389 -0.00179601 0)
(10.0446 -0.00603521 0)
(10.0501 -0.0107163 0)
(10.0552 -0.015785 0)
(10.06 -0.0212025 0)
(10.0645 -0.0269524 0)
(10.0686 -0.0330116 0)
(10.0724 -0.0393881 0)
(10.076 -0.0460821 0)
(10.0792 -0.0529549 0)
(10.0825 -0.0608214 0)
(10.0003 0.00356926 0)
(10.0035 0.0108616 0)
(10.0086 0.0171593 0)
(10.0145 0.0225715 0)
(10.0208 0.0271436 0)
(10.0273 0.0311169 0)
(10.0337 0.0346818 0)
(10.0399 0.0379901 0)
(10.0458 0.0411497 0)
(10.0514 0.0442305 0)
(10.0567 0.0472803 0)
(10.0616 0.0503272 0)
(10.0662 0.0534005 0)
(10.0702 0.0565152 0)
(10.0739 0.0596995 0)
(10.077 0.0630009 0)
(10.0796 0.0662398 0)
(10.0814 0.0703132 0)
(10.0001 0.00010693 0)
(10.0021 -0.000492794 0)
(10.0062 -0.0022276 0)
(10.0114 -0.00483779 0)
(10.0173 -0.00826909 0)
(10.0235 -0.0123898 0)
(10.0298 -0.0171071 0)
(10.0361 -0.0223456 0)
(10.0422 -0.028046 0)
(10.0481 -0.0341609 0)
(10.0537 -0.0406507 0)
(10.059 -0.0474732 0)
(10.0641 -0.0545979 0)
(10.069 -0.0619791 0)
(10.0736 -0.0695777 0)
(10.0782 -0.0773577 0)
(10.0824 -0.0850782 0)
(10.087 -0.0934118 0)
(9.99998 0.00186352 0)
(10.0014 0.00595099 0)
(10.0045 0.0102617 0)
(10.0084 0.0147393 0)
(10.0128 0.0193385 0)
(10.0175 0.024073 0)
(10.0221 0.0289532 0)
(10.0265 0.0339906 0)
(10.0306 0.0391918 0)
(10.0344 0.0445571 0)
(10.0378 0.0500774 0)
(10.0407 0.0557367 0)
(10.0433 0.0615114 0)
(10.0453 0.0673792 0)
(10.047 0.073282 0)
(10.0481 0.0792307 0)
(10.049 0.0849354 0)
(10.049 0.0911335 0)
(10.0004 -0.00325081 0)
(10.0038 -0.0101418 0)
(10.0093 -0.0171706 0)
(10.0158 -0.0242752 0)
(10.0231 -0.0315022 0)
(10.0309 -0.0389082 0)
(10.0389 -0.0465454 0)
(10.0469 -0.0544464 0)
(10.0548 -0.0626223 0)
(10.0626 -0.0710669 0)
(10.0702 -0.0797598 0)
(10.0776 -0.0886701 0)
(10.0847 -0.0977578 0)
(10.0916 -0.106977 0)
(10.0982 -0.116264 0)
(10.1044 -0.125574 0)
(10.1101 -0.134726 0)
(10.1157 -0.144014 0)
(9.99959 -0.00148092 0)
(9.99969 -0.00308785 0)
(10.0017 -0.00313661 0)
(10.0045 -0.001989 0)
(10.0076 0.000183954 0)
(10.0106 0.00320126 0)
(10.0135 0.00689124 0)
(10.016 0.0111109 0)
(10.0181 0.0157436 0)
(10.0198 0.0206976 0)
(10.0212 0.0259061 0)
(10.0221 0.0313228 0)
(10.0227 0.0369269 0)
(10.023 0.0427056 0)
(10.023 0.0486781 0)
(10.0228 0.0548492 0)
(10.0227 0.0611948 0)
(10.0223 0.0680381 0)
(10.0008 -0.00564382 0)
(10.0062 -0.0167231 0)
(10.0135 -0.0261302 0)
(10.0214 -0.0342133 0)
(10.0298 -0.0413478 0)
(10.0383 -0.0478965 0)
(10.0466 -0.0541396 0)
(10.0548 -0.0602431 0)
(10.0626 -0.0662918 0)
(10.0702 -0.0723242 0)
(10.0774 -0.0783543 0)
(10.0844 -0.0843881 0)
(10.0911 -0.0904373 0)
(10.0977 -0.0965224 0)
(10.1041 -0.102698 0)
(10.1104 -0.109027 0)
(10.1162 -0.115591 0)
(10.1224 -0.122759 0)
(9.99962 -0.00394762 0)
(10.0011 -0.00931052 0)
(10.0052 -0.0116748 0)
(10.0096 -0.0118252 0)
(10.0137 -0.0101539 0)
(10.0172 -0.0070729 0)
(10.0201 -0.00300736 0)
(10.0224 0.00170416 0)
(10.0243 0.00680908 0)
(10.0258 0.0121204 0)
(10.0269 0.0175065 0)
(10.0275 0.0228837 0)
(10.0278 0.028212 0)
(10.0277 0.0334889 0)
(10.0272 0.038774 0)
(10.0259 0.0441678 0)
(10.0246 0.0498526 0)
(10.0219 0.056354 0)
(10.0015 -0.0108647 0)
(10.0099 -0.0289192 0)
(10.0201 -0.041806 0)
(10.0301 -0.0517515 0)
(10.04 -0.0600456 0)
(10.0493 -0.0674403 0)
(10.058 -0.0743916 0)
(10.0659 -0.0810787 0)
(10.0733 -0.087535 0)
(10.08 -0.0937525 0)
(10.0863 -0.0997132 0)
(10.0923 -0.105402 0)
(10.0979 -0.110812 0)
(10.1035 -0.115957 0)
(10.109 -0.120895 0)
(10.115 -0.125741 0)
(10.1211 -0.130744 0)
(10.129 -0.136556 0)
(10.0008 -0.00661348 0)
(10.0076 -0.014186 0)
(10.0161 -0.0161142 0)
(10.0224 -0.0143848 0)
(10.0272 -0.00992983 0)
(10.0307 -0.00361293 0)
(10.0332 0.00365123 0)
(10.035 0.0112439 0)
(10.0365 0.0188041 0)
(10.0376 0.0261073 0)
(10.0384 0.0330187 0)
(10.0389 0.0394674 0)
(10.0391 0.0454178 0)
(10.0389 0.050859 0)
(10.0383 0.0558166 0)
(10.0365 0.0603728 0)
(10.0341 0.0647985 0)
(10.0282 0.0698944 0)
(10.0028 -0.022388 0)
(10.0165 -0.0496356 0)
(10.0304 -0.0657603 0)
(10.0422 -0.078324 0)
(10.0527 -0.0895356 0)
(10.0615 -0.0998936 0)
(10.0688 -0.109654 0)
(10.0748 -0.118795 0)
(10.0799 -0.127207 0)
(10.0842 -0.134854 0)
(10.0879 -0.141754 0)
(10.0911 -0.147938 0)
(10.0941 -0.153431 0)
(10.0969 -0.15826 0)
(10.0997 -0.162426 0)
(10.1032 -0.16596 0)
(10.1074 -0.168986 0)
(10.1159 -0.172177 0)
(10.005 -0.00898476 0)
(10.0242 -0.0145566 0)
(10.0366 -0.00940252 0)
(10.0416 0.000897146 0)
(10.0439 0.0141246 0)
(10.0446 0.0284345 0)
(10.0444 0.0422006 0)
(10.0438 0.0547436 0)
(10.043 0.0659377 0)
(10.0421 0.0758142 0)
(10.0411 0.0844598 0)
(10.0399 0.0919842 0)
(10.0385 0.0984857 0)
(10.037 0.104037 0)
(10.0352 0.108663 0)
(10.0324 0.112357 0)
(10.0289 0.115164 0)
(10.0196 0.117637 0)
(10.0055 -0.048043 0)
(10.0267 -0.0881391 0)
(10.0416 -0.110913 0)
(10.0496 -0.132633 0)
(10.0545 -0.152667 0)
(10.0564 -0.169811 0)
(10.056 -0.18431 0)
(10.0542 -0.196439 0)
(10.0517 -0.206429 0)
(10.0488 -0.214602 0)
(10.0457 -0.221273 0)
(10.0424 -0.226689 0)
(10.039 -0.231032 0)
(10.0357 -0.234451 0)
(10.0324 -0.237001 0)
(10.0298 -0.2387 0)
(10.0277 -0.239383 0)
(10.0324 -0.238979 0)
(10.0144 -0.000920261 0)
(10.0466 0.0157429 0)
(10.045 0.0506635 0)
(10.0304 0.0849802 0)
(10.0159 0.114933 0)
(10.0023 0.139414 0)
(9.98925 0.158458 0)
(9.97698 0.173097 0)
(9.96548 0.184454 0)
(9.95454 0.193318 0)
(9.94404 0.200217 0)
(9.93394 0.205539 0)
(9.92421 0.209569 0)
(9.91476 0.212517 0)
(9.90567 0.214484 0)
(9.89637 0.215547 0)
(9.88743 0.215498 0)
(9.8717 0.214476 0)
(10.0327 -0.124107 0)
(10.0632 -0.217301 0)
(10.0515 -0.267697 0)
(10.0252 -0.304035 0)
(9.99876 -0.327409 0)
(9.97275 -0.341698 0)
(9.94735 -0.350729 0)
(9.92343 -0.356401 0)
(9.901 -0.359673 0)
(9.87974 -0.361181 0)
(9.85943 -0.361365 0)
(9.83999 -0.360534 0)
(9.82134 -0.358897 0)
(9.80344 -0.356634 0)
(9.78621 -0.353835 0)
(9.77005 -0.350717 0)
(9.7547 -0.34697 0)
(9.74783 -0.342344 0)
(9.86208 0.0595816 0)
(9.66854 0.235266 0)
(9.49426 0.336655 0)
(9.34859 0.379442 0)
(9.22782 0.395401 0)
(9.12056 0.400346 0)
(9.02194 0.400395 0)
(8.93089 0.398124 0)
(8.84665 0.394686 0)
(8.76847 0.39057 0)
(8.69582 0.385987 0)
(8.62829 0.381052 0)
(8.56545 0.375828 0)
(8.5069 0.370372 0)
(8.45222 0.364648 0)
(8.40086 0.35878 0)
(8.35231 0.351746 0)
(8.30179 0.34417 0)
(-0.0175724 -0.0977478 -2.09273e-19)
(0.0768712 -0.12201 1.32091e-19)
(0.125226 -0.135121 0)
(0.173308 -0.124005 0)
(0.215288 -0.115116 0)
(0.254246 -0.104578 -6.5951e-20)
(0.287767 -0.0969319 0)
(0.31786 -0.0892347 0)
(0.343631 -0.0832267 0)
(0.366297 -0.077477 0)
(0.385582 -0.0724879 5.16606e-20)
(0.402471 -0.0671937 0)
(0.4168 -0.0614971 0)
(0.426723 -0.0545259 0)
(0.430994 -0.0456003 0)
(0.426662 -0.0338623 4.9193e-20)
(0.414718 -0.0208692 0)
(0.395209 -0.00778173 0)
(0.368181 0.00421085 0)
(0.334083 0.014674 0)
(0.292451 0.0236421 0)
(0.242971 0.0307905 0)
(0.18845 0.0351715 0)
(0.132666 0.035907 8.77735e-20)
(0.0776411 0.0319248 -1.03878e-19)
(0.0235964 0.0221431 1.23505e-19)
(-0.0285992 0.0136862 1.21281e-19)
(-0.078693 0.0115278 0)
(-0.129768 0.0111156 0)
(-0.182301 0.0107947 -7.55465e-20)
(-0.23541 0.0106167 -6.69658e-20)
(-0.288716 0.0108734 0)
(-0.342678 0.011336 0)
(-0.397164 0.0115465 -5.00005e-20)
(-0.451638 0.0112118 0)
(-0.505719 0.0102084 0)
(-0.558997 0.00852125 4.02706e-20)
(-0.611132 0.00619954 0)
(-0.661855 0.00333197 3.59482e-20)
(-0.710971 1.7569e-05 6.84414e-20)
(-0.758373 -0.0036477 0)
(-0.804012 -0.00758337 0)
(-0.847888 -0.0117163 0)
(-0.890038 -0.0159878 0)
(-0.930535 -0.0203448 0)
(-0.969485 -0.0247312 5.4929e-20)
(-1.007 -0.0290761 5.34321e-20)
(-1.04316 -0.0333186 5.20606e-20)
(-1.0782 -0.0374934 0)
(-1.11224 -0.0416514 -4.96401e-20)
(-1.14537 -0.0458044 0)
(-1.17769 -0.0499773 4.75565e-20)
(-1.20926 -0.0541926 4.66154e-20)
(-1.24014 -0.058473 0)
(-1.27037 -0.0628418 0)
(-1.29996 -0.0673217 0)
(-1.32892 -0.0719349 4.33702e-20)
(-1.35724 -0.0767031 0)
(-1.38488 -0.0816467 0)
(-1.41181 -0.0867851 0)
(-1.43795 -0.0921352 0)
(-1.46321 -0.0977118 0)
(-1.48751 -0.103525 0)
(-1.51069 -0.109581 0)
(-1.53261 -0.115876 0)
(-1.55309 -0.122395 -3.82928e-20)
(-1.57192 -0.12911 0)
(-1.58884 -0.135975 0)
(-1.60357 -0.142914 3.72284e-20)
(-1.61582 -0.149799 3.69574e-20)
(-1.62529 -0.156423 0)
(-1.63166 -0.162488 -3.6554e-20)
(-1.63456 -0.167741 3.64138e-20)
(-1.63373 -0.172208 0)
(-1.62974 -0.176512 -3.61571e-20)
(-1.62216 -0.18104 0)
(-1.61075 -0.185986 0)
(-1.59507 -0.191467 3.60041e-20)
(-1.57462 -0.197571 0)
(-1.54884 -0.204364 -3.60709e-20)
(-1.5171 -0.211911 0)
(-1.47874 -0.220265 3.63388e-20)
(-1.43309 -0.229477 3.65802e-20)
(-1.3794 -0.239583 3.6921e-20)
(-1.31694 -0.250622 7.4779e-20)
(-1.2449 -0.262624 -7.60545e-20)
(-1.16268 -0.275613 0)
(-1.06975 -0.289364 0)
(-0.964904 -0.303643 0)
(-0.848741 -0.319124 -8.78724e-20)
(-0.721689 -0.335185 -9.41481e-20)
(-0.582549 -0.353798 1.03166e-19)
(-0.432575 -0.374327 0)
(-0.273959 -0.396464 -1.37497e-19)
(-0.113457 -0.417571 -1.72087e-19)
(0.0514857 -0.418344 -1.72552e-19)
(0.226941 -0.398052 0)
(0.408232 -0.376477 0)
(0.587255 -0.355675 0)
(0.758921 -0.334409 -8.46641e-20)
(0.919325 -0.313047 0)
(1.06527 -0.292063 0)
(1.19374 -0.271845 6.98446e-20)
(1.30131 -0.251534 0)
(1.382 -0.231183 0)
(1.43543 -0.211605 6.65427e-20)
(1.44866 -0.17907 0)
(1.39815 -0.119516 0)
(1.27783 -0.0528082 -7.02696e-20)
(1.10449 0.0011739 -7.47142e-20)
(0.902187 0.031204 0)
(0.689081 0.0283238 9.41469e-20)
(0.491618 0.0156587 0)
(0.419606 -0.0391014 -1.35668e-19)
(0.426481 -0.160863 0)
(0.364357 -0.170053 -1.67061e-19)
(-0.121099 0.034117 -1.24226e-19)
(-0.880997 0.159238 0)
(-1.62813 0.174157 0)
(-2.35936 0.132127 0)
(-3.0083 0.0511093 0)
(-3.54503 -0.0452922 0)
(-3.96923 -0.140947 0)
(-4.28636 -0.22738 0)
(-4.50511 -0.29989 -5.3331e-20)
(-4.63381 -0.355547 5.30473e-20)
(-4.68066 -0.392008 0)
(-4.65568 -0.409639 0)
(-4.59339 -0.42326 0)
(-4.49529 -0.436562 0)
(-4.36931 -0.449402 7.98397e-20)
(-4.22013 -0.462014 0)
(-4.05371 -0.474312 -5.99197e-20)
(-3.87329 -0.485959 4.84162e-20)
(-3.68084 -0.498235 0)
(-3.4808 -0.509202 0)
(-3.27473 -0.520216 0)
(-3.06443 -0.530937 8.18602e-21)
(-2.85033 -0.541463 2.5318e-20)
(-2.63314 -0.552972 0)
(-2.41279 -0.567238 6.46092e-20)
(-2.18787 -0.584224 8.74954e-20)
(-1.9571 -0.603716 -1.13357e-19)
(-1.71935 -0.626318 0)
(-1.47347 -0.65265 0)
(-1.21897 -0.682743 -2.19915e-19)
(-0.954654 -0.716682 0)
(-0.679714 -0.756638 0)
(-0.400829 -0.799164 0)
(-0.114352 -0.827453 0)
(0.181531 -0.804986 5.31125e-19)
(0.494605 -0.760648 4.47201e-19)
(0.811287 -0.722155 0)
(1.1231 -0.689629 3.48218e-19)
(1.42623 -0.66026 0)
(1.71662 -0.634182 0)
(1.99117 -0.60915 2.71074e-19)
(2.2481 -0.584802 0)
(2.48571 -0.56135 2.4084e-19)
(2.70298 -0.538915 0)
(2.89954 -0.517598 0)
(3.07553 -0.497466 2.12346e-19)
(3.23159 -0.478616 0)
(3.36871 -0.461158 2.00565e-19)
(3.48817 -0.445187 0)
(3.59139 -0.430757 0)
(3.67983 -0.417868 0)
(3.75492 -0.406483 -1.87278e-19)
(3.818 -0.396546 0)
(3.87028 -0.387975 1.84045e-19)
(3.91286 -0.380732 0)
(3.94662 -0.374659 0)
(3.9719 -0.369823 0)
(3.9898 -0.365834 0)
(3.99508 -0.360169 0)
(3.9817 -0.350948 0)
(3.94808 -0.337394 0)
(3.87705 -0.317476 -3.82312e-19)
(3.77868 -0.279553 0)
(3.51355 -0.249039 0)
(-0.0695408 -0.146304 4.08978e-19)
(0.0742129 -0.118064 -2.05064e-19)
(0.0429959 -0.11781 0)
(0.0759081 -0.0838147 6.48257e-20)
(0.0784177 -0.0819033 0)
(0.101618 -0.0630095 2.48184e-20)
(0.112678 -0.0563216 -4.61588e-20)
(0.130611 -0.0417001 -4.36409e-20)
(0.139966 -0.0334814 0)
(0.150916 -0.0227027 -4.02395e-20)
(0.157667 -0.0168276 -1.94932e-20)
(0.165912 -0.00977634 0)
(0.171836 -0.00240419 0)
(0.176086 0.01186 0)
(0.173475 0.0292167 0)
(0.165155 0.0465198 -1.84459e-20)
(0.14905 0.0622716 0)
(0.12701 0.0779231 3.74303e-20)
(0.0978405 0.0936079 0)
(0.0614837 0.111111 0)
(0.0181927 0.129483 -3.84299e-20)
(-0.0306621 0.142997 0)
(-0.0834333 0.148953 3.68734e-20)
(-0.13903 0.149792 -1.78812e-20)
(-0.196937 0.148499 1.74752e-20)
(-0.257747 0.147511 -1.70807e-20)
(-0.320903 0.14815 -1.66819e-20)
(-0.384586 0.149906 0)
(-0.447184 0.151725 0)
(-0.507855 0.153028 1.5629e-20)
(-0.566022 0.15368 -1.55714e-20)
(-0.621089 0.153668 0)
(-0.672485 0.152883 0)
(-0.719832 0.151245 1.48089e-20)
(-0.763007 0.148804 0)
(-0.802082 0.145703 0)
(-0.837257 0.14214 -1.42839e-20)
(-0.868825 0.13832 0)
(-0.89713 0.134437 1.41134e-20)
(-0.922533 0.130654 -2.75409e-20)
(-0.945396 0.127101 0)
(-0.966064 0.123871 0)
(-0.984857 0.121025 -5.36092e-20)
(-1.00206 0.118597 -5.30728e-20)
(-1.01794 0.116597 -5.25713e-20)
(-1.03271 0.115027 2.62059e-20)
(-1.04657 0.11389 -2.56794e-20)
(-1.05963 0.113186 -7.6728e-20)
(-1.07201 0.11288 5.08655e-20)
(-1.08377 0.112917 2.50975e-20)
(-1.09499 0.113252 0)
(-1.10572 0.113847 -2.47565e-20)
(-1.116 0.114664 2.4912e-20)
(-1.12586 0.115674 0)
(-1.13532 0.116848 0)
(-1.1444 0.11816 0)
(-1.15314 0.119584 -2.40183e-20)
(-1.16153 0.121098 0)
(-1.16961 0.122675 4.78722e-20)
(-1.1774 0.12429 0)
(-1.18492 0.125911 4.73969e-20)
(-1.1922 0.127506 0)
(-1.19927 0.129031 -4.6951e-20)
(-1.20617 0.130439 0)
(-1.21294 0.131671 4.65379e-20)
(-1.21963 0.132655 -2.34065e-20)
(-1.22628 0.133306 0)
(-1.23293 0.133522 -4.6015e-20)
(-1.2396 0.133181 -2.26748e-20)
(-1.24631 0.132139 -2.26132e-20)
(-1.25299 0.130241 0)
(-1.25952 0.127381 -2.317e-20)
(-1.26578 0.123524 -2.25288e-20)
(-1.2713 0.118729 0)
(-1.27493 0.113174 2.24882e-20)
(-1.27595 0.107039 -4.57388e-20)
(-1.27372 0.100279 0)
(-1.26767 0.0928581 -2.2393e-20)
(-1.25722 0.0847311 0)
(-1.24184 0.0758603 6.80025e-20)
(-1.22094 0.0662003 0)
(-1.19393 0.0557214 -6.78206e-20)
(-1.16019 0.0443913 -2.21143e-20)
(-1.11911 0.0322073 2.35059e-20)
(-1.07005 0.0191349 4.70812e-20)
(-1.01237 0.0051647 -4.71834e-20)
(-0.945489 -0.00976084 0)
(-0.868935 -0.0256058 0)
(-0.782092 -0.0418928 0)
(-0.68486 -0.0577523 1.36927e-19)
(-0.576532 -0.0742501 4.47422e-20)
(-0.457372 -0.0901021 -4.57544e-20)
(-0.327724 -0.105943 0)
(-0.187556 -0.12118 -5.58532e-20)
(-0.0337231 -0.13463 5.17098e-20)
(0.129106 -0.141602 4.9941e-20)
(0.287866 -0.14026 0)
(0.438682 -0.133158 0)
(0.583362 -0.121532 0)
(0.718813 -0.105941 4.19443e-20)
(0.842076 -0.0864845 0)
(0.950329 -0.0632924 -8.66616e-20)
(1.04191 -0.0352685 -1.27906e-19)
(1.11492 -0.00138757 8.59209e-20)
(1.16857 0.0351415 0)
(1.20076 0.0785709 4.3718e-20)
(1.23 0.12908 0)
(1.25646 0.181565 8.17306e-20)
(1.22958 0.23203 -4.02604e-20)
(1.11136 0.262465 -3.90172e-20)
(0.923713 0.276675 0)
(0.722141 0.271997 -1.19918e-19)
(0.5644 0.169662 9.36022e-20)
(0.400188 0.0445073 5.64635e-20)
(-0.129609 0.21499 0)
(-0.925727 0.554271 3.81442e-20)
(-1.77304 0.821722 8.94117e-20)
(-2.51286 0.929391 0)
(-3.07795 0.90999 5.72272e-20)
(-3.47744 0.827798 6.19345e-20)
(-3.73028 0.72604 6.76452e-20)
(-3.8843 0.629393 0)
(-3.97729 0.545987 0)
(-4.03515 0.473649 0)
(-4.0734 0.40724 -4.32436e-20)
(-4.09958 0.34271 -3.96919e-20)
(-4.11585 0.279229 0)
(-4.12086 0.219046 -7.70607e-20)
(-4.0815 0.172368 -7.18157e-20)
(-4.00575 0.134168 0)
(-3.89665 0.104287 -5.51081e-20)
(-3.76085 0.082165 -1.02893e-19)
(-3.60473 0.0670185 3.9737e-20)
(-3.43304 0.0564437 3.95802e-20)
(-3.25051 0.0497872 0)
(-3.06151 0.0463255 0)
(-2.86806 0.0456168 0)
(-2.67309 0.0462275 -4.88113e-21)
(-2.47735 0.0474642 5.55451e-21)
(-2.28115 0.048552 4.04758e-20)
(-2.08286 0.0491355 -3.55862e-20)
(-1.88128 0.0488758 3.6309e-20)
(-1.67512 0.0474556 5.81288e-20)
(-1.46292 0.0446825 0)
(-1.24326 0.0406006 0)
(-1.01467 0.0352701 -8.38702e-20)
(-0.776298 0.0282723 0)
(-0.527313 0.0185564 0)
(-0.264464 0.00272874 2.73681e-19)
(0.0201926 -0.0230549 0)
(0.321304 -0.0374403 1.39894e-19)
(0.617822 -0.0341699 -1.50789e-19)
(0.908078 -0.0245891 0)
(1.19377 -0.0126041 1.31175e-19)
(1.47209 0.00105167 0)
(1.73986 0.0175923 0)
(1.99388 0.0352152 -1.35768e-19)
(2.23208 0.053326 2.56667e-19)
(2.4529 0.0718146 -1.3122e-19)
(2.6554 0.0903326 0)
(2.83931 0.108475 0)
(3.00491 0.125862 1.1936e-19)
(3.15288 0.142226 0)
(3.28414 0.157402 1.18914e-19)
(3.39981 0.171331 0)
(3.50106 0.184047 0)
(3.58909 0.195651 0)
(3.66503 0.206256 1.2402e-19)
(3.72997 0.216008 0)
(3.78488 0.225061 -1.24209e-19)
(3.83063 0.233611 0)
(3.86783 0.241897 0)
(3.89744 0.250108 2.47595e-19)
(3.91836 0.259582 -2.48909e-19)
(3.9374 0.270416 0)
(3.95728 0.281004 0)
(3.98257 0.291663 0)
(4.00413 0.302692 7.68645e-19)
(4.04458 0.326951 0)
(4.05359 0.342092 -5.29622e-19)
(-0.139583 -0.192095 -3.42888e-22)
(0.0536596 -0.137136 2.19814e-19)
(-0.0456911 -0.154846 0)
(0.00847482 -0.136275 -9.05901e-20)
(-0.03025 -0.147923 0)
(-0.000614753 -0.134643 0)
(-0.015356 -0.132262 -4.10409e-23)
(0.0033051 -0.111333 2.74701e-20)
(-0.00666312 -0.0996118 2.60191e-20)
(-0.00280726 -0.0843252 2.48874e-20)
(-0.0185743 -0.0780761 0)
(-0.0257103 -0.0690986 0)
(-0.0421562 -0.0566703 -2.28365e-20)
(-0.0540873 -0.0319721 -4.48424e-20)
(-0.0719009 0.00189025 4.40311e-20)
(-0.0908346 0.0400868 0)
(-0.11685 0.0764265 4.25095e-20)
(-0.146812 0.1121 -2.08813e-20)
(-0.182432 0.147248 0)
(-0.221667 0.180709 4.06685e-20)
(-0.263268 0.208702 1.99559e-20)
(-0.305743 0.228743 -3.95861e-20)
(-0.349768 0.241408 -1.9414e-20)
(-0.395431 0.248614 0)
(-0.442354 0.251548 3.82216e-20)
(-0.489553 0.251018 3.78171e-20)
(-0.535695 0.247823 0)
(-0.579471 0.242577 3.71028e-20)
(-0.620076 0.235455 0)
(-0.657147 0.226541 3.65558e-20)
(-0.690578 0.216064 1.80231e-20)
(-0.720393 0.204334 0)
(-0.746783 0.191674 0)
(-0.7701 0.178423 0)
(-0.790784 0.164927 0)
(-0.809315 0.151505 0)
(-0.826169 0.138428 0)
(-0.841777 0.125907 3.49242e-20)
(-0.856511 0.114088 -5.19098e-20)
(-0.870671 0.103057 0)
(-0.88449 0.0928489 0)
(-0.898141 0.0834581 0)
(-0.911749 0.0748504 -1.73936e-22)
(-0.925398 0.0669724 3.3238e-20)
(-0.939142 0.0597598 6.61721e-20)
(-0.953007 0.0531433 -6.57155e-20)
(-0.966998 0.0470532 -3.27189e-20)
(-0.981096 0.0414161 3.23466e-20)
(-0.995277 0.0361501 1.61367e-22)
(-1.00952 0.0311792 3.21121e-20)
(-1.02381 0.0264397 0)
(-1.03814 0.0218762 3.17505e-20)
(-1.05248 0.0174413 1.69568e-22)
(-1.06684 0.0130954 0)
(-1.08121 0.00880427 0)
(-1.09556 0.00453966 -3.11181e-20)
(-1.1099 0.000277552 0)
(-1.1242 -0.00400198 0)
(-1.13844 -0.0083151 3.09152e-20)
(-1.15261 -0.0126746 6.12019e-20)
(-1.16667 -0.0170898 -3.02828e-20)
(-1.18058 -0.0215672 0)
(-1.19429 -0.0261102 3.00774e-20)
(-1.20773 -0.0307193 0)
(-1.22081 -0.035393 3.03911e-20)
(-1.23346 -0.0401281 2.98512e-20)
(-1.24553 -0.0449214 -6.01213e-20)
(-1.2569 -0.0497717 -3.03082e-20)
(-1.26739 -0.0546833 0)
(-1.27683 -0.0596703 6.01238e-20)
(-1.28499 -0.0647624 0)
(-1.29158 -0.0700463 9.02157e-20)
(-1.29624 -0.0756773 6.0564e-20)
(-1.29862 -0.0817512 6.08023e-20)
(-1.29835 -0.088471 -6.09281e-20)
(-1.29526 -0.0962977 9.1174e-20)
(-1.28904 -0.10529 0)
(-1.27932 -0.115516 0)
(-1.26566 -0.127042 -6.1369e-20)
(-1.24755 -0.139929 -9.16492e-20)
(-1.22443 -0.15423 0)
(-1.19571 -0.169979 3.0185e-20)
(-1.16073 -0.18719 0)
(-1.11882 -0.205838 -9.14265e-20)
(-1.06926 -0.225871 1.29571e-21)
(-1.01136 -0.247173 -1.36201e-21)
(-0.944496 -0.269593 6.09049e-20)
(-0.868113 -0.292857 0)
(-0.781615 -0.31659 -6.07819e-20)
(-0.684367 -0.340415 1.67604e-21)
(-0.576193 -0.363766 0)
(-0.457324 -0.385354 0)
(-0.328553 -0.404778 0)
(-0.191933 -0.421164 6.26782e-20)
(-0.0486967 -0.432985 0)
(0.100188 -0.440314 0)
(0.251245 -0.44082 0)
(0.400017 -0.432206 0)
(0.542015 -0.414905 0)
(0.672535 -0.389354 6.12124e-20)
(0.787892 -0.356831 0)
(0.886191 -0.319861 5.99086e-20)
(0.968427 -0.280178 5.97605e-20)
(1.03296 -0.235463 -5.92575e-20)
(1.06458 -0.18622 0)
(1.05731 -0.144286 -5.83949e-20)
(1.02525 -0.0906329 0)
(0.974032 0.0243142 -5.64685e-20)
(0.888501 0.191594 5.46491e-20)
(0.748798 0.346356 1.6599e-19)
(0.57603 0.414874 0)
(0.412781 0.359347 1.95275e-19)
(0.130433 0.330182 7.53914e-20)
(-0.527153 0.580651 0)
(-1.39408 0.966647 1.0172e-19)
(-2.18943 1.26021 8.69987e-20)
(-2.76714 1.35232 -1.19245e-19)
(-3.13374 1.2529 0)
(-3.37155 1.04307 -4.01832e-20)
(-3.55264 0.803123 -4.43288e-20)
(-3.73144 0.581692 -1.52479e-19)
(-3.92075 0.395822 0)
(-4.10921 0.243901 0)
(-4.27754 0.118842 0)
(-4.4086 0.0140813 -6.08026e-20)
(-4.49069 -0.0748956 0)
(-4.51889 -0.151079 0)
(-4.49516 -0.217 5.24125e-20)
(-4.4305 -0.27888 4.85731e-20)
(-4.33036 -0.331896 0)
(-4.20074 -0.37549 0)
(-4.04716 -0.409786 6.82369e-20)
(-3.87482 -0.435454 0)
(-3.6882 -0.453536 -4.6468e-20)
(-3.49222 -0.46543 -3.77155e-20)
(-3.28943 -0.472597 0)
(-3.08179 -0.475786 0)
(-2.87088 -0.476552 2.17055e-21)
(-2.65705 -0.47647 -2.75004e-21)
(-2.44021 -0.477043 -2.85235e-21)
(-2.21993 -0.479035 0)
(-1.99536 -0.482546 -9.91048e-20)
(-1.76523 -0.487791 0)
(-1.5281 -0.494701 0)
(-1.2828 -0.50283 0)
(-1.02807 -0.511334 1.05366e-19)
(-0.762989 -0.519729 0)
(-0.487882 -0.527566 -2.5951e-19)
(-0.203898 -0.534382 -1.48155e-19)
(0.0836291 -0.54041 0)
(0.372399 -0.547397 -1.59087e-19)
(0.662465 -0.549693 0)
(0.952098 -0.545393 0)
(1.23746 -0.535955 -4.7461e-19)
(1.5143 -0.522167 3.14238e-19)
(1.77945 -0.504437 0)
(2.03044 -0.483454 3.13874e-19)
(2.26513 -0.460232 -1.59699e-19)
(2.48229 -0.435782 0)
(2.68155 -0.41105 0)
(2.86311 -0.386815 0)
(3.02766 -0.363666 -4.77076e-19)
(3.17615 -0.342029 0)
(3.30971 -0.322193 -1.62368e-19)
(3.4295 -0.304321 0)
(3.53667 -0.28845 0)
(3.63232 -0.274538 0)
(3.71749 -0.26249 0)
(3.79313 -0.252185 0)
(3.86004 -0.243459 0)
(3.91896 -0.236159 -3.37908e-19)
(3.97039 -0.230067 0)
(4.01483 -0.224867 -1.72561e-19)
(4.05232 -0.220794 5.1868e-19)
(4.08342 -0.217857 0)
(4.10565 -0.213266 0)
(4.11987 -0.201881 -3.53211e-19)
(4.11975 -0.181625 -3.59439e-19)
(4.1165 -0.137321 3.6063e-19)
(4.09792 -0.0667863 3.76031e-19)
(-0.16233 -0.154264 -6.77199e-19)
(0.0370042 -0.109796 -2.8484e-19)
(-0.0651377 -0.113108 -1.03112e-19)
(-0.0304988 -0.0948273 -3.67541e-20)
(-0.0753719 -0.096756 0)
(-0.0699259 -0.0907706 5.04352e-20)
(-0.096027 -0.0839775 -2.25721e-20)
(-0.0974632 -0.0636425 0)
(-0.112637 -0.0365938 -1.95347e-20)
(-0.120133 -0.00608337 0)
(-0.140094 0.0145966 3.58142e-20)
(-0.16208 0.0271228 0)
(-0.191818 0.039582 1.67454e-20)
(-0.221434 0.0586589 3.26099e-20)
(-0.252992 0.0864957 -3.18149e-20)
(-0.283433 0.120152 0)
(-0.315755 0.155468 -3.0516e-20)
(-0.348668 0.190022 0)
(-0.381718 0.222806 0)
(-0.412797 0.252399 -2.91197e-20)
(-0.441763 0.276938 0)
(-0.469095 0.295149 -1.71008e-22)
(-0.495673 0.306868 0)
(-0.52121 0.312634 0)
(-0.54528 0.313218 2.30581e-22)
(-0.567567 0.309466 -2.76606e-20)
(-0.587981 0.302233 -2.77593e-20)
(-0.606421 0.292405 -2.73871e-20)
(-0.622919 0.280769 0)
(-0.637646 0.267989 -5.46122e-20)
(-0.650903 0.254623 0)
(-0.663048 0.241136 -2.7257e-20)
(-0.67447 0.227897 0)
(-0.685539 0.215204 0)
(-0.696565 0.203289 2.69923e-20)
(-0.707788 0.192319 0)
(-0.719373 0.18239 -2.67803e-20)
(-0.731414 0.17353 1.84774e-22)
(-0.743947 0.16571 5.28971e-20)
(-0.756962 0.158868 -5.28173e-20)
(-0.770416 0.152926 0)
(-0.784249 0.147803 0)
(-0.798385 0.143421 -2.61739e-20)
(-0.812748 0.139698 0)
(-0.827268 0.136556 -2.55889e-20)
(-0.841887 0.133922 2.5466e-20)
(-0.856554 0.131735 2.53474e-20)
(-0.87123 0.129942 0)
(-0.885883 0.128491 -2.51236e-20)
(-0.900496 0.127335 -2.50188e-20)
(-0.915063 0.126429 5.01642e-20)
(-0.929583 0.125736 -2.48235e-20)
(-0.944061 0.125219 -2.4733e-20)
(-0.958506 0.124845 0)
(-0.97293 0.124582 0)
(-0.987343 0.124398 2.449e-20)
(-1.00176 0.12426 0)
(-1.01618 0.124134 0)
(-1.0306 0.123982 -4.85845e-20)
(-1.04503 0.123761 -4.84749e-20)
(-1.05945 0.123425 0)
(-1.07384 0.122916 0)
(-1.08816 0.122171 0)
(-1.10236 0.121114 0)
(-1.11637 0.11966 -4.81353e-20)
(-1.13011 0.117709 4.85881e-20)
(-1.14347 0.11515 4.81225e-20)
(-1.15633 0.111857 9.68089e-20)
(-1.16852 0.107688 0)
(-1.17989 0.10249 5.5596e-22)
(-1.19025 0.0961017 0)