# vtk DataFile Version 2.0
track0
ASCII
DATASET POLYDATA
POINTS 11187 double
-0.0205 0.001 1e-05
-0.0202034 0.00100003 1e-05
-0.0199069 0.00100025 1e-05
-0.0196103 0.00100068 1e-05
-0.0193137 0.00100132 1e-05
-0.0190172 0.00100216 1e-05
-0.0187132 0.00100341 1e-05
-0.0184093 0.00100433 1e-05
-0.0181054 0.00100523 1e-05
-0.0178015 0.00100613 1e-05
-0.0174976 0.00100702 1e-05
-0.0172058 0.00100816 1e-05
-0.016914 0.00100882 1e-05
-0.0166222 0.00100942 1e-05
-0.0163305 0.00100995 1e-05
-0.0160387 0.00101041 1e-05
-0.0157586 0.00101113 1e-05
-0.0154784 0.00101138 1e-05
-0.0151983 0.00101157 1e-05
-0.0149182 0.0010117 1e-05
-0.0146381 0.00101177 1e-05
-0.0143692 0.00101216 1e-05
-0.0141002 0.00101207 1e-05
-0.0138313 0.00101192 1e-05
-0.0135624 0.00101172 1e-05
-0.0132934 0.00101147 1e-05
-0.0130353 0.00101162 1e-05
-0.0127771 0.00101124 1e-05
-0.0125189 0.00101081 1e-05
-0.0122607 0.00101033 1e-05
-0.0120025 0.0010098 1e-05
-0.0117547 0.00100976 1e-05
-0.0115068 0.00100912 1e-05
-0.0112589 0.00100843 1e-05
-0.0110111 0.00100769 1e-05
-0.0107632 0.0010069 1e-05
-0.0105252 0.00100672 1e-05
-0.0102873 0.00100584 1e-05
-0.0100493 0.0010049 1e-05
-0.00981134 0.00100391 1e-05
-0.00957337 0.00100286 1e-05
-0.00934491 0.00100258 1e-05
-0.00911645 0.00100144 1e-05
-0.008888 0.00100024 1e-05
-0.00865955 0.000998986 1e-05
-0.00843108 0.000997665 1e-05
-0.00821175 0.000997287 1e-05
-0.00799243 0.000995877 1e-05
-0.0077731 0.000994399 1e-05
-0.00755378 0.00099285 1e-05
-0.00733443 0.000991229 1e-05
-0.00712387 0.000990759 1e-05
-0.0069133 0.000989044 1e-05
-0.00670275 0.00098725 1e-05
-0.00649219 0.000985372 1e-05
-0.0062816 0.000983409 1e-05
-0.00607944 0.000982839 1e-05
-0.0058773 0.000980775 1e-05
-0.00567516 0.000978615 1e-05
-0.00547301 0.000976355 1e-05
-0.00527083 0.000973994 1e-05
-0.00507675 0.000973304 1e-05
-0.00488269 0.000970837 1e-05
-0.00468863 0.000968254 1e-05
-0.00449457 0.000965553 1e-05
-0.00430044 0.00096273 1e-05
-0.00411412 0.000961893 1e-05
-0.00392782 0.000958961 1e-05
-0.00374152 0.00095589 1e-05
-0.00355522 0.000952676 1e-05
-0.00336883 0.00094934 1e-05
-0.00318995 0.000948302 1e-05
-0.0030111 0.000944983 1e-05
-0.00283225 0.000941334 1e-05
-0.00265341 0.000937504 1e-05
-0.00247443 0.000933968 1e-05
-0.0023027 0.00093262 1e-05
-0.002131 0.000929071 1e-05
-0.00195932 0.00092471 1e-05
-0.00178764 0.000920107 1e-05
-0.00161577 0.000916199 1e-05
-0.0014509 0.000914325 1e-05
-0.00128607 0.000910316 1e-05
-0.00112127 0.00090497 1e-05
-0.000956491 0.000899277 1e-05
-0.000791418 0.000894625 1e-05
-0.000633135 0.000891785 1e-05
-0.000474904 0.000886817 1e-05
-0.000316745 0.000879905 1e-05
-0.000158608 0.000872524 1e-05
0 0.000866474 1e-05
0.000105677 0.000863345 1e-05
0.000211306 0.000858857 1e-05
0.000316869 0.000853022 1e-05
0.000422416 0.000846924 1e-05
0.000528387 0.000841604 1e-05
0.000634886 0.000837069 1e-05
0.000741331 0.00083139 1e-05
0.000847708 0.000824574 1e-05
0.000954067 0.000817476 1e-05
0.00106088 0.000810988 1e-05
0.00116821 0.00080512 1e-05
0.00127548 0.000798323 1e-05
0.0013827 0.000790786 1e-05
0.00148991 0.000783063 1e-05
0.00159752 0.000775483 1e-05
0.00170568 0.000768329 1e-05
0.00181379 0.000760434 1e-05
0.00192188 0.000752219 1e-05
0.00202995 0.00074382 1e-05
0.00213833 0.000735209 1e-05
0.00224733 0.000726782 1e-05
0.00235629 0.000717887 1e-05
0.00246524 0.000708795 1e-05
0.00257417 0.000699505 1e-05
0.00268334 0.000689996 1e-05
0.00270125 0.00068841 1e-05
0.00271916 0.000686814 1e-05
0.00273708 0.000685212 1e-05
0.00275499 0.000683604 1e-05
0.00277214 0.000682059 1e-05
0.00286423 0.000673737 1e-05
0.00295631 0.000665264 1e-05
0.00304837 0.000656639 1e-05
0.00314041 0.000647863 1e-05
0.00323259 0.000638921 1e-05
0.00334329 0.00062784 1e-05
0.00345398 0.000616611 1e-05
0.00356465 0.000605149 1e-05
0.00367529 0.000593453 1e-05
0.00378611 0.00058145 1e-05
0.00389767 0.000568953 1e-05
0.00400921 0.000556264 1e-05
0.00412073 0.000543374 1e-05
0.00423222 0.000530222 1e-05
0.00434393 0.000516678 1e-05
0.00445636 0.000502672 1e-05
0.00456876 0.000488413 1e-05
0.00468113 0.0004739 1e-05
0.00479346 0.000459071 1e-05
0.00490609 0.000443837 1e-05
0.0050194 0.000428136 1e-05
0.00513266 0.000412112 1e-05
0.00524586 0.000395711 1e-05
0.00535901 0.000378915 1e-05
0.00547262 0.000361644 1e-05
0.00549928 0.000357492 1e-05
0.00552593 0.000353317 1e-05
0.00555257 0.000349113 1e-05
0.00557922 0.000344881 1e-05
0.00560425 0.000340878 1e-05
0.00569211 0.000326735 1e-05
0.00577992 0.000312298 1e-05
0.00586769 0.000297565 1e-05
0.0059554 0.000282534 1e-05
0.00604356 0.000267107 1e-05
0.00615863 0.00024643 1e-05
0.00627359 0.00022513 1e-05
0.00638843 0.000203194 1e-05
0.00650315 0.000180596 1e-05
0.00661893 0.000156924 1e-05
0.0067349 0.000132312 1e-05
0.00685069 0.00010687 1e-05
0.00696628 8.05236e-05 1e-05
0.00708162 5.31168e-05 1e-05
0.00719878 2.41146e-05 1e-05
0.00721747 1.92916e-05 1e-05
0.00723615 1.44401e-05 1e-05
0.00725482 9.55494e-06 1e-05
0.00727349 4.63103e-06 1e-05
0.00729089 0 1e-05
0.00738934 -2.63994e-05 1e-05
0.00748752 -5.37775e-05 1e-05
0.00758542 -8.21472e-05 1e-05
0.00768302 -0.000111522 1e-05
0.00778313 -0.000142975 1e-05
0.00790091 -0.000181877 1e-05
0.00801802 -0.000222758 1e-05
0.00813441 -0.00026564 1e-05
0.00825008 -0.000310416 1e-05
0.00837203 -0.000359995 1e-05
0.00838325 -0.000364784 1e-05
0.00839445 -0.00036959 1e-05
0.00840565 -0.000374412 1e-05
0.00841684 -0.000379255 1e-05
0.00842761 -0.000383939 1e-05
0.00853519 -0.000430992 1e-05
0.00864187 -0.000480043 1e-05
0.00874758 -0.00053116 1e-05
0.00885224 -0.000584408 1e-05
0.00896551 -0.000645564 1e-05
0.00902323 -0.000678917 1e-05
0.00908044 -0.000713148 1e-05
0.0091371 -0.000748274 1e-05
0.00919287 -0.000784804 1e-05
0.00923225 -0.000812207 1e-05
0.00929852 -0.000860367 1e-05
0.00936365 -0.000910056 1e-05
0.0094276 -0.000961258 1e-05
0.00949013 -0.00101419 1e-05
0.0095636 -0.0010807 1e-05
0.00960564 -0.00112193 1e-05
0.0096467 -0.00116413 1e-05
0.00968677 -0.00120727 1e-05
0.00972593 -0.00125124 1e-05
0.00975659 -0.00128671 1e-05
0.00983854 -0.00138384 1e-05
0.00991592 -0.00148465 1e-05
0.00998874 -0.00158881 1e-05
0.0100584 -0.00169509 1e-05
0.0101302 -0.00181148 1e-05
0.0101374 -0.00182398 1e-05
0.0101446 -0.0018365 1e-05
0.0101517 -0.00184905 1e-05
0.0101588 -0.00186162 1e-05
0.0101663 -0.00187503 1e-05
0.010224 -0.00197846 1e-05
0.0102794 -0.00208309 1e-05
0.0103327 -0.00218887 1e-05
0.0103837 -0.00229573 1e-05
0.0104283 -0.00239187 1e-05
0.010487 -0.00252039 1e-05
0.0105426 -0.00265025 1e-05
0.0105954 -0.00278129 1e-05
0.0106471 -0.00291278 1e-05
0.0106936 -0.00303411 1e-05
0.0107097 -0.00307661 1e-05
0.0107254 -0.00311921 1e-05
0.010741 -0.00316187 1e-05
0.0107566 -0.00320456 1e-05
0.0107738 -0.00325213 1e-05
0.0108092 -0.00335075 1e-05
0.0108442 -0.00344954 1e-05
0.0108787 -0.00354849 1e-05
0.0109127 -0.00364761 1e-05
0.0109457 -0.00374516 1e-05
0.0109985 -0.00390272 1e-05
0.0110508 -0.00406045 1e-05
0.0111025 -0.00421836 1e-05
0.0111537 -0.00437645 1e-05
0.0112037 -0.00453288 1e-05
0.0112402 -0.00464797 1e-05
0.0112766 -0.00476307 1e-05
0.0113129 -0.00487818 1e-05
0.0113493 -0.0049933 1e-05
0.0113859 -0.00510936 1e-05
0.0114046 -0.00516868 1e-05
0.0114234 -0.005228 1e-05
0.0114421 -0.00528732 1e-05
0.0114607 -0.00534664 1e-05
0.0114794 -0.00540593 1e-05
0.0115403 -0.00559954 1e-05
0.0116017 -0.00579296 1e-05
0.0116636 -0.00598624 1e-05
0.0117259 -0.00617939 1e-05
0.0117889 -0.00637402 1e-05
0.0118317 -0.00650541 1e-05
0.011875 -0.00663663 1e-05
0.0119188 -0.00676768 1e-05
0.0119631 -0.00689856 1e-05
0.0120028 -0.00701463 1e-05
0.0120329 -0.00710128 1e-05
0.0120631 -0.00718786 1e-05
0.0120936 -0.00727436 1e-05
0.0121242 -0.0073608 1e-05
0.0121554 -0.00744791 1e-05
0.0122412 -0.00768614 1e-05
0.0123296 -0.00792344 1e-05
0.0124207 -0.00815971 1e-05
0.012515 -0.00839474 1e-05
0.0126173 -0.00863953 1e-05
0.0126188 -0.00864282 1e-05
0.0126202 -0.00864611 1e-05
0.0126217 -0.0086494 1e-05
0.0126231 -0.00865269 1e-05
0.0126245 -0.00865595 1e-05
0.0127218 -0.0088774 1e-05
0.0128228 -0.00909721 1e-05
0.0129276 -0.00931518 1e-05
0.0130365 -0.00953118 1e-05
0.013159 -0.00976382 1e-05
0.0131774 -0.00979709 1e-05
0.0131959 -0.00983031 1e-05
0.0132146 -0.00986346 1e-05
0.0132333 -0.00989655 1e-05
0.0132511 -0.00992765 1e-05
0.0133613 -0.0101198 1e-05
0.013475 -0.0103099 1e-05
0.0135922 -0.0104979 1e-05
0.0137126 -0.0106838 1e-05
0.0138502 -0.0108889 1e-05
0.0138566 -0.0108982 1e-05
0.0138631 -0.0109074 1e-05
0.0138696 -0.0109167 1e-05
0.0138761 -0.0109259 1e-05
0.0138825 -0.010935 1e-05
0.0140098 -0.0111158 1e-05
0.0141398 -0.0112946 1e-05
0.0142728 -0.0114713 1e-05
0.0144086 -0.0116458 1e-05
0.0145188 -0.0117834 1e-05
0.0145567 -0.0118296 1e-05
0.0145949 -0.0118757 1e-05
0.0146332 -0.0119216 1e-05
0.0146717 -0.0119673 1e-05
0.0147118 -0.0120146 1e-05
0.0148015 -0.0121194 1e-05
0.0148921 -0.0122234 1e-05
0.0149836 -0.0123265 1e-05
0.0150761 -0.0124288 1e-05
0.0151601 -0.0125202 1e-05
0.0152757 -0.0126442 1e-05
0.0153927 -0.012767 1e-05
0.0155111 -0.0128884 1e-05
0.0156306 -0.0130087 1e-05
0.0157644 -0.0131406 1e-05
0.0157727 -0.0131487 1e-05
0.0157811 -0.0131568 1e-05
0.0157896 -0.0131649 1e-05
0.015798 -0.013173 1e-05
0.0158063 -0.013181 1e-05
0.0159366 -0.0133058 1e-05
0.0160681 -0.0134292 1e-05
0.0162009 -0.0135513 1e-05
0.016335 -0.013672 1e-05
0.0164576 -0.0137801 1e-05
0.0165702 -0.0138774 1e-05
0.0166835 -0.0139738 1e-05
0.0167977 -0.0140692 1e-05
0.0169126 -0.0141637 1e-05
0.0170401 -0.0142667 1e-05
0.0170549 -0.0142785 1e-05
0.0170697 -0.0142902 1e-05
0.0170844 -0.0143018 1e-05
0.0170993 -0.0143135 1e-05
0.0171139 -0.0143251 1e-05
0.0172462 -0.0144289 1e-05
0.0173795 -0.0145316 1e-05
0.0175137 -0.014633 1e-05
0.0176488 -0.0147331 1e-05
0.0177754 -0.0148254 1e-05
0.0179087 -0.0149212 1e-05
0.0180429 -0.0150158 1e-05
0.0181779 -0.0151092 1e-05
0.0183136 -0.0152017 1e-05
0.018442 -0.0152876 1e-05
0.0184738 -0.0153087 1e-05
0.0185058 -0.0153297 1e-05
0.0185377 -0.0153506 1e-05
0.0185697 -0.0153715 1e-05
[...]
POINT_DATA 11187
 FIELD attributes 1
U 3 11187 float
10.0021 	0.000883058 	0 10.0078 	0.00758993 	0 10.0135 	0.0145407 	0 10.0192 	0.0215045 	0 10.0248 	0.0284812 	0 10.0318 	0.041332 	0 10.0356 	0.03022 	0 10.0395 	0.0299196 	0 10.0433 	0.0296167 	0 10.0471 	0.0293113 	0 10.0506 	0.0392901 	0 10.0494 	0.0229502 	0 10.0495 	0.0206011 	0 10.0495 	0.0182202 	0 10.0496 	0.0158072 	0 10.0496 	0.0259133 	0 10.0474 	0.00886029 	0 10.0465 	0.00676921 	0 10.0456 	0.00464136 	0 10.0448 	0.0024761 	0 10.0442 	0.0146672 	0 10.0426 	-0.00348263 	0 10.042 	-0.00540557 	0 10.0415 	-0.00736855 	0 10.0409 	-0.00937242 	0 10.0406 	0.00567856 	0 10.0395 	-0.0147879 	0 10.0393 	-0.0167038 	0 10.039 	-0.0186643 	0 10.0388 	-0.0206703 	0 10.0386 	-0.00157696 	0 10.0381 	-0.0258801 	0 10.0382 	-0.0278832 	0 10.0383 	-0.0299361 	0 10.0383 	-0.0320401 	0 10.0382 	-0.00742224 	0 10.0385 	-0.0373415 	0 10.0391 	-0.039576 	0 10.0397 	-0.0418683 	0 10.0403 	-0.0442199 	0 10.0401 	-0.0124738 	0 10.0416 	-0.0499759 	0 10.0427 	-0.0525979 	0 10.0439 	-0.0552891 	0 10.045 	-0.0580512 	0 10.0444 	-0.0173404 	0 10.0475 	-0.0645847 	0 10.0493 	-0.0677367 	0 10.051 	-0.0709727 	0 10.0527 	-0.0742948 	0 10.0515 	-0.0224505 	0 10.0566 	-0.0818689 	0 10.0592 	-0.0857463 	0 10.0617 	-0.0897269 	0 10.0642 	-0.0938132 	0 10.0618 	-0.0283822 	0 10.0697 	-0.102808 	0 10.0732 	-0.107655 	0 10.0766 	-0.112629 	0 10.08 	-0.117734 	0 10.0762 	-0.0357934 	0 10.0878 	-0.128267 	0 10.0925 	-0.134322 	0 10.0972 	-0.140533 	0 10.1018 	-0.146904 	0 10.0962 	-0.0453621 	0 10.1128 	-0.159116 	0 10.1191 	-0.166816 	0 10.1253 	-0.174707 	0 10.1313 	-0.18132 	0 10.1239 	-0.0587651 	0 10.1457 	-0.188255 	0 10.1551 	-0.20719 	0 10.1634 	-0.217634 	0 10.1686 	-0.200916 	0 10.1627 	-0.0797798 	0 10.1893 	-0.210624 	0 10.2046 	-0.259213 	0 10.2154 	-0.273867 	0 10.2197 	-0.232422 	0 10.2158 	-0.116063 	0 10.2469 	-0.249235 	0 10.2696 	-0.333133 	0 10.2825 	-0.355278 	0 10.2855 	-0.289852 	0 10.2846 	-0.184528 	0 10.3178 	-0.323978 	0 10.3479 	-0.452217 	7.855e-23 10.3593 	-0.483525 	8.73571e-22 10.353 	-0.394893 	-5.15441e-22 10.3474 	-0.306381 	-1.85544e-21 10.3734 	-0.440801 	-3.35003e-20 10.3988 	-0.574774 	-6.51838e-20 10.4013 	-0.600861 	-6.54233e-20 10.3814 	-0.521184 	-3.16922e-20 10.3618 	-0.441289 	2.12053e-21 10.3792 	-0.553773 	-1.10411e-21 10.396 	-0.666055 	-4.25041e-21 10.3891 	-0.693346 	-4.52803e-21 10.3591 	-0.629203 	-2.02305e-21 10.3292 	-0.564789 	4.48933e-22 10.3437 	-0.655314 	1.91076e-21 10.351 	-0.727614 	1.2237e-21 10.337 	-0.744686 	-6.12863e-21 10.3108 	-0.726353 	-1.24997e-20 10.275 	-0.679602 	-1.80881e-20 10.2893 	-0.751388 	-1.36489e-20 10.2806 	-0.7813 	-8.8697e-21 10.2645 	-0.797799 	-3.98738e-21 10.2482 	-0.814185 	8.82928e-22 10.2107 	-0.789395 	-2.6487e-21 10.2141 	-0.833809 	-1.09348e-20 10.1959 	-0.850917 	-5.52372e-21 10.1775 	-0.867953 	-5.04247e-23 10.159 	-0.884916 	5.48507e-21 10.137 	-0.897561 	1.3155e-20 10.1366 	-0.90321 	1.33053e-20 10.1333 	-0.906158 	1.33803e-20 10.1299 	-0.909105 	1.34556e-20 10.1265 	-0.912051 	1.35314e-20 10.1233 	-0.914871 	1.36043e-20 10.1058 	-0.93 	1.26967e-20 10.0881 	-0.9451 	1.17779e-20 10.0704 	-0.960173 	1.08479e-20 10.0525 	-0.975217 	9.90661e-21 10.0163 	-1.00253 	9.02191e-21 10.0137 	-1.01587 	2.10535e-21 9.99004 	-1.03473 	2.80221e-22 9.96623 	-1.05357 	-1.58748e-21 9.93479 	-1.07601 	-3.62694e-22 9.88491 	-1.10725 	8.45331e-21 9.88062 	-1.12401 	3.14933e-20 9.87334 	-1.14117 	5.16993e-20 9.84538 	-1.16142 	5.08849e-20 9.79826 	-1.18802 	2.69802e-20 9.75073 	-1.21472 	3.04255e-21 9.74005 	-1.23562 	-6.08839e-21 9.72915 	-1.25656 	-1.52072e-20 9.70319 	-1.28101 	-1.40032e-20 9.65936 	-1.30642 	-5.71672e-21 9.61276 	-1.33205 	3.49883e-21 9.59632 	-1.35765 	7.15502e-21 9.56848 	-1.38629 	7.71869e-21 9.53759 	-1.41573 	7.52975e-21 9.50635 	-1.44525 	7.34219e-21 9.46826 	-1.4748 	6.6152e-21 9.46305 	-1.48246 	6.5474e-21 9.45465 	-1.49143 	6.32158e-21 9.44623 	-1.50042 	6.09593e-21 9.43779 	-1.50941 	5.87094e-21 9.42983 	-1.51787 	5.66012e-21 9.40287 	-1.54588 	4.29196e-21 9.37572 	-1.57393 	2.91777e-21 9.34836 	-1.60202 	1.53752e-21 9.31376 	-1.62991 	3.45231e-22 9.21629 	-1.65595 	8.61408e-22 9.23346 	-1.71082 	4.14634e-21 9.22538 	-1.76213 	6.55963e-21 9.1792 	-1.80826 	7.58125e-21 9.06656 	-1.85369 	4.54141e-21 8.95185 	-1.89982 	1.47795e-21 8.93693 	-1.96366 	1.05868e-21 8.90232 	-2.02913 	4.69151e-22 8.8284 	-2.09777 	-4.73793e-22 8.75265 	-2.16668 	-1.41483e-21 8.64864 	-2.23179 	-2.64824e-21 8.63904 	-2.24345 	-2.3147e-21 8.62614 	-2.25666 	-2.14738e-21 8.60978 	-2.2715 	-2.15439e-21 8.59338 	-2.28636 	-2.16181e-21 8.57805 	-2.30025 	-2.16912e-21 8.50826 	-2.37257 	-3.03365e-21 8.43813 	-2.44526 	-3.93892e-21 8.36765 	-2.51833 	-4.88548e-21 8.259 	-2.59487 	-4.5872e-21 8.10633 	-2.67742 	-2.95581e-21 8.03407 	-2.80465 	6.07449e-23 7.95928 	-2.93251 	3.03115e-21 7.81002 	-3.02312 	2.5846e-21 7.65263 	-3.11126 	1.82345e-21 7.45395 	-3.1833 	5.28752e-22 7.44008 	-3.19029 	2.0636e-22 7.42603 	-3.1973 	-1.09259e-22 7.40363 	-3.20456 	-1.08501e-22 7.3812 	-3.21186 	-1.0775e-22 7.3596 	-3.2189 	-1.07036e-22 7.20688 	-3.31357 	-7.26321e-23 7.05507 	-3.41154 	-3.785e-23 6.90426 	-3.51291 	-2.68674e-24 6.6602 	-3.59576 	0 6.38432 	-3.68885 	0 6.26594 	-3.74936 	0 6.14749 	-3.81113 	0 6.01579 	-3.94061 	-1.6491e-21 5.88023 	-4.09151 	-3.78038e-21 5.7826 	-4.20234 	-5.33058e-21 5.6529 	-4.31261 	-5.43997e-21 5.52447 	-4.42321 	-5.48759e-21 5.3824 	-4.55694 	-5.2854e-21 5.21972 	-4.72485 	-4.7318e-21 5.02523 	-4.92865 	-3.95213e-21 4.92155 	-5.05788 	-8.76529e-21 4.8188 	-5.187 	-1.34091e-20 4.72243 	-5.30266 	-1.4932e-20 4.64462 	-5.37492 	-6.71369e-21 4.58323 	-5.43227 	-7.13115e-23 4.39145 	-5.72086 	1.92706e-20 4.20369 	-6.0127 	3.9447e-20 4.04027 	-6.16323 	3.30409e-20 3.88258 	-6.29611 	2.35051e-20 3.70827 	-6.40665 	6.7842e-21 3.6913 	-6.44067 	6.90841e-21 3.67445 	-6.46965 	7.03699e-21 3.65795 	-6.4798 	7.1856e-21 3.64147 	-6.48997 	7.3334e-21 3.62395 	-6.50082 	7.48994e-21 3.49653 	-6.59927 	6.16261e-21 3.3705 	-6.69835 	4.878e-21 3.24588 	-6.798 	3.63613e-21 3.15715 	-6.80128 	6.276e-21 3.09044 	-6.77065 	9.99813e-21 2.95693 	-6.89923 	1.69409e-20 2.82832 	-7.01928 	2.30658e-20 2.74745 	-6.9915 	1.87506e-20 2.66698 	-6.956 	1.38779e-20 2.59395 	-6.87847 	6.50826e-21 2.55909 	-6.91007 	5.69544e-21 2.53062 	-6.91782 	5.16223e-21 2.50938 	-6.89837 	4.94721e-21 2.48815 	-6.87906 	4.73103e-21 2.46451 	-6.85772 	4.48902e-21 2.41586 	-6.82335 	3.2047e-21 2.3672 	-6.78969 	1.92366e-21 2.31855 	-6.75677 	6.46015e-22 2.27662 	-6.72576 	-4.37391e-23 2.24311 	-6.69723 	-4.9459e-23 2.18799 	-6.60421 	-2.97736e-23 2.13283 	-6.51191 	-1.01304e-23 2.08154 	-6.42905 	0 2.03516 	-6.35541 	0 1.98918 	-6.28335 	0 1.95963 	-6.19893 	0 1.93286 	-6.11973 	0 1.90955 	-6.04703 	0 1.88623 	-5.97434 	0 1.86273 	-5.90107 	0 1.85092 	-5.8677 	0 1.83911 	-5.83436 	0 1.82729 	-5.80102 	0 1.81667 	-5.77212 	0 1.80707 	-5.74697 	0 1.78319 	-5.61543 	0 1.75677 	-5.48508 	1.9573e-22 1.72841 	-5.36027 	7.80016e-22 1.70307 	-5.25693 	2.35228e-21 1.67764 	-5.15252 	3.93653e-21 1.66721 	-5.05519 	6.91161e-21 1.65751 	-4.96055 	8.94004e-21 1.65027 	-4.87837 	7.03097e-21 1.64324 	-4.79587 	5.10212e-21 1.63719 	-4.7223 	3.37096e-21 1.6322 	-4.67301 	2.95793e-21 1.6273 	-4.62362 	2.54274e-21 1.62247 	-4.57413 	2.12533e-21 1.61909 	-4.52906 	2.43687e-21 1.61595 	-4.48414 	2.85187e-21 1.61704 	-4.3413 	5.70657e-21 1.61916 	-4.19748 	8.54719e-21 1.63107 	-4.06683 	6.72344e-21 1.64681 	-3.93918 	3.51462e-21 1.66489 	-3.804 	-2.32594e-22 1.66527 	-3.80186 	-2.55348e-22 1.66565 	-3.79972 	-2.78086e-22 1.66605 	-3.79789 	-2.55654e-22 1.66646 	-3.79615 	-2.21287e-22 1.66686 	-3.79441 	-1.87116e-22 1.68925 	-3.67833 	-2.40615e-22 1.71312 	-3.56195 	-2.7459e-22 1.73821 	-3.44914 	-3.00593e-22 1.76379 	-3.34884 	-3.47731e-22 1.79329 	-3.23978 	-3.76713e-22 1.79873 	-3.22321 	-2.25561e-22 1.80423 	-3.20664 	-7.40869e-23 1.80891 	-3.19174 	0 1.81283 	-3.17844 	0 1.81654 	-3.16593 	0 1.84334 	-3.08331 	0 1.87148 	-3.00086 	0 1.89547 	-2.9259 	1.75951e-22 1.91604 	-2.85732 	5.00773e-22 1.94018 	-2.78123 	8.65826e-22 1.9415 	-2.77774 	8.67657e-22 1.94282 	-2.77426 	8.69505e-22 1.94406 	-2.77088 	8.71369e-22 1.94501 	-2.76788 	8.73244e-22 1.94595 	-2.76491 	8.7511e-22 1.96666 	-2.70299 	5.45956e-22 1.98805 	-2.64107 	2.5433e-22 2.00802 	-2.58175 	8.71347e-23 2.02457 	-2.52688 	1.4001e-22 2.03843 	-2.48343 	1.86316e-22 2.04411 	-2.46836 	9.53678e-23 2.04986 	-2.45331 	4.27203e-24 2.05403 	-2.43943 	0 2.05818 	-2.42563 	0 2.06254 	-2.41137 	0 2.07331 	-2.37999 	0 2.08439 	-2.34877 	0 2.09579 	-2.31774 	2.10612e-25 2.10595 	-2.29174 	2.64097e-23 2.11535 	-2.26849 	5.00385e-23 2.12768 	-2.23196 	4.23678e-23 2.14032 	-2.19616 	3.54847e-23 2.15205 	-2.16542 	3.89489e-23 2.16418 	-2.13488 	4.21232e-23 2.17806 	-2.10129 	4.53131e-23 2.179 	-2.09925 	4.97306e-23 2.17994 	-2.09721 	5.41435e-23 2.18089 	-2.09518 	5.85518e-23 2.18177 	-2.09313 	4.89421e-23 2.18263 	-2.0911 	3.55123e-23 2.19516 	-2.06074 	-1.72741e-22 2.20816 	-2.03013 	-3.1089e-22 2.2216 	-1.99975 	-4.45735e-22 2.23441 	-1.96911 	-2.27759e-23 2.24631 	-1.9415 	4.16857e-22 2.25681 	-1.91863 	1.48751e-21 2.26729 	-1.89569 	2.07595e-21 2.27744 	-1.87244 	1.65458e-21 2.28785 	-1.84936 	1.23877e-21 2.29963 	-1.82412 	7.86841e-22 2.30107 	-1.82128 	7.38209e-22 2.30252 	-1.81844 	6.89666e-22 2.30397 	-1.8156 	6.41211e-22 2.30527 	-1.81314 	6.68377e-22 2.30645 	-1.81098 	7.49409e-22 2.31823 	-1.78543 	1.91147e-21 2.33013 	-1.76064 	2.52792e-21 2.34235 	-1.73605 	3.13354e-21 2.35317 	-1.71589 	1.71058e-21 2.36299 	-1.69853 	-2.19777e-22 2.37497 	-1.67413 	-1.00405e-21 2.38677 	-1.65111 	-1.55292e-21 2.39723 	-1.63224 	-1.3159e-21 2.40795 	-1.61352 	-1.08189e-21 2.41783 	-1.59699 	-5.63162e-22 2.42066 	-1.59156 	-5.12159e-22 2.42323 	-1.58682 	-5.32454e-22 2.42562 	-1.58256 	-6.03001e-22 2.42801 	-1.57831 	-6.73495e-22 2.43049 	-1.57395 	-7.46029e-22 2.43843 	-1.56059 	-7.49173e-22 2.4465 	-1.54731 	-7.53644e-22 2.4547 	-1.5341 	-7.59444e-22 2.46153 	-1.51981 	-8.92973e-22 2.46601 	-1.50435 	-1.21107e-21 2.47826 	-1.49012 	-7.30866e-22 2.49075 	-1.47604 	-2.49183e-22 2.49996 	-1.45855 	-2.18591e-22 2.50588 	-1.43814 	-5.95115e-22 2.51179 	-1.41865 	-9.59579e-22 2.5242 	-1.40541 	-3.35248e-21 2.53361 	-1.38967 	-3.34717e-21 2.54166 	-1.37276 	-2.17115e-21 2.54994 	-1.356 	-1.00584e-21 2.55775 	-1.33944 	5.06004e-22 2.55871 	-1.3385 	5.78101e-22 2.55939 	-1.33732 	5.71588e-22 2.55999 	-1.33607 	5.43988e-22 2.5606 	-1.33483 	5.16421e-22 2.56121 	-1.33358 	4.88638e-22 2.56871 	-1.31869 	5.09525e-22 2.5764 	-1.30391 	5.31248e-22 2.58426 	-1.28924 	5.53807e-22 2.59104 	-1.27602 	4.29947e-22 2.59295 	-1.26835 	-2.47366e-22 2.60465 	-1.24981 	-2.19997e-21 2.61663 	-1.2314 	-4.15517e-21 2.62377 	-1.21788 	-4.64179e-21 2.626 	-1.20974 	-3.72467e-21 2.62825 	-1.20191 	-2.83342e-21 2.64025 	-1.18398 	-4.3821e-21 2.65021 	-1.16854 	-4.87662e-21 2.65612 	-1.15759 	-3.41966e-21 2.66208 	-1.14681 	-1.93299e-21 2.6645 	-1.13941 	4.5754e-22 2.67135 	-1.12975 	4.44712e-22 2.67482 	-1.12363 	6.04713e-22 2.67814 	-1.11773 	7.74596e-22 2.68151 	-1.11184 	9.44233e-22 2.68518 	-1.10555 	1.12613e-21 2.68793 	-1.10103 	1.52649e-21 2.6907 	-1.09651 	1.92551e-21 2.69351 	-1.09201 	2.32318e-21 2.69624 	-1.08745 	2.67566e-21 2.69411 	-1.07946 	1.07348e-21 2.70528 	-1.0733 	-1.81917e-21 2.71155 	-1.0631 	-3.14772e-21 2.71797 	-1.05294 	-4.46738e-21 2.71946 	-1.03917 	-3.60168e-21 2.71492 	-1.02118 	-8.98734e-23 2.72821 	-1.01697 	-6.46049e-23 2.74164 	-1.01282 	-3.98191e-23 2.74611 	-1.00164 	0 2.74175 	-0.983677 	0 2.73765 	-0.966018 	0 2.75128 	-0.962334 	0 2.76137 	-0.955943 	0 2.76434 	-0.944129 	0 2.76611 	-0.931237 	-1.22066e-22 2.76244 	-0.913906 	-7.31948e-22 2.77353 	-0.910278 	-8.90155e-23 2.77644 	-0.900296 	-8.31133e-22 2.7795 	-0.890382 	-1.57253e-21 2.78271 	-0.880535 	-2.31319e-21 2.7864 	-0.869786 	-3.12642e-21 2.78683 	-0.86863 	-3.18502e-21 2.78726 	-0.867475 	-3.24365e-21 2.78769 	-0.866321 	-3.30231e-21 2.78813 	-0.865168 	-3.36099e-21 2.78734 	-0.865102 	-3.49503e-21 2.79233 	-0.853112 	-4.78776e-21 2.7963 	-0.842241 	-5.62668e-21 2.80045 	-0.831455 	-6.45456e-21 2.8048 	-0.820753 	-7.27141e-21 2.79665 	-0.82156 	-3.52222e-21 2.81027 	-0.803034 	-2.10855e-21 2.81798 	-0.789882 	-1.48024e-21 2.82265 	-0.779578 	-1.26554e-21 2.81767 	-0.778235 	-1.41702e-21 2.80881 	-0.780486 	-1.71215e-21 2.82289 	-0.762136 	-7.09493e-21 2.8374 	-0.743871 	-1.2494e-20 2.84041 	-0.73621 	-1.22027e-20 2.83185 	-0.738993 	-6.26071e-21 2.82333 	-0.741706 	-4.07738e-22 2.83783 	-0.723525 	-6.01839e-21 2.84999 	-0.707999 	-1.02527e-20 2.85157 	-0.702676 	-9.00642e-21 2.84798 	-0.701884 	-5.45797e-21 2.83977 	-0.705075 	7.71106e-23 2.85467 	-0.687059 	-4.99877e-21 2.85756 	-0.680794 	-5.50174e-21 2.85937 	-0.675706 	-5.55818e-21 2.86129 	-0.67063 	-5.62329e-21 2.85771 	-0.670462 	-3.14504e-21 2.86417 	-0.662343 	-4.83388e-21 2.86526 	-0.659475 	-4.73057e-21 2.86639 	-0.656611 	-4.62942e-21 2.86756 	-0.653751 	-4.53043e-21 2.86887 	-0.650652 	-4.42537e-21 2.86974 	-0.648715 	-4.56178e-21 2.87062 	-0.646781 	-4.69854e-21 2.87153 	-0.644848 	-4.83567e-21 2.87245 	-0.642917 	-4.97316e-21 2.86785 	-0.635993 	-5.36114e-21 2.87557 	-0.636606 	-8.40529e-21 2.8777 	-0.631971 	-8.78381e-21 2.87994 	-0.627345 	-9.1527e-21 2.88229 	-0.622729 	-9.51195e-21 2.86554 	-0.600587 	-5.79146e-22 2.88389 	-0.611162 	-7.44971e-22 2.88989 	-0.610207 	5.10756e-22 2.89228 	-0.605807 	2.19377e-21 2.88322 	-0.590719 	4.68111e-21 2.8651 	-0.567004 	7.82247e-21 2.88405 	-0.578177 	2.44576e-20 2.9028 	-0.589298 	4.10846e-20 2.90279 	-0.582751 	4.1128e-20 2.88452 	-0.558967 	2.45535e-20 2.86671 	-0.535244 	7.93622e-21 2.88625 	-0.547005 	4.76603e-21 2.90556 	-0.55871 	1.59753e-21 2.90616 	-0.552825 	3.43841e-22 2.88818 	-0.529061 	-7.07138e-23 2.87068 	-0.505352 	-4.95875e-22 2.89077 	-0.517699 	-9.88859e-21 2.90372 	-0.523391 	-1.6049e-20 2.90253 	-0.515622 	-1.56394e-20 2.89445 	-0.501053 	-1.1642e-20 2.87723 	-0.477368 	-2.82979e-21 2.89784 	-0.490308 	-1.11621e-21 2.89983 	-0.485425 	6.64769e-22 2.89941 	-0.478112 	2.45418e-21 2.89921 	-0.470872 	4.24248e-21 2.88652 	-0.451303 	5.38147e-21 2.89925 	-0.456645 	1.07131e-20 2.89937 	-0.449704 	8.68896e-21 2.8997 	-0.442833 	6.67998e-21 2.90025 	-0.436031 	4.68609e-21 2.89881 	-0.427143 	1.56455e-21 2.90112 	-0.427865 	1.44743e-21 2.90127 	-0.426446 	1.14224e-21 2.90142 	-0.425031 	8.37076e-22 2.90159 	-0.423619 	5.31947e-22 2.90177 	-0.422186 	2.21709e-22 2.90248 	-0.417075 	-1.43621e-21 2.90331 	-0.412006 	-3.08689e-21 2.90427 	-0.406978 	-4.73034e-21 2.90535 	-0.401991 	-6.3666e-21 2.90737 	-0.408284 	-4.40324e-21 2.9078 	-0.390849 	-3.52635e-21 2.90938 	-0.384707 	-2.41912e-21 2.91115 	-0.37863 	-1.31321e-21 2.91311 	-0.372618 	-2.08626e-22 2.91755 	-0.391617 	0 2.91712 	-0.360889 	4.10505e-23 2.91932 	-0.355102 	1.95505e-21 2.92171 	-0.349376 	3.87281e-21 2.92507 	-0.350864 	5.91851e-21 2.93095 	-0.375978 	8.36082e-21 2.93033 	-0.344707 	2.24538e-20 2.93175 	-0.327108 	3.0694e-20 2.9347 	-0.321702 	3.36956e-20 2.94027 	-0.335871 	2.6134e-20 2.94681 	-0.361205 	1.24992e-20 2.946 	-0.329942 	2.55773e-20 2.94629 	-0.300572 	3.76882e-20 2.9498 	-0.29589 	3.62028e-20 2.95774 	-0.3217 	2.16274e-20 2.96489 	-0.347223 	7.16386e-21 2.96385 	-0.315964 	4.37279e-21 2.96372 	-0.284756 	1.59165e-21 2.96815 	-0.282228 	6.99222e-22 2.97668 	-0.308209 	2.53619e-21 2.98442 	-0.333917 	4.36957e-21 2.98305 	-0.302639 	2.8021e-21 2.98259 	-0.271409 	1.21901e-21 2.98777 	-0.269197 	-1.02317e-21 2.99688 	-0.295343 	-1.44657e-21 3.0052 	-0.321231 	-1.88813e-21 3.0034 	-0.28989 	-1.95162e-21 3.00294 	-0.260892 	-2.00512e-21 3.00892 	-0.260689 	-2.24044e-21 3.01796 	-0.283017 	-2.63562e-21 3.02688 	-0.309101 	-3.07449e-21 3.02451 	-0.27764 	-3.12135e-21 3.02574 	-0.258792 	-2.24098e-21 3.03156 	-0.258632 	-7.6145e-24 3.03935 	-0.271142 	2.45825e-21 3.04893 	-0.297462 	5.15979e-21 3.04579 	-0.26582 	2.03392e-20 3.04904 	-0.256952 	2.06487e-20 3.05467 	-0.256832 	1.52417e-20 3.06084 	-0.259702 	8.175e-21 3.07118 	-0.286297 	-1.2053e-20 3.06733 	-0.255498 	-2.80188e-20 3.07273 	-0.255422 	-2.66313e-20 3.07814 	-0.255343 	-2.52454e-20 3.08356 	-0.255262 	-2.3861e-20 3.09323 	-0.275596 	-1.42881e-20 3.09125 	-0.254399 	-2.19692e-20 3.0964 	-0.254368 	-1.99303e-20 3.10157 	-0.254335 	-1.78931e-20 3.10674 	-0.254298 	-1.58576e-20 3.11462 	-0.265348 	-9.8894e-21 3.11515 	-0.253862 	-1.98844e-20 3.12004 	-0.253882 	-1.89866e-20 3.12493 	-0.253899 	-1.80921e-20 3.12983 	-0.253914 	-1.72008e-20 3.13521 	-0.255558 	-1.44331e-20 3.1353 	-0.253869 	-1.43437e-20 3.13608 	-0.253883 	-1.45225e-20 3.13687 	-0.253897 	-1.47013e-20 3.13765 	-0.25391 	-1.488e-20 3.13845 	-0.253924 	-1.50639e-20 3.14231 	-0.253992 	-1.52479e-20 3.14616 	-0.254058 	-1.54322e-20 3.15002 	-0.254122 	-1.56169e-20 3.15389 	-0.254185 	-1.5802e-20 3.15594 	-0.240057 	-1.68064e-20 3.16353 	-0.254644 	-2.47885e-20 3.1679 	-0.254795 	-2.6195e-20 3.17228 	-0.254945 	-2.76004e-20 3.17665 	-0.255093 	-2.90046e-20 3.17601 	-0.223714 	-1.6785e-20 3.18832 	-0.255989 	-1.30056e-20 3.19241 	-0.256221 	-1.20415e-20 3.19651 	-0.256453 	-1.10776e-20 3.20061 	-0.256683 	-1.01139e-20 3.19533 	-0.207832 	-1.58524e-20 3.21354 	-0.25798 	-5.13099e-20 3.21738 	-0.258298 	-5.71642e-20 3.22121 	-0.258617 	-6.30186e-20 3.22321 	-0.250719 	-6.36434e-20 3.21415 	-0.19245 	-3.22002e-20 3.23492 	-0.245602 	-4.88908e-20 3.24325 	-0.2608 	-5.30918e-20 3.24684 	-0.26121 	-5.24152e-20 3.24399 	-0.23634 	-4.39993e-20 3.23305 	-0.177713 	-2.51913e-20 3.25565 	-0.231403 	-4.41892e-20 3.27013 	-0.263637 	-5.43178e-20 3.2735 	-0.264149 	-5.11969e-20 3.26487 	-0.222579 	-3.07962e-20 3.25208 	-0.163629 	-3.11766e-21 3.27642 	-0.217797 	2.80472e-20 3.29791 	-0.26675 	5.61257e-20 3.30109 	-0.267367 	5.40735e-20 3.28583 	-0.209401 	2.08464e-20 3.27122 	-0.150185 	-1.33026e-20 3.29722 	-0.204778 	-5.32468e-20 3.32215 	-0.259009 	-9.30984e-20 3.32465 	-0.256256 	-9.43507e-20 3.30727 	-0.196925 	-5.72921e-20 3.29088 	-0.137532 	-2.00369e-20 3.31844 	-0.192514 	-1.20704e-20 3.34495 	-0.247142 	-4.06324e-21 3.34818 	-0.24468 	-3.32379e-22 3.32914 	-0.185189 	-9.25184e-22 3.31104 	-0.125652 	-1.58775e-21 3.3401 	-0.180994 	-5.9142e-22 3.36814 	-0.235993 	4.65786e-22 3.37203 	-0.233759 	3.89001e-21 3.35137 	-0.174093 	8.35704e-21 3.33162 	-0.114395 	1.27429e-20 3.36218 	-0.170035 	3.90901e-20 3.39175 	-0.225341 	6.55197e-20 3.39603 	-0.222901 	6.48041e-20 3.37394 	-0.16345 	4.10231e-20 3.35254 	-0.103613 	1.69195e-20 3.38466 	-0.159487 	5.67087e-20 3.41145 	-0.205325 	8.91653e-20 3.4145 	-0.200179 	8.32375e-20 3.39711 	-0.153268 	4.78153e-20 3.37401 	-0.093378 	3.05217e-21 3.40783 	-0.149463 	1.90858e-21 3.43032 	-0.18373 	2.09284e-21 3.43347 	-0.178997 	4.66893e-21 3.42077 	-0.143563 	7.99173e-21 3.39583 	-0.0836246 	1.19035e-20 3.43151 	-0.139897 	-7.43506e-21 3.44954 	-0.163586 	-1.49393e-20 3.45272 	-0.15925 	-1.22334e-20 3.44465 	-0.134293 	-2.64743e-21 3.41772 	-0.0743311 	1.86324e-20 3.45547 	-0.130807 	1.31731e-20 3.46886 	-0.144891 	1.26113e-20 3.47201 	-0.140931 	1.41289e-20 3.46854 	-0.125487 	1.66588e-20 3.43936 	-0.0654836 	2.31202e-20 3.47943 	-0.122157 	6.36965e-20 3.48798 	-0.127541 	6.44829e-20 3.49106 	-0.12393 	5.82661e-20 3.49218 	-0.117088 	4.9955e-20 3.4605 	-0.0570383 	7.29344e-21 3.50317 	-0.11392 	3.47227e-21 3.50665 	-0.111456 	2.44079e-21 3.50963 	-0.108166 	1.4509e-21 3.51268 	-0.104945 	4.60445e-22 3.481 	-0.0489648 	-2.85198e-23 3.5222 	-0.0998282 	-4.55384e-22 3.52495 	-0.0967657 	-1.16815e-21 3.5278 	-0.093768 	-1.88068e-21 3.53071 	-0.0908338 	-2.593e-21 3.5008 	-0.0412754 	-6.12587e-21 3.54022 	-0.0862474 	-2.79406e-20 3.54284 	-0.0834725 	-3.05917e-20 3.54553 	-0.0807566 	-3.32634e-20 3.5483 	-0.0780983 	-3.59555e-20 3.51978 	-0.0340154 	-1.36915e-20 3.55775 	-0.0740366 	-1.181e-20 3.56022 	-0.0715414 	-3.89319e-21 3.56276 	-0.0690995 	4.02369e-21 3.56537 	-0.0667095 	1.19407e-20 3.53788 	-0.0272414 	2