# vtk DataFile Version 2.0
track0
ASCII
DATASET POLYDATA
POINTS 11187 double
-0.0205 0.001 1e-05
-0.0202034 0.00100003 1e-05
-0.0199069 0.00100025 1e-05
-0.0196103 0.00100068 1e-05
-0.0193137 0.00100132 1e-05
-0.0190172 0.00100216 1e-05
-0.0187132 0.00100341 1e-05
-0.0184093 0.00100433 1e-05
-0.0181054 0.00100523 1e-05
-0.0178015 0.00100613 1e-05
-0.0174976 0.00100702 1e-05
-0.0172058 0.00100816 1e-05
-0.016914 0.00100882 1e-05
-0.0166222 0.00100942 1e-05
-0.0163305 0.00100995 1e-05
-0.0160387 0.00101041 1e-05
-0.0157586 0.00101113 1e-05
-0.0154784 0.00101138 1e-05
-0.0151983 0.00101157 1e-05
-0.0149182 0.0010117 1e-05
-0.0146381 0.00101177 1e-05
-0.0143692 0.00101216 1e-05
-0.0141002 0.00101207 1e-05
-0.0138313 0.00101192 1e-05
-0.0135624 0.00101172 1e-05
-0.0132934 0.00101147 1e-05
-0.0130353 0.00101162 1e-05
-0.0127771 0.00101124 1e-05
-0.0125189 0.00101081 1e-05
-0.0122607 0.00101033 1e-05
-0.0120025 0.0010098 1e-05
-0.0117547 0.00100976 1e-05
-0.0115068 0.00100912 1e-05
-0.0112589 0.00100843 1e-05
-0.0110111 0.00100769 1e-05
-0.0107632 0.0010069 1e-05
-0.0105252 0.00100672 1e-05
-0.0102873 0.00100584 1e-05
-0.0100493 0.0010049 1e-05
-0.00981134 0.00100391 1e-05
-0.00957337 0.00100286 1e-05
-0.00934491 0.00100258 1e-05
-0.00911645 0.00100144 1e-05
-0.008888 0.00100024 1e-05
-0.00865955 0.000998986 1e-05
-0.00843108 0.000997665 1e-05
-0.00821175 0.000997287 1e-05
-0.00799243 0.000995877 1e-05
-0.0077731 0.000994399 1e-05
-0.00755378 0.00099285 1e-05
-0.00733443 0.000991229 1e-05
-0.00712387 0.000990759 1e-05
-0.0069133 0.000989044 1e-05
-0.00670275 0.00098725 1e-05
-0.00649219 0.000985372 1e-05
-0.0062816 0.000983409 1e-05
-0.00607944 0.000982839 1e-05
-0.0058773 0.000980775 1e-05
-0.00567516 0.000978615 1e-05
-0.00547301 0.000976355 1e-05
-0.00527083 0.000973994 1e-05
-0.00507675 0.000973304 1e-05
-0.00488269 0.000970837 1e-05
-0.00468863 0.000968254 1e-05
-0.00449457 0.000965553 1e-05
-0.00430044 0.00096273 1e-05
-0.00411412 0.000961893 1e-05
-0.00392782 0.000958961 1e-05
-0.00374152 0.00095589 1e-05
-0.00355522 0.000952676 1e-05
-0.00336883 0.00094934 1e-05
-0.00318995 0.000948302 1e-05
-0.0030111 0.000944983 1e-05
-0.00283225 0.000941334 1e-05
-0.00265341 0.000937504 1e-05
-0.00247443 0.000933968 1e-05
-0.0023027 0.00093262 1e-05
-0.002131 0.000929071 1e-05
-0.00195932 0.00092471 1e-05
-0.00178764 0.000920107 1e-05
-0.00161577 0.000916199 1e-05
-0.0014509 0.000914325 1e-05
-0.00128607 0.000910316 1e-05
-0.00112127 0.00090497 1e-05
-0.000956491 0.000899277 1e-05
-0.000791418 0.000894625 1e-05
-0.000633135 0.000891785 1e-05
-0.000474904 0.000886817 1e-05
-0.000316745 0.000879905 1e-05
-0.000158608 0.000872524 1e-05
0 0.000866474 1e-05
0.000105677 0.000863345 1e-05
0.000211306 0.000858857 1e-05
0.000316869 0.000853022 1e-05
0.000422416 0.000846924 1e-05
0.000528387 0.000841604 1e-05
0.000634886 0.000837069 1e-05
0.000741331 0.00083139 1e-05
0.000847708 0.000824574 1e-05
0.000954067 0.000817476 1e-05
0.00106088 0.000810988 1e-05
0.00116821 0.00080512 1e-05
0.00127548 0.000798323 1e-05
0.0013827 0.000790786 1e-05
0.00148991 0.000783063 1e-05
0.00159752 0.000775483 1e-05
0.00170568 0.000768329 1e-05
0.00181379 0.000760434 1e-05
0.00192188 0.000752219 1e-05
0.00202995 0.00074382 1e-05
0.00213833 0.000735209 1e-05
0.00224733 0.000726782 1e-05
0.00235629 0.000717887 1e-05
0.00246524 0.000708795 1e-05
0.00257417 0.000699505 1e-05
0.00268334 0.000689996 1e-05
0.00270125 0.00068841 1e-05
0.00271916 0.000686814 1e-05
0.00273708 0.000685212 1e-05
0.00275499 0.000683604 1e-05
0.00277214 0.000682059 1e-05
0.00286423 0.000673737 1e-05
0.00295631 0.000665264 1e-05
0.00304837 0.000656639 1e-05
0.00314041 0.000647863 1e-05
0.00323259 0.000638921 1e-05
0.00334329 0.00062784 1e-05
0.00345398 0.000616611 1e-05
0.00356465 0.000605149 1e-05
0.00367529 0.000593453 1e-05
0.00378611 0.00058145 1e-05
0.00389767 0.000568953 1e-05
0.00400921 0.000556264 1e-05
0.00412073 0.000543374 1e-05
0.00423222 0.000530222 1e-05
0.00434393 0.000516678 1e-05
0.00445636 0.000502672 1e-05
0.00456876 0.000488413 1e-05
0.00468113 0.0004739 1e-05
0.00479346 0.000459071 1e-05
0.00490609 0.000443837 1e-05
0.0050194 0.000428136 1e-05
0.00513266 0.000412112 1e-05
0.00524586 0.000395711 1e-05
0.00535901 0.000378915 1e-05
0.00547262 0.000361644 1e-05
0.00549928 0.000357492 1e-05
0.00552593 0.000353317 1e-05
0.00555257 0.000349113 1e-05
0.00557922 0.000344881 1e-05
0.00560425 0.000340878 1e-05
0.00569211 0.000326735 1e-05
0.00577992 0.000312298 1e-05
0.00586769 0.000297565 1e-05
0.0059554 0.000282534 1e-05
0.00604356 0.000267107 1e-05
0.00615863 0.00024643 1e-05
0.00627359 0.00022513 1e-05
0.00638843 0.000203194 1e-05
0.00650315 0.000180596 1e-05
0.00661893 0.000156924 1e-05
0.0067349 0.000132312 1e-05
0.00685069 0.00010687 1e-05
0.00696628 8.05236e-05 1e-05
0.00708162 5.31168e-05 1e-05
0.00719878 2.41146e-05 1e-05
0.00721747 1.92916e-05 1e-05
0.00723615 1.44401e-05 1e-05
0.00725482 9.55494e-06 1e-05
0.00727349 4.63103e-06 1e-05
0.00729089 0 1e-05
0.00738934 -2.63994e-05 1e-05
0.00748752 -5.37775e-05 1e-05
0.00758542 -8.21472e-05 1e-05
0.00768302 -0.000111522 1e-05
0.00778313 -0.000142975 1e-05
0.00790091 -0.000181877 1e-05
0.00801802 -0.000222758 1e-05
0.00813441 -0.00026564 1e-05
0.00825008 -0.000310416 1e-05
0.00837203 -0.000359995 1e-05
0.00838325 -0.000364784 1e-05
0.00839445 -0.00036959 1e-05
0.00840565 -0.000374412 1e-05
0.00841684 -0.000379255 1e-05
0.00842761 -0.000383939 1e-05
0.00853519 -0.000430992 1e-05
0.00864187 -0.000480043 1e-05
0.00874758 -0.00053116 1e-05
0.00885224 -0.000584408 1e-05
0.00896551 -0.000645564 1e-05
0.00902323 -0.000678917 1e-05
0.00908044 -0.000713148 1e-05
0.0091371 -0.000748274 1e-05
0.00919287 -0.000784804 1e-05
0.00923225 -0.000812207 1e-05
0.00929852 -0.000860367 1e-05
0.00936365 -0.000910056 1e-05
0.0094276 -0.000961258 1e-05
0.00949013 -0.00101419 1e-05
0.0095636 -0.0010807 1e-05
0.00960564 -0.00112193 1e-05
0.0096467 -0.00116413 1e-05
0.00968677 -0.00120727 1e-05
0.00972593 -0.00125124 1e-05
0.00975659 -0.00128671 1e-05
0.00983854 -0.00138384 1e-05
0.00991592 -0.00148465 1e-05
0.00998874 -0.00158881 1e-05
0.0100584 -0.00169509 1e-05
0.0101302 -0.00181148 1e-05
0.0101374 -0.00182398 1e-05
0.0101446 -0.0018365 1e-05
0.0101517 -0.00184905 1e-05
0.0101588 -0.00186162 1e-05
0.0101663 -0.00187503 1e-05
0.010224 -0.00197846 1e-05
0.0102794 -0.00208309 1e-05
0.0103327 -0.00218887 1e-05
0.0103837 -0.00229573 1e-05
0.0104283 -0.00239187 1e-05
0.010487 -0.00252039 1e-05
0.0105426 -0.00265025 1e-05
0.0105954 -0.00278129 1e-05
0.0106471 -0.00291278 1e-05
0.0106936 -0.00303411 1e-05
0.0107097 -0.00307661 1e-05
0.0107254 -0.00311921 1e-05
0.010741 -0.00316187 1e-05
0.0107566 -0.00320456 1e-05
0.0107738 -0.00325213 1e-05
0.0108092 -0.00335075 1e-05
0.0108442 -0.00344954 1e-05
0.0108787 -0.00354849 1e-05
0.0109127 -0.00364761 1e-05
0.0109457 -0.00374516 1e-05
0.0109985 -0.00390272 1e-05
0.0110508 -0.00406045 1e-05
0.0111025 -0.00421836 1e-05
0.0111537 -0.00437645 1e-05
0.0112037 -0.00453288 1e-05
0.0112402 -0.00464797 1e-05
0.0112766 -0.00476307 1e-05
0.0113129 -0.00487818 1e-05
0.0113493 -0.0049933 1e-05
0.0113859 -0.00510936 1e-05
0.0114046 -0.00516868 1e-05
0.0114234 -0.005228 1e-05
0.0114421 -0.00528732 1e-05
0.0114607 -0.00534664 1e-05
0.0114794 -0.00540593 1e-05
0.0115403 -0.00559954 1e-05
0.0116017 -0.00579296 1e-05
0.0116636 -0.00598624 1e-05
0.0117259 -0.00617939 1e-05
0.0117889 -0.00637402 1e-05
0.0118317 -0.00650541 1e-05
0.011875 -0.00663663 1e-05
0.0119188 -0.00676768 1e-05
0.0119631 -0.00689856 1e-05
0.0120028 -0.00701463 1e-05
0.0120329 -0.00710128 1e-05
0.0120631 -0.00718786 1e-05
0.0120936 -0.00727436 1e-05
0.0121242 -0.0073608 1e-05
0.0121554 -0.00744791 1e-05
0.0122412 -0.00768614 1e-05
0.0123296 -0.00792344 1e-05
0.0124207 -0.00815971 1e-05
0.012515 -0.00839474 1e-05
0.0126173 -0.00863953 1e-05
0.0126188 -0.00864282 1e-05
0.0126202 -0.00864611 1e-05
0.0126217 -0.0086494 1e-05
0.0126231 -0.00865269 1e-05
0.0126245 -0.00865595 1e-05
0.0127218 -0.0088774 1e-05
0.0128228 -0.00909721 1e-05
0.0129276 -0.00931518 1e-05
0.0130365 -0.00953118 1e-05
0.013159 -0.00976382 1e-05
0.0131774 -0.00979709 1e-05
0.0131959 -0.00983031 1e-05
0.0132146 -0.00986346 1e-05
0.0132333 -0.00989655 1e-05
0.0132511 -0.00992765 1e-05
0.0133613 -0.0101198 1e-05
0.013475 -0.0103099 1e-05
0.0135922 -0.0104979 1e-05
0.0137126 -0.0106838 1e-05
0.0138502 -0.0108889 1e-05
0.0138566 -0.0108982 1e-05
0.0138631 -0.0109074 1e-05
0.0138696 -0.0109167 1e-05
0.0138761 -0.0109259 1e-05
0.0138825 -0.010935 1e-05
0.0140098 -0.0111158 1e-05
0.0141398 -0.0112946 1e-05
0.0142728 -0.0114713 1e-05
0.0144086 -0.0116458 1e-05
0.0145188 -0.0117834 1e-05
0.0145567 -0.0118296 1e-05
0.0145949 -0.0118757 1e-05
0.0146332 -0.0119216 1e-05
0.0146717 -0.0119673 1e-05
0.0147118 -0.0120146 1e-05
0.0148015 -0.0121194 1e-05
0.0148921 -0.0122234 1e-05
0.0149836 -0.0123265 1e-05
0.0150761 -0.0124288 1e-05
0.0151601 -0.0125202 1e-05
0.0152757 -0.0126442 1e-05
0.0153927 -0.012767 1e-05
0.0155111 -0.0128884 1e-05
0.0156306 -0.0130087 1e-05
0.0157644 -0.0131406 1e-05
0.0157727 -0.0131487 1e-05
0.0157811 -0.0131568 1e-05
0.0157896 -0.0131649 1e-05
0.015798 -0.013173 1e-05
0.0158063 -0.013181 1e-05
0.0159366 -0.0133058 1e-05
0.0160681 -0.0134292 1e-05
0.0162009 -0.0135513 1e-05
0.016335 -0.013672 1e-05
0.0164576 -0.0137801 1e-05
0.0165702 -0.0138774 1e-05
0.0166835 -0.0139738 1e-05
0.0167977 -0.0140692 1e-05
0.0169126 -0.0141637 1e-05
0.0170401 -0.0142667 1e-05
0.0170549 -0.0142785 1e-05
0.0170697 -0.0142902 1e-05
0.0170844 -0.0143018 1e-05
0.0170993 -0.0143135 1e-05
0.0171139 -0.0143251 1e-05
0.0172462 -0.0144289 1e-05
0.0173795 -0.0145316 1e-05
0.0175137 -0.014633 1e-05
0.0176488 -0.0147331 1e-05
0.0177754 -0.0148254 1e-05
0.0179087 -0.0149212 1e-05
0.0180429 -0.0150158 1e-05
0.0181779 -0.0151092 1e-05
0.0183136 -0.0152017 1e-05
0.018442 -0.0152876 1e-05
0.0184738 -0.0153087 1e-05
0.0185058 -0.0153297 1e-05
0.0185377 -0.0153506 1e-05
0.0185697 -0.0153715 1e-05
[...]
POINT_DATA 11187
 FIELD attributes 2
p 1 11187 float
0.850275 0.798687 0.737119 0.675006 0.612347 0.485074 0.406793 0.321208 0.235627 0.15005 0.0587567 0.0458045 0.0158151 -0.0141098 -0.0439691 -0.0865193 -0.0866997 -0.108162 -0.129536 -0.15082 -0.190864 -0.1995 -0.228066 -0.256548 -0.284944 -0.333747 -0.343345 -0.373763 -0.404097 -0.434345 -0.488168 -0.496239 -0.528435 -0.560541 -0.592556 -0.653667 -0.66106 -0.697337 -0.733515 -0.769592 -0.841771 -0.847798 -0.889255 -0.930601 -0.97183 -1.05809 -1.0616 -1.1089 -1.15607 -1.2031 -1.30613 -1.30583 -1.36054 -1.41509 -1.46947 -1.59411 -1.58928 -1.65337 -1.71726 -1.78096 -1.93279 -1.9221 -1.99811 -2.07388 -2.14942 -2.33668 -2.32071 -2.41276 -2.50453 -2.59759 -2.82891 -2.81822 -2.92207 -3.03462 -3.1777 -3.43868 -3.45535 -3.55882 -3.69814 -3.90704 -4.20926 -4.26346 -4.36699 -4.53251 -4.8198 -5.16248 -5.23935 -5.32589 -5.48675 -5.81687 -6.14552 -6.14656 -6.15005 -6.23183 -6.39484 -6.5569 -6.44633 -6.33812 -6.29639 -6.33615 -6.37501 -6.24861 -6.13722 -6.06776 -6.02728 -6.00934 -5.89647 -5.79875 -5.70602 -5.61363 -5.53868 -5.41922 -5.30582 -5.19274 -5.07999 -4.96871 -4.94913 -4.93074 -4.91237 -4.89401 -4.87643 -4.78188 -4.68757 -4.5935 -4.49967 -4.44416 -4.30582 -4.20359 -4.10175 -4.01839 -3.97946 -3.85748 -3.73946 -3.64952 -3.60906 -3.56942 -3.46082 -3.35287 -3.28201 -3.22619 -3.17274 -3.06253 -2.9666 -2.87504 -2.78469 -2.69294 -2.66013 -2.6258 -2.59156 -2.55742 -2.52541 -2.43167 -2.33924 -2.24812 -2.16133 -2.10199 -1.91329 -1.72587 -1.53923 -1.36414 -1.19154 -0.913595 -0.62905 -0.326648 -0.0298354 0.277142 0.344212 0.416225 0.493401 0.57036 0.641971 0.981388 1.31288 1.63629 1.97026 2.32416 2.89657 3.45194 4.04669 4.62917 5.23479 5.30858 5.38225 5.45715 5.53184 5.60354 6.23161 6.83603 7.41556 7.96682 8.53611 8.92138 9.29412 9.50018 9.64052 9.72303 9.97025 10.1952 10.3316 10.3432 10.3172 10.3281 10.3209 10.2265 9.89043 9.61344 9.49056 9.31547 8.74591 8.09743 7.28051 7.24033 7.19521 7.13318 7.07081 7.00405 6.45539 5.88578 5.29577 4.50293 3.72027 3.25501 2.75632 2.04122 1.30177 0.525554 0.400376 0.25216 0.0784386 -0.0956518 -0.289913 -0.731139 -1.17408 -1.61875 -2.06103 -2.49235 -2.99068 -3.49065 -3.97559 -4.4434 -4.90756 -5.15226 -5.37838 -5.58119 -5.78403 -5.98855 -6.11449 -6.24046 -6.36646 -6.4738 -6.5654 -6.80235 -7.02707 -7.22074 -7.31653 -7.41239 -7.4487 -7.47092 -7.43844 -7.40447 -7.3729 -7.38217 -7.39104 -7.39951 -7.37153 -7.3378 -7.21904 -7.09441 -6.87518 -6.62274 -6.34459 -6.3403 -6.33601 -6.33146 -6.32684 -6.32225 -6.0531 -5.77783 -5.49375 -5.19521 -4.86367 -4.81244 -4.76102 -4.70705 -4.65065 -4.59741 -4.32718 -4.05303 -3.76048 -3.45215 -3.10457 -3.08801 -3.07143 -3.05549 -3.0417 -3.02807 -2.73077 -2.4323 -2.14993 -1.89925 -1.69759 -1.62032 -1.54282 -1.47875 -1.41518 -1.34914 -1.19738 -1.04474 -0.891051 -0.717465 -0.560587 -0.397165 -0.230483 -0.0392988 0.152545 0.365721 0.379268 0.392818 0.406371 0.416458 0.425519 0.626669 0.822553 1.01903 1.15523 1.27331 1.43977 1.58929 1.7029 1.8171 1.94355 1.95846 1.97338 1.9883 2.00649 2.02686 2.13961 2.26379 2.38861 2.55287 2.71781 2.80866 2.91142 3.05316 3.19497 3.34772 3.36718 3.39362 3.42498 3.45635 3.48865 3.58993 3.69122 3.79252 3.87031 3.91049 4.06893 4.22776 4.33202 4.38203 4.43009 4.58184 4.68534 4.76537 4.84577 4.91749 4.92861 4.93554 4.94134 4.94715 4.95301 5.02416 5.09558 5.16728 5.25313 5.38925 5.42315 5.45694 5.5484 5.69514 5.83737 5.8677 5.92265 6.02328 6.12511 6.26331 6.27834 6.32959 6.38292 6.43621 6.4934 6.53508 6.57673 6.61836 6.65913 6.66237 6.79263 6.88481 6.97686 7.03028 7.03591 7.17532 7.31484 7.38628 7.3901 7.39379 7.52927 7.63743 7.69122 7.73484 7.73654 7.84361 7.88891 7.93436 7.97996 8.03024 8.03577 8.0413 8.04683 8.05237 8.06599 8.10815 8.15856 8.20916 8.25993 8.39293 8.37974 8.40714 8.45591 8.56869 8.70551 8.68985 8.67398 8.73455 8.87051 9.00444 8.98635 8.98591 9.0557 9.15893 9.29035 9.26981 9.32886 9.39572 9.46246 9.56379 9.56649 9.60433 9.64214 9.67991 9.72084 9.7465 9.77215 9.79778 9.82339 9.82199 9.91066 9.97246 10.0341 10.0957 10.0641 10.1984 10.2749 10.334 10.3374 10.2956 10.4275 10.5595 10.6039 10.5604 10.5167 10.6464 10.7762 10.8185 10.7733 10.7278 10.8554 10.9506 10.9798 10.9763 10.9292 11.0548 11.0947 11.1228 11.151 11.1215 11.2063 11.2332 11.2603 11.2875 11.3049 11.3203 11.3259 11.3315 11.3371 11.3428 11.3633 11.3839 11.4045 11.4252 11.4886 11.4709 11.4961 11.5214 11.5469 11.666 11.5963 11.6206 11.6451 11.6963 11.835 11.7624 11.7405 11.7641 11.8597 11.9963 11.9229 11.8558 11.8803 12.0157 12.1503 12.0761 12.0016 12.0314 12.1648 12.2975 12.2228 12.1477 12.1761 12.3076 12.4384 12.3632 12.2958 12.3292 12.4444 12.5734 12.4978 12.4656 12.4979 12.5756 12.7028 12.6269 12.6285 12.6597 12.7016 12.8271 12.7546 12.7849 12.8152 12.8455 12.9466 12.9065 12.9359 12.9653 12.9947 13.0619 13.0533 13.0819 13.1105 13.139 13.173 13.1723 13.1771 13.1818 13.1865 13.1914 13.2145 13.2376 13.2607 13.2838 13.2812 13.3333 13.3605 13.3877 13.4149 13.3862 13.4669 13.4935 13.5201 13.5467 13.488 13.5967 13.6228 13.6488 13.6608 13.5869 13.698 13.7477 13.7732 13.7564 13.6826 13.7922 13.8681 13.8932 13.849 13.7754 13.8836 13.9844 14.0092 13.939 13.8657 13.9723 14.0794 14.0977 14.0261 13.9533 14.0585 14.1641 14.1818 14.1107 14.0384 14.1421 14.2464 14.2636 14.193 14.1213 14.2237 14.3266 14.3428 14.2733 14.2022 14.3033 14.3904 14.402 14.3516 14.2812 14.381 14.4497 14.4614 14.4281 14.3585 14.4571 14.5093 14.5211 14.5031 14.4342 14.5315 14.5691 14.5811 14.5766 14.5085 14.6047 14.6294 14.6415 14.6489 14.5815 14.6766 14.6899 14.7021 14.7143 14.6533 14.7388 14.751 14.7633 14.7757 14.7241 14.8003 14.8127 14.8251 14.8375 14.7939 14.8624 14.8749 14.8874 14.8999 14.8629 14.925 14.9375 14.9501 14.9627 14.9311 14.988 15.0006 15.0132 15.0258 14.9986 15.0511 15.0637 15.0763 15.0889 15.0652 15.1143 15.1268 15.1394 15.1519 15.1309 15.1773 15.1897 15.2021 15.2146 15.1955 15.2398 15.2521 15.2643 15.2766 15.259 15.3016 15.3137 15.3258 15.3378 15.3213 15.3625 15.3743 15.3862 15.3981 15.3823 15.4222 15.4339 15.4455 15.4571 15.4422 15.4808 15.4921 15.5035 15.5149 15.5008 15.5379 15.549 15.5601 15.5712 15.5582 15.5935 15.6042 15.615 15.6258 15.6141 15.6473 15.6578 15.6683 15.6788 15.6686 15.6996 15.7098 15.72 15.7301 15.7216 15.7503 15.7601 15.7699 15.7798 15.773 15.7992 15.8086 15.818 15.8275 15.8224 15.8461 15.8553 15.8644 15.8736 15.8702 15.892 15.9012 15.9105 15.9197 15.9183 15.9386 15.9482 15.9577 15.9673 15.9678 15.9867 15.9964 16.0062 16.0159 16.018 16.0354 16.045 16.0546 16.0643 16.0675 16.0834 16.0929 16.1024 16.1118 16.116 16.1307 16.14 16.1493 16.1587 16.1636 16.1772 16.1864 16.1955 16.2047 16.2103 16.2229 16.2319 16.2409 16.2499 16.2559 16.2677 16.2765 16.2853 16.2941 16.3004 16.3114 16.32 16.3286 16.3371 16.3436 16.354 16.3622 16.3705 16.3788 16.3852 16.395 16.403 16.4109 16.4188 16.4251 16.4344 16.4419 16.4495 16.4571 16.4631 16.4719 16.4791 16.4863 16.4935 16.4991 16.5075 16.5144 16.5212 16.528 16.5331 16.5414 16.5479 16.5544 16.5609 16.5653 16.5735 16.5797 16.5859 16.5921 16.5958 16.6042 16.6102 16.6161 16.622 16.6249 16.6337 16.6394 16.6451 16.6509 16.6527 16.6622 16.6678 16.6734 16.679 16.6798 16.6901 16.6956 16.7011 16.7067 16.7064 16.7177 16.7232 16.7287 16.7342 16.7327 16.7452 16.7507 16.7562 16.7617 16.7589 16.7728 16.7783 16.7839 16.7894 16.7853 16.8006 16.8061 16.8117 16.8172 16.8117 16.8285 16.834 16.8396 16.8452 16.8382 16.8565 16.8621 16.8677 16.8732 16.8648 16.8846 16.8902 16.8957 16.9013 16.8913 16.9126 16.9181 16.9236 16.9291 16.9177 16.9403 16.9458 16.9512 16.9566 16.9436 16.9676 16.9729 16.9782 16.9835 16.9689 16.9943 16.9995 17.0046 17.0098 16.9938 17.0205 17.0255 17.0306 17.0357 17.0184 17.0462 17.0512 17.0562 17.0612 17.0426 17.0715 17.0765 17.0814 17.0863 17.0666 17.0965 17.1014 17.1062 17.111 17.0903 17.1211 17.1259 17.1307 17.1355 17.1137 17.1454 17.1501 17.1548 17.1595 17.1367 17.1693 17.1738 17.1784 17.183 17.1594 17.1926 17.197 17.2015 17.2059 17.1815 17.2152 17.2196 17.2239 17.2282 17.203 17.2373 17.2415 17.2458 17.25 17.2242 17.2589 17.263 17.2671 17.2713 17.2449 17.28 17.284 17.288 17.2921 17.2652 17.3007 17.3046 17.3085 17.3125 17.2852 17.3209 17.3247 17.3285 17.3324 17.3047 17.3406 17.3443 17.3481 17.3518 17.3237 17.3599 17.3635 17.3672 17.3708 17.3423 17.3788 17.3824 17.386 17.3896 17.3609 17.3977 17.4014 17.4051 17.4088 17.3799 17.4171 17.4209 17.4248 17.4287 17.3999 17.4374 17.4415 17.4456 17.4497 17.4209 17.4589 17.4632 17.4676 17.472 17.4433 17.4817 17.4863 17.491 17.4956 17.467 17.5059 17.5108 17.5157 17.5206 17.4919 17.5314 17.5365 17.5416 17.5467 17.5179 17.5579 17.5632 17.5685 17.5738 17.5448 17.5852 17.5906 17.5961 17.6015 17.5724 17.6132 17.6187 17.6243 17.6298 17.6005 17.6417 17.6474 17.653 17.6587 17.6293 17.6708 17.6766 17.6825 17.6883 17.6588 17.7008 17.7068 17.7129 17.719 17.6894 17.732 17.7384 17.7448 17.7513 17.7217 17.7651 17.772 17.7789 17.7859 17.7565 17.8009 17.8085 17.8162 17.8238 17.7947 17.8406 17.8492 17.8578 17.8664 17.8375 17.8854 17.8953 17.9052 17.9151 17.8867 17.9372 17.9489 17.9605 17.9722 17.9444 17.9984 18.0125 18.0266 18.0408 18.0141 18.0729 18.0904 18.1079 18.1254 18.0999 18.1653 18.1881 18.2109 18.2338 18.2114 18.2869 18.3166 18.3464 18.3762 18.3554 18.4438 18.4874 18.5311 18.5748 18.5642 18.6779 18.7349 18.7919 18.8489 18.8281 18.939 19.017 19.0921 19.1534 19.1579 19.2945 19.2808 19.2387 19.1978 19.0333 18.9478 18.807 18.6661 18.5252 18.3635 18.2951 18.2093 18.1235 18.0376 17.9416 17.9176 17.8692 17.8208 17.7724 17.7028 17.6674 17.6108 17.5544 17.4979 17.4222 17.3791 17.3188 17.2584 17.1981 17.121 17.0837 17.0277 16.9717 16.9158 16.8402 16.8071 16.752 16.6969 16.6418 16.5627 16.53 16.4721 16.4143 16.3564 16.2712 16.2381 16.1764 16.1148 16.0531 15.9609 15.9258 15.8584 15.791 15.7236 15.6222 15.5825 15.507 15.4316 15.3561 15.2439 15.1969 15.1111 15.0254 14.9396 14.8151 14.7561 14.6589 14.5617 14.4644 14.3298 14.2574 14.1463 14.0352 13.9242 13.7766 13.6862 13.5604 13.4347 13.309 13.1508 13.0444 12.898 12.7517 12.6054 12.4238 12.2893 12.1194 11.9495 11.7797 11.579 11.4169 11.2092 11.0016 10.7942 10.5485 10.334 10.0888 9.8437 9.59859 9.32781 9.06827 8.75728 8.44651 8.13592 7.7843 7.44511 7.09631 6.74746 6.39858 6.04112 5.67789 5.26093 4.84456 4.42868 3.96714 3.57249 3.22836 2.88386 2.53906 2.24234 1.94447 1.48818 1.03189 0.575606 0