# vtk DataFile Version 2.0
track0
ASCII
DATASET POLYDATA
POINTS 10716 double
-0.0205 0.001 1e-05
-0.0204991 0.00100536 1e-05
-0.0204976 0.00101063 1e-05
-0.0204947 0.00101518 1e-05
-0.0204905 0.00101864 1e-05
-0.0204746 0.00102682 1e-05
-0.0201831 0.00105563 1e-05
-0.0203616 0.00128794 1e-05
-0.0204488 0.00141936 1e-05
-0.0201625 0.00144441 1e-05
-0.020152 0.00173164 1e-05
-0.0202219 0.00184007 1e-05
-0.0200496 0.00193025 1e-05
-0.0200809 0.00212222 1e-05
-0.0201295 0.00229098 1e-05
-0.0200088 0.00238763 1e-05
-0.0199912 0.00254122 1e-05
-0.0200041 0.00269527 1e-05
-0.0199828 0.00277425 1e-05
-0.0198691 0.00287784 1e-05
-0.0198179 0.00302291 1e-05
-0.0198055 0.00317622 1e-05
-0.01976 0.00329221 1e-05
-0.0196348 0.00340323 1e-05
-0.0195487 0.00354671 1e-05
-0.0194778 0.00369829 1e-05
-0.0193912 0.00384148 1e-05
-0.0193843 0.00384734 1e-05
-0.0193109 0.0039081 1e-05
-0.019244 0.00397599 1e-05
-0.0191791 0.00404583 1e-05
-0.0191113 0.00411281 1e-05
-0.0190172 0.00419803 1e-05
-0.0189565 0.00424689 1e-05
-0.018894 0.00429346 1e-05
-0.0188299 0.00433773 1e-05
-0.0187642 0.00437968 1e-05
-0.0186589 0.00444232 1e-05
-0.0184266 0.00456537 1e-05
-0.0181854 0.00466972 1e-05
-0.0179371 0.004756 1e-05
-0.0176828 0.00482242 1e-05
-0.0174976 0.00485399 1e-05
-0.0172058 0.00488475 1e-05
-0.0169124 0.00488652 1e-05
-0.0166199 0.00486422 1e-05
-0.0163297 0.00482106 1e-05
-0.0160387 0.00475702 1e-05
-0.0158287 0.00469408 1e-05
-0.0156224 0.00461999 1e-05
-0.0154202 0.00453513 1e-05
-0.0152209 0.00444376 1e-05
-0.0152181 0.00444232 1e-05
-0.0151021 0.00438418 1e-05
-0.0149888 0.0043208 1e-05
-0.0148788 0.00425213 1e-05
-0.014771 0.00417987 1e-05
-0.0146381 0.00408494 1e-05
-0.0145769 0.00403742 1e-05
-0.0145166 0.00398879 1e-05
-0.0144572 0.00393904 1e-05
-0.0143988 0.00388816 1e-05
-0.0143527 0.00384734 1e-05
-0.0142286 0.00373631 1e-05
-0.0141111 0.00361837 1e-05
-0.0140011 0.00349338 1e-05
-0.013897 0.0033634 1e-05
-0.0138426 0.00329221 1e-05
-0.0137655 0.00318862 1e-05
-0.0136959 0.00307983 1e-05
-0.0136326 0.00296726 1e-05
-0.0135731 0.00285262 1e-05
-0.0135359 0.00277425 1e-05
-0.0134929 0.0026776 1e-05
-0.013457 0.00257807 1e-05
-0.0134251 0.00247719 1e-05
-0.0133977 0.00237499 1e-05
-0.0133797 0.00229098 1e-05
-0.0133647 0.0022008 1e-05
-0.0133556 0.00210982 1e-05
-0.0133519 0.00201847 1e-05
-0.0133542 0.00192707 1e-05
-0.0133627 0.00184007 1e-05
-0.0133775 0.00175593 1e-05
-0.0133999 0.0016735 1e-05
-0.0134293 0.00159327 1e-05
-0.0134656 0.00151595 1e-05
-0.0135222 0.00141936 1e-05
-0.0135796 0.00134085 1e-05
-0.0136479 0.00127164 1e-05
-0.013722 0.00120863 1e-05
-0.0138006 0.00115139 1e-05
-0.0139943 0.00102682 1e-05
-0.0141231 0.000957315 1e-05
-0.0142586 0.000902189 1e-05
-0.0143974 0.000855924 1e-05
-0.0145369 0.000811706 1e-05
-0.0146381 0.000781306 1e-05
-0.0147218 0.000757158 1e-05
-0.0148059 0.000734343 1e-05
-0.0148903 0.000712655 1e-05
-0.0149752 0.000692979 1e-05
-0.0151482 0.000660566 1e-05
-0.0153263 0.000637959 1e-05
-0.0155048 0.000618781 1e-05
-0.0156835 0.000602271 1e-05
-0.0158625 0.000587758 1e-05
-0.0160387 0.000568038 1e-05
-0.0162827 0.000518199 1e-05
-0.0165304 0.000493449 1e-05
-0.0167792 0.00048238 1e-05
-0.0170281 0.000475578 1e-05
-0.0174976 0.000406376 1e-05
-0.0174976 0.000406376 1e-05
-0.0174976 0.000406376 1e-05
-0.0174976 0.000406376 1e-05
-0.0174976 0.000406376 1e-05
-0.0174976 0.000406376 1e-05
-0.0174952 0.000388869 1e-05
-0.0174898 0.000372039 1e-05
-0.0174821 0.000356129 1e-05
-0.0174727 0.000341166 1e-05
-0.0174558 0.000318841 1e-05
-0.0173838 0.000255072 1e-05
-0.0172967 0.000214396 1e-05
-0.0172047 0.0001866 1e-05
-0.0171106 0.000167057 1e-05
-0.0160387 4.41991e-06 1e-05
-0.0160288 3.53592e-06 1e-05
-0.016019 3.08405e-06 1e-05
-0.0160091 2.67369e-06 1e-05
-0.0159992 2.26333e-06 1e-05
-0.0159448 0 1e-05
-0.0205 0.00367778 1e-05
-0.0203955 0.00371169 1e-05
-0.0203045 0.00377319 1e-05
-0.0202171 0.00383975 1e-05
-0.020198 0.00384734 1e-05
-0.0199618 0.00393432 1e-05
-0.019766 0.00409247 1e-05
-0.0196202 0.00429758 1e-05
-0.0194754 0.00444232 1e-05
-0.0193837 0.00449617 1e-05
-0.0192964 0.00455669 1e-05
-0.0192132 0.00462295 1e-05
-0.0191277 0.0046861 1e-05
-0.0190172 0.00476163 1e-05
-0.0189141 0.0048253 1e-05
-0.0188084 0.00488446 1e-05
-0.0187004 0.00493916 1e-05
-0.0185902 0.00498952 1e-05
-0.0183692 0.00508 1e-05
-0.0181948 0.00513511 1e-05
-0.0180185 0.00518324 1e-05
-0.0178404 0.00522455 1e-05
-0.0176608 0.00525891 1e-05
-0.0174976 0.00528195 1e-05
-0.0172058 0.00530989 1e-05
-0.0169127 0.00531476 1e-05
-0.0166201 0.00529779 1e-05
-0.0163294 0.00526062 1e-05
-0.0160387 0.00520569 1e-05
-0.01594 0.00518055 1e-05
-0.0158418 0.0051534 1e-05
-0.0157441 0.00512434 1e-05
-0.0156469 0.00509404 1e-05
-0.0156038 0.00508 1e-05
-0.0154106 0.00501588 1e-05
-0.0152209 0.00494234 1e-05
-0.0150352 0.00485904 1e-05
-0.0148538 0.00476673 1e-05
-0.0146381 0.00464721 1e-05
-0.0145716 0.00460623 1e-05
-0.0145056 0.00456436 1e-05
-0.0144402 0.00452159 1e-05
-0.0143754 0.00447802 1e-05
-0.0143229 0.00444232 1e-05
-0.0141493 0.00432332 1e-05
-0.0139824 0.00419531 1e-05
-0.0138232 0.00405777 1e-05
-0.0136686 0.00391503 1e-05
-0.0135982 0.00384734 1e-05
-0.0135372 0.00378757 1e-05
-0.0134784 0.00372573 1e-05
-0.013421 0.00366251 1e-05
-0.0133645 0.0035985 1e-05
-0.0132934 0.00351555 1e-05
-0.0132566 0.00347088 1e-05
-0.0132203 0.00342584 1e-05
-0.0131844 0.00338043 1e-05
-0.013149 0.00333462 1e-05
-0.0131168 0.00329221 1e-05
-0.0130388 0.00318862 1e-05
-0.0129626 0.0030836 1e-05
-0.0128893 0.00297658 1e-05
-0.0128192 0.00286743 1e-05
-0.0127619 0.00277425 1e-05
-0.0127042 0.0026776 1e-05
-0.0126479 0.00258012 1e-05
-0.0125932 0.00248176 1e-05
-0.0125399 0.0023826 1e-05
-0.0124931 0.00229098 1e-05
-0.0124495 0.0022008 1e-05
-0.0124062 0.00211048 1e-05
-0.0123631 0.00202004 1e-05
-0.0123203 0.00192947 1e-05
-0.0122794 0.00184007 1e-05
-0.0122444 0.00175593 1e-05
-0.0122079 0.00167242 1e-05
-0.0121702 0.00158949 1e-05
-0.0121309 0.00150725 1e-05
-0.0120866 0.00141936 1e-05
-0.0120698 0.00138696 1e-05
-0.0120517 0.00135526 1e-05
-0.0120325 0.00132422 1e-05
-0.0120122 0.00129391 1e-05
-0.0120025 0.00128066 1e-05
-0.0119641 0.0012299 1e-05
-0.0119225 0.00118174 1e-05
-0.0118777 0.00113657 1e-05
-0.0118297 0.00109469 1e-05
-0.0117398 0.00102682 1e-05
-0.0116243 0.000953567 1e-05
-0.011501 0.000894578 1e-05
-0.0113731 0.000846356 1e-05
-0.0112423 0.000806558 1e-05
-0.0107632 0.000722009 1e-05
-0.0105252 0.000730763 1e-05
-0.0102871 0.000726529 1e-05
-0.010049 0.000724212 1e-05
-0.0098109 0.000723063 1e-05
-0.00957337 0.00072265 1e-05
-0.00934491 0.000732138 1e-05
-0.00911628 0.000728577 1e-05
-0.00888764 0.000726138 1e-05
-0.00865899 0.000724469 1e-05
-0.00843108 0.00072334 1e-05
-0.00821175 0.000732398 1e-05
-0.00799227 0.000728343 1e-05
-0.00777278 0.000725306 1e-05
-0.00755327 0.000723002 1e-05
-0.00733443 0.000721236 1e-05
-0.00712387 0.000729656 1e-05
-0.00691317 0.0007255 1e-05
-0.00670246 0.000722263 1e-05
-0.00649174 0.000719707 1e-05
-0.0062816 0.000717665 1e-05
-0.00607944 0.000725376 1e-05
-0.00587718 0.00072148 1e-05
-0.0056749 0.000718373 1e-05
-0.00547262 0.000715865 1e-05
-0.00527083 0.000713818 1e-05
-0.00507675 0.000720821 1e-05
-0.00488258 0.000717326 1e-05
-0.0046884 0.000714489 1e-05
-0.00449421 0.000712163 1e-05
-0.00430044 0.000710236 1e-05
-0.00411412 0.00071658 1e-05
-0.00392771 0.000713501 1e-05
-0.0037413 0.000710957 1e-05
-0.00355488 0.000708832 1e-05
-0.00336883 0.000707044 1e-05
-0.00318995 0.000712749 1e-05
-0.003011 0.000710002 1e-05
-0.00283204 0.000707692 1e-05
-0.00265309 0.00070573 1e-05
-0.00247443 0.00070405 1e-05
-0.0023027 0.000709119 1e-05
-0.00213091 0.000706633 1e-05
-0.00195912 0.000704444 1e-05
-0.00178732 0.000702495 1e-05
-0.00161577 0.000700744 1e-05
-0.0014509 0.000704931 1e-05
-0.001286 0.000702319 1e-05
-0.00112109 0.000699889 1e-05
-0.000956184 0.000697606 1e-05
-0.000791418 0.000695446 1e-05
-0.000633135 0.000698226 1e-05
-0.000474852 0.000695403 1e-05
-0.000316564 0.000692851 1e-05
-0.000158273 0.00069052 1e-05
0 0.000688371 1e-05
0.000105677 0.00068958 1e-05
0.000211355 0.000688353 1e-05
0.000317035 0.000687421 1e-05
0.000422717 0.000686748 1e-05
0.000528387 0.000686306 1e-05
0.000634886 0.000687922 1e-05
0.000741397 0.000688184 1e-05
0.000847906 0.000688891 1e-05
0.000954412 0.000689997 1e-05
0.00106088 0.00069146 1e-05
0.00116821 0.00069491 1e-05
0.00127556 0.000697605 1e-05
0.00138289 0.000700858 1e-05
0.00149021 0.000704623 1e-05
0.00159752 0.000708858 1e-05
0.00170568 0.000715437 1e-05
0.00181387 0.000721464 1e-05
0.00192203 0.000728081 1e-05
0.00203016 0.000735259 1e-05
0.00213833 0.000742978 1e-05
0.00224733 0.000753328 1e-05
0.00235636 0.000763376 1e-05
0.00246534 0.000773981 1e-05
0.00257426 0.000785138 1e-05
0.00268334 0.000797324 1e-05
0.00279319 0.000811509 1e-05
0.002903 0.000825978 1e-05
0.00301277 0.000840752 1e-05
0.00312247 0.000856089 1e-05
0.00323259 0.00087264 1e-05
0.00334329 0.000890487 1e-05
0.00345394 0.000908698 1e-05
0.00356452 0.000927256 1e-05
0.00367501 0.000946379 1e-05
0.00378611 0.000966335 1e-05
0.00389767 0.000987188 1e-05
0.00400922 0.00100811 1e-05
0.00412072 0.0010293 1e-05
0.00423217 0.00105079 1e-05
0.00434393 0.00107267 1e-05
0.00434811 0.0010735 1e-05
0.00435229 0.00107433 1e-05
0.00435647 0.00107516 1e-05
0.00436066 0.00107599 1e-05
0.00436485 0.00107682 1e-05
0.0044731 0.00109832 1e-05
0.00458133 0.00111991 1e-05
0.00468953 0.00114161 1e-05
0.00479772 0.00116341 1e-05
0.00490609 0.00118534 1e-05
0.0050194 0.00120771 1e-05
0.00513264 0.00123037 1e-05
0.00524586 0.00125321 1e-05
0.00535908 0.00127599 1e-05
0.00547262 0.00129825 1e-05
0.00558681 0.00132004 1e-05
0.00570097 0.00134198 1e-05
0.0058151 0.00136406 1e-05
0.00592927 0.00138591 1e-05
0.00604356 0.00140736 1e-05
0.00615863 0.00142841 1e-05
0.00627369 0.00144957 1e-05
0.00638878 0.00147053 1e-05
0.0065039 0.00149128 1e-05
0.00661893 0.0015118 1e-05
0.00662766 0.00151334 1e-05
0.0066364 0.00151488 1e-05
0.00664513 0.00151642 1e-05
0.00665386 0.00151796 1e-05
[...]
POINT_DATA 10716
 FIELD attributes 1
U 3 10716 float
1.13295 	6.39889 	0 1.59182 	5.9793 	0 3.06058 	4.65994 	0 4.29061 	3.52878 	0 5.18147 	2.68005 	0 7.15387 	0.707135 	0 -4.22601 	5.50223 	0 -5.18535 	7.81098 	0 7.56516 	0.66191 	0 0.170519 	4.66745 	0 -9.04739 	14.0258 	0 5.93261 	3.10458 	0 -2.52817 	15.5177 	0 -6.41904 	22.2979 	0 7.16726 	5.74136 	0 1.97819 	17.2226 	0 -2.24824 	26.6788 	0 4.2924 	15.8527 	0 9.07755 	8.27066 	0 6.22463 	17.6674 	0 2.39091 	29.3781 	0 7.48887 	19.1172 	0 11.9519 	10.5978 	0 10.9781 	18.2873 	0 10.8636 	23.2184 	0 12.8638 	21.2683 	0 16.083 	13.7055 	0 16.2317 	13.4329 	0 16.3922 	16.633 	0 16.8097 	18.1051 	0 17.5796 	17.3647 	0 18.3622 	16.6225 	0 19.4197 	15.6331 	0 20.1851 	15.05 	0 20.9589 	14.4695 	0 21.7401 	13.8923 	0 22.0853 	13.1293 	0 22.0692 	11.6921 	0 24.2731 	10.499 	0 26.3571 	9.16006 	0 27.0774 	7.0715 	0 27.2321 	4.64295 	0 27.359 	2.8835 	0 28.0785 	0.169541 	0 28.3314 	-2.15986 	0 28.2585 	-4.20181 	0 27.207 	-5.9886 	0 25.8129 	-7.73659 	0 25.202 	-9.049 	0 24.5594 	-10.311 	0 23.3476 	-10.7055 	0 22.1255 	-11.076 	0 22.1075 	-11.081 	0 21.4815 	-12.0234 	0 20.8587 	-13.0114 	0 20.0224 	-13.4243 	0 19.1154 	-13.655 	0 17.972 	-13.9583 	0 17.5329 	-14.1366 	0 17.0924 	-14.3181 	0 16.6506 	-14.5029 	0 16.3166 	-14.4513 	0 16.0666 	-14.3765 	0 14.8111 	-14.863 	0 13.5137 	-15.3571 	0 12.3255 	-15.3966 	0 11.4527 	-14.9743 	0 10.9787 	-14.7468 	0 9.65131 	-15.0827 	0 8.54179 	-15.194 	0 7.76784 	-14.9725 	0 6.95473 	-14.6559 	0 6.36235 	-14.2898 	0 5.15422 	-14.2835 	0 4.40947 	-13.9467 	0 3.64268 	-13.62 	0 2.85268 	-13.3054 	0 2.16337 	-12.9668 	0 1.2563 	-12.6065 	0 0.495835 	-12.1962 	0 -0.295221 	-11.8 	0 -1.11726 	-11.4211 	0 -1.93813 	-11.0386 	0 -2.87191 	-10.5415 	0 -3.68495 	-10.0781 	0 -4.53302 	-9.64388 	0 -5.41135 	-9.24378 	0 -6.42199 	-8.78119 	0 -8.007 	-8.10996 	0 -8.97664 	-7.63249 	0 -9.92687 	-7.22725 	0 -10.7183 	-6.89247 	0 -11.6255 	-6.27579 	0 -13.1428 	-5.34588 	0 -14.0346 	-4.67794 	0 -13.1739 	-4.17684 	0 -12.3556 	-3.71173 	0 -11.7964 	-3.40276 	0 -12.3971 	-3.36367 	0 -13.0299 	-3.34878 	0 -13.8472 	-3.21004 	0 -15.0301 	-2.81587 	0 -17.5118 	-2.22274 	0 -18.2194 	-1.95741 	0 -19.26 	-1.77873 	0 -20.5588 	-1.66741 	0 -19.9017 	-2.22737 	0 -16.3349 	-3.33694 	0 -24.4795 	-2.44523 	0 -37.0777 	-1.64967 	0 -49.4854 	-1.35228 	0 -35.4155 	-5.22069 	0 1.79647 	-13.084 	0 1.79647 	-13.084 	0 1.79647 	-13.084 	0 1.79647 	-13.084 	0 1.79647 	-13.084 	0 1.79647 	-13.084 	0 4.20153 	-13.1219 	0 6.33549 	-13.1087 	0 8.20278 	-13.0545 	0 9.83329 	-12.9685 	0 14.8274 	-13.1462 	0 23.0765 	-10.778 	0 30.002 	-9.06338 	0 38.0101 	-7.89291 	0 46.6056 	-7.07115 	0 0.351373 	-0.0315589 	0 1.1793 	-0.053984 	0 1.48154 	-0.0615766 	0 1.28441 	-0.0533833 	0 1.08728 	-0.0451901 	0 0 	0 	0
9.83287 	3.19169 	0 9.65826 	6.52628 	0 10.0776 	7.67691 	0 11.8155 	4.68195 	0 12.0607 	4.44205 	0 12.9622 	10.4709 	0 13.4038 	18.8513 	0 15.3408 	15.3328 	0 17.3392 	10.1887 	0 17.8521 	12.3651 	0 18.3293 	14.6116 	0 18.9076 	13.9623 	0 19.5034 	13.3228 	0 20.2749 	12.5306 	0 21.1498 	11.8372 	0 22.0483 	11.1609 	0 22.968 	10.5022 	0 23.0557 	9.43545 	0 23.183 	7.32904 	0 24.2105 	6.60693 	0 25.2182 	5.84977 	0 26.0679 	4.9886 	0 26.0997 	3.68267 	0 26.1692 	2.50575 	0 26.7798 	0.445293 	0 27.5079 	-1.59516 	0 27.2132 	-3.47898 	0 26.2678 	-4.9644 	0 25.3076 	-6.44393 	0 25.143 	-6.95127 	0 24.9588 	-7.4301 	0 24.5366 	-7.64288 	0 24.1162 	-7.85279 	0 23.9298 	-7.94492 	0 23.2913 	-9.02637 	0 22.6973 	-10.183 	0 22.0107 	-11.203 	0 20.8972 	-11.5768 	0 19.5691 	-12.0568 	0 19.26 	-12.2271 	0 18.953 	-12.4004 	0 18.6596 	-12.5369 	0 18.4141 	-12.5119 	0 18.2154 	-12.4921 	0 17.0567 	-13.0773 	0 15.8903 	-13.726 	0 14.9591 	-13.8155 	0 14.1058 	-13.5619 	0 13.7102 	-13.4452 	0 13.0525 	-13.7144 	0 12.5242 	-13.806 	0 12.1176 	-13.7308 	0 11.7089 	-13.6593 	0 11.1832 	-13.5729 	0 10.9373 	-13.5525 	0 10.69 	-13.5337 	0 10.4414 	-13.5167 	0 10.2241 	-13.4735 	0 10.0864 	-13.3812 	0 9.60571 	-13.2461 	0 8.93243 	-13.0368 	0 8.24285 	-12.8346 	0 7.69674 	-12.5149 	0 7.28366 	-12.2055 	0 6.89748 	-11.9475 	0 6.50521 	-11.6931 	0 6.08759 	-11.3325 	0 5.5499 	-10.8627 	0 5.04515 	-10.4356 	0 4.82107 	-10.0495 	0 4.59933 	-9.66248 	0 4.38247 	-9.27365 	0 4.06069 	-8.85601 	0 3.48109 	-8.37475 	0 3.47532 	-7.95598 	0 3.39707 	-7.46439 	0 3.32647 	-6.972 	0 3.26496 	-6.47881 	0 3.05366 	-5.88122 	0 3.22621 	-5.65291 	0 3.37301 	-5.45289 	0 3.52592 	-5.25457 	0 3.68503 	-5.05832 	0 3.75924 	-4.97132 	0 3.98314 	-4.6072 	0 4.21825 	-4.24943 	0 4.46408 	-3.89999 	0 4.71975 	-3.56088 	0 5.30184 	-3.36458 	0 6.46577 	-3.09272 	0 7.54881 	-2.84563 	0 8.57387 	-2.60904 	0 10.2292 	-1.80513 	0 15.2617 	0.561459 	0 15.3232 	-0.272517 	0 16.1357 	-0.156983 	0 16.9015 	-0.0815973 	0 17.6389 	-0.030644 	0 18.8701 	0.783728 	0 18.7362 	-0.291871 	0 19.2698 	-0.205548 	0 19.7786 	-0.14437 	0 20.2703 	-0.100436 	0 21.1831 	0.874873 	0 20.9505 	-0.387076 	0 21.3451 	-0.295343 	0 21.7184 	-0.227973 	0 22.0765 	-0.178146 	0 22.7908 	0.911393 	0 22.5258 	-0.444392 	0 22.8406 	-0.3509 	0 23.1368 	-0.280616 	0 23.4194 	-0.227531 	0 24.0086 	0.915756 	0 23.7309 	-0.457098 	0 23.9908 	-0.368469 	0 24.235 	-0.300512 	0 24.4673 	-0.248228 	0 24.978 	0.901369 	0 24.6912 	-0.444531 	0 24.9105 	-0.363876 	0 25.1166 	-0.300927 	0 25.3125 	-0.25167 	0 25.774 	0.877492 	0 25.481 	-0.420803 	0 25.6677 	-0.350361 	0 25.8436 	-0.294482 	0 26.0109 	-0.25007 	0 26.4376 	0.843229 	0 26.1405 	-0.401216 	0 26.3141 	-0.33974 	0 26.4786 	-0.290299 	0 26.6358 	-0.250474 	0 27.0524 	0.79858 	0 26.7595 	-0.387259 	0 26.9326 	-0.343239 	0 27.0992 	-0.307432 	0 27.2606 	-0.27828 	0 27.6775 	0.702856 	0 27.3902 	-0.433701 	0 27.6127 	-0.406952 	0 27.8309 	-0.385276 	0 28.0456 	-0.367737 	0 28.5045 	0.50062 	0 28.1867 	-0.502655 	-1.15962e-20 28.455 	-0.458852 	-3.63827e-20 28.7155 	-0.42287 	-6.10818e-20 28.9695 	-0.393296 	-8.57093e-20 29.4844 	0.337347 	-1.04921e-19 29.2423 	-0.339428 	-1.99386e-19 29.4817 	-0.260102 	-1.68722e-19 29.7112 	-0.189089 	-1.39133e-19 29.9319 	-0.125415 	-1.10496e-19 30.4072 	0.461603 	-1.26605e-20 30.2995 	0.0743006 	-2.39799e-20 30.5558 	0.202837 	-1.78008e-20 30.796 	0.319789 	-1.21393e-20 31.0217 	0.426373 	-6.94105e-21 31.516 	1.01297 	8.63247e-21 31.4675 	0.790273 	-2.4796e-21 31.6932 	0.960472 	-3.72536e-20 31.8995 	1.11893 	-7.18291e-20 32.088 	1.2666 	-1.06221e-19 32.6158 	1.98381 	-1.38166e-19 32.5572 	1.81361 	-1.08934e-19 32.6528 	1.99762 	-8.39119e-20 32.7315 	2.17297 	-5.85893e-20 32.7939 	2.34008 	-3.2982e-20 33.1943 	3.15179 	-7.94435e-20 33.3865 	3.07688 	-1.60105e-19 33.3096 	3.2415 	-1.63412e-19 33.2205 	3.40274 	-1.6727e-19 33.127 	3.70083 	-1.35001e-19 33.0259 	4.2648 	-3.26745e-20 33.5182 	4.41623 	-1.17766e-20 33.9171 	4.56499 	3.69317e-21 33.6833 	4.70948 	-1.67348e-20 33.0652 	4.96952 	-3.06066e-20 32.4306 	5.22842 	-4.42409e-20 33.1637 	5.45836 	-1.99206e-19 33.8918 	5.6875 	-3.53994e-19 33.8948 	5.86623 	-3.31264e-19 33.0995 	5.94588 	-2.03361e-19 32.112 	6.00211 	-5.16343e-20 33.0629 	6.19984 	3.27255e-19 33.0357 	6.27969 	3.22726e-19 32.914 	6.34814 	2.81714e-19 32.7875 	6.41602 	2.39468e-19 32.5852 	6.47422 	1.78812e-19 32.6269 	6.47774 	1.77237e-19 32.6253 	6.47761 	1.79619e-19 32.6201 	6.47717 	1.82335e-19 32.6149 	6.47673 	1.8505e-19 32.6097 	6.47628 	1.87773e-19 32.5121 	6.48779 	2.42168e-19 32.4137 	6.49937 	2.96624e-19 32.3143 	6.51102 	3.51143e-19 32.2051 	6.51582 	4.00286e-19 31.7759 	6.27347 	2.55127e-19 32.1275 	6.43013 	3.87712e-19 32.33 	6.52336 	4.7677e-19 32.217 	6.48038 	4.71729e-19 31.6325 	6.2029 	2.63934e-19 31.0518 	5.92519 	5.61843e-20 31.4624 	6.04661 	1.0548e-20 31.8602 	6.16355 	-3.4233e-20 31.6994 	6.06718 	-2.88646e-20 31.2196 	5.85973 	-3.92216e-20 30.5578 	5.58824 	-5.85874e-20 31.0128 	5.70372 	-4.66861e-20 30.8457 	5.61709 	-3.47463e-20 30.678 	5.52982 	-2.27632e-20 30.5129 	5.44299 	-1.07362e-20 30.2917 	5.33932 	0 30.3244 	5.34753 	7.59938e-23 30.3117 	5.34245 	9.79592e-22 30.299 	5.33738 	1.88311e-21 30.2863 	5.3323 	2.78654e-21 30.2736 	5.32722 	3.6912e-21 30.1355 	5.26406 	1.08492e-20 29.9988 	5.20112 	1.8024e-20 29.8634 	5.1384 	2.52159e-20 29.7294 	5.07591 	3.24248e-20 29.5095 	5.07214 	1.61013e-20 29.5557 	5.00735 	-4.30767e-20 29.4488 	4.95769 	-7.75624e-20 29.3045 	4.91181 	-1.0593e-19 29.0626 	4.90262 	-9.29864e-20 28.7632 	4.91458 	-5.61908e-20 28.8424 	4.88102 	2.70268e-20 28.9235 	4.84758 	1.10307e-19 28.793 	4.83868 	1.21075e-19 28.4574 	4.85631 	6.24687e-20 28.1199 	4.87377 	4.0463e-21 28.2171 	4.86857 	1.05633e-19 28.248 	4.87162 	1.742e-19 28.1262 	4.89335 	1.67664e-19 27.9346 	4.91476 	1.42468e-19 27.5669 	4.93541 	6.97849e-20 27.6384 	4.95413 	5.78614e-20 27.507 	4.98169 	5.52155e-20 27.3737 	5.00922 	5.26325e-20 27.2384 	5.03672 	5.01134e-20 27.111 	5.06224 	4.78331e-20 27.1031 	5.06396 	4.79048e-20 27.0953 	5.06567 	4.79769e-20 27.0874 	5.06739 	4.80494e-20 27.0796 	5.0691 	4.81223e-20 27.071 	5.06749 	4.34331e-20 26.9387 	5.10284 	2.93368e-20 26.7975 	5.13394 	1.35578e-20 26.6543 	5.16504 	-2.22276e-21 26.5093 	5.19613 	-1.8005e-20 26.3359 	5.17795 	8.84403e-21 26.2761 	5.25335 	-5.81061e-21 26.1632 	5.30354 	-1.90933e-20 26.004 	5.33179 	-3.11871e-20 25.8057 	5.31953 	-1.93866e-20 25.5989 	5.29997 	-3.21434e-21 25.5343 	5.36538 	-1.50501e-19 25.4672 	5.43068 	-2.97486e-19 25.3469 	5.45857 	-3.1025e-19 25.1106 	5.4322 	-1.63821e-19 24.8723 	5.40569 	-1.65868e-20 24.8063 	5.45927 	3.03786e-20 24.673 	5.47544 	3.62008e-20 24.5207 	5.48154 	3.0985e-20 24.3672 	5.48757 	2.57333e-20 24.1757 	5.47902 	1.5058e-20 24.1623 	5.48553 	1.46059e-20 24.1313 	5.48418 	1.41565e-20 24.0998 	5.48258 	1.37073e-20 24.0683 	5.48099 	1.32584e-20 24.0371 	5.47942 	1.28159e-20 23.9141 	5.47709 	9.62346e-21 23.7905 	5.47477 	6.4285e-21 23.6663 	5.47246 	3.23098e-21 23.5416 	5.47017 	3.08455e-23 23.4178 	5.44354 	4.5214e-20 23.2967 	5.45876 	1.14374e-20 23.1498 	5.4528 	0 22.9894 	5.43602 	0 22.8257 	5.39339 	4.63413e-20 22.6609 	5.34451 	1.03795e-19 22.5236 	5.33333 	6.98135e-20 22.3859 	5.32217 	3.58908e-20 22.249 	5.29193 	-1.51644e-20 22.0965 	5.24221 	-3.6147e-20 21.9432 	5.19148 	-5.51426e-20 21.7886 	5.14813 	2.0182e-19 21.6514 	5.10223 	1.78913e-19 21.5175 	5.05585 	1.06509e-19 21.384 	5.00947 	3.43275e-20 21.2555 	4.96571 	-7.76545e-20 21.2337 	4.95609 	-8.16674e-20 21.2174 	4.94904 	-9.61267e-20 21.2012 	4.942 	-1.10678e-19 21.1849 	4.93496 	-1.25227e-19 21.1685 	4.92787 	-1.39892e-19 21.0661 	4.88306 	-1.83984e-19 20.9641 	4.83823 	-2.28195e-19 20.8625 	4.79339 	-2.72528e-19 20.7614 	4.74854 	-3.16985e-19 20.7037 	4.69667 	-3.79275e-19 20.5271 	4.61468 	-6.90479e-19 20.407 	4.55223 	-8.29965e-19 20.3133 	4.49881 	-8.90271e-19 20.2821 	4.45629 	-6.86762e-19 20.272 	4.4175 	-3.98422e-19 20.0847 	4.3097 	-6.71481e-19 19.8991 	4.20194 	-9.44938e-19 19.8206 	4.13503 	-9.156e-19 19.8753 	4.12571 	-5.5071e-19 19.9303 	4.11652 	-1.8792e-19 19.7641 	4.00256 	-6.00495e-19 19.661 	3.91465 	-8.03504e-19 19.6164 	3.85093 	-8.11725e-19 19.5731 	3.78728 	-8.20942e-19 19.6766 	3.79908 	-5.48874e-19 19.6051 	3.72727 	-7.41232e-19 19.5958 	3.68334 	-7.23806e-19 19.5876 	3.63958 	-7.0682e-19 19.5806 	3.59598 	-6.90275e-19 19.5739 	3.54587 	-6.71691e-19 19.5725 	3.53759 	-6.68033e-19 19.5711 	3.52932 	-6.64391e-19 19.5697 	3.52105 	-6.60768e-19 19.5684 	3.51279 	-6.57161e-19 19.5798 	3.5098 	-6.57882e-19 19.5736 	3.4528 	-7.39023e-19 19.597 	3.40956 	-7.43851e-19 19.6224 	3.36679 	-7.47677e-19 19.6498 	3.32447 	-7.50506e-19 19.7887 	3.3328 	-3.17259e-19 19.6678 	3.21664 	-2.33952e-19 19.7095 	3.17715 	-1.51147e-19 19.7704 	3.14634 	-6.85595e-20 19.8914 	3.14309 	2.0992e-20 20.0807 	3.17172 	1.18334e-19 20.0262 	3.08498 	-5.60207e-19 19.9829 	3.00258 	-1.2077e-18 20.0746 	2.98074 	-1.29846e-18 20.252 	2.99811 	-6.54714e-19 20.4291 	3.0155 	-1.40055e-20 20.4515 	2.95987 	5.13527e-21 20.4765 	2.9049 	2.36719e-20 20.5501 	2.87167 	-9.65075e-20 20.6864 	2.86506 	-2.91704e-19 20.8233 	2.85878 	-4.86237e-19 20.919 	2.82842 	-3.5947e-19 21.0134 	2.79805 	-2.96308e-19 21.0964 	2.76598 	-4.94657e-19 21.1778 	2.73147 	-7.19391e-19 21.2588 	2.69579 	-9.59235e-19 21.4143 	2.68004 	-7.0254e-19 21.5238 	2.65104 	-5.91943e-19 21.615 	2.61675 	-5.42935e-19 21.7069 	2.58239 	-4.97703e-19 21.7283 	2.51883 	-6.81209e-19 21.9097 	2.50297 	-5.60149e-19 21.9998 	2.46211 	-5.86897e-19 22.0924 	2.42186 	-6.12786e-19 22.1874 	2.38221 	-6.37827e-19 22.2192 	2.3193 	-7.38167e-19 22.3637 	2.2848 	-7.53016e-19 22.4495 	2.23544 	-8.8488e-19 22.538 	2.18671 	-1.01554e-18 22.6293 	2.13859 	-1.145e-18 22.7112 	2.08726 	-1.28324e-18 22.7346 	2.07886 	-1.28953e-18 22.7482 	2.06822 	-1.25478e-18 22.7618 	2.0576 	-1.22008e-18 22.7755 	2.047 	-1.18541e-18 22.7905 	2.03553 	-1.14788e-18 22.8575 	1.98858 	-9.93526e-19 22.9264 	1.942 	-8.39862e-19 22.9971 	1.89576 	-6.86885e-19 23.0697 	1.84987 	-5.34589e-19 23.1387 	1.80474 	-3.48071e-19 23.2232 	1.74382 	-3.39694e-19 23.2949 	1.67674 	-2.31713e-19 23.3695 	1.61015 	-1.23989e-19 23.4469 	1.54405 	-1.65187e-20 23.5038 	1.47572 	2.29567e-19 23.6069 	1.41561 	8.41679e-19 23.6675 	1.3398 	1.00131e-18 23.7311 	1.26443 	1.15601e-18 23.7977 	1.18949 	1.3058e-18 23.8225 	1.10854 	6.6912e-19 23.9422 	1.04798 	3.81178e-19 23.9921 	0.964981 	1.31345e-19 24.0451 	0.882343 	-1.18512e-19 24.101 	0.800062 	-3.6839e-19 24.0994 	0.709508 	-5.35508e-19 24.2245 	0.645956 	-5.56833e-19 24.2642 	0.557722 	-8.47789e-19 24.3067 	0.469766 	-1.14094e-18 24.3522 	0.382087 	-1.43627e-18 24.3366 	0.285899 	-1.80181e-18 24.4499 	0.216535 	-2.34569e-18 24.4806 	0.125647 	-2.0977e-18 24.5143 	0.0349602 	-1.84608e-18 24.5508 	-0.0555245 	-1.59085e-18 24.5393 	-0.152038 	-9.23693e-19 24.6258 	-0.22858 	-5.57833e-19 24.6494 	-0.320192 	-1.93179e-19 24.6757 	-0.411676 	1.71441e-19 24.7047 	-0.50303 	5.3602e-19 24.7122 	-0.596864 	7.70093e-19 24.7524 	-0.655173 	1.09389e-18 24.7635 	-0.720092 	1.04628e-18 24.776 	-0.784981 	9.9639e-19 24.7898 	-0.849841 	9.44225e-19 24.7991 	-0.889841 	9.10638e-19 24.808 	-0.920974 	9.02046e-19 24.8172 	-0.952101 	8.93272e-19 24.8267 	-0.983223 	8.84317e-19 24.8365 	-1.01434 	8.75181e-19 24.8157 	-1.04904 	9.11085e-19 24.8542 	-1.13775 	3.75421e-19 24.8677 	-1.22744 	-1.95717e-19 24.884 	-1.31715 	-7.65802e-19 24.9029 	-1.40689 	-1.33483e-18 24.7951 	-1.50977 	-1.58305e-18 24.9158 	-1.59429 	-1.72454e-18 24.9252 	-1.6824 	-1.86958e-18 24.9372 	-1.77059 	-2.0114e-18 24.9384 	-1.86006 	-2.13195e-18 24.7335 	-1.9686 	-1.96511e-18 24.886 	-2.04975 	-1.8463e-18 24.9484 	-2.13475 	-1.39627e-18 24.9585 	-2.22207 	-7.4936e-19 24.8386 	-2.32084 	-3.72881e-19 24.6474 	-2.42636 	-1.45411e-19 24.7812 	-2.50605 	-1.608e-18 24.9162 	-2.58588 	-3.07001e-18 24.8997 	-2.6762 	-2.98287e-18 24.7257 	-2.77928 	-1.5337e-18 24.5535 	-2.88297 	-8.29263e-20 24.6728 	-2.96198 	-1.44513e-19 24.787 	-3.04167 	-1.99091e-19 24.7398 	-3.13502 	-4.34969e-20 24.6171 	-3.23456 	-1.04089e-19 24.466 	-3.33706 	-2.48383e-19 24.5759 	-3.41717 	-3.42768e-20 24.5583 	-3.50724 	2.511e-19 24.5175 	-3.59945 	5.50907e-19 24.478 	-3.69193 	8.51747e-19 24.3979 	-3.78836 	1.09083e-18 24.4275 	-3.81479 	1.11092e-18 24.4163 	-3.84358 	1.23948e-18 24.4052 	-3.87239 	1.36837e-18 24.3943 	-3.90124 	1.49759e-18 24.3841 	-3.92845 	1.61971e-18 24.3625 	-3.99177 	1.98824e-18 24.3414 	-4.05522 	2.35956e-18 24.321 	-4.1188 	2.73369e-18 24.3012 	-4.18253 	3.11062e-18 24.184 	-4.24293 	2.00427e-18 24.2467 	-4.33594 	3.3274e-18 24.2354 	-4.4267 	3.31714e-18 24.2123 	-4.5173 	3.08116e-18 24.0944 	-4.6039 	1.54961e-18 23.9387 	-4.68968 	-5.06211e-19 24.001 	-4.78166 	-2.14887e-18 24.064 	-4.87385 	-3.78969e-18 24.0236 	-4.9603 	-3.62307e-18 23.889 	-5.04107 	-2.13505e-18 23.7466 	-5.12221 	-5.35307e-19 23.8002 	-5.19889 	-6.41037e-20 23.7691 	-5.26908 	-9.9513e-20 23.7188 	-5.33791 	-2.51104e-19 23.6689 	-5.40691 	-4.03043e-19 23.625 	-5.46808 	-5.37742e-19 23.6159 	-5.48221 	-5.53712e-19 23.6068 	-5.49635 	-5.69661e-19 23.5977 	-5.51049 	-5.85588e-19 23.5836 	-5.52395 	-6.00483e-19 23.5575 	-5.53572 	-6.12901e-19 23.5336 	-5.61852 	-1.15315e-18 23.4809 	-5.69663 	-1.43499e-18 23.4288 	-5.77504 	-1.72061e-18 23.324 	-5.84539 	-1.62029e-18 23.1708 	-5.90915 	-1.17273e-18 23.1816 	-5.99137 	-2.59971e-18 23.1925 	-6.0738 	-4.02659e-18 23.1132 	-6.14057 	-3.78881e-18 22.9888 	-6.19867 	-2.77689e-18 22.8379 	-6.25231 	-1.32507e-18 22.842 	-6.28648 	-1.35523e-18 22.8198 	-6.31557 	-1.3133e-18 22.7767 	-6.34068 	-1.21483e-18 22.7337 	-6.36584 	-1.11681e-18 22.6928 	-6.38986 	-1.0238e-18 22.6471 	-6.42297 	-7.39489e-19 22.6015 	-6.45617 	-4.54729e-19 22.5559 	-6.48946 	-1.69524e-19 22.4898 	-6.51706 	-1.33087e-19 22.4041 	-6.53947 	-3.29527e-19 22.362 	-6.60203 	-2.20227e-18 22.3198 	-6.66481 	-4.07448e-18 22.2126 	-6.7084 	-3.98535e-18 22.0514 	-6.73602 	-1.75528e-18 21.8888 	-6.76421 	4.93913e-19 21.8597 	-6.79571 	1.74966e-18 21.8109 	-6.82119 	2.48671e-18 21.7323 	-6.83751 	2.44017e-18 21.6537 	-6.85391 	2.39152e-18 21.5789 	-6.86957 	2.34329e-18 21.5382 	-6.88263 	2.59106e-18 21.4975 	-6.89573 	2.83899e-18 21.4568 	-6.90887 	3.08708e-18 21.4037 	-6.91627 	3.00717e-18 21.3447 	-6.92101 	2.77261e-18 21.2581 	-6.95292 	2.80301e-18 21.1673 	-6.98347 	2.79362e-18 21.0365 	-6.99758 	2.4228e-18 20.8688 	-6.9948 	1.73415e-18 20.6997 	-6.99223 	1.03935e-18 20.651 	-7.00054 	1.28982e-18 20.5945 	-7.00544 	1.40985e-18 20.5162 	-7.00068 	1.16433e-18 20.4378 	-6.99598 	9.18131e-19 20.3615 	-6.99145 	6.78356e-19 20.301 	-6.99338 	3.34017e-19 20.2404 	-6.99537 	-1.12917e-20 20.1797 	-6.99741 	-3.57578e-19 20.1073 	-6.99108 	-8.44873e-20 20.0318 	-6.98269 	3.42423e-19 19.9144 	-6.97848 	1.3154e-18 19.7968 	-6.97443 	2.28698e-18 19.6572 	-6.95638 	2.26847e-18 19.4878 	-6.92232 	1.14187e-18 19.3175 	-6.88821 	9.56307e-21 19.283 	-6.88203 	-3.18585e-19 19.2469 	-6.87487 	-5.62375e-19 19.2019 	-6.86265 	-3.72077e-19 19.157 	-6.85043 	-1.81689e-19 19.1123 	-6.8383 	7.53176e-21 19.0084 	-6.8176 	4.74492e-19 18.9043 	-6.79696 	9.42419e-19 18.8002 	-6.77639 	1.41133e-18 18.6835 	-6.74347 	9.55041e-19 18.5648 	-6.7089 	3.78052e-19 18.4375 	-6.67235 	3.10223e-19 18.3078 	-6.63397 	2.43114e-19 18.1601 	-6.58091 	1.80653e-19 18.0125 	-6.52786 	1.18198e-19 17.866 	-6.47525 	5.62764e-20 17.8575 	-6.47273 	4.06673e-20 17.8489 	-6.47022 	2.5058e-20 17.8404 	-6.4677 	9.44821e-21 17.8313 	-6.46431 	1.37729e-20 17.8221 	-6.46086 	1.9552e-20 17.6728 	-6.40389 	4.2173e-19 17.5201 	-6.34506 	7.46152e-19 17.367 	-6.28565 	1.04202e-18 17.2018 	-6.21204 	6.29387e-19 17.0369 	-6.13842 	2.16895e-19 16.9604 	-6.1026 	2.02711e-19 16.8834 	-6.06622 	1.92687e-19 16.7999 	-6.02371 	2.29893e-19 16.7165 	-5.98117 	2.67024e-19 16.632 	-5.93799 	3.04597e-19 16.5612 	-5.90493 	2.65599e-19 16.4903 	-5.87185 	2.26641e-19 16.4196 	-5.83874 	1.87724e-19 16.346 	-5.80046 	1.73296e-19 16.2725 	-5.7619 	1.60368e-19 16.126 	-5.68336 	7.75583e-20 15.9799 	-5.60466 	-5.03564e-21 15.8286 	-5.51795 	-4.2918e-20 15.676 	-5.42903 	-6.95456e-20 15.5205 	-5.33836 	-8.66678e-20 15.5005 	-5.32609 	-9.87117e-20 15.4803 	-5.3137 	-1.09927e-19 15.4593 	-5.30036 	-1.14222e-19 15.4383 	-5.28701 	-1.18512e-19 15.4171 	-5.27354 	-1.22839e-19 15.29 	-5.19607 	-2.01292e-19 15.1633 	-5.1184 	-2.79288e-19 15.037 	-5.04054 	-3.56815e-19 14.9064 	-4.95775 	-2.19028e-19 14.7767 	-4.87484 	-6.06105e-20 14.6665 	-4.7996 	-2.88985e-20 14.5561 	-4.72371 	-1.3822e-21 14.4424 	-4.64458 	-1.1496e-21 14.3291 	-4.56524 	-9.13816e-22 14.2075 	-4.4794 	-6.55879e-22 14.182 	-4.46076 	-4.54615e-22 14.1566 	-4.44212 	-2.53476e-22 14.1312 	-4.42346 	-5.24623e-23 14.1051 	-4.40434 	0 14.0789 	-4.3851 	0 13.9514 	-4.28355 	0 13.8208 	-4.18149 	-2.34666e-22 13.6905 	-4.07895 	-8.88927e-22 13.557 	-3.97437 	-1.02102e-20 13.4262 	-3.8707 	-1.93818e-20 13.3321 	-3.7884 	8.57907e-20 13.2376 	-3.70571 	1.282e-19 13.1421 	-3.62254 	5.90064e-20 13.0473 	-3.53909 	-9.35291e-21 12.9395 	-3.44304 	-8.67695e-20 12.9189 	-3.42374 	-1.00906e-19 12.8983 	-3.40442 	-1.14999e-19 12.8777 	-3.38509 	-1.29047e-19 12.8571