# vtk DataFile Version 2.0
track0
ASCII
DATASET POLYDATA
POINTS 10716 double
-0.0205 0.001 1e-05
-0.0204991 0.00100536 1e-05
-0.0204976 0.00101063 1e-05
-0.0204947 0.00101518 1e-05
-0.0204905 0.00101864 1e-05
-0.0204746 0.00102682 1e-05
-0.0201831 0.00105563 1e-05
-0.0203616 0.00128794 1e-05
-0.0204488 0.00141936 1e-05
-0.0201625 0.00144441 1e-05
-0.020152 0.00173164 1e-05
-0.0202219 0.00184007 1e-05
-0.0200496 0.00193025 1e-05
-0.0200809 0.00212222 1e-05
-0.0201295 0.00229098 1e-05
-0.0200088 0.00238763 1e-05
-0.0199912 0.00254122 1e-05
-0.0200041 0.00269527 1e-05
-0.0199828 0.00277425 1e-05
-0.0198691 0.00287784 1e-05
-0.0198179 0.00302291 1e-05
-0.0198055 0.00317622 1e-05
-0.01976 0.00329221 1e-05
-0.0196348 0.00340323 1e-05
-0.0195487 0.00354671 1e-05
-0.0194778 0.00369829 1e-05
-0.0193912 0.00384148 1e-05
-0.0193843 0.00384734 1e-05
-0.0193109 0.0039081 1e-05
-0.019244 0.00397599 1e-05
-0.0191791 0.00404583 1e-05
-0.0191113 0.00411281 1e-05
-0.0190172 0.00419803 1e-05
-0.0189565 0.00424689 1e-05
-0.018894 0.00429346 1e-05
-0.0188299 0.00433773 1e-05
-0.0187642 0.00437968 1e-05
-0.0186589 0.00444232 1e-05
-0.0184266 0.00456537 1e-05
-0.0181854 0.00466972 1e-05
-0.0179371 0.004756 1e-05
-0.0176828 0.00482242 1e-05
-0.0174976 0.00485399 1e-05
-0.0172058 0.00488475 1e-05
-0.0169124 0.00488652 1e-05
-0.0166199 0.00486422 1e-05
-0.0163297 0.00482106 1e-05
-0.0160387 0.00475702 1e-05
-0.0158287 0.00469408 1e-05
-0.0156224 0.00461999 1e-05
-0.0154202 0.00453513 1e-05
-0.0152209 0.00444376 1e-05
-0.0152181 0.00444232 1e-05
-0.0151021 0.00438418 1e-05
-0.0149888 0.0043208 1e-05
-0.0148788 0.00425213 1e-05
-0.014771 0.00417987 1e-05
-0.0146381 0.00408494 1e-05
-0.0145769 0.00403742 1e-05
-0.0145166 0.00398879 1e-05
-0.0144572 0.00393904 1e-05
-0.0143988 0.00388816 1e-05
-0.0143527 0.00384734 1e-05
-0.0142286 0.00373631 1e-05
-0.0141111 0.00361837 1e-05
-0.0140011 0.00349338 1e-05
-0.013897 0.0033634 1e-05
-0.0138426 0.00329221 1e-05
-0.0137655 0.00318862 1e-05
-0.0136959 0.00307983 1e-05
-0.0136326 0.00296726 1e-05
-0.0135731 0.00285262 1e-05
-0.0135359 0.00277425 1e-05
-0.0134929 0.0026776 1e-05
-0.013457 0.00257807 1e-05
-0.0134251 0.00247719 1e-05
-0.0133977 0.00237499 1e-05
-0.0133797 0.00229098 1e-05
-0.0133647 0.0022008 1e-05
-0.0133556 0.00210982 1e-05
-0.0133519 0.00201847 1e-05
-0.0133542 0.00192707 1e-05
-0.0133627 0.00184007 1e-05
-0.0133775 0.00175593 1e-05
-0.0133999 0.0016735 1e-05
-0.0134293 0.00159327 1e-05
-0.0134656 0.00151595 1e-05
-0.0135222 0.00141936 1e-05
-0.0135796 0.00134085 1e-05
-0.0136479 0.00127164 1e-05
-0.013722 0.00120863 1e-05
-0.0138006 0.00115139 1e-05
-0.0139943 0.00102682 1e-05
-0.0141231 0.000957315 1e-05
-0.0142586 0.000902189 1e-05
-0.0143974 0.000855924 1e-05
-0.0145369 0.000811706 1e-05
-0.0146381 0.000781306 1e-05
-0.0147218 0.000757158 1e-05
-0.0148059 0.000734343 1e-05
-0.0148903 0.000712655 1e-05
-0.0149752 0.000692979 1e-05
-0.0151482 0.000660566 1e-05
-0.0153263 0.000637959 1e-05
-0.0155048 0.000618781 1e-05
-0.0156835 0.000602271 1e-05
-0.0158625 0.000587758 1e-05
-0.0160387 0.000568038 1e-05
-0.0162827 0.000518199 1e-05
-0.0165304 0.000493449 1e-05
-0.0167792 0.00048238 1e-05
-0.0170281 0.000475578 1e-05
-0.0174976 0.000406376 1e-05
-0.0174976 0.000406376 1e-05
-0.0174976 0.000406376 1e-05
-0.0174976 0.000406376 1e-05
-0.0174976 0.000406376 1e-05
-0.0174976 0.000406376 1e-05
-0.0174952 0.000388869 1e-05
-0.0174898 0.000372039 1e-05
-0.0174821 0.000356129 1e-05
-0.0174727 0.000341166 1e-05
-0.0174558 0.000318841 1e-05
-0.0173838 0.000255072 1e-05
-0.0172967 0.000214396 1e-05
-0.0172047 0.0001866 1e-05
-0.0171106 0.000167057 1e-05
-0.0160387 4.41991e-06 1e-05
-0.0160288 3.53592e-06 1e-05
-0.016019 3.08405e-06 1e-05
-0.0160091 2.67369e-06 1e-05
-0.0159992 2.26333e-06 1e-05
-0.0159448 0 1e-05
-0.0205 0.00367778 1e-05
-0.0203955 0.00371169 1e-05
-0.0203045 0.00377319 1e-05
-0.0202171 0.00383975 1e-05
-0.020198 0.00384734 1e-05
-0.0199618 0.00393432 1e-05
-0.019766 0.00409247 1e-05
-0.0196202 0.00429758 1e-05
-0.0194754 0.00444232 1e-05
-0.0193837 0.00449617 1e-05
-0.0192964 0.00455669 1e-05
-0.0192132 0.00462295 1e-05
-0.0191277 0.0046861 1e-05
-0.0190172 0.00476163 1e-05
-0.0189141 0.0048253 1e-05
-0.0188084 0.00488446 1e-05
-0.0187004 0.00493916 1e-05
-0.0185902 0.00498952 1e-05
-0.0183692 0.00508 1e-05
-0.0181948 0.00513511 1e-05
-0.0180185 0.00518324 1e-05
-0.0178404 0.00522455 1e-05
-0.0176608 0.00525891 1e-05
-0.0174976 0.00528195 1e-05
-0.0172058 0.00530989 1e-05
-0.0169127 0.00531476 1e-05
-0.0166201 0.00529779 1e-05
-0.0163294 0.00526062 1e-05
-0.0160387 0.00520569 1e-05
-0.01594 0.00518055 1e-05
-0.0158418 0.0051534 1e-05
-0.0157441 0.00512434 1e-05
-0.0156469 0.00509404 1e-05
-0.0156038 0.00508 1e-05
-0.0154106 0.00501588 1e-05
-0.0152209 0.00494234 1e-05
-0.0150352 0.00485904 1e-05
-0.0148538 0.00476673 1e-05
-0.0146381 0.00464721 1e-05
-0.0145716 0.00460623 1e-05
-0.0145056 0.00456436 1e-05
-0.0144402 0.00452159 1e-05
-0.0143754 0.00447802 1e-05
-0.0143229 0.00444232 1e-05
-0.0141493 0.00432332 1e-05
-0.0139824 0.00419531 1e-05
-0.0138232 0.00405777 1e-05
-0.0136686 0.00391503 1e-05
-0.0135982 0.00384734 1e-05
-0.0135372 0.00378757 1e-05
-0.0134784 0.00372573 1e-05
-0.013421 0.00366251 1e-05
-0.0133645 0.0035985 1e-05
-0.0132934 0.00351555 1e-05
-0.0132566 0.00347088 1e-05
-0.0132203 0.00342584 1e-05
-0.0131844 0.00338043 1e-05
-0.013149 0.00333462 1e-05
-0.0131168 0.00329221 1e-05
-0.0130388 0.00318862 1e-05
-0.0129626 0.0030836 1e-05
-0.0128893 0.00297658 1e-05
-0.0128192 0.00286743 1e-05
-0.0127619 0.00277425 1e-05
-0.0127042 0.0026776 1e-05
-0.0126479 0.00258012 1e-05
-0.0125932 0.00248176 1e-05
-0.0125399 0.0023826 1e-05
-0.0124931 0.00229098 1e-05
-0.0124495 0.0022008 1e-05
-0.0124062 0.00211048 1e-05
-0.0123631 0.00202004 1e-05
-0.0123203 0.00192947 1e-05
-0.0122794 0.00184007 1e-05
-0.0122444 0.00175593 1e-05
-0.0122079 0.00167242 1e-05
-0.0121702 0.00158949 1e-05
-0.0121309 0.00150725 1e-05
-0.0120866 0.00141936 1e-05
-0.0120698 0.00138696 1e-05
-0.0120517 0.00135526 1e-05
-0.0120325 0.00132422 1e-05
-0.0120122 0.00129391 1e-05
-0.0120025 0.00128066 1e-05
-0.0119641 0.0012299 1e-05
-0.0119225 0.00118174 1e-05
-0.0118777 0.00113657 1e-05
-0.0118297 0.00109469 1e-05
-0.0117398 0.00102682 1e-05
-0.0116243 0.000953567 1e-05
-0.011501 0.000894578 1e-05
-0.0113731 0.000846356 1e-05
-0.0112423 0.000806558 1e-05
-0.0107632 0.000722009 1e-05
-0.0105252 0.000730763 1e-05
-0.0102871 0.000726529 1e-05
-0.010049 0.000724212 1e-05
-0.0098109 0.000723063 1e-05
-0.00957337 0.00072265 1e-05
-0.00934491 0.000732138 1e-05
-0.00911628 0.000728577 1e-05
-0.00888764 0.000726138 1e-05
-0.00865899 0.000724469 1e-05
-0.00843108 0.00072334 1e-05
-0.00821175 0.000732398 1e-05
-0.00799227 0.000728343 1e-05
-0.00777278 0.000725306 1e-05
-0.00755327 0.000723002 1e-05
-0.00733443 0.000721236 1e-05
-0.00712387 0.000729656 1e-05
-0.00691317 0.0007255 1e-05
-0.00670246 0.000722263 1e-05
-0.00649174 0.000719707 1e-05
-0.0062816 0.000717665 1e-05
-0.00607944 0.000725376 1e-05
-0.00587718 0.00072148 1e-05
-0.0056749 0.000718373 1e-05
-0.00547262 0.000715865 1e-05
-0.00527083 0.000713818 1e-05
-0.00507675 0.000720821 1e-05
-0.00488258 0.000717326 1e-05
-0.0046884 0.000714489 1e-05
-0.00449421 0.000712163 1e-05
-0.00430044 0.000710236 1e-05
-0.00411412 0.00071658 1e-05
-0.00392771 0.000713501 1e-05
-0.0037413 0.000710957 1e-05
-0.00355488 0.000708832 1e-05
-0.00336883 0.000707044 1e-05
-0.00318995 0.000712749 1e-05
-0.003011 0.000710002 1e-05
-0.00283204 0.000707692 1e-05
-0.00265309 0.00070573 1e-05
-0.00247443 0.00070405 1e-05
-0.0023027 0.000709119 1e-05
-0.00213091 0.000706633 1e-05
-0.00195912 0.000704444 1e-05
-0.00178732 0.000702495 1e-05
-0.00161577 0.000700744 1e-05
-0.0014509 0.000704931 1e-05
-0.001286 0.000702319 1e-05
-0.00112109 0.000699889 1e-05
-0.000956184 0.000697606 1e-05
-0.000791418 0.000695446 1e-05
-0.000633135 0.000698226 1e-05
-0.000474852 0.000695403 1e-05
-0.000316564 0.000692851 1e-05
-0.000158273 0.00069052 1e-05
0 0.000688371 1e-05
0.000105677 0.00068958 1e-05
0.000211355 0.000688353 1e-05
0.000317035 0.000687421 1e-05
0.000422717 0.000686748 1e-05
0.000528387 0.000686306 1e-05
0.000634886 0.000687922 1e-05
0.000741397 0.000688184 1e-05
0.000847906 0.000688891 1e-05
0.000954412 0.000689997 1e-05
0.00106088 0.00069146 1e-05
0.00116821 0.00069491 1e-05
0.00127556 0.000697605 1e-05
0.00138289 0.000700858 1e-05
0.00149021 0.000704623 1e-05
0.00159752 0.000708858 1e-05
0.00170568 0.000715437 1e-05
0.00181387 0.000721464 1e-05
0.00192203 0.000728081 1e-05
0.00203016 0.000735259 1e-05
0.00213833 0.000742978 1e-05
0.00224733 0.000753328 1e-05
0.00235636 0.000763376 1e-05
0.00246534 0.000773981 1e-05
0.00257426 0.000785138 1e-05
0.00268334 0.000797324 1e-05
0.00279319 0.000811509 1e-05
0.002903 0.000825978 1e-05
0.00301277 0.000840752 1e-05
0.00312247 0.000856089 1e-05
0.00323259 0.00087264 1e-05
0.00334329 0.000890487 1e-05
0.00345394 0.000908698 1e-05
0.00356452 0.000927256 1e-05
0.00367501 0.000946379 1e-05
0.00378611 0.000966335 1e-05
0.00389767 0.000987188 1e-05
0.00400922 0.00100811 1e-05
0.00412072 0.0010293 1e-05
0.00423217 0.00105079 1e-05
0.00434393 0.00107267 1e-05
0.00434811 0.0010735 1e-05
0.00435229 0.00107433 1e-05
0.00435647 0.00107516 1e-05
0.00436066 0.00107599 1e-05
0.00436485 0.00107682 1e-05
0.0044731 0.00109832 1e-05
0.00458133 0.00111991 1e-05
0.00468953 0.00114161 1e-05
0.00479772 0.00116341 1e-05
0.00490609 0.00118534 1e-05
0.0050194 0.00120771 1e-05
0.00513264 0.00123037 1e-05
0.00524586 0.00125321 1e-05
0.00535908 0.00127599 1e-05
0.00547262 0.00129825 1e-05
0.00558681 0.00132004 1e-05
0.00570097 0.00134198 1e-05
0.0058151 0.00136406 1e-05
0.00592927 0.00138591 1e-05
0.00604356 0.00140736 1e-05
0.00615863 0.00142841 1e-05
0.00627369 0.00144957 1e-05
0.00638878 0.00147053 1e-05
0.0065039 0.00149128 1e-05
0.00661893 0.0015118 1e-05
0.00662766 0.00151334 1e-05
0.0066364 0.00151488 1e-05
0.00664513 0.00151642 1e-05
0.00665386 0.00151796 1e-05
[...]
POINT_DATA 10716
 FIELD attributes 2
p 1 10716 float
123.288 138.524 142.869 145.468 146.181 144.039 133.232 770.838 749.43 586.515 655.762 295.312 281.061 257.291 -50.0215 10.7218 103.265 -37.1339 -148.415 -57.4426 114.952 -30.4761 -171.501 -105.083 -46.1211 -71.7672 -213.272 -219.931 -201.787 -196.848 -212.753 -230.414 -256.255 -273.763 -292.412 -312.157 -311.758 -285.429 -331.146 -378.653 -391.555 -393.436 -399.499 -403.051 -406.292 -410.338 -393.143 -371.099 -354.475 -339.787 -318.525 -298.586 -298.314 -285.734 -274.147 -259.713 -244.69 -226.515 -218.646 -210.998 -203.578 -202.943 -203.477 -169.492 -137.54 -128.129 -136.43 -141.365 -106.43 -82.6114 -74.3525 -73.207 -82.9946 -53.981 -46.6491 -39.5827 -32.827 -35.9108 -21.2653 -15.653 -10.4335 -5.67436 -8.66079 2.05556 4.45948 6.29666 7.52424 -16.205 6.32038 5.34947 1.95094 -10.7877 -89.6116 -86.3793 -98.0197 -138.649 -179.378 -208.86 -230.992 -253.163 -279.389 -313.799 -381.378 -437.104 -493.377 -550.062 -613.833 -683.556 -796.46 -908.376 -1021.57 -1163.36 -1433.41 -1433.41 -1433.41 -1433.41 -1433.41 -1433.41 -1431.88 -1428.64 -1424.08 -1418.55 -1412 -1363.07 -1311.28 -1259.42 -1208.05 -705.56 -701.036 -697.088 -693.661 -690.235 -671.335
106.871 106.766 82.085 3.99433 -7.309 -15.5822 30.4202 -37.3441 -136.842 -133.034 -126.547 -140.41 -155.291 -175.29 -193.055 -212.04 -232.166 -228.64 -221.406 -240.883 -261.076 -279.705 -286.089 -293.628 -300.1 -311.503 -307.975 -298.063 -289.894 -286.116 -282.274 -275.129 -268.151 -265.12 -252.666 -241.68 -230.043 -212.431 -192.092 -185.823 -179.684 -174.591 -173.361 -172.415 -142.276 -111.887 -100.331 -103.064 -104.738 -87.2072 -76.2349 -71.324 -66.4638 -60.3136 -57.2748 -54.261 -51.2733 -49.3611 -49.6534 -35.3884 -26.6833 -18.1293 -16.6761 -17.9963 -2.52559 12.991 19.3336 17.0178 14.7714 30.2381 41.4574 45.5753 47.6197 44.463 58.3239 60.9369 63.5316 66.1038 65.8804 69.4268 69.5614 69.6852 69.7973 69.8422 70.3443 70.8379 71.3202 71.7887 68.1521 69.1069 69.4643 69.3236 63.6734 44.8191 40.6202 34.5144 28.5095 22.5661 15.4385 12.3353 7.96622 3.64636 -0.639689 -5.7141 -6.61737 -9.27843 -11.8901 -14.4661 -18.2643 -18.0022 -19.7189 -21.3896 -23.0261 -26.0673 -25.301 -26.4395 -27.5398 -28.611 -31.05 -29.9673 -30.6647 -31.3313 -31.9743 -33.9223 -32.6283 -33.0258 -33.3991 -33.7533 -35.3743 -33.9923 -34.1572 -34.3034 -34.4344 -35.7474 -34.2663 -34.2328 -34.1869 -34.1309 -35.2014 -33.6255 -33.1451 -32.6584 -32.1666 -32.5734 -30.8555 -30.1468 -29.4293 -28.7045 -28.7812 -27.5632 -27.1772 -26.782 -26.3789 -26.622 -25.8543 -25.4475 -25.0334 -24.6128 -24.6332 -23.9163 -23.2857 -22.655 -22.0241 -21.7361 -21.0625 -20.275 -19.4949 -18.7218 -18.1257 -17.5577 -16.6736 -15.799 -14.9412 -14.1123 -13.4678 -12.8174 -12.1008 -11.5157 -10.9544 -10.4759 -10.0061 -9.82902 -9.90338 -10.0477 -9.96541 -10.209 -10.4896 -10.7777 -11.1125 -11.1218 -11.1394 -11.1578 -11.1761 -11.1945 -11.5905 -11.9878 -12.3865 -12.7706 -12.5854 -13.0864 -13.5667 -13.9944 -14.0223 -14.0473 -14.3401 -14.6295 -14.7209 -14.8052 -14.8846 -14.9704 -15.0143 -15.0573 -15.0998 -15.1436 -15.1421 -15.1415 -15.1408 -15.1402 -15.1395 -15.138 -15.1361 -15.1337 -15.1309 -15.2642 -15.1313 -15.0624 -15.009 -15.0835 -15.2327 -15.0727 -14.9117 -14.8861 -15.0056 -15.1268 -15.002 -14.9293 -14.9766 -15.0332 -15.1114 -15.0667 -15.1331 -15.2014 -15.2715 -15.3385 -15.3424 -15.3463 -15.3503 -15.3542 -15.3515 -15.4635 -15.5675 -15.6739 -15.7825 -15.7855 -16.0658 -16.2889 -16.4621 -16.5392 -16.6002 -16.9555 -17.3137 -17.5815 -17.7294 -17.879 -18.3323 -18.6915 -19.0265 -19.3629 -19.6756 -19.7855 -19.8693 -19.9523 -20.0354 -20.1174 -20.4404 -20.7641 -21.0885 -21.4134 -21.6387 -22.164 -22.6747 -23.1779 -23.5869 -23.9744 -24.613 -25.252 -25.7722 -26.2481 -26.7233 -27.4571 -28.059 -28.6372 -29.2154 -29.7898 -29.901 -29.9892 -30.0771 -30.1651 -30.2537 -30.7877 -31.3218 -31.8558 -32.3899 -32.8132 -33.4784 -34.1489 -34.822 -35.395 -35.9336 -36.6273 -37.3219 -37.9411 -38.535 -39.1257 -39.8331 -40.4837 -41.0813 -41.6805 -42.3241 -42.8932 -43.4036 -43.9153 -44.4281 -45.0214 -45.1137 -45.2061 -45.2985 -45.3909 -45.4778 -46.1014 -46.7418 -47.3843 -48.029 -48.6502 -49.1845 -49.8382 -50.5066 -51.1724 -51.8305 -52.3411 -52.866 -53.5561 -54.2697 -54.9806 -55.4699 -55.9628 -56.5556 -57.3133 -58.0702 -58.5372 -59.0233 -59.5784 -60.2863 -61.0861 -61.5434 -62.0716 -62.6321 -63.2012 -64.0225 -64.4888 -65.0447 -65.6049 -66.1693 -66.8648 -67.3631 -67.9082 -68.4586 -69.0143 -69.5904 -69.6774 -69.7699 -69.8626 -69.9556 -70.0565 -70.4894 -70.9262 -71.367 -71.8118 -72.3016 -72.7143 -73.208 -73.7088 -74.2167 -74.8168 -75.1168 -75.5615 -76.0142 -76.4751 -77.0619 -77.2705 -77.6562 -78.0508 -78.4543 -79.0029 -79.1412 -79.4598 -79.788 -80.1257 -80.6085 -80.6953 -80.9401 -81.1947 -81.459 -81.8448 -81.8998 -82.0724 -82.2547 -82.4468 -82.7065 -82.73 -82.8083 -82.8915 -82.9796 -83.0369 -83.088 -83.1404 -83.1939 -83.2486 -83.318 -83.3643 -83.4448 -83.5352 -83.6355 -83.8053 -83.7163 -83.7573 -83.8077 -83.8738 -84.0493 -83.8589 -83.7938 -83.807 -83.8941 -84.0291 -83.8026 -83.5833 -83.5447 -83.6245 -83.7169 -83.4674 -83.2274 -83.0665 -83.0443 -83.0833 -82.8021 -82.584 -82.3859 -82.1975 -82.0961 -82.0013 -81.9207 -81.841 -81.7622 -81.6887 -81.5411 -81.3981 -81.2595 -81.1255 -80.9493 -80.5813 -80.306 -80.054 -79.7641 -79.4636 -79.0568 -78.6572 -78.2158 -77.8625 -77.5252 -77.1495 -76.7395 -76.3259 -75.9179 -75.5618 -75.4874 -75.4133 -75.3394 -75.2596 -75.165 -74.628 -74.1284 -73.6356 -73.0925 -72.5006 -71.9005 -71.3061 -70.6316 -69.9942 -69.3869 -69.0931 -68.7795 -68.4506 -68.1227 -67.8112 -67.4397 -67.0696 -66.7011 -66.3036 -65.877 -65.1013 -64.33 -63.579 -62.7807 -61.9788 -61.4642 -60.9325 -60.3745 -59.8177 -59.2903 -58.9807 -58.6715 -58.3627 -58.0355 -57.6987 -56.769 -55.849 -54.9576 -54.0266 -53.0896 -52.5732 -52.0521 -51.5166 -50.9816 -50.4623 -50.0156 -49.5692 -49.123 -48.6673 -48.2079 -47.1808 -46.1547 -45.1263 -44.1404 -43.1496 -42.8529 -42.5565 -42.2617 -41.967 -41.6743 -40.935 -40.1958 -39.4568 -38.7321 -38.0074 -37.0208 -36.0379 -35.0845 -34.1312 -33.1858 -33.126 -33.0662 -33.0064 -32.9491 -32.892 -31.8563 -30.839 -29.8238 -28.8585 -27.8941 -27.3606 -26.8296 -26.3264 -25.8232 -25.313 -24.852 -24.3911 -23.9302 -23.498 -23.0683 -22.1041 -21.1402 -20.2311 -19.3389 -18.4829 -18.3563 -18.2308 -18.1139 -17.9971 -17.8792 -17.1206 -16.3628 -15.6059 -14.9041 -14.2134 -13.5527 -12.9001 -12.2969 -11.6944 -11.0451 -10.8959 -10.7467 -10.5976 -10.4566 -10.3188 -9.58205 -8.87525 -8.17514 -7.53135 -6.89813 -6.39459 -5.90805 -5.4504 -4.99444 -4.47349 -4.36533 -4.25729 -4.14937 -4.04657 -3.94959 -3.4223 -2.91803 -2.41793 -1.95978 -1.52776 -1.09757 -0.673902 -0.303496 0.0501319 0.377032 0.58591 0.763358 0.933181 1.10105 1.31367 1.40082 1.48737 1.5733 1.65861 1.73072 1.92655 2.10317 2.27365 2.42934 2.53856 2.63897 2.72389 2.78633 2.80461 2.80959 2.8028 2.78994 2.74203 2.6522 2.55754 2.45025 2.33776 2.18961 2.00351 1.81273 1.60952 1.40153 1.15797 0.871555 0.580165 0.276705 -0.0317574 -0.369313 -0.747762 -1.13803 -1.53854 -1.95751 -2.39068 -2.82737 -3.31446 -3.76454 -4.23224 -4.70179 -5.17319 -5.5011 -5.58049 -5.65992 -5.7394 -5.81893 -5.90047 -6.47176 -7.05249 -7.63443 -8.21824 -8.81117 -9.42078 -10.0342 -10.6743 -11.3093 -11.9473 -12.5964 -13.2445 -13.8887 -14.5386 -15.2182 -15.5965 -15.9713 -16.3456 -16.72 -17.0833 -17.3799 -17.6766 -17.9732 -18.2688 -18.5604 -19.2186 -19.9058 -20.5942 -21.2741 -21.9516 -22.6311 -23.3106 -23.9777 -24.6625 -25.3597 -25.8265 -26.2859 -26.7434 -27.2009 -27.6704 -27.8886 -28.1067 -28.3249 -28.5421 -28.7561 -29.4133 -30.0918 -30.7706 -31.4359 -32.0923 -32.741 -33.3902 -34.0125 -34.6502 -35.2901 -35.8391 -36.355 -36.8659 -37.3776 -37.9602 -38.0244 -38.0887 -38.1529 -38.2171 -38.2756 -38.8309 -39.3894 -39.9493 -40.5037 -41.0016 -41.5026 -42.0064 -42.5134 -42.9535 -43.3943 -43.8383 -44.2847 -44.6692 -45.0464 -45.4254 -45.807 -46.1465 -46.4597 -46.7765 -47.0885 -47.3872 -47.6321 -47.8817 -48.1358 -48.388 -48.5673 -48.7274 -48.8918 -49.0606 -49.3327 -49.364 -49.3929 -49.4221 -49.4518 -49.5129 -49.5937 -49.6768 -49.7623 -49.8502 -49.9394 -49.9549 -49.9708 -49.9874 -49.9976 -50.0361 -50.0783 -50.1243 -50.174 -50.222 -50.2178 -50.2138 -50.2172 -50.2281 -50.2254 -50.1925 -50.1417 -50.0988 -50.0587 -49.9818 -49.9094 -49.8293 -49.7378 -49.6028 -49.4666 -49.3367 -49.2147 -49.0505 -48.8528 -48.6616 -48.4788 -48.245 -48.0098 -47.7821 -47.6244 -47.6146 -47.6049 -47.5953 -47.584 -47.57 -47.3145 -47.0656 -46.826 -46.5586 -46.2586 -45.967 -45.6814 -45.3383 -45.0036 -44.6655 -44.606 -44.5432 -44.4718 -44.4008 -44.3331 -44.0283 -43.7294 -43.4364 -43.1176 -42.7866 -42.3657 -41.944 -41.4948 -41.0537 -40.7085 -40.6887 -40.6689 -40.6491 -40.6274 -40.6054 -40.1169 -39.6409 -39.1727 -38.6709 -38.1657 -37.9118 -37.6597 -37.3891 -37.1199 -36.8748 -36.5912 -36.3097 -36.0295 -35.7281 -35.4245 -34.888 -34.3575 -33.8068 -33.2596 -32.7925 -32.7054 -32.6184 -32.5308 -32.4382 -32.3453 -31.6605 -30.983 -30.3046 -29.6142 -28.9091 -28.8161 -28.7233 -28.6274 -28.5303 -28.4352 -27.7656 -27.1006 -26.4328 -25.7453 -25.0414 -24.7839 -24.527 -24.2672 -24.0064 -23.7567 -23.1614 -22.5686 -21.9735 -21.3699 -20.7523 -20.3548 -19.9584 -19.559 -19.1582 -18.779 -18.2345 -17.6915 -17.1474 -16.6002 -16.0408 -15.5274 -15.0152 -14.5076 -14.0038 -13.5282 -13.0118 -12.4962 -11.9854 -11.4815 -10.967 -10.3809 -9.79577 -9.22154 -8.6565 -8.12088 -7.62299 -7.1255 -6.63661 -6.15869 -5.67139 -5.04902 -4.42722 -3.82113 -3.22954 -2.66355 -2.17736 -1.69132 -1.21893 -0.763044 -0.299487 0.329344 0.957947 1.56236 2.14361 2.70663 3.16541 3.62419 4.06287 4.47672 4.8953 5.50851 6.12171 6.702 7.25237 7.79379 8.19859 8.60343 8.97988 9.3314 9.68453 10.212 10.7395 11.2324 11.6832 12.133 12.5159 12.8986 13.248 13.5702 13.8906 14.3046 14.7184 15.1005 15.4434 15.7915 16.1303 16.4689 16.7731 17.0473 17.3171 17.6354 17.9534 18.2394 18.4907 18.7499 19.0122 19.274 19.5058 19.7059 19.9006 20.1472 20.3931 20.605 20.7883 20.9811 21.1438 21.306 21.4491 21.5638 21.675 21.8711 22.0661 22.2188 22.3467 22.4854 22.5519 22.6181 22.6765 22.7148 22.7521 22.8948 23.0352 23.1196 23.1838 23.2556 23.2592 23.2627 23.2659 23.2665 23.2672 23.3135 23.354 23.38 23.3551 23.329 23.3307 23.332 23.3137 23.295 23.2746 23.2517 23.228 23.2036 23.1561 23.1073 23.054 22.9991 22.9118 22.8228 22.7293 22.7202 22.7101 22.6978 22.6854 22.6727 22.5927 22.5116 22.4296 22.3355 22.2381 22.1484 22.0568 21.953 21.8483 21.7375 21.7129 21.6871 21.6601 21.633 21.6041 21.5301 21.4555 21.3804 21.3032 21.2243 21.1308 21.0366 20.9354 20.8294 20.7241 20.6314 20.536 20.4387 20.3407 20.2406 20.2213 20.2018 20.1821 20.1625 20.1416 20.0663 19.9906 19.9145 19.8378 19.7593 19.6745 19.5843 19.4907 19.3916 19.2911 19.207 19.1224 19.0303 18.9299 18.8293 18.7433 18.6539 18.5605 18.4661 18.3687 18.2809 18.1913 18.1013 18.0108 17.9206 17.8896 17.8587 17.8278 17.7968 17.7621 17.7098 17.6573 17.6047 17.5521 17.5011 17.4229 17.3474 17.2716 17.1957 17.1255 17.0535 16.9883 16.9228 16.8586 16.7985 16.7364 16.6762 16.6176 16.5586 16.4993 16.4408 16.3821 16.3237 16.2591 16.1939 16.1345 16.0749 16.0069 15.9271 15.8473 15.7766 15.7058 15.6235 15.5291 15.4347 15.345 15.2552 15.1632 15.0698 14.9765 14.8788 14.7809 14.6854 14.5929 14.5005 14.3989 14.2971 14.2003 14.1108 14.0214 13.9143 13.807 13.7213 13.6699 13.6186 13.541 13.4633 13.4059 13.3875 13.369 13.3351 13.3012 13.2729 13.2579 13.2428 13.2325 13.2223 13.2117 13.1966 13.1816 13.1774 13.1732 13.178 13.1878 13.1976 13.2146 13.2315 13.255 13.285 13.3149 13.3541 13.3933 13.4266 13.4561 13.4856 13.5244 13.5632 13.5953 13.6168 13.6382 13.6629 13.6863 13.7014 13.7046 13.705 13.7047 13.6989 13.6846 13.6642 13.6374 13.6116 13.5791 13.5437 13.5079 13.4692 13.4329 13.399 13.3652 13.3313 13.3019 13.2794 13.264 13.2486 13.2332 13.2204 13.2201 13.2225 13.225 13.2274 13.2297 13.2305 13.2312 13.232 13.2327 13.2351 13.2494 13.2638 13.2782 13.2926 13.3104 13.3321 13.3543 13.3765 13.3986 13.4247 13.453 13.4808 13.5085 13.5365 13.5649 13.5956 13.6257 13.6545 13.6821 13.7094 13.7381 13.7668 13.7937 13.8189 13.8441 13.8698 13.8955 13.9205 13.945 13.9694 13.9936 14.0178 14.0425 14.0681 14.0938 14.1192 14.1443 14.1691 14.194 14.2192 14.2445 14.2698 14.295 14.3203 14.3463 14.3724 14.397 14.4216 14.4462 14.4706 14.4838 14.4958 14.5078 14.5198 14.5313 14.54 14.5487 14.5574 14.5661 14.5738 14.588 14.6018 14.6156 14.6294 14.6388 14.6444 14.6495 14.6546 14.6588 14.6572 14.6526 14.6494 14.6472 14.6423 14.6358 14.6281 14.6198 14.6101 14.596 14.5797 14.5565 14.5312 14.5038 14.4746 14.4431 14.4035 14.3602 14.3149 14.2693 14.2232 14.1683 14.1131 14.0578 14.0036 13.9544 13.8973 13.8432 13.7897 13.7377 13.6935 13.6441 13.5911 13.5375 13.4841 13.431 13.3746 13.3148 13.2546 13.1944 13.1343 13.0722 13.0103 12.9484 12.888 12.8289 12.7688 12.7098 12.6543 12.6042 12.5547 12.504 12.4532 12.4022 12.3509 12.2996 12.2466 12.1937 12.1432 12.0956 12.0481 11.9995 11.9469 11.8879 11.8264 11.7605 11.6934 11.6202 11.5465 11.4727 11.3961 11.315 11.2317 11.1483 11.065 10.9816 10.977 10.9721 10.9673 10.9624 10.9575 10.8692 10.7809 10.6925 10.6041 10.5129 10.4074 10.2976 10.1879 10.0781 9.95999 9.83722 9.70665 9.57555 9.44179 9.30086 9.15525 9.00486 8.85025 8.68949 8.52477 8.35432 8.18256 8.0042 7.81782 7.63077 7.43694 7.2431 7.04163 6.83275 6.62394 6.40738 6.19081 5.96851 5.74069 5.51292 5.27666 5.0404 4.80077 4.55796 4.31519 4.06338 3.81085 3.53335 3.23587 2.93651 2.62603 2.33486 2.0803 1.8476 1.63766 1.42013 1.11884 0.784862 0.436892 0