# vtk DataFile Version 2.0
track0
ASCII
DATASET POLYDATA
POINTS 11963 double
-0.0205 0.001 1e-05
-0.0204991 0.00100536 1e-05
-0.0204976 0.00101063 1e-05
-0.0204947 0.00101518 1e-05
-0.0204905 0.00101864 1e-05
-0.0204746 0.00102682 1e-05
-0.0201831 0.00105563 1e-05
-0.0203616 0.00128794 1e-05
-0.0204488 0.00141936 1e-05
-0.0201625 0.0014444 1e-05
-0.0201519 0.00173163 1e-05
-0.0202219 0.00184007 1e-05
-0.0200496 0.00193025 1e-05
-0.0200808 0.00212222 1e-05
-0.0201294 0.00229098 1e-05
-0.0200088 0.00238763 1e-05
-0.0199911 0.00254123 1e-05
-0.0200041 0.00269528 1e-05
-0.0199827 0.00277425 1e-05
-0.019869 0.00287784 1e-05
-0.0198179 0.00302292 1e-05
-0.0198054 0.00317623 1e-05
-0.01976 0.00329221 1e-05
-0.0196347 0.00340323 1e-05
-0.0195486 0.00354672 1e-05
-0.0194777 0.00369829 1e-05
-0.019391 0.00384149 1e-05
-0.0193842 0.00384734 1e-05
-0.0193108 0.00390808 1e-05
-0.0192439 0.00397593 1e-05
-0.0191791 0.00404574 1e-05
-0.0191113 0.00411269 1e-05
-0.0190172 0.00419786 1e-05
-0.0189564 0.00424675 1e-05
-0.0188939 0.00429336 1e-05
-0.0188297 0.00433765 1e-05
-0.018764 0.00437962 1e-05
-0.0186585 0.00444232 1e-05
-0.0184263 0.00456527 1e-05
-0.0181852 0.00466952 1e-05
-0.017937 0.00475573 1e-05
-0.0176828 0.00482209 1e-05
-0.0174976 0.00485365 1e-05
-0.0172058 0.00488437 1e-05
-0.0169124 0.00488612 1e-05
-0.0166199 0.00486378 1e-05
-0.0163297 0.00482059 1e-05
-0.0160387 0.00475651 1e-05
-0.0158291 0.00469367 1e-05
-0.0156232 0.00461973 1e-05
-0.0154214 0.00453506 1e-05
-0.0152225 0.00444391 1e-05
-0.0152193 0.00444232 1e-05
-0.0151031 0.00438408 1e-05
-0.0149896 0.0043206 1e-05
-0.0148793 0.0042518 1e-05
-0.0147713 0.0041794 1e-05
-0.0146381 0.00408423 1e-05
-0.0145771 0.00403686 1e-05
-0.014517 0.00398838 1e-05
-0.0144578 0.00393879 1e-05
-0.0143995 0.00388807 1e-05
-0.0143535 0.00384734 1e-05
-0.0142294 0.00373631 1e-05
-0.0141118 0.00361838 1e-05
-0.0140018 0.00349338 1e-05
-0.0138977 0.0033634 1e-05
-0.0138432 0.00329221 1e-05
-0.013766 0.00318862 1e-05
-0.0136964 0.00307983 1e-05
-0.013633 0.00296725 1e-05
-0.0135735 0.00285261 1e-05
-0.0135363 0.00277425 1e-05
-0.0134932 0.0026776 1e-05
-0.0134573 0.00257807 1e-05
-0.0134254 0.00247719 1e-05
-0.013398 0.00237497 1e-05
-0.0133799 0.00229098 1e-05
-0.0133649 0.0022008 1e-05
-0.0133558 0.00210982 1e-05
-0.013352 0.00201846 1e-05
-0.0133543 0.00192705 1e-05
-0.0133627 0.00184007 1e-05
-0.0133775 0.00175593 1e-05
-0.0133999 0.0016735 1e-05
-0.0134292 0.00159326 1e-05
-0.0134655 0.00151593 1e-05
-0.013522 0.00141936 1e-05
-0.0135793 0.00134085 1e-05
-0.0136476 0.00127163 1e-05
-0.0137217 0.00120863 1e-05
-0.0138003 0.00115138 1e-05
-0.0139939 0.00102682 1e-05
-0.0141228 0.000957252 1e-05
-0.0142584 0.000902097 1e-05
-0.0143973 0.000855819 1e-05
-0.0145369 0.000811587 1e-05
-0.0146381 0.000781194 1e-05
-0.0147218 0.000757068 1e-05
-0.0148058 0.000734274 1e-05
-0.0148901 0.000712606 1e-05
-0.014975 0.000692949 1e-05
-0.0151479 0.000660566 1e-05
-0.015326 0.000637957 1e-05
-0.0155046 0.000618778 1e-05
-0.0156834 0.000602267 1e-05
-0.0158624 0.000587754 1e-05
-0.0160387 0.000568034 1e-05
-0.0162827 0.000518196 1e-05
-0.0165304 0.000493449 1e-05
-0.0167792 0.000482385 1e-05
-0.0170281 0.000475586 1e-05
-0.0174976 0.000406387 1e-05
-0.0174976 0.000406387 1e-05
-0.0174976 0.000406387 1e-05
-0.0174976 0.000406387 1e-05
-0.0174976 0.000406387 1e-05
-0.0174976 0.000406387 1e-05
-0.0174952 0.000388878 1e-05
-0.0174898 0.000372046 1e-05
-0.0174821 0.000356134 1e-05
-0.0174727 0.00034117 1e-05
-0.0174557 0.000318841 1e-05
-0.0173838 0.000255072 1e-05
-0.0172967 0.000214399 1e-05
-0.0172047 0.000186604 1e-05
-0.0171106 0.000167063 1e-05
-0.0160387 4.45767e-06 1e-05
-0.0160288 3.56614e-06 1e-05
-0.0160188 3.1104e-06 1e-05
-0.0160088 2.69653e-06 1e-05
-0.0159989 2.28265e-06 1e-05
-0.0159439 0 1e-05
-0.0205 0.00367778 1e-05
-0.0203955 0.00371169 1e-05
-0.0203045 0.00377319 1e-05
-0.0202171 0.00383976 1e-05
-0.0201979 0.00384734 1e-05
-0.0199618 0.00393431 1e-05
-0.019766 0.00409243 1e-05
-0.0196202 0.00429751 1e-05
-0.0194753 0.00444232 1e-05
-0.0193837 0.00449615 1e-05
-0.0192963 0.00455665 1e-05
-0.0192132 0.00462288 1e-05
-0.0191277 0.004686 1e-05
-0.0190172 0.00476149 1e-05
-0.0189141 0.00482519 1e-05
-0.0188083 0.00488437 1e-05
-0.0187002 0.00493908 1e-05
-0.01859 0.00498946 1e-05
-0.0183687 0.00508 1e-05
-0.0181944 0.00513503 1e-05
-0.0180182 0.0051831 1e-05
-0.0178402 0.00522435 1e-05
-0.0176607 0.00525866 1e-05
-0.0174976 0.00528167 1e-05
-0.0172058 0.00530958 1e-05
-0.0169127 0.00531443 1e-05
-0.0166201 0.00529744 1e-05
-0.0163294 0.00526026 1e-05
-0.0160387 0.00520529 1e-05
-0.0159403 0.00518023 1e-05
-0.0158425 0.00515318 1e-05
-0.0157452 0.00512422 1e-05
-0.0156482 0.00509404 1e-05
-0.0156051 0.00508 1e-05
-0.0154117 0.00501582 1e-05
-0.0152217 0.00494221 1e-05
-0.0150358 0.00485881 1e-05
-0.0148542 0.00476639 1e-05
-0.0146381 0.00464668 1e-05
-0.0145718 0.00460581 1e-05
-0.014506 0.00456405 1e-05
-0.0144408 0.0045214 1e-05
-0.0143761 0.00447795 1e-05
-0.0143237 0.00444232 1e-05
-0.0141501 0.00432332 1e-05
-0.0139831 0.00419531 1e-05
-0.0138238 0.00405778 1e-05
-0.0136692 0.00391504 1e-05
-0.0135988 0.00384734 1e-05
-0.0135377 0.00378748 1e-05
-0.0134787 0.00372556 1e-05
-0.0134213 0.00366224 1e-05
-0.0133647 0.00359813 1e-05
-0.0132934 0.00351505 1e-05
-0.0132567 0.00347048 1e-05
-0.0132204 0.00342554 1e-05
-0.0131846 0.00338023 1e-05
-0.0131493 0.00333453 1e-05
-0.0131172 0.00329221 1e-05
-0.013039 0.00318862 1e-05
-0.0129628 0.0030836 1e-05
-0.0128895 0.00297659 1e-05
-0.0128193 0.00286744 1e-05
-0.012762 0.00277425 1e-05
-0.0127042 0.0026776 1e-05
-0.0126479 0.00258012 1e-05
-0.0125931 0.00248176 1e-05
-0.0125398 0.00238261 1e-05
-0.0124929 0.00229098 1e-05
-0.0124492 0.0022008 1e-05
-0.0124058 0.00211048 1e-05
-0.0123627 0.00202004 1e-05
-0.0123198 0.00192948 1e-05
-0.0122788 0.00184007 1e-05
-0.0122437 0.00175593 1e-05
-0.0122071 0.00167243 1e-05
-0.0121693 0.0015895 1e-05
-0.0121299 0.00150727 1e-05
-0.0120855 0.00141936 1e-05
-0.0120689 0.00138755 1e-05
-0.0120511 0.00135642 1e-05
-0.0120322 0.00132593 1e-05
-0.0120122 0.00129614 1e-05
-0.0120025 0.00128285 1e-05
-0.0119639 0.00123164 1e-05
-0.011922 0.00118309 1e-05
-0.0118768 0.00113755 1e-05
-0.0118284 0.00109536 1e-05
-0.0117374 0.00102682 1e-05
-0.0116216 0.000953567 1e-05
-0.0114979 0.0008946 1e-05
-0.0113696 0.000846412 1e-05
-0.0112385 0.000806652 1e-05
-0.0107632 0.000723571 1e-05
-0.0105252 0.000732094 1e-05
-0.0102872 0.000727421 1e-05
-0.0100491 0.000724829 1e-05
-0.00981094 0.000723498 1e-05
-0.00957337 0.000722965 1e-05
-0.00934491 0.00073242 1e-05
-0.00911629 0.000728785 1e-05
-0.00888765 0.000726295 1e-05
-0.008659 0.000724589 1e-05
-0.00843108 0.000723433 1e-05
-0.00821175 0.000732481 1e-05
-0.00799227 0.000728409 1e-05
-0.00777278 0.000725359 1e-05
-0.00755327 0.000723045 1e-05
-0.00733443 0.000721272 1e-05
-0.00712387 0.000729686 1e-05
-0.00691317 0.000725526 1e-05
-0.00670246 0.000722285 1e-05
-0.00649174 0.000719726 1e-05
-0.0062816 0.000717682 1e-05
-0.00607944 0.000725387 1e-05
-0.00587718 0.000721493 1e-05
-0.0056749 0.000718387 1e-05
-0.00547262 0.00071588 1e-05
-0.00527083 0.000713834 1e-05
-0.00507675 0.000720834 1e-05
-0.00488258 0.000717341 1e-05
-0.0046884 0.000714507 1e-05
-0.00449421 0.000712182 1e-05
-0.00430044 0.000710256 1e-05
-0.00411412 0.000716597 1e-05
-0.00392771 0.000713524 1e-05
-0.0037413 0.000710988 1e-05
-0.00355488 0.000708875 1e-05
-0.00336883 0.0007071 1e-05
-0.00318995 0.00071283 1e-05
-0.003011 0.000710119 1e-05
-0.00283204 0.000707854 1e-05
-0.00265308 0.000705946 1e-05
-0.00247443 0.000704326 1e-05
-0.0023027 0.000709505 1e-05
-0.00213091 0.00070713 1e-05
-0.00195911 0.000705106 1e-05
-0.00178731 0.000703369 1e-05
-0.00161577 0.000701866 1e-05
-0.0014509 0.000706498 1e-05
-0.00128598 0.000704394 1e-05
-0.00112105 0.000702617 1e-05
-0.000956124 0.000701111 1e-05
-0.000791418 0.000699828 1e-05
-0.000633135 0.000704094 1e-05
-0.000474803 0.000702402 1e-05
-0.000316467 0.000701118 1e-05
-0.000158128 0.000700174 1e-05
0 0.000699511 1e-05
0.000105677 0.000702712 1e-05
0.000211403 0.000702327 1e-05
0.000317128 0.000702041 1e-05
0.000422854 0.000701842 1e-05
0.000528387 0.000701723 1e-05
0.000634886 0.000704858 1e-05
0.000741431 0.00070462 1e-05
0.000847976 0.000704326 1e-05
0.000954521 0.000703982 1e-05
0.00106088 0.000703593 1e-05
0.00116821 0.000706069 1e-05
0.00127556 0.000705723 1e-05
0.00138292 0.000705444 1e-05
0.00149028 0.000705227 1e-05
0.00159752 0.000705066 1e-05
0.00170568 0.000707455 1e-05
0.00181387 0.000707715 1e-05
0.00192205 0.0007082 1e-05
0.00203024 0.000708891 1e-05
0.00213833 0.000709771 1e-05
0.00224733 0.000713067 1e-05
0.00235637 0.000714699 1e-05
0.0024654 0.000716644 1e-05
0.00257443 0.00071888 1e-05
0.00268334 0.000721385 1e-05
0.00279319 0.000726432 1e-05
0.0029031 0.000729893 1e-05
0.003013 0.000733647 1e-05
0.00312289 0.00073768 1e-05
0.00323259 0.00074197 1e-05
0.00334329 0.000749061 1e-05
0.0034541 0.000754363 1e-05
0.00356489 0.000759869 1e-05
0.00367567 0.000765573 1e-05
0.00378611 0.000771475 1e-05
0.00389767 0.000780421 1e-05
0.00400937 0.000787567 1e-05
0.00412108 0.000794425 1e-05
0.00423279 0.000801368 1e-05
0.00434393 0.000809254 1e-05
0.00445636 0.000819632 1e-05
0.00456894 0.000828322 1e-05
0.0046816 0.000835806 1e-05
0.00479426 0.000843246 1e-05
0.00490609 0.00085234 1e-05
0.0050194 0.000863648 1e-05
0.00513287 0.00087313 1e-05
0.00524648 0.000880766 1e-05
0.00536009 0.000888437 1e-05
0.00547262 0.000898013 1e-05
0.00558681 0.000909747 1e-05
0.00570119 0.00091945 1e-05
0.00581572 0.00092709 1e-05
0.00593025 0.000934718 1e-05
0.00604356 0.000944304 1e-05
0.00615863 0.000956126 1e-05
0.00627389 0.000965969 1e-05
0.00638927 0.000974389 1e-05
0.00650463 0.000982957 1e-05
0.00661893 0.000992701 1e-05
0.0067349 0.00100469 1e-05
0.00685101 0.00101519 1e-05
0.00696714 0.00102557 1e-05
0.00708324 0.00103623 1e-05
0.00719878 0.00104714 1e-05
0.00731565 0.00105994 1e-05
0.00743255 0.00107242 1e-05
0.00754941 0.00108539 1e-05
[...]
POINT_DATA 11963
 FIELD attributes 2
p 1 11963 float
130.163 145.399 149.745 152.344 153.058 150.918 140.1 777.75 756.349 593.422 662.697 302.238 287.995 264.267 -43.0463 17.6985 110.264 -30.1522 -141.418 -50.4474 121.952 -23.4846 -164.497 -98.0833 -39.1491 -64.7706 -206.276 -212.929 -194.795 -189.858 -205.761 -223.418 -249.249 -266.77 -285.434 -305.196 -304.803 -278.461 -324.162 -371.65 -384.599 -386.493 -392.564 -396.127 -399.433 -403.5 -386.217 -364.181 -347.597 -332.944 -311.724 -291.822 -291.523 -278.911 -267.296 -252.835 -237.783 -219.57 -211.728 -204.105 -196.709 -196.074 -196.606 -162.618 -130.723 -121.261 -129.557 -134.49 -99.5472 -75.6834 -67.4212 -66.3136 -76.0954 -47.0412 -39.7049 -32.6337 -25.8726 -28.9742 -14.3015 -8.68353 -3.45787 1.30779 -1.67619 9.04981 11.4605 13.3048 14.5396 -9.16278 13.3773 12.3885 8.9979 -3.70075 -82.4969 -79.2461 -90.8962 -131.549 -172.301 -201.784 -223.901 -246.055 -272.272 -306.664 -374.208 -429.948 -486.236 -542.936 -606.728 -676.482 -789.399 -901.327 -1014.54 -1156.35 -1426.43 -1426.43 -1426.43 -1426.43 -1426.43 -1426.43 -1424.91 -1421.67 -1417.11 -1411.57 -1405.02 -1356.08 -1304.28 -1252.41 -1201.02 -698.492 -693.928 -689.946 -686.49 -683.033 -663.969
113.892 113.787 89.0959 11.0027 -0.29233 -8.57128 37.4113 -30.2923 -129.83 -126.026 -119.541 -133.402 -148.281 -168.274 -186.05 -205.047 -225.185 -221.662 -214.44 -233.908 -254.09 -272.728 -279.116 -286.658 -293.138 -304.549 -300.975 -291.107 -282.946 -279.184 -275.359 -268.242 -261.29 -258.258 -245.785 -234.783 -223.135 -205.505 -185.143 -178.894 -172.774 -167.695 -166.47 -165.526 -135.388 -105.001 -93.4613 -96.1917 -97.8642 -80.3063 -69.3115 -64.3935 -59.5261 -53.366 -50.3345 -47.3277 -44.3468 -42.4391 -42.7291 -28.4747 -19.7674 -11.2107 -9.74682 -11.0613 4.40907 19.9254 26.2721 23.9643 21.7253 37.1933 48.4022 52.5228 54.5886 51.4403 65.2757 67.891 70.4878 73.0619 72.8843 76.3798 76.5126 76.6347 76.7456 76.791 77.2982 77.7967 78.2836 78.7563 75.0919 76.0399 76.3899 76.2269 70.5153 51.8373 47.6578 41.5289 35.5093 29.5563 22.4142 19.314 14.9399 10.6159 6.3265 1.24595 0.34217 -2.32598 -4.94447 -7.52716 -11.3358 -11.0806 -12.8095 -14.4923 -16.1408 -19.1972 -18.4436 -19.5993 -20.7167 -21.805 -24.2642 -23.1996 -23.9182 -24.606 -25.2701 -27.2422 -25.969 -26.3925 -26.7916 -27.1715 -28.8245 -27.4744 -27.6777 -27.8617 -28.0302 -29.3919 -27.9529 -27.9959 -28.024 -28.0399 -29.2205 -27.7221 -27.4475 -27.1606 -26.8637 -27.6128 -25.9184 -25.521 -25.1081 -24.6824 -25.4451 -23.8997 -24.1183 -24.3323 -24.542 -26.1919 -25.1032 -25.4489 -25.797 -26.1473 -27.6562 -26.5616 -26.3601 -26.1563 -25.9505 -26.6091 -25.6072 -25.1451 -24.678 -24.2064 -24.3654 -23.5427 -23.0787 -22.6109 -22.1393 -22.1629 -21.4366 -21.0183 -20.5978 -20.1752 -20.2077 -19.4522 -19.0851 -18.7167 -18.3522 -18.5062 -17.6821 -17.2651 -16.9471 -16.8362 -17.0522 -16.2278 -15.5646 -15.28 -15.4769 -15.7688 -14.9537 -14.1397 -13.903 -14.231 -14.5528 -13.7408 -12.9307 -12.7223 -13.0999 -13.4707 -12.7014 -12.1186 -12.0332 -12.2478 -12.6775 -11.9601 -11.802 -11.8191 -11.8384 -12.3218 -11.9452 -12.1085 -12.2763 -12.4485 -12.6501 -12.6414 -12.658 -12.6747 -12.6914 -12.7079 -13.0116 -13.3186 -13.6291 -13.9429 -14.2762 -14.7064 -15.2311 -15.7599 -16.3181 -16.9084 -17.4887 -18.0737 -18.7667 -19.5437 -20.3291 -21.0608 -21.813 -22.592 -23.3722 -24.3081 -24.7584 -25.2121 -25.6661 -26.1201 -26.5378 -26.977 -27.416 -27.855 -28.2924 -28.6992 -29.5404 -30.5139 -31.4868 -32.4197 -33.3289 -34.2494 -35.169 -36.0485 -37.0093 -37.9733 -38.9904 -39.8902 -40.7545 -41.62 -42.5123 -42.6858 -42.8258 -42.9638 -43.1018 -43.2413 -43.9762 -44.7128 -45.4512 -46.1914 -46.8484 -47.6134 -48.4507 -49.3341 -50.1286 -50.9043 -51.7088 -52.5178 -53.2223 -53.9449 -54.6723 -55.509 -56.2214 -56.858 -57.503 -58.1542 -58.7458 -59.1875 -59.6354 -60.0892 -60.6481 -60.7902 -60.9328 -61.0759 -61.2194 -61.3601 -61.9036 -62.4832 -63.0746 -63.6776 -64.2618 -64.6922 -65.2246 -65.7703 -66.3128 -66.8272 -67.2384 -67.6871 -68.1819 -68.6373 -69.0849 -69.4665 -69.8646 -70.3019 -70.6709 -71.0552 -71.3934 -71.7489 -72.1126 -72.4279 -72.7603 -73.0499 -73.3579 -73.6656 -73.9329 -74.219 -74.4493 -74.6989 -74.9532 -75.1733 -75.4137 -75.5706 -75.7445 -75.9252 -76.108 -76.3045 -76.3828 -76.4701 -76.5709 -76.6941 -76.8451 -76.8467 -76.8489 -76.8728 -76.9186 -76.9948 -76.9813 -76.962 -76.9438 -76.9266 -76.9119 -76.9026 -76.908 -76.9282 -76.9632 -76.8766 -76.8263 -76.7553 -76.7055 -76.5633 -76.3682 -76.2316 -76.1175 -75.9001 -75.6278 -75.3764 -75.1671 -74.8294 -74.4787 -74.1498 -73.9136 -73.9019 -73.8903 -73.8788 -73.862 -73.8354 -73.459 -73.1003 -72.7662 -72.3403 -71.7963 -71.3611 -70.9486 -70.3307 -69.72 -69.1134 -68.9487 -68.7633 -68.5449 -68.3285 -68.1257 -67.699 -67.2853 -66.8848 -66.3715 -65.8095 -65.0799 -64.3752 -63.5032 -62.652 -61.8232 -61.7504 -61.6769 -61.5963 -61.5158 -61.4367 -60.6396 -59.8651 -59.1139 -58.2442 -57.369 -56.8379 -56.3151 -55.782 -55.2557 -54.7862 -54.3305 -53.8823 -53.4326 -52.9555 -52.4753 -51.6582 -50.8606 -50.1116 -49.392 -48.7879 -48.5004 -48.2163 -47.9415 -47.6781 -47.413 -46.5727 -45.7576 -45.0528 -44.4452 -43.9505 -43.6515 -43.3563 -43.1114 -42.9046 -42.6963 -42.0339 -41.3949 -40.8882 -40.5793 -40.3338 -39.9401 -39.5561 -39.3224 -39.1712 -39.022 -38.6662 -38.3265 -38.0856 -38.091 -38.1096 -37.699 -37.3141 -37.2963 -37.413 -37.5674 -37.5232 -37.4834 -37.467 -37.6197 -37.7682 -37.5958 -37.4743 -37.9456 -38.8696 -39.7778 -39.8246 -39.8726 -40.0119 -40.1586 -40.3092 -40.821 -41.3724 -41.9906 -43.2743 -44.4673 -44.9235 -45.3924 -46.2843 -47.1993 -48.186 -48.5596 -48.937 -49.318 -49.9331 -50.5472 -51.5561 -52.5807 -54.0199 -55.7936 -57.6506 -57.827 -58.0038 -58.2212 -58.4428 -58.6669 -59.8487 -61.0394 -62.2629 -63.8231 -65.3708 -66.0125 -66.6572 -67.3584 -68.074 -68.8111 -69.4121 -70.0136 -70.6271 -71.3313 -72.036 -72.8286 -73.6255 -74.3723 -75.1142 -75.8863 -76.0464 -76.2064 -76.3667 -76.5285 -76.6906 -77.1766 -77.6664 -77.9961 -78.2401 -78.5198 -78.5122 -78.5047 -78.4783 -78.4411 -78.4039 -78.2671 -78.1339 -77.8357 -77.2329 -76.6465 -76.4807 -76.3152 -76.0754 -75.8098 -75.5426 -74.8765 -74.2114 -73.4652 -72.4646 -71.4726 -70.8064 -70.1409 -69.3517 -68.5267 -67.6945 -66.855 -66.0156 -65.1394 -64.1219 -63.1074 -61.6419 -60.1772 -58.5261 -56.8301 -55.1153 -54.5139 -53.9125 -53.2969 -52.6143 -51.9326 -49.3211 -46.7113 -43.8802 -41.0029 -38.1527 -38.118 -38.0833 -38.0461 -38.0084 -37.9707 -34.9411 -31.9142 -28.8709 -25.7056 -22.5878 -21.2723 -19.9574 -18.5962 -17.2306 -15.8309 -13.7464 -11.6628 -9.58082 -7.50988 -5.46452 -2.36384 0.735154 3.79791 6.85795 10.1503 10.69 11.2297 11.7693 12.2823 12.7927 16.5551 20.3153 24.018 27.5645 31.0328 32.824 34.6022 36.2529 37.9037 39.6029 41.5836 43.5649 45.5468 47.3564 49.1349 52.8785 56.6193 59.9874 63.313 66.6957 66.9993 67.3011 67.5433 67.7853 68.0224 70.9603 73.8618 76.7236 78.9245 81.2419 82.4143 83.5633 84.5735 85.5151 86.2341 87.3344 88.3498 89.2412 89.9986 90.8341 91.1511 91.4431 91.6529 91.4487 91.2429 91.404 91.4161 90.5458 88.9336 87.5752 86.9841 85.9763 84.7353 83.4478 81.3214 80.9247 80.5249 80.1223 79.7168 79.5429 77.2669 75.2609 73.2123 71.1766 70.2795 67.2259 64.8566 62.8729 61.5328 60.6952 57.7827 54.9282 53.1325 52.3621 51.6692 48.9944 46.2641 44.686 44.1292 43.6072 41.2001 38.75 37.3517 36.9704 36.6166 34.4759 32.3006 31.0963 30.8658 30.6582 28.7624 26.838 25.8184 25.7123 25.626 23.9489 22.2479 21.3945 21.3869 21.3969 19.9116 18.406 17.6983 17.7679 17.8532 16.5356 15.2009 14.6203 14.751 14.8958 13.724 12.5375 12.0681 12.2498 12.4443 11.3987 10.3814 10.0388 10.1975 10.4358 9.49844 8.71075 8.4396 8.53828 8.81782 7.97419 7.39521 7.18713 7.22698 7.54581 6.78602 6.39759 6.24448 6.22534 6.57778 5.89254 5.67517 5.56834 5.49059 5.86994 5.25297 5.18343 5.11358 5.04342 5.3758 4.91144 4.86944 4.82709 4.78441 5.04654 4.70753 4.68453 4.66118 4.63748 4.83629 4.59688 4.58655 4.57586 4.56481 4.70939 4.54893 4.54698 4.54468 4.54203 4.64116 4.54162 4.54452 4.54708 4.54933 4.61091 4.55538 4.55872 4.56177 4.56453 4.59422 4.56691 4.5661 4.56504 4.56374 4.56597 4.56067 4.55898 4.55729 4.55559 4.55379 4.54713 4.54035 4.53343 4.52639 4.50912 4.50111 4.48328 4.46528 4.44713 4.41021 4.4002 4.37243 4.34454 4.31654 4.26507 4.24975 4.21232 4.17482 4.13725 4.07418 4.0516 4.00489 3.95815 3.91138 3.83849 3.80754 3.75215 3.69674 3.64132 3.56013 3.522 3.45988 3.39777 3.33567 3.24833 3.20555 3.13928 3.07304 3.00682 2.91552 2.87 2.80094 2.73191 2.6629 2.56821 2.52112 2.45009 2.37909 2.30812 2.21055 2.16385 2.09216 2.0205 1.94886 1.84918 1.80474 1.73355 1.66238 1.59124 1.48998 1.4481 1.37695 1.30581 1.23469 1.13053 1.08878 1.01483 0.940891 0.866962 0.756747 0.712184 0.632461 0.552745 0.473036 0.354203 0.305679 0.219548 0.133421 0.0472969 -0.0797605 -0.131483 -0.223283 -0.31508 -0.406876 -0.541566 -0.596964 -0.695134 -0.793302 -0.891469 -1.03532 -1.09628 -1.20274 -1.30918 -1.41563 -1.57121 -1.63926 -1.75357 -1.86787 -1.98216 -2.14683 -2.21924 -2.33877 -2.45829 -2.5778 -2.74827 -2.82274 -2.94591 -3.06906 -3.19221 -3.36758 -3.44271 -3.56907 -3.69541 -3.82174 -4.00402 -4.07977 -4.20896 -4.33813 -4.46728 -4.65711 -4.73199 -4.86275 -4.99349 -5.12421 -5.32009 -5.39191 -5.52177 -5.6516 -5.78142 -5.97907 -6.04371 -6.16992 -6.2961 -6.42291 -6.6191 -6.67659 -6.793 -6.91289 -7.04068 -7.22676 -7.27697 -7.3764 -7.48648 -7.61212 -7.78621 -7.82627 -7.9047 -8.00081 -8.12028 -8.2779 -8.30376 -8.35743 -8.43565 -8.545 -8.68192 -8.69084 -8.71764 -8.77603 -8.87308 -8.98714 -8.9772 -8.97589 -9.01543 -9.10297 -9.1975 -9.17039 -9.14326 -9.16811 -9.24543 -9.32279 -9.27953 -9.23623 -9.24473 -9.30493 -9.36517 -9.30555 -9.2459 -9.23735 -9.27982 -9.32234 -9.24617 -9.16996 -9.14439 -9.16974 -9.19513 -9.10307 -9.01098 -8.97095 -8.97933 -8.98934 -8.88309 -8.78957 -8.73612 -8.71541 -8.71078 -8.59111 -8.49854 -8.4314 -8.38168 -8.36341 -8.23193 -8.14144 -8.06105 -7.98184 -7.94946 -7.81122 -7.71803 -7.62487 -7.53173 -7.47062 -7.33617 -7.23046 -7.12476 -7.01909 -6.9278 -6.81746 -6.72026 -6.62308 -6.52591 -6.42845 -6.40802 -6.38759 -6.36716 -6.34673 -6.32473 -6.19763 -6.0693 -5.94099 -5.8127 -5.67411 -5.5438 -5.40532 -5.26686 -5.12842 -4.9713 -4.8387 -4.69144 -4.54418 -4.39464 -4.22373 -4.08608 -3.93709 -3.78366 -3.62053 -3.44589 -3.30518 -3.16038 -3.0057 -2.83557 -2.6621 -2.52324 -2.38441 -2.23115 -2.06157 -1.89196 -1.75674 -1.62155 -1.47025 -1.30335 -1.1364 -1.00264 -0.868886 -0.717464 -0.55192 -0.386006 -0.252087 -0.112408 0.0393452 0.198044 0.362982 0.496388 0.641695 0.792032 0.943334 1.10581 1.23885 1.38664 1.53444 1.68222 1.83727 1.97411 2.11939 2.26466 2.40993 2.5574 2.61373 2.67241 2.73109 2.78978 2.84845 2.93283 3.01721 3.10159 3.18596 3.2683 3.41058 3.55037 3.69015 3.82994 3.96357 4.10541 4.24003 4.37464 4.50925 4.63319 4.7724 4.90257 5.03126 5.15612 5.27354 5.40742 5.53662 5.65957 5.77394 5.88471 6.01291 6.14104 6.25738 6.36209 6.46677 6.58943 6.71207 6.82291 6.92204 7.02114 7.13872 7.25628 7.36136 7.45414 7.5469 7.6584 7.76832 7.86606 7.95466 8.04084 8.14568 8.24446 8.33594 8.42287 8.50306 8.60186 8.69015 8.77554 8.86068 8.93483 9.02581 9.10554 9.18528 9.26502 9.33775 9.4191 9.49365 9.56821 9.64277 9.7144 9.77055 9.82392 9.8773 9.93068 9.98847 10.0043 10.0202 10.0361 10.0519 10.0677 10.1347 10.2017 10.2686 10.3355 10.4021 10.4668 10.531 10.5952 10.6594 10.723 10.7855 10.8471 10.9086 10.9701 11.0308 11.0911 11.15 11.2086 11.2666 11.3234 11.38 11.4358 11.4904 11.5433 11.5952 11.6474 11.6994 11.7495 11.7968 11.844 11.8919 11.9398 11.9848 12.0267 12.0687 12.1115 12.1542 12.1943 12.232 12.2697 12.3082 12.3467 12.3826 12.4169 12.4513 12.4863 12.5207 12.5539 12.5867 12.6191 12.6519 12.6838 12.7152 12.7466 12.7779 12.8091 12.8393 12.8695 12.8996 12.93 12.9601 12.9901 13.02 13.05 13.0802 13.0897 13.0992 13.1087 13.1183 13.1273 13.1487 13.1701 13.1916 13.213 13.2346 13.266 13.2985 13.3309 13.3634 13.3949 13.4237 13.4604 13.497 13.5352 13.5773 13.6178 13.6511 13.6693 13.6499 13.6253 13.598 13.5705 13.5534 13.5471 13.5407 13.5255 13.5101 13.471 13.4268 13.3826 13.3397 13.2968 13.2386 13.1745 13.1104 13.0528 12.9952 12.9376 12.881 12.8243 12.7745 12.7246 12.6792 12.6378 12.5963 12.5597 12.5231 12.4883 12.4559 12.4236 12.3931 12.3627 12.333 12.3066 12.2803 12.2528 12.2254 12.1946 12.1648 12.135 12.1017 12.0673 12.0292 11.9907 11.9519 11.9079 11.8601 11.8079 11.7535 11.6961 11.6326 11.567 11.5005 11.4336 11.3651 11.2903 11.2109 11.1311 11.0512 10.9664 10.8752 10.7847 10.6942 10.6037 10.5122 10.416 10.3214 10.2267 10.1321 10.0371 9.93789 9.83858 9.73927 9.63996 9.53962 9.43326 9.32641 9.21956 9.1127 9.00526 8.91373 8.82181 8.72989 8.63797 8.52424 8.5046 8.48495 8.46531 8.44566 8.42596 8.29981 8.17353 8.04725 7.92097 7.79408 7.65576 7.51625 7.37673 7.23721 7.09575 6.94121 6.7836 6.62597 6.46835 6.3064 6.12957 5.9458 5.76201 5.5782 5.38538 5.17882 4.96409 4.74934 4.53458 4.30991 4.07225 3.81026 3.5482 3.28607 2.99492 2.69332 2.42475 2.15629 1.88886 1.65532 1.41473 1.08691 0.755322 0.421858 0