# vtk DataFile Version 2.0
track0
ASCII
DATASET POLYDATA
POINTS 11963 double
-0.0205 0.001 1e-05
-0.0204991 0.00100536 1e-05
-0.0204976 0.00101063 1e-05
-0.0204947 0.00101518 1e-05
-0.0204905 0.00101864 1e-05
-0.0204746 0.00102682 1e-05
-0.0201831 0.00105563 1e-05
-0.0203616 0.00128794 1e-05
-0.0204488 0.00141936 1e-05
-0.0201625 0.0014444 1e-05
-0.0201519 0.00173163 1e-05
-0.0202219 0.00184007 1e-05
-0.0200496 0.00193025 1e-05
-0.0200808 0.00212222 1e-05
-0.0201294 0.00229098 1e-05
-0.0200088 0.00238763 1e-05
-0.0199911 0.00254123 1e-05
-0.0200041 0.00269528 1e-05
-0.0199827 0.00277425 1e-05
-0.019869 0.00287784 1e-05
-0.0198179 0.00302292 1e-05
-0.0198054 0.00317623 1e-05
-0.01976 0.00329221 1e-05
-0.0196347 0.00340323 1e-05
-0.0195486 0.00354672 1e-05
-0.0194777 0.00369829 1e-05
-0.019391 0.00384149 1e-05
-0.0193842 0.00384734 1e-05
-0.0193108 0.00390808 1e-05
-0.0192439 0.00397593 1e-05
-0.0191791 0.00404574 1e-05
-0.0191113 0.00411269 1e-05
-0.0190172 0.00419786 1e-05
-0.0189564 0.00424675 1e-05
-0.0188939 0.00429336 1e-05
-0.0188297 0.00433765 1e-05
-0.018764 0.00437962 1e-05
-0.0186585 0.00444232 1e-05
-0.0184263 0.00456527 1e-05
-0.0181852 0.00466952 1e-05
-0.017937 0.00475573 1e-05
-0.0176828 0.00482209 1e-05
-0.0174976 0.00485365 1e-05
-0.0172058 0.00488437 1e-05
-0.0169124 0.00488612 1e-05
-0.0166199 0.00486378 1e-05
-0.0163297 0.00482059 1e-05
-0.0160387 0.00475651 1e-05
-0.0158291 0.00469367 1e-05
-0.0156232 0.00461973 1e-05
-0.0154214 0.00453506 1e-05
-0.0152225 0.00444391 1e-05
-0.0152193 0.00444232 1e-05
-0.0151031 0.00438408 1e-05
-0.0149896 0.0043206 1e-05
-0.0148793 0.0042518 1e-05
-0.0147713 0.0041794 1e-05
-0.0146381 0.00408423 1e-05
-0.0145771 0.00403686 1e-05
-0.014517 0.00398838 1e-05
-0.0144578 0.00393879 1e-05
-0.0143995 0.00388807 1e-05
-0.0143535 0.00384734 1e-05
-0.0142294 0.00373631 1e-05
-0.0141118 0.00361838 1e-05
-0.0140018 0.00349338 1e-05
-0.0138977 0.0033634 1e-05
-0.0138432 0.00329221 1e-05
-0.013766 0.00318862 1e-05
-0.0136964 0.00307983 1e-05
-0.013633 0.00296725 1e-05
-0.0135735 0.00285261 1e-05
-0.0135363 0.00277425 1e-05
-0.0134932 0.0026776 1e-05
-0.0134573 0.00257807 1e-05
-0.0134254 0.00247719 1e-05
-0.013398 0.00237497 1e-05
-0.0133799 0.00229098 1e-05
-0.0133649 0.0022008 1e-05
-0.0133558 0.00210982 1e-05
-0.013352 0.00201846 1e-05
-0.0133543 0.00192705 1e-05
-0.0133627 0.00184007 1e-05
-0.0133775 0.00175593 1e-05
-0.0133999 0.0016735 1e-05
-0.0134292 0.00159326 1e-05
-0.0134655 0.00151593 1e-05
-0.013522 0.00141936 1e-05
-0.0135793 0.00134085 1e-05
-0.0136476 0.00127163 1e-05
-0.0137217 0.00120863 1e-05
-0.0138003 0.00115138 1e-05
-0.0139939 0.00102682 1e-05
-0.0141228 0.000957252 1e-05
-0.0142584 0.000902097 1e-05
-0.0143973 0.000855819 1e-05
-0.0145369 0.000811587 1e-05
-0.0146381 0.000781194 1e-05
-0.0147218 0.000757068 1e-05
-0.0148058 0.000734274 1e-05
-0.0148901 0.000712606 1e-05
-0.014975 0.000692949 1e-05
-0.0151479 0.000660566 1e-05
-0.015326 0.000637957 1e-05
-0.0155046 0.000618778 1e-05
-0.0156834 0.000602267 1e-05
-0.0158624 0.000587754 1e-05
-0.0160387 0.000568034 1e-05
-0.0162827 0.000518196 1e-05
-0.0165304 0.000493449 1e-05
-0.0167792 0.000482385 1e-05
-0.0170281 0.000475586 1e-05
-0.0174976 0.000406387 1e-05
-0.0174976 0.000406387 1e-05
-0.0174976 0.000406387 1e-05
-0.0174976 0.000406387 1e-05
-0.0174976 0.000406387 1e-05
-0.0174976 0.000406387 1e-05
-0.0174952 0.000388878 1e-05
-0.0174898 0.000372046 1e-05
-0.0174821 0.000356134 1e-05
-0.0174727 0.00034117 1e-05
-0.0174557 0.000318841 1e-05
-0.0173838 0.000255072 1e-05
-0.0172967 0.000214399 1e-05
-0.0172047 0.000186604 1e-05
-0.0171106 0.000167063 1e-05
-0.0160387 4.45767e-06 1e-05
-0.0160288 3.56614e-06 1e-05
-0.0160188 3.1104e-06 1e-05
-0.0160088 2.69653e-06 1e-05
-0.0159989 2.28265e-06 1e-05
-0.0159439 0 1e-05
-0.0205 0.00367778 1e-05
-0.0203955 0.00371169 1e-05
-0.0203045 0.00377319 1e-05
-0.0202171 0.00383976 1e-05
-0.0201979 0.00384734 1e-05
-0.0199618 0.00393431 1e-05
-0.019766 0.00409243 1e-05
-0.0196202 0.00429751 1e-05
-0.0194753 0.00444232 1e-05
-0.0193837 0.00449615 1e-05
-0.0192963 0.00455665 1e-05
-0.0192132 0.00462288 1e-05
-0.0191277 0.004686 1e-05
-0.0190172 0.00476149 1e-05
-0.0189141 0.00482519 1e-05
-0.0188083 0.00488437 1e-05
-0.0187002 0.00493908 1e-05
-0.01859 0.00498946 1e-05
-0.0183687 0.00508 1e-05
-0.0181944 0.00513503 1e-05
-0.0180182 0.0051831 1e-05
-0.0178402 0.00522435 1e-05
-0.0176607 0.00525866 1e-05
-0.0174976 0.00528167 1e-05
-0.0172058 0.00530958 1e-05
-0.0169127 0.00531443 1e-05
-0.0166201 0.00529744 1e-05
-0.0163294 0.00526026 1e-05
-0.0160387 0.00520529 1e-05
-0.0159403 0.00518023 1e-05
-0.0158425 0.00515318 1e-05
-0.0157452 0.00512422 1e-05
-0.0156482 0.00509404 1e-05
-0.0156051 0.00508 1e-05
-0.0154117 0.00501582 1e-05
-0.0152217 0.00494221 1e-05
-0.0150358 0.00485881 1e-05
-0.0148542 0.00476639 1e-05
-0.0146381 0.00464668 1e-05
-0.0145718 0.00460581 1e-05
-0.014506 0.00456405 1e-05
-0.0144408 0.0045214 1e-05
-0.0143761 0.00447795 1e-05
-0.0143237 0.00444232 1e-05
-0.0141501 0.00432332 1e-05
-0.0139831 0.00419531 1e-05
-0.0138238 0.00405778 1e-05
-0.0136692 0.00391504 1e-05
-0.0135988 0.00384734 1e-05
-0.0135377 0.00378748 1e-05
-0.0134787 0.00372556 1e-05
-0.0134213 0.00366224 1e-05
-0.0133647 0.00359813 1e-05
-0.0132934 0.00351505 1e-05
-0.0132567 0.00347048 1e-05
-0.0132204 0.00342554 1e-05
-0.0131846 0.00338023 1e-05
-0.0131493 0.00333453 1e-05
-0.0131172 0.00329221 1e-05
-0.013039 0.00318862 1e-05
-0.0129628 0.0030836 1e-05
-0.0128895 0.00297659 1e-05
-0.0128193 0.00286744 1e-05
-0.012762 0.00277425 1e-05
-0.0127042 0.0026776 1e-05
-0.0126479 0.00258012 1e-05
-0.0125931 0.00248176 1e-05
-0.0125398 0.00238261 1e-05
-0.0124929 0.00229098 1e-05
-0.0124492 0.0022008 1e-05
-0.0124058 0.00211048 1e-05
-0.0123627 0.00202004 1e-05
-0.0123198 0.00192948 1e-05
-0.0122788 0.00184007 1e-05
-0.0122437 0.00175593 1e-05
-0.0122071 0.00167243 1e-05
-0.0121693 0.0015895 1e-05
-0.0121299 0.00150727 1e-05
-0.0120855 0.00141936 1e-05
-0.0120689 0.00138755 1e-05
-0.0120511 0.00135642 1e-05
-0.0120322 0.00132593 1e-05
-0.0120122 0.00129614 1e-05
-0.0120025 0.00128285 1e-05
-0.0119639 0.00123164 1e-05
-0.011922 0.00118309 1e-05
-0.0118768 0.00113755 1e-05
-0.0118284 0.00109536 1e-05
-0.0117374 0.00102682 1e-05
-0.0116216 0.000953567 1e-05
-0.0114979 0.0008946 1e-05
-0.0113696 0.000846412 1e-05
-0.0112385 0.000806652 1e-05
-0.0107632 0.000723571 1e-05
-0.0105252 0.000732094 1e-05
-0.0102872 0.000727421 1e-05
-0.0100491 0.000724829 1e-05
-0.00981094 0.000723498 1e-05
-0.00957337 0.000722965 1e-05
-0.00934491 0.00073242 1e-05
-0.00911629 0.000728785 1e-05
-0.00888765 0.000726295 1e-05
-0.008659 0.000724589 1e-05
-0.00843108 0.000723433 1e-05
-0.00821175 0.000732481 1e-05
-0.00799227 0.000728409 1e-05
-0.00777278 0.000725359 1e-05
-0.00755327 0.000723045 1e-05
-0.00733443 0.000721272 1e-05
-0.00712387 0.000729686 1e-05
-0.00691317 0.000725526 1e-05
-0.00670246 0.000722285 1e-05
-0.00649174 0.000719726 1e-05
-0.0062816 0.000717682 1e-05
-0.00607944 0.000725387 1e-05
-0.00587718 0.000721493 1e-05
-0.0056749 0.000718387 1e-05
-0.00547262 0.00071588 1e-05
-0.00527083 0.000713834 1e-05
-0.00507675 0.000720834 1e-05
-0.00488258 0.000717341 1e-05
-0.0046884 0.000714507 1e-05
-0.00449421 0.000712182 1e-05
-0.00430044 0.000710256 1e-05
-0.00411412 0.000716597 1e-05
-0.00392771 0.000713524 1e-05
-0.0037413 0.000710988 1e-05
-0.00355488 0.000708875 1e-05
-0.00336883 0.0007071 1e-05
-0.00318995 0.00071283 1e-05
-0.003011 0.000710119 1e-05
-0.00283204 0.000707854 1e-05
-0.00265308 0.000705946 1e-05
-0.00247443 0.000704326 1e-05
-0.0023027 0.000709505 1e-05
-0.00213091 0.00070713 1e-05
-0.00195911 0.000705106 1e-05
-0.00178731 0.000703369 1e-05
-0.00161577 0.000701866 1e-05
-0.0014509 0.000706498 1e-05
-0.00128598 0.000704394 1e-05
-0.00112105 0.000702617 1e-05
-0.000956124 0.000701111 1e-05
-0.000791418 0.000699828 1e-05
-0.000633135 0.000704094 1e-05
-0.000474803 0.000702402 1e-05
-0.000316467 0.000701118 1e-05
-0.000158128 0.000700174 1e-05
0 0.000699511 1e-05
0.000105677 0.000702712 1e-05
0.000211403 0.000702327 1e-05
0.000317128 0.000702041 1e-05
0.000422854 0.000701842 1e-05
0.000528387 0.000701723 1e-05
0.000634886 0.000704858 1e-05
0.000741431 0.00070462 1e-05
0.000847976 0.000704326 1e-05
0.000954521 0.000703982 1e-05
0.00106088 0.000703593 1e-05
0.00116821 0.000706069 1e-05
0.00127556 0.000705723 1e-05
0.00138292 0.000705444 1e-05
0.00149028 0.000705227 1e-05
0.00159752 0.000705066 1e-05
0.00170568 0.000707455 1e-05
0.00181387 0.000707715 1e-05
0.00192205 0.0007082 1e-05
0.00203024 0.000708891 1e-05
0.00213833 0.000709771 1e-05
0.00224733 0.000713067 1e-05
0.00235637 0.000714699 1e-05
0.0024654 0.000716644 1e-05
0.00257443 0.00071888 1e-05
0.00268334 0.000721385 1e-05
0.00279319 0.000726432 1e-05
0.0029031 0.000729893 1e-05
0.003013 0.000733647 1e-05
0.00312289 0.00073768 1e-05
0.00323259 0.00074197 1e-05
0.00334329 0.000749061 1e-05
0.0034541 0.000754363 1e-05
0.00356489 0.000759869 1e-05
0.00367567 0.000765573 1e-05
0.00378611 0.000771475 1e-05
0.00389767 0.000780421 1e-05
0.00400937 0.000787567 1e-05
0.00412108 0.000794425 1e-05
0.00423279 0.000801368 1e-05
0.00434393 0.000809254 1e-05
0.00445636 0.000819632 1e-05
0.00456894 0.000828322 1e-05
0.0046816 0.000835806 1e-05
0.00479426 0.000843246 1e-05
0.00490609 0.00085234 1e-05
0.0050194 0.000863648 1e-05
0.00513287 0.00087313 1e-05
0.00524648 0.000880766 1e-05
0.00536009 0.000888437 1e-05
0.00547262 0.000898013 1e-05
0.00558681 0.000909747 1e-05
0.00570119 0.00091945 1e-05
0.00581572 0.00092709 1e-05
0.00593025 0.000934718 1e-05
0.00604356 0.000944304 1e-05
0.00615863 0.000956126 1e-05
0.00627389 0.000965969 1e-05
0.00638927 0.000974389 1e-05
0.00650463 0.000982957 1e-05
0.00661893 0.000992701 1e-05
0.0067349 0.00100469 1e-05
0.00685101 0.00101519 1e-05
0.00696714 0.00102557 1e-05
0.00708324 0.00103623 1e-05
0.00719878 0.00104714 1e-05
0.00731565 0.00105994 1e-05
0.00743255 0.00107242 1e-05
0.00754941 0.00108539 1e-05
[...]
POINT_DATA 11963
 FIELD attributes 1
U 3 11963 float
1.13297 	6.3988 	0 1.59185 	5.97922 	0 3.06063 	4.65986 	0 4.29068 	3.52872 	0 5.18155 	2.68002 	0 7.15402 	0.707082 	0 -4.22516 	5.50153 	0 -5.18595 	7.81074 	0 7.56538 	0.661766 	0 0.171657 	4.66616 	0 -9.0494 	14.0259 	0 5.93245 	3.10452 	0 -2.52849 	15.5166 	0 -6.42046 	22.2978 	0 7.16725 	5.74102 	0 1.97812 	17.2213 	0 -2.24894 	26.678 	0 4.29303 	15.8504 	0 9.07753 	8.27007 	0 6.22471 	17.6659 	0 2.39102 	29.3758 	0 7.4895 	19.1147 	0 11.952 	10.5968 	0 10.9785 	18.2856 	0 10.8646 	23.2143 	0 12.8646 	21.266 	0 16.0836 	13.704 	0 16.2322 	13.4317 	0 16.3927 	16.63 	0 16.8101 	18.1018 	0 17.5797 	17.3616 	0 18.3619 	16.6197 	0 19.4189 	15.6308 	0 20.1848 	15.0472 	0 20.9592 	14.4663 	0 21.7409 	13.8887 	0 22.0864 	13.1251 	0 22.0706 	11.6865 	0 24.273 	10.4935 	0 26.3555 	9.15462 	0 27.0768 	7.06759 	0 27.2316 	4.6402 	0 27.3586 	2.88102 	0 28.0782 	0.167324 	0 28.3345 	-2.16425 	0 28.2621 	-4.20615 	0 27.207 	-5.99155 	0 25.8131 	-7.73941 	0 25.2037 	-9.04906 	0 24.5629 	-10.3088 	0 23.354 	-10.7026 	0 22.1348 	-11.0723 	0 22.1148 	-11.0779 	0 21.4878 	-12.0218 	0 20.8639 	-13.0115 	0 20.0263 	-13.4256 	0 19.1177 	-13.6567 	0 17.972 	-13.9606 	0 17.5344 	-14.1383 	0 17.0954 	-14.3192 	0 16.6552 	-14.5033 	0 16.3223 	-14.452 	0 16.0731 	-14.3774 	0 14.8177 	-14.8637 	0 13.5204 	-15.3564 	0 12.3315 	-15.3971 	0 11.459 	-14.9747 	0 10.985 	-14.7472 	0 9.6578 	-15.0828 	0 8.54745 	-15.1948 	0 7.77358 	-14.9732 	0 6.96041 	-14.6558 	0 6.36819 	-14.2898 	0 5.15937 	-14.2838 	0 4.41464 	-13.9468 	0 3.64788 	-13.62 	0 2.85789 	-13.3052 	0 2.1687 	-12.9664 	0 1.26126 	-12.6062 	0 0.500812 	-12.1957 	0 -0.29024 	-11.7994 	0 -1.11229 	-11.4204 	0 -1.93299 	-11.0377 	0 -2.86674 	-10.5406 	0 -3.67975 	-10.0771 	0 -4.5278 	-9.64285 	0 -5.40615 	-9.24266 	0 -6.41664 	-8.78019 	0 -8.00166 	-8.10892 	0 -8.97033 	-7.63144 	0 -9.92038 	-7.22604 	0 -10.7123 	-6.89104 	0 -11.6187 	-6.27381 	0 -13.1372 	-5.34251 	0 -14.0291 	-4.67406 	0 -13.1684 	-4.17324 	0 -12.3501 	-3.70843 	0 -11.7911 	-3.39984 	0 -12.3915 	-3.36084 	0 -13.0241 	-3.34602 	0 -13.8413 	-3.20724 	0 -15.0238 	-2.81364 	0 -17.5045 	-2.22136 	0 -18.2127 	-1.95617 	0 -19.2539 	-1.77767 	0 -20.5534 	-1.6665 	0 -19.8979 	-2.2263 	0 -16.3312 	-3.33608 	0 -24.4765 	-2.44448 	0 -37.0759 	-1.649 	0 -49.4852 	-1.35153 	0 -35.4135 	-5.22029 	0 1.79743 	-13.0836 	0 1.79743 	-13.0836 	0 1.79743 	-13.0836 	0 1.79743 	-13.0836 	0 1.79743 	-13.0836 	0 1.79743 	-13.0836 	0 4.20265 	-13.1215 	0 6.33667 	-13.1083 	0 8.20398 	-13.0541 	0 9.83447 	-12.9681 	0 14.8297 	-13.1459 	0 23.0811 	-10.7778 	0 30.0076 	-9.06336 	0 38.0167 	-7.893 	0 46.6131 	-7.0713 	0 0.354396 	-0.031825 	0 1.18954 	-0.054443 	0 1.4942 	-0.0620942 	0 1.29537 	-0.0538318 	0 1.09655 	-0.0455694 	0 0 	0 	0
9.83292 	3.19126 	0 9.65834 	6.52587 	0 10.0779 	7.67587 	0 11.8158 	4.68125 	0 12.0609 	4.44159 	0 12.9625 	10.469 	0 13.4044 	18.8472 	0 15.3407 	15.3335 	0 17.3397 	10.1874 	0 17.8526 	12.3627 	0 18.3297 	14.6086 	0 18.9078 	13.9595 	0 19.5034 	13.3202 	0 20.2745 	12.5283 	0 21.1498 	11.8346 	0 22.0488 	11.158 	0 22.9689 	10.4989 	0 23.0567 	9.43169 	0 23.1845 	7.3236 	0 24.2111 	6.6017 	0 25.2178 	5.8448 	0 26.0679 	4.9846 	0 26.0997 	3.67967 	0 26.1692 	2.50346 	0 26.78 	0.443215 	0 27.5081 	-1.59701 	0 27.2106 	-3.4802 	0 26.2684 	-4.96718 	0 25.3085 	-6.44659 	0 25.1446 	-6.95208 	0 24.9614 	-7.42931 	0 24.5408 	-7.64132 	0 24.122 	-7.85048 	0 23.9357 	-7.94265 	0 23.2964 	-9.02513 	0 22.7018 	-10.183 	0 22.0148 	-11.2044 	0 20.9001 	-11.5786 	0 19.5706 	-12.0591 	0 19.2625 	-12.2289 	0 18.9565 	-12.4018 	0 18.664 	-12.5379 	0 18.4194 	-12.513 	0 18.2212 	-12.4932 	0 17.0628 	-13.0782 	0 15.8967 	-13.7267 	0 14.9652 	-13.8162 	0 14.1123 	-13.5626 	0 13.7168 	-13.4459 	0 13.0583 	-13.7153 	0 12.5292 	-13.8071 	0 12.1221 	-13.7317 	0 11.7129 	-13.66 	0 11.1865 	-13.5734 	0 10.9412 	-13.553 	0 10.6947 	-13.5342 	0 10.4467 	-13.5172 	0 10.23 	-13.474 	0 10.0927 	-13.3819 	0 9.61187 	-13.2464 	0 8.93879 	-13.037 	0 8.24941 	-12.8346 	0 7.70335 	-12.5149 	0 7.29036 	-12.2054 	0 6.90427 	-11.9472 	0 6.51209 	-11.6926 	0 6.09468 	-11.3317 	0 5.55713 	-10.8619 	0 5.05247 	-10.4347 	0 4.82837 	-10.0483 	0 4.60666 	-9.66106 	0 4.38986 	-9.27202 	0 4.06907 	-8.85444 	0 3.48978 	-8.37297 	0 3.48392 	-7.95378 	0 3.40588 	-7.46202 	0 3.33553 	-6.96945 	0 3.27435 	-6.47609 	0 3.06568 	-5.87897 	0 3.2355 	-5.65462 	0 3.37987 	-5.45808 	0 3.53013 	-5.2632 	0 3.68637 	-5.07031 	0 3.76069 	-4.98303 	0 3.98605 	-4.61596 	0 4.22279 	-4.25531 	0 4.47042 	-3.90311 	0 4.72804 	-3.5614 	0 5.31633 	-3.36222 	0 6.48212 	-3.08977 	0 7.56681 	-2.84221 	0 8.59441 	-2.60557 	0 10.2592 	-1.79333 	0 15.2373 	0.545738 	0 15.294 	-0.300205 	0 16.1173 	-0.175505 	0 16.8901 	-0.0943436 	0 17.6322 	-0.0396107 	0 18.869 	0.780907 	0 18.7346 	-0.297831 	0 19.2701 	-0.209897 	0 19.7802 	-0.147579 	0 20.273 	-0.102826 	0 21.1871 	0.874029 	0 20.9551 	-0.38874 	0 21.3502 	-0.296651 	0 21.724 	-0.229009 	0 22.0825 	-0.178972 	0 22.797 	0.91094 	0 22.5329 	-0.444915 	0 22.848 	-0.351376 	0 23.1446 	-0.281043 	0 23.4274 	-0.227913 	0 24.0165 	0.915345 	0 23.7402 	-0.457055 	0 24.0004 	-0.36845 	0 24.2448 	-0.300496 	0 24.4774 	-0.248203 	0 24.9877 	0.901263 	0 24.7026 	-0.444333 	0 24.9218 	-0.36378 	0 25.1277 	-0.300897 	0 25.3235 	-0.251681 	0 25.7837 	0.877453 	0 25.4913 	-0.420238 	0 25.6776 	-0.349283 	0 25.8529 	-0.292981 	0 26.0196 	-0.24822 	0 26.4455 	0.847038 	0 26.1484 	-0.396062 	0 26.315 	-0.33304 	0 26.4723 	-0.282304 	0 26.6222 	-0.241394 	0 27.0304 	0.815166 	0 26.7312 	-0.369625 	0 26.8841 	-0.316605 	0 27.0294 	-0.273337 	0 27.1686 	-0.237984 	0 27.565 	0.774432 	0 27.264 	-0.347963 	0 27.4374 	-0.295488 	0 27.6033 	-0.252146 	0 27.763 	-0.216295 	0 28.1904 	0.759855 	0 27.8604 	-0.297809 	-1.7908e-21 28.0522 	-0.22737 	-6.30762e-21 28.2336 	-0.168443 	-1.07999e-20 28.4065 	-0.119047 	-1.52718e-20 28.8899 	0.87507 	-1.70577e-20 28.5348 	-0.103847 	-6.37842e-20 28.68 	-0.0776394 	-5.38605e-20 28.8225 	-0.0540925 	-4.40565e-20 28.9626 	-0.0329158 	-3.4359e-20 29.4535 	0.867142 	1.28333e-20 29.0911 	-0.0650895 	-3.27697e-21 29.1961 	-0.0805521 	-7.50931e-21 29.3027 	-0.0945902 	-1.17152e-20 29.4107 	-0.107347 	-1.58972e-20 29.8597 	0.688787 	-1.04473e-20 29.5327 	-0.0953556 	-1.11588e-20 29.6198 	-0.0769233 	-2.79081e-20 29.7051 	-0.0600898 	-4.46411e-20 29.7886 	-0.0447092 	-6.13593e-20 30.1768 	0.666503 	-7.83726e-20 29.9095 	0.0720988 	-6.31478e-20 29.995 	0.134447 	-5.02738e-20 30.0744 	0.192104 	-3.73361e-20 30.148 	0.245448 	-2.43397e-20 30.5102 	0.922501 	-3.08546e-20 30.28 	0.453274 	-5.82847e-20 30.3527 	0.541286 	-5.11565e-20 30.4172 	0.623719 	-4.44367e-20 30.474 	0.700945 	-3.80981e-20 30.8397 	1.41695 	9.37911e-21 30.596 	0.963421 	1.5269e-20 30.6287 	1.04635 	1.45818e-20 30.6542 	1.12499 	1.38648e-20 30.6729 	1.19955 	1.31197e-20 31.0465 	1.98873 	2.01764e-20 30.7989 	1.47363 	4.81854e-20 30.7708 	1.52927 	4.90182e-20 30.7384 	1.58253 	4.99543e-20 30.7053 	1.64116 	5.05726e-20 31.0267 	2.48791 	8.285e-21 30.8557 	1.97391 	2.28328e-20 30.7467 	1.88758 	2.56365e-20 30.6502 	1.90499 	2.55795e-20 30.6345 	2.17374 	2.19286e-20 30.7338 	2.83693 	1.26735e-20 30.6358 	2.36486 	6.2916e-21 30.5345 	2.02825 	2.87795e-21 30.3848 	2.0065 	6.60957e-21 30.3065 	2.46453 	2.20211e-20 30.2221 	3.01615 	3.98562e-20 30.1374 	2.51845 	7.43919e-20 30.0754 	2.02146 	1.08823e-19 29.9321 	2.021 	1.07285e-19 29.756 	2.53212 	7.05818e-20 29.5612 	3.03784 	3.44312e-20 29.4511 	2.4984 	2.18335e-20 29.3618 	1.95862 	9.00451e-21 29.2602 	1.94864 	4.04476e-23 29.0525 	2.45802 	2.90955e-22 28.8292 	2.96173 	5.31618e-22 28.714 	2.45199 	2.22023e-22 28.6101 	2.08815 	0 28.5022 	2.11676 	0 28.3463 	2.4165 	1.42542e-22 28.1477 	2.90989 	3.83256e-22 28.128 	2.54473 	7.31543e-23 28.0598 	2.50584 	3.57213e-21 27.9738 	2.56914 	8.26332e-21 27.8852 	2.63376 	1.29692e-20 27.6811 	3.03075 	1.76724e-20 27.7753 	2.96602 	9.51401e-21 27.7329 	3.07867 	1.20734e-20 27.6859 	3.19229 	1.47437e-20 27.6344 	3.30688 	1.75267e-20 27.5655 	3.43174 	2.09761e-20 27.5759 	3.43559 	2.08334e-20 27.5748 	3.4423 	2.06397e-20 27.5737 	3.44901 	2.04461e-20 27.5726 	3.45571 	2.02525e-20 27.5715 	3.46232 	2.00622e-20 27.5546 	3.5936 	1.49247e-20 27.5331 	3.72464 	9.75859e-21 27.5071 	3.85543 	4.56378e-21 27.4766 	3.98596 	-6.59672e-22 27.4413 	4.02054 	1.32094e-21 27.6159 	4.25707 	-4.0167e-21 27.5889 	4.39821 	-4.51464e-21 27.5558 	4.53776 	-4.96242e-21 27.4499 	4.60483 	-3.7974e-21 27.2746 	4.60327 	-1.07308e-21 27.5823 	4.86694 	-6.6161e-22 27.8834 	5.12875 	-2.46205e-22 27.8482 	5.23053 	0 27.5151 	5.18047 	0 27.1783 	5.12983 	0 27.5477 	5.38759 	0 27.7579 	5.56768 	-7.1639e-24 27.7495 	5.64064 	-2.42745e-23 27.7387 	5.71269 	-4.14276e-23 27.327 	5.62735 	-4.04888e-22 27.5085 	5.7389 	-2.13441e-21 27.5054 	5.76536 	-2.60035e-21 27.4896 	5.78605 	-2.98018e-21 27.4736 	5.80664 	-3.35833e-21 27.4588 	5.82551 	-3.70462e-21 27.4585 	5.85576 	-3.71371e-21 27.458 	5.88595 	-3.71859e-21 27.4573 	5.91608 	-3.71929e-21 27.4504 	5.94426 	-3.90906e-21 27.3084 	5.93092 	-8.36198e-21 27.6626 	6.07475 	-4.72181e-21 27.6492 	6.10266 	-4.58965e-21 27.636 	6.1306 	-4.45165e-21 27.4012 	6.08498 	-7.97868e-21 27.0162 	5.98964 	-1.39888e-20 27.4298 	6.12363 	-1.61802e-20 27.8427 	6.25742 	-1.83727e-20 27.8954 	6.27405 	-1.55453e-20 27.4636 	6.13786 	-8.50163e-21 27.0307 	6.00134 	-1.44338e-21 27.439 	6.10402 	-2.30221e-22 27.5283 	6.10465 	4.51097e-23 27.5187 	6.07362 	2.84846e-23 27.5095 	6.04272 	1.18237e-23 27.3805 	5.97667 	0 27.4399 	5.98703 	0 27.4431 	5.98009 	0 27.4426 	5.97202 	0 27.4421 	5.96396 	0 27.4416 	5.95582 	0 27.4516 	5.92056 	0 27.4617 	5.88527 	0 27.4717 	5.84996 	0 27.4816 	5.81463 	0 27.1624 	5.67968 	0 27.5884 	5.72856 	0 27.7607 	5.70963 	-6.95071e-21 27.7781 	5.64933 	-1.81574e-20 27.446 	5.49441 	-2.94213e-20 27.034 	5.31809 	-4.07104e-20 27.4734 	5.34084 	-1.41386e-19 27.9133 	5.36372 	-2.42148e-19 27.9735 	5.29505 	-2.17195e-19 27.5552 	5.11287 	-8.26092e-20 27.1382 	4.93144 	5.12233e-20 27.5745 	4.92692 	2.49165e-19 27.745 	4.86551 	3.09122e-19 27.7467 	4.76795 	2.81381e-19 27.7496 	4.67068 	2.54279e-19 27.4099 	4.50415 	1.27655e-19 27.6565 	4.46841 	2.25668e-19 27.6607 	4.38695 	2.03735e-19 27.6652 	4.30558 	1.82291e-19 27.6701 	4.22429 	1.61337e-19 27.6765 	4.1256 	1.36466e-19 27.6792 	4.10247 	1.27564e-19 27.6819 	4.07934 	1.18724e-19 27.6846 	4.05621 	1.09945e-19 27.6874 	4.03309 	1.01228e-19 27.6377 	4.00107 	1.26027e-19 27.7201 	3.89653 	2.12623e-19 27.732 	3.77978 	2.64094e-19 27.7439 	3.66299 	3.14915e-19 27.7559 	3.54618 	3.65085e-19 27.4772 	3.38889 	2.46279e-19 27.8474 	3.314 	4.46021e-19 27.8601 	3.18805 	4.96569e-19 27.8724 	3.06201 	5.46537e-19 27.7688 	2.92279 	5.17273e-19 27.3954 	2.75359 	3.03789e-19 27.7675 	2.6607 	2.25851e-19 27.9874 	2.55046 	1.78665e-19 27.9992 	2.41651 	1.73121e-19 27.7319 	2.25854 	2.47448e-19 27.3592 	2.09207 	3.52554e-19 27.7213 	1.98092 	6.03761e-19 28.0747 	1.86899 	8.4691e-19 28.0755 	1.72727 	7.88974e-19 27.7072 	1.56501 	4.95822e-19 27.3413 	1.40332 	2.03669e-19 27.6884 	1.27617 	1.23877e-19 28.0371 	1.14905 	4.41527e-20 28.0326 	1.00285 	-6.5956e-20 27.6698 	0.845297 	-1.15477e-19 27.3093 	0.688049 	-1.65763e-19 27.6288 	0.547137 	-1.13958e-19 27.9498 	0.406185 	-6.30503e-20 27.9412 	0.254994 	5.81862e-20 27.5887 	0.10192 	1.62095e-19 27.2382 	-0.0511426 	2.66066e-19 27.5238 	-0.202057 	6.32452e-19 27.8112 	-0.353093 	9.98986e-19 27.8002 	-0.510323 	1.14436e-18 27.4611 	-0.659394 	9.39386e-19 27.1238 	-0.808783 	7.35563e-19 27.3704 	-0.966264 	9.7578e-19 27.5674 	-1.12429 	1.1437e-18 27.5276 	-1.28406 	9.7238e-19 27.2898 	-1.43302 	6.5448e-19 26.9695 	-1.57797 	2.74261e-19 27.175 	-1.73797 	1.73612e-19 27.2238 	-1.8969 	1.00954e-19 27.167 	-2.05522 	4.73662e-20 27.0843 	-2.21177 	0 26.784 	-2.35205 	0 26.9129 	-2.51009 	5.9399e-23 26.8395 	-2.664 	4.49367e-22 26.7674 	-2.81836 	8.41688e-22 26.6966 	-2.97316 	1.23636e-21 26.5773 	-3.12434 	-1.49938e-20 26.5944 	-3.15849 	-1.10522e-19 26.5749 	-3.19146 	-1.11335e-19 26.5554 	-3.22445 	-1.11936e-19 26.536 	-3.25748 	-1.12325e-19 26.5184 	-3.28765 	-1.12485e-19 26.4573 	-3.40588 	-7.79383e-20 26.3976 	-3.52456 	-3.96399e-20 26.3391 	-3.64367 	2.43e-21 26.2819 	-3.76323 	4.82906e-20 26.0816 	-3.86782 	-3.49853e-19 26.17 	-4.04472 	-4.74081e-19 26.0929 	-4.19188 	-4.70502e-19 26.0102 	-4.33844 	-4.60472e-19 25.8092 	-4.47063 	-3.05399e-19 25.5297 	-4.59499 	-5.33298e-20 25.5833 	-4.76108 	-6.27817e-19 25.6381 	-4.92786 	-1.19982e-18 25.5458 	-5.07356 	-1.18982e-18 25.2803 	-5.18957 	-4.84759e-19 25.0139 	-5.30789 	2.27267e-19 25.0427 	-5.45978 	1.25216e-19 24.9367 	-5.59366 	8.4232e-20 24.8001 	-5.72393 	5.77062e-20 24.6642 	-5.85495 	3.15626e-20 24.5603 	-5.95644 	1.17259e-20 24.553 	-5.96494 	8.51156e-21 24.5458 	-5.97343 	5.29611e-21 24.5385 	-5.98193 	2.07958e-21 24.5287 	-5.98978 	-8.45408e-23 24.5142 	-5.99645 	-3.23877e-22 24.3941 	-6.13013 	0 24.261 	-6.26071 	0 24.1296 	-6.39248 	0 23.9441 	-6.51177 	3.94983e-20 23.6919 	-6.61814 	1.26044e-19 23.626 	-6.75658 	9.11221e-20 23.5608 	-6.89597 	5.68374e-20 23.3847 	-7.01089 	2.38099e-20 23.1829 	-7.11996 	-2.28399e-20 22.9338 	-7.22013 	-1.01065e-19 22.9142 	-7.2586 	-2.51565e-19 22.8801 	-7.29389 	-3.13232e-19 22.8238 	-7.32426 	-2.3852e-19 22.7675 	-7.35472 	-1.63259e-19 22.7144 	-7.38362 	-9.15457e-20 22.5886 	-7.4649 	1.41276e-19 22.4632 	-7.54686 	3.78131e-19 22.3383 	-7.62951 	6.19064e-19 22.1809 	-7.70057 	3.93037e-19 22.0073 	-7.76827 	-3.41239e-20 21.8596 	-7.88381 	2.41664e-20 21.7122 	-8.00053 	8.40724e-20 21.4902 	-8.09368 	1.61046e-20 21.2664 	-8.18735 	-5.39149e-20 21.0177 	-8.27762 	-1.17137e-19 21.0055 	-8.28727 	-1.5497e-19 20.9925 	-8.29663 	-1.85833e-19 20.9716 	-8.30329 	-1.5368e-19 20.9508 	-8.30996 	-1.21484e-19 20.9302 	-8.31654 	-8.97189e-20 20.7228 	-8.40436 	1.58967e-19 20.5155 	-8.49362 	4.11251e-19 20.3084 	-8.58435 	6.67201e-19 20.0686 	-8.65653 	3.24983e-19 19.8211 	-8.73185 	-3.95727e-20 19.7032 	-8.78236 	1.12327e-19 19.5854 	-8.83336 	2.63761e-19 19.4366 	-8.86808 	1.69758e-19 19.2852 	-8.90183 	5.4209e-20 19.1478 	-8.93284 	-5.16952e-20 19.0182 	-8.97737 	-1.40964e-19 18.8885 	-9.02243 	-2.31211e-19 18.7584 	-9.06593 	-2.80989e-19 18.6266 	-9.10205 	-1.74747e-19 18.4919 	-9.13943 	-6.65921e-20 18.2749 	-9.19752 	-6.3263e-20 18.0577 	-9.25689 	-6.03692e-20 17.8246 	-9.2985 	-5.68692e-20 17.5857 	-9.33455 	-5.34222e-20 17.3794 	-9.36667 	-5.08131e-20 17.2912 	-9.39362 	-3.10763e-20 17.203 	-9.42084 	-1.12993e-20 17.1166 	-9.44574 	0 17.0326 	-9.46744 	0 16.947 	-9.48978 	0 16.6813 	-9.53787 	0 16.4157 	-9.58799 	0 16.1489 	-9.62663 	0 15.8811 	-9.65571 	0 15.6535 	-9.682 	0 15.5557 	-9.7099 	0 15.458 	-9.73824 	0 15.3654 	-9.76394 	-1.231e-21 15.2767 	-9.78778 	-3.37693e-21 15.1858 	-9.81261 	-5.58174e-21 14.9262 	-9.84507 	-5.84482e-21 14.6674 	-9.87991 	-6.16078e-21 14.4161 	-9.91206 	-8.47822e-21 14.1765 	-9.93836 	-1.39815e-20 13.9707 	-9.96294 	-1.87859e-20 13.8229 	-10.0057 	-2.88241e-20 13.6755 	-10.0499 	-3.89621e-20 13.5451 	-10.0923 	-3.4903e-20 13.4239 	-10.1344 	-2.34462e-20 13.2969 	-10.1799 	-1.14393e-20 13.0917 	-10.2013 	-7.75084e-21 12.8877 	-10.2248 	-4.05515e-21 12.6957 	-10.2517 	-6.70867e-21 12.535 	-10.2838 	-2.7106e-20 12.3927 	-10.3143 	-4.53735e-20 12.182 	-10.397 	-4.21391e-20 11.9739 	-10.4843 	-3.85714e-20 11.8096 	-10.5715 	-5.02183e-20 11.6612 	-10.6612 	-6.66628e-20 11.4997 	-10.7646 	-8.46023e-20 11.4078 	-10.7817 	-1.29194e-19 11.3165 	-10.7994 	-1.73572e-19 11.2296 	-10.8191 	-2.07936e-19 11.1763 	-10.8506 	-1.57665e-19 11.126 	-10.881 	-1.09656e-19 10.8937 	-11.0398 	7.71843e-20 10.6701 	-11.2097 	2.68326e-19 10.518 	-11.386 	2.46504e-19 10.4236 	-11.5679 	9.77367e-20 10.3631 	-11.7263 	-4.66072e-20 10.3603 	-11.7686 	-5.06817e-20 10.3578 	-11.8111 	-5.47507e-20 10.3541 	-11.8446 	-4.66393e-20 10.3505 	-11.8775 	-3.76434e-20 10.347 	-11.9113 	-2.84557e-20 10.2693 	-12.0894 	8.98335e-21 10.1995 	-12.274 	4.6838e-20 10.1406 	-12.4654 	8.69434e-20 10.1627 	-12.6704 	1.69128e-19 10.1874 	-12.8609 	2.44289e-19 10.2413 	-13.0745 	2.96721e-19 10.2983 	-13.2908 	3.49254e-19 10.3285 	-13.4556 	2.92999e-19 10.3604 	-13.621 	2.33497e-19 10.3972 	-13.7998 	1.70146e-19 10.4089 	-13.8923 	1.3801e-19 10.4214 	-13.9854 	1.05908e-19 10.4347 	-14.0792 	7.38414e-20 10.4765 	-14.1816 	4.32814e-20 10.5191 	-14.2827 	1.33897e-20 10.6837 	-14.6407 	-2.2322e-21 10.8529 	-15.0025 	-1.74088e-20 10.9703 	-15.3 	-1.11328e-19 11.0379 	-15.5448 	-2.52124e-19 11.0825 	-15.7627 	-3.98895e-19 11.1063 	-15.8139 	-4.07314e-19 11.1301 	-15.8652 	-4.15728e-19 11.1338 	-15.8962 	-4.05119e-19 11.1357 	-15.9253 	-3.92698e-19 11.1378 	-15.9547 	-3.80168e-19 11.2749 	-16.2266 	-3.65347e-19 11.4134 	-16.4995 	-3.50254e-19 11.5466 	-16.7669 	-3.25527e-19 11.5926 	-16.9457 	-1.73622e-19 11.6397 	-17.1233 	-2.38257e-20 11.7293 	-17.2994 	7.24881e-20 11.8194 	-17.476 	1.68877e-19 11.8309 	-17.5752 	1.35231e-19 11.83 	-17.6621 	7.97097e-20 11.8303 	-17.7519 	2.31876e-20 11.9175 	-17.8945 	2.66e-20 12.0048 	-18.0372 	3.00149e-20 12.0848 	-18.1729 	3.32033e-20 12.1052 	-18.2519 	3.45652e-20 12.1259 	-18.331 	3.59341e-20 12.2502 	-18.5667 	1.96903e-20 12.3752 	-18.803 	3.45212e-21 12.3806 	-18.9208 	0 12.3554 	-19.0079 	0 12.3317 	-19.0993 	0 12.3626 	-19.1439 	0 12.3934 	-19.1885 	0 12.4195 	-19.2286 	3.88136e-22 12.4223 	-19.2469 	2.6396e-21 12.4252 	-19.2653 	4.89118e-21 12.5413 	-19.4845 	3.61944e-21 12.6579 	-19.7044 	2.33325e-21 12.661 	-19.8093 	1.02996e-21 12.5834 	-19.8344 	-1.1341e-21 12.4712 	-19.8297 	-6.16327e-21 12.4697 	-19.834 	-3.55823e-21 12.4683 	-19.8383 	-9.53352e-22 12.4629 	-19.8377 	-1.81819e-21 12.4553 	-19.8343 	-4.68583e-21 12.4476 	-19.831 	-7.56057e-21 12.4937 	-19.9455 	-1.09398e-20 12.5398 	-20.0601 	-1.43773e-20 12.5262 	-20.1104 	-3.45897e-20 12.4025 	-20.0422 	-8.57562e-20 12.2799 	-19.9749 	-1.36633e-19 12.2705 	-19.9775 	-1.2456e-19 12.2611 	-19.9801 	-1.12484e-19 12.2386 	-19.9661 	-1.13894e-19 12.2115 	-19.9462 	-1.20066e-19 12.1842 	-19.9262 	-1.26276e-19 12.1901 	-19.9564 	-3.33987e-19 12.1959 	-19.9865 	-5.41538e-19 12.175 	-19.9872 	-6.33559e-19 12.071 	-19.8963 	-3.66014e-19 11.9673 	-19.8058 	-9.92711e-20 11.9415 	-19.7866 	8.19604e-21 11.9157 	-19.7674 	1.15698e-19 11.865 	-19.7192 	1.01375e-19 11.8069 	-19.6625 	5.10404e-20 11.7482 	-19.6053 	3.04138e-22 11.7389 	-19.5954 	2.35157e-20 11.7297 	-19.5854 	4.67298e-20 11.7066 	-19.5604 	6.57919e-20 11.6301 	-19.4777 	6.89519e-20 11.5536 	-19.3951 	7.21365e-20 11.5084 	-19.3433 	3.93403e-20 11.4632 	-19.2915 	6.5513e-21 11.3792 	-19.1989 	-1.05876e-20 11.2855 	-19.096 	-2.38136e-20 11.1906 	-18.992 	-3.71968e-20 11.1791 	-18.9763 	-3.79202e-20 11.1677 	-18.9606 	-3.86441e-20 11.1505 	-18.9385 	-3.91199e-20 11.1068 	-18.8866 	-3.84262e-20 11.063 	-18.8347 	-3.77364e-20 10.9904 	-18.7569 	-1.04718e-19 10.9176 	-18.6791 	-1.71767e-19 10.7852 	-18.5355 	-1.39083e-19 10.6395 	-18.3774 	-8.44421e-20 10.49 	-18.2155 	-2.70123e-20 10.4887 	-18.2142 	-2.6384e-20 10.4874 	-18.2129 	-2.57557e-20 10.4857 	-18.2112 	-2.60359e-20 10.4838 	-18.2094 	-2.64715e-20 10.482 	-18.2076 	-2.69072e-20 10.3631 	-18.0945 	-1.01794e-19 10.2434 	-17.9809 	-1.76378e-19 10.1137 	-17.8539 	-2.25293e-19 9.92278 	-17.6415 	-1.07899e-19 9.73356 	-17.4316 	8.04786e-21 9.68264 	-17.3964 	9.71987e-21 9.63157 	-17.3612 	1.13875e-20 9.56351 	-17.2987 	1.12269e-20 9.49347 	-17.2331 	1.0865e-20 9.4215 	-17.1659 	1.04903e-20 9.3262 	-17.0781 	6.91543e-21 9.23048 	-16.9901 	3.3438e-21 9.13214 	-16.8976 	0 9.00094 	-16.7393 	0 8.87092 	-16.5829 	0 8.73581 	-16.4935 	0 8.59978 	-16.4041 	0 8.4356 	-16.2264 	0 8.26968 	-16.0457 	0 8.09028 	-15.8514 	0 8.06201 	-15.8217 	0 8.03371 	-15.792 	0 8.00538 	-15.7623 	0 7.97264 	-15.7159 	0 7.93983 	-15.669 	0 7.76443 	-15.5061 	0 7.58011 	-15.3214 	0 7.38793 	-15.0896 	0 7.19239 	-14.7721 	0 7.0005 	-14.4616 	0 6.927 	-14.3845 	0 6.85416 	-14.3023 	0 6.78973 	-14.1704 