/*--------------------------------*- C++ -*----------------------------------*\
| =========                 |                                                 |
| \\      /  F ield         | OpenFOAM: The Open Source CFD Toolbox           |
|  \\    /   O peration     | Version:  v1906                                 |
|   \\  /    A nd           | Web:      www.OpenFOAM.com                      |
|    \\/     M anipulation  |                                                 |
\*---------------------------------------------------------------------------*/
FoamFile
{
    version     2.0;
    format      ascii;
    class       volScalarField;
    location    "1500";
    object      epsilon;
}
// * * * * * * * * * * * * * * * * * * * * * * * * * * * * * * * * * * * * * //

dimensions      [0 2 -3 0 0 0 0];


internalField   nonuniform List<scalar> 
12225
(
8534.02
8352.94
7991.35
7605.05
7244.18
6922.22
6638.75
6393.06
6174.32
5988
5814.41
5675.34
5563.81
5474.07
5392.14
5333.56
5263.41
5236.96
612.84
1496.63
1698.55
1689.08
1643.07
1565.04
1507.1
1461.12
1422.88
1390.4
1363.02
1338.95
1320.5
1304.29
1290.93
1279.94
1265.85
1257.32
136.092
458.856
618.703
686.93
717.312
720.689
717.593
710.259
700.312
689.769
679.764
669.78
660.742
652.257
644.277
637.698
629.491
625.744
58.494
196.182
292.431
349.173
383.813
402.644
412.986
418.184
419.63
419.088
417.558
414.811
411.637
408.233
404.619
401.415
397.052
395.413
35.983
104.798
162.955
203.265
231.27
250.095
262.833
271.47
277.097
280.639
282.818
283.904
284.118
283.902
283.304
282.504
280.978
280.945
26.8377
65.6339
102.217
130.426
151.689
167.447
179.144
187.876
194.36
199.147
202.695
205.278
207.084
208.331
209.14
209.635
209.755
210.319
22.3044
46.1293
70.0868
90.0247
105.969
118.525
128.397
136.186
142.339
147.201
151.059
154.119
156.529
158.425
159.909
161.07
161.907
162.96
19.7658
35.3026
51.5625
65.8848
77.8835
87.7565
95.8434
102.475
107.923
112.407
116.11
119.176
121.714
123.819
125.564
127.016
128.206
129.466
18.2251
28.7917
40.1558
50.6108
59.7078
67.4557
74.0065
79.539
84.2159
88.1764
91.5395
94.4028
96.8452
98.9325
100.721
102.256
103.583
104.884
17.2355
24.6379
32.7698
40.5144
47.4719
53.5703
58.8628
63.4414
67.4011
70.8293
73.803
76.3882
78.6404
80.6064
82.3268
83.837
85.1763
86.4452
16.5719
21.8685
27.796
33.6061
38.972
43.7941
48.0743
51.8539
55.1859
58.1236
60.7165
63.0087
65.0385
66.8394
68.4408
69.8694
71.1562
72.3573
16.1501
20.1181
24.6285
29.1497
33.4187
37.3333
40.8718
44.0488
46.8928
49.4365
51.7122
53.7502
55.5774
57.2183
58.6945
60.0268
61.2385
62.3637
15.8383
18.8309
22.2849
25.8212
29.2312
32.4191
35.3514
38.0258
40.4546
42.656
44.6501
46.4567
48.0945
49.5808
50.9316
52.1625
53.2905
54.3374
15.58
17.7732
20.3483
23.0458
25.707
28.2478
30.6297
32.8394
34.8774
36.7508
38.4698
40.046
41.4911
42.8164
44.033
45.1519
46.1846
47.1447
15.3747
16.9401
18.8142
20.8273
22.8636
24.8533
26.7578
28.5577
30.2454
31.8201
33.2847
34.6443
35.9051
37.0735
38.1567
39.1615
40.0955
40.9668
15.2203
16.3203
17.6663
19.1524
20.6975
22.2459
23.7617
25.223
26.6176
27.9391
29.1854
30.3568
31.4553
32.4839
33.4463
34.3464
35.1885
35.9771
15.1155
15.9034
16.8899
18.0102
19.2078
20.4386
21.6708
22.8822
24.0579
25.1885
26.2687
27.2957
28.2686
29.1879
30.0551
30.872
31.6408
32.3634
15.0629
15.6954
16.5006
17.4331
18.4494
19.5124
20.593
21.6694
22.7262
23.7526
24.7416
25.689
26.5925
27.4513
28.2655
29.0362
29.7649
30.4536
15.079
15.7585
16.6172
17.604
18.6719
19.7823
20.9057
22.0204
23.1114
24.1685
25.185
26.1571
27.083
27.962
28.7943
29.5809
30.3228
31.0207
15.1988
16.233
17.5007
18.9058
20.3738
21.8523
23.3071
24.7166
26.068
27.3545
28.5731
29.7232
30.806
31.8236
32.7785
33.6732
34.51
35.2897
15.4072
17.0666
19.0413
21.1512
23.2771
25.3486
27.3277
29.1962
30.9475
32.5817
34.1024
35.5153
36.8269
38.0441
39.1735
40.2206
41.1899
42.0818
15.767
18.5248
21.7121
24.9932
28.179
31.1792
33.9596
36.5144
38.8515
40.9852
42.9318
44.708
46.3297
47.812
49.1685
50.4106
51.5469
52.576
16.3867
21.0659
26.3182
31.5134
36.3618
40.7669
44.721
48.2513
51.3972
54.2006
56.7013
58.9355
60.9354
62.7296
64.3436
65.7988
67.1129
68.2778
17.4987
25.6602
34.5307
42.894
50.3473
56.8492
62.4798
67.3427
71.5438
75.1799
78.3344
81.0782
83.4714
85.5647
87.4033
89.024
90.4648
91.7037
19.6474
34.5754
50.105
63.8327
75.3831
84.972
92.9176
99.4886
104.935
109.466
113.244
116.405
119.055
121.281
123.163
124.754
126.141
127.27
24.2997
53.9035
82.4113
105.38
123.265
137.148
147.96
156.307
162.788
167.839
171.769
174.824
177.186
178.99
180.389
181.427
182.285
182.827
36.4922
103.325
158.511
197.272
224.155
242.902
255.957
264.556
270.345
274.149
276.461
277.729
278.207
278.107
277.755
277.007
276.255
275.212
81.6126
262.527
372.081
433.117
466.539
484.618
492.853
493.483
492.252
489.322
485.1
480.445
475.688
470.789
466.196
461.431
457.469
453.108
390.158
975.271
1160.17
1205.5
1197.64
1174.07
1134.75
1094.91
1063.48
1037.59
1015.55
996.439
979.803
964.996
952.132
940.369
930.472
921.027
6457.22
6260.43
5992.32
5735.79
5500.4
5289.67
5101.52
4934.12
4785.35
4652.79
4534.19
4427.54
4331.48
4244.19
4165.34
4092.72
4027.28
3965.71
8.24888
10.1185
17.4683
22.6005
26.8317
29.9046
32.3421
34.2439
35.8229
37.1542
38.3227
39.3669
40.3248
41.2156
42.0524
42.8427
43.5831
44.29
44.9291
45.587
46.032
46.0826
45.9567
45.5615
44.7452
43.4643
41.7123
39.4726
36.7521
33.6024
29.9536
25.7471
21.1896
16.3223
13.0112
11.4434
11.1597
11.4394
11.8541
12.0147
11.8016
10.9527
9.25894
7.73622
7.59329
9.4262
12.6574
17.0549
22.7208
29.9684
39.5393
48.6832
57.5854
66.2295
74.6468
82.8332
90.7996
98.5577
106.124
113.525
120.803
127.979
135.057
142.039
148.931
155.739
162.469
169.127
175.718
182.248
188.719
195.134
201.492
207.79
214.025
220.192
226.291
232.33
238.32
244.255
250.131
255.938
261.661
267.281
272.769
278.084
283.169
287.95
292.378
296.959
301.451
305.997
310.56
315.163
319.766
324.358
328.943
333.509
338.05
342.561
347.033
351.425
355.721
359.892
363.917
367.763
371.399
374.8
378.008
381.047
383.915
386.608
389.123
391.458
393.618
395.607
397.428
399.082
400.567
401.89
403.08
404.143
405.093
405.911
406.625
407.232
407.365
407.741
407.83
407.877
407.792
407.623
407.365
407.033
406.596
406.067
405.498
404.909
404.253
403.602
402.932
402.247
401.564
400.895
400.251
399.64
399.076
398.567
398.123
397.752
397.502
397.384
397.463
398.146
399.491
401.114
402.831
404.594
405.899
405.96
405.891
406.209
406.97
408.073
409.562
411.515
413.926
416.683
419.73
422.88
426.096
429.019
431.841
433.804
435.656
435.938
436.368
433.741
431.981
402.463
25.9422
17.8934
16.322
16.1546
16.3676
16.755
17.1525
17.5604
17.9288
18.2718
18.5861
18.8742
19.1354
19.3742
19.5947
19.8021
19.9993
20.1878
20.3654
20.5305
20.6729
20.7829
20.863
20.9445
21.1067
21.2989
21.4427
21.4932
21.5246
21.7638
22.3334
23.2428
24.2904
25.5403
27.1189
28.9288
30.8462
32.7705
34.6668
36.4897
38.117
39.3964
40.2889
41.0345
41.9289
42.989
44.0471
45.044
46.0505
47.1601
48.4291
49.7868
51.2253
52.7637
54.4126
56.171
58.0334
59.9956
62.0589
64.2339
66.4423
68.594
70.6746
72.6916
74.6573
76.5832
78.4785
80.3508
82.2053
84.0463
85.8768
87.6997
89.5184
91.3371
93.1634
95.0092
96.8949
98.813
100.74
102.666
104.585
106.495
108.392
110.274
112.138
113.984
115.81
117.624
119.44
121.276
123.13
125.008
126.917
128.86
130.796
132.721
134.636
136.539
138.427
140.293
142.122
143.912
145.67
147.403
149.12
150.838
152.589
154.444
156.368
158.283
160.167
162.015
163.824
165.594
167.324
169.01
170.65
172.242
173.785
175.278
176.723
178.116
179.454
180.739
181.971
183.134
184.234
185.3
186.293
187.233
188.11
188.931
189.692
190.392
191.023
191.588
192.093
192.54
192.922
193.245
193.502
193.694
193.822
193.888
193.89
193.836
193.722
193.549
193.325
193.053
192.728
192.378
192.038
191.654
191.227
190.838
190.488
190.128
189.692
189.129
188.563
188.082
187.716
187.479
187.393
187.473
187.712
188.079
188.532
189.016
189.461
189.801
189.969
189.885
189.515
188.811
187.585
186.012
183.078
181.452
52.2026
27.8883
22.4726
19.8327
18.7236
18.0538
17.7301
17.6499
17.6703
17.758
17.8726
18
18.1288
18.2608
18.3969
18.5405
18.6916
18.8487
19.0081
19.1666
19.3224
19.4776
19.6444
19.855
20.1732
20.6544
21.3012
22.1458
23.273
24.8273
26.993
29.9263
33.7057
38.1406
42.8804
47.5838
51.9477
55.7432
58.7769
60.8077
61.6234
61.2943
60.0462
58.2539
56.2674
54.3334
52.6185
51.2429
50.2783
49.7854
49.6881
49.9726
50.585
51.4601
52.5402
53.7708
55.1043
56.5018
57.9327
59.3733
60.8044
62.2136
63.5969
64.9557
66.2941
67.617
68.9296
70.2364
71.5418
72.8489
74.1608
75.4798
76.8081
78.1479
79.5012
80.8697
82.2537
83.6519
85.0619
86.4827
87.9138
89.3555
90.8085
92.2748
93.7572
95.2608
96.7934
98.3671
99.9998
101.68
103.389
105.119
106.864
108.618
110.375
112.133
113.887
115.636
117.375
119.099
120.805
122.496
124.177
125.851
127.525
129.203
130.89
132.586
134.278
135.957
137.619
139.263
140.892
142.506
144.101
145.668
147.201
148.694
150.145
151.551
152.91
154.221
155.483
156.692
157.848
158.948
159.992
160.98
161.909
162.778
163.586
164.333
165.016
165.634
166.185
166.669
167.086
167.437
167.716
167.925
168.064
168.131
168.133
168.065
167.93
167.731
167.466
167.135
166.739
166.281
165.772
165.219
164.628
163.994
163.331
162.66
161.985
161.294
160.576
159.843
159.13
158.466
157.868
157.342
156.894
156.525
156.222
155.969
155.732
155.477
155.157
154.738
154.167
153.425
152.454
151.274
149.746
148.014
145.882
145.569
68.7391
35.9514
27.9462
24.3779
22.3916
21.2749
20.5537
20.192
19.9743
19.8873
19.8579
19.8801
19.9344
20.0253
20.1491
20.3079
20.4986
20.72
20.9716
21.2583
21.5882
21.9726
22.4299
22.993
23.7198
24.7069
25.9713
27.5361
29.4372
31.7117
34.3749
37.4157
40.7846
44.3795
48.0547
51.6502
54.9868
57.8099
59.8109
60.7535
60.7126
59.7972
58.2884
56.5021
54.7096
53.1063
51.8234
50.9288
50.4653
50.3702
50.609
51.1331
51.8931
52.8327
53.8976
55.0441
56.2395
57.4619
58.6963
59.9332
61.1685
62.4017
63.6343
64.8693
66.1115
67.3649
68.6325
69.9165
71.2185
72.5392
73.8794
75.239
76.6182
78.0166
79.434
80.8697
82.3225
83.7918
85.2767
86.7765
88.2906
89.819
91.362
92.9206
94.4963
96.0916
97.7088
99.3501
101.016
102.702
104.407
106.127
107.859
109.6
111.346
113.093
114.838
116.58
118.314
120.04
121.758
123.469
125.173
126.873
128.569
130.261
131.948
133.628
135.298
136.955
138.601
140.24
141.881
143.542
145.202
146.836
148.434
149.991
151.502
152.964
154.375
155.732
157.034
158.278
159.463
160.587
161.648
162.644
163.574
164.437
165.23
165.952
166.602
167.178
167.679
168.104
168.454
168.727
168.921
169.033
169.066
169.025
168.908
168.717
168.455
168.128
167.73
167.26
166.719
166.111
165.443
164.723
163.957
163.151
162.322
161.48
160.629
159.769
158.902
158.037
157.19
156.372
155.592
154.862
154.181
153.543
152.934
152.336
151.728
151.086
150.38
149.584
148.665
147.607
146.371
144.969
143.333
141.581
139.807
139.143
94.9904
44.9585
33.8935
28.9301
26.2623
24.6242
23.5938
22.9399
22.5295
22.312
22.1998
22.1826
22.2249
22.3288
22.4824
22.6881
22.9411
23.2452
23.6032
24.0234
24.5157
25.0962
25.7867
26.6143
27.6096
28.812
30.2445
31.9108
33.7915
35.8415
38.0038
40.2379
42.5542
44.9888
47.5543
50.1425
52.5078
54.3549
55.4392
55.7381
55.3677
54.5471
53.5237
52.5085
51.6543
51.0535
50.7541
50.7265
50.9665
51.4431
52.1138
52.9393
53.8843
54.9187
56.0188
57.1665
58.3495
59.5589
60.7906
62.0431
63.3163
64.6106
65.9267
67.2656
68.6273
70.0121
71.4203
72.8521
74.3077
75.7873
77.2908
78.8181
80.3689
81.943
83.5397
85.1584
86.7986
88.4592
90.1395
91.8391
93.5577
95.2955
97.0529
98.8304
100.628
102.447
104.285
106.142
108.016
109.904
111.805
113.717
115.639
117.57
119.509
121.455
123.408
125.364
127.321
129.279
131.234
133.186
135.134
137.077
139.013
140.94
142.855
144.755
146.639
148.506
150.355
152.186
153.998
155.787
157.543
159.257
160.924
162.539
164.099
165.599
167.038
168.413
169.72
170.957
172.122
173.214
174.229
175.167
176.025
176.803
177.497
178.107
178.631
179.068
179.417
179.678
179.853
179.938
179.939
179.85
179.675
179.416
179.076
178.66
178.178
177.638
177.024
176.331
175.561
174.72
173.814
172.851
171.842
170.803
169.766
168.721
167.665
166.602
165.534
164.468
163.411
162.372
161.359
160.378
159.43
158.506
157.599
156.695
155.781
154.837
153.845
152.779
151.626
150.357
148.977
147.451
145.841
144.125
142.638
141.453
116.129
54.1682
39.8004
33.4141
30.0893
27.9991
26.7461
25.9039
25.3879
25.0475
24.852
24.7571
24.7592
24.8514
25.0209
25.2602
25.5653
25.9392
26.3851
26.9086
27.5121
28.1958
28.9592
29.8014
30.7252
31.7408
32.8583
34.0768
35.379
36.7387
38.1461
39.6201
41.1595
42.7545
44.3502
45.8496
47.1375
48.114
48.7338
49.0224
49.0791
49.0093
48.9198
48.8952
48.9983
49.264
49.7024
50.3061
51.0592
51.9415
52.935
54.0218
55.1862
56.4155
57.6992
59.0288
60.3978
61.8013
63.2359
64.6992
66.1901
67.7077
69.2519
70.8228
72.4203
74.0449
75.6967
77.376
79.0829
80.8175
82.5799
84.3699
86.1873
88.0316
89.9024
91.7991
93.7212
95.6683
97.64
99.6364
101.657
103.703
105.772
107.864
109.977
112.111
114.262
116.429
118.612
120.812
123.028
125.261
127.511
129.776
132.052
134.337
136.628
138.924
141.221
143.518
145.814
148.105
150.389
152.663
154.925
157.172
159.399
161.605
163.787
165.941
168.065
170.156
172.208
174.216
176.174
178.076
179.917
181.692
183.399
185.033
186.591
188.069
189.465
190.775
191.996
193.128
194.167
195.112
195.961
196.712
197.363
197.913
198.36
198.703
198.943
199.077
199.113
199.047
198.88
198.609
198.238
197.77
197.209
196.558
195.822
195.003
194.098
193.111
192.045
190.907
189.704
188.445
187.14
185.797
184.427
183.032
181.616
180.184
178.742
177.296
175.855
174.424
173.014
171.627
170.268
168.934
167.62
166.319
165.017
163.7
162.352
160.95
159.484
157.928
156.292
154.543
152.761
150.889
149.213
147.396
138.506
63.1788
45.46
37.6155
33.7663
31.3191
29.8674
28.8844
28.2702
27.868
27.6359
27.5217
27.5066
27.5776
27.7318
27.9589
28.2515
28.6015
29.0037
29.4547
29.9523
30.4946
31.0805
31.7088
32.377
33.0826
33.8243
34.6008
35.4104
36.2578
37.1371
38.0477
39.0085
40.0133
41.0235
41.9841
42.8454
43.5834
44.2051
44.7411
45.2344
45.7302
46.2587
46.8491
47.5359
48.3286
49.2285
50.2299
51.3231
52.5078
53.7754
55.1185
56.5299
58.0031
59.532
61.1108
62.7348
64.3999
66.1029
67.8415
69.6141
71.4195
73.2575
75.1278
77.0306
78.9661
80.9345
82.9362
84.9712
87.0399
89.142
91.2778
93.4469
95.649
97.8839
100.151
102.449
104.779
107.14
109.53
111.949
114.396
116.869
119.368
121.89
124.434
127.002
129.593
132.207
134.843
137.499
140.171
142.856
145.552
148.256
150.969
153.69
156.417
159.147
161.877
164.602
167.32
170.026
172.717
175.389
178.039
180.662
183.254
185.811
188.327
190.8
193.223
195.592
197.899
200.14
202.309
204.402
206.412
208.336
210.17
211.909
213.55
215.089
216.523
217.848
219.062
220.164
221.15
222.021
222.772
223.403
223.91
224.294
224.552
224.684
224.698
224.593
224.366
224.015
223.543
222.951
222.244
221.424
220.495
219.459
218.32
217.081
215.745
214.32
212.81
211.225
209.57
207.855
206.087
204.273
202.42
200.533
198.618
196.684
194.739
192.792
190.851
188.926
187.026
185.155
183.315
181.503
179.715
177.942
176.17
174.387
172.572
170.715
168.792
166.813
164.747
162.663
160.485
158.405
155.997
153.431
70.3064
50.0336
41.0954
36.841
34.1167
32.4661
31.3349
30.6079
30.1256
29.839
29.6895
29.6492
29.6931
29.8115
29.9923
30.2273
30.5069
30.8235
31.1695
31.5385
31.9252
32.3266
32.7416
33.1717
33.6199
34.0915
34.5944
35.1384
35.7337
36.4002
37.1403
37.9255
38.7328
39.5446
40.3469
41.128
41.88
42.6022
43.3032
44
44.7145
45.4704
46.2904
47.197
48.2103
49.3267
50.5416
51.8565
53.2648
54.7607
56.3386
57.9928
59.7178
61.5081
63.3584
65.2642
67.2214
69.2268
71.2779
73.3728
75.5102
77.6894
79.9097
82.171
84.4733
86.8164
89.2004
91.6253
94.0909
96.597
99.1434
101.73
104.355
107.019
109.721
112.46
115.235
118.046
120.891
123.77
126.68
129.621
132.592
135.591
138.619
141.674
144.755
147.859
150.984
154.125
157.282
160.452
163.637
166.836
170.048
173.268
176.492
179.717
182.939
186.154
189.358
192.547
195.714
198.856
201.966
205.039
208.07
211.053
213.983
216.853
219.658
222.392
225.047
227.618
230.1
232.485
234.77
236.949
239.016
240.968
242.799
244.506
246.084
247.531
248.843
250.018
251.055
251.952
252.706
253.313
253.773
254.083
254.241
254.258
254.13
253.858
253.439
252.872
252.16
251.305
250.309
249.177
247.91
246.512
244.987
243.34
241.577
239.703
237.727
235.655
233.495
231.256
228.946
226.573
224.145
221.672
219.163
216.628
214.077
211.523
208.977
206.45
203.954
201.496
199.082
196.711
194.381
192.084
189.808
187.541
185.263
182.962
180.616
178.231
175.774
173.299
170.706
168.141
165.142
165.944
75.8376
53.469
43.7183
39.1288
36.1778
34.3572
33.0932
32.2554
31.6806
31.3146
31.0954
30.9956
30.9811
31.0389
31.1564
31.325
31.5361
31.781
32.0504
32.3359
32.6314
32.9339
33.2429
33.5607
33.893
34.2487
34.6401
35.0821
35.5913
36.1879
36.8726
37.6159
38.3937
39.1873
39.983
40.7723
41.553
42.3292
43.1108
43.9114
44.746
45.6312
46.5871
47.631
48.7781
50.0426
51.4303
52.9308
54.5357
56.2408
58.0411
59.9315
61.9065
63.961
66.0899
68.289
70.5544
72.8828
75.2716
77.7187
80.2225
82.7814
85.3945
88.0607
90.7795
93.5503
96.3726
99.246
102.17
105.144
108.168
111.241
114.361
117.528
120.742
124
127.301
130.645
134.03
137.454
140.915
144.413
147.945
151.511
155.109
158.736
162.392
166.073
169.777
173.501
177.245
181.006
184.781
188.569
192.364
196.163
199.964
203.761
207.549
211.321
215.073
218.799
222.494
226.151
229.765
233.329
236.836
240.281
243.655
246.952
250.166
253.289
256.314
259.234
262.043
264.735
267.303
269.741
272.044
274.206
276.223
278.09
279.801
281.355
282.746
283.975
285.038
285.933
286.658
287.209
287.584
287.778
287.802
287.655
287.337
286.845
286.178
285.337
284.323
283.139
281.786
280.267
278.585
276.745
274.751
272.608
270.323
267.903
265.357
262.692
259.918
257.045
254.084
251.044
247.937
244.776
241.571
238.336
235.085
231.831
228.59
225.377
222.206
219.088
216.029
213.031
210.093
207.208
204.366
201.554
198.752
195.948
193.117
190.262
187.346
184.406
181.33
178.23
174.671
170.285
79.0421
55.3977
45.2009
40.3816
37.2771
35.3463
33.9965
33.0893
32.456
32.0392
31.7741
31.6327
31.5831
31.606
31.6889
31.8219
31.9961
32.203
32.4342
32.6824
32.9419
33.2098
33.4862
33.7739
34.0791
34.4107
34.7804
35.2026
35.6938
36.2709
36.9414
37.6776
38.4569
39.2619
40.0812
40.9092
41.7469
42.6005
43.4803
44.3992
45.372
46.4128
47.5309
48.736
50.0373
51.444
52.9646
54.6108
56.3872
58.2863
60.3012
62.4256
64.6538
66.9802
69.4
71.9087
74.5022
77.177
79.9303
82.7594
85.6623
88.6372
91.6826
94.7968
97.9787
101.227
104.54
107.918
111.358
114.861
118.424
122.047
125.728
129.465
133.256
137.101
140.996
144.94
148.932
152.969
157.049
161.17
165.33
169.528
173.76
178.024
182.318
186.638
190.979
195.341
199.718
204.11
208.511
212.92
217.333
221.744
226.15
230.545
234.925
239.285
243.615
247.911
252.163
256.364
260.507
264.584
268.588
272.51
276.342
280.076
283.705
287.221
290.616
293.883
297.013
300
302.838
305.518
308.037
310.387
312.563
314.561
316.374
318
319.435
320.677
321.726
322.577
323.228
323.675
323.913
323.949
323.784
323.419
322.853
322.084
321.111
319.934
318.555
316.975
315.196
313.219
311.049
308.689
306.144
303.421
300.526
297.468
294.256
290.901
287.414
283.809
280.098
276.295
272.415
268.473
264.486
260.469
256.44
252.416
248.416
244.457
240.556
236.727
232.977
229.31
225.724
222.213
218.766
215.37
212.006
208.657
205.299
201.929
198.505
195.055
191.456
187.814
183.714
176.994
80.5775
56.2135
45.7339
40.7655
37.573
35.5804
34.1874
33.2475
32.5902
32.1556
31.8782
31.7294
31.677
31.7007
31.7876
31.9271
32.1094
32.3266
32.5709
32.8361
33.1168
33.41
33.7151
34.034
34.3711
34.7335
35.1304
35.5736
36.0759
36.6498
37.3076
38.0455
38.8425
39.6837
40.5599
41.4675
42.4078
43.3857
44.4074
45.4807
46.6135
47.8141
49.0921
50.4575
51.9205
53.4921
55.1848
57.0124
58.9906
61.1113
63.3673
65.7524
68.2612
70.8887
73.6303
76.4818
79.4394
82.4997
85.6593
88.9157
92.2664
95.7092
99.2423
102.864
106.571
110.363
114.237
118.192
122.225
126.334
130.517
134.772
139.096
143.488
147.945
152.464
157.042
161.677
166.366
171.106
175.895
180.729
185.605
190.519
195.47
200.452
205.462
210.497
215.553
220.625
225.711
230.806
235.908
241.012
246.113
251.205
256.28
261.331
266.348
271.326
276.257
281.133
285.947
290.691
295.355
299.932
304.412
308.787
313.048
317.185
321.192
325.058
328.775
332.335
335.731
338.954
341.997
344.853
347.517
349.982
352.242
354.293
356.13
357.747
359.143
360.317
361.268
361.991
362.483
362.74
362.762
362.555
362.118
361.451
360.555
359.428
358.069
356.478
354.654
352.6
350.315
347.803
345.065
342.107
338.932
335.547
331.96
328.18
324.219
320.09
315.806
311.384
306.839
302.188
297.452
292.649
287.799
282.923
278.042
273.176
268.348
263.58
258.89
254.293
249.8
245.413
241.13
236.945
232.848
228.824
224.853
220.918
216.992
213.067
209.099
205.107
200.97
196.786
192.176
176.313
79.8353
55.7952
45.3371
40.3908
37.2076
35.2281
33.8483
32.9255
32.2884
31.8784
31.6309
31.5175
31.5019
31.5687
31.7021
31.891
32.1253
32.3964
32.6969
33.0211
33.3644
33.7245
34.1008
34.4943
34.9076
35.3456
35.8148
36.3235
36.881
37.4967
38.1799
38.9394
39.777
40.6786
41.6364
42.6462
43.7068
44.8191
45.9875
47.2177
48.5165
49.8918
51.3527
52.9093
54.5729
56.3564
58.2741
60.3416
62.5752
64.9673
67.5119
70.2043
73.0401
76.0159
79.1278
82.3728
85.7474
89.2486
92.8733
96.6185
100.481
104.459
108.55
112.751
117.059
121.471
125.985
130.597
135.304
140.104
144.991
149.964
155.018
160.15
165.356
170.633
175.976
181.382
186.847
192.367
197.938
203.555
209.215
214.912
220.642
226.4
232.183
237.985
243.801
249.625
255.454
261.281
267.099
272.901
278.681
284.436
290.158
295.842
301.478
307.057
312.571
318.009
323.362
328.62
333.773
338.811
343.725
348.505
353.14
357.621
361.939
366.084
370.048
373.822
377.398
380.767
383.923
386.859
389.569
392.048
394.29
396.291
398.044
399.547
400.8
401.802
402.551
403.044
403.276
403.244
402.954
402.402
401.598
400.539
399.226
397.655
395.828
393.742
391.397
388.794
385.933
382.816
379.444
375.822
371.953
367.845
363.505
358.944
354.175
349.212
344.071
338.772
333.333
327.776
322.124
316.401
310.634
304.845
299.061
293.306
287.606
281.986
276.469
271.07
265.801
260.663
255.655
250.77
245.996
241.32
236.718
232.174
227.657
223.158
218.631
214.089
209.415
204.708
199.621
174.382
77.9004
54.5253
44.3105
39.4292
36.3067
34.3889
33.0698
32.2109
31.6404
31.3021
31.1344
31.1012
31.1728
31.3326
31.5635
31.8536
32.1911
32.5676
32.9759
33.4104
33.867
34.343
34.8372
35.3497
35.8827
36.4393
37.0243
37.6442
38.306
39.0172
39.7851
40.6161
41.5158
42.4899
43.5436
44.6688
45.8625
47.1256
48.4613
49.8744
51.3709
52.9588
54.6478
56.4494
58.377
60.4456
62.6721
65.0716
67.6426
70.3832
73.2917
76.3665
79.6061
83.0086
86.5722
90.2945
94.1733
98.2059
102.39
106.721
111.198
115.816
120.572
125.461
130.481
135.628
140.896
146.282
151.781
157.387
163.097
168.904
174.803
180.79
186.858
193.003
199.22
205.502
211.846
218.244
224.692
231.183
237.712
244.272
250.856
257.459
264.075
270.698
277.319
283.931
290.529
297.111
303.672
310.203
316.695
323.134
329.512
335.818
342.045
348.182
354.22
360.149
365.959
371.64
377.182
382.574
387.806
392.868
397.748
402.438
406.927
411.207
415.268
419.101
422.7
426.056
429.162
432.013
434.604
436.931
438.987
440.77
442.275
443.501
444.449
445.121
445.514
445.624
445.449
444.983
444.233
443.207
441.908
440.334
438.486
436.361
433.96
431.281
428.324
425.087
421.572
417.778
413.707
409.362
404.747
399.867
394.732
389.35
383.735
377.903
371.872
365.662
359.295
352.795
346.19
339.509
332.782
326.04
319.31
312.623
306.009
299.497
293.113
286.876
280.796
274.877
269.114
263.501
258.027
252.675
247.425
242.257
237.139
232.06
226.972
221.888
216.697
211.497
205.974
168.437
74.6966
52.4288
42.7289
37.9886
34.9947
33.1983
31.9938
31.249
30.7935
30.5772
30.5286
30.6209
30.8244
31.1222
31.4967
31.9344
32.4244
32.9592
33.5311
34.1334
34.761
35.4103
36.0794
36.7679
37.4768
38.2086
38.9679
39.7601
40.5907
41.4656
42.3914
43.3748
44.4222
45.5401
46.7337
48.0077
49.3683
50.8232
52.3751
54.0268
55.784
57.6555
59.6528
61.7902
64.0855
66.5472
69.1831
71.9994
74.9998
78.1871
81.5629
85.1287
88.8847
92.831
96.9669
101.291
105.801
110.496
115.372
120.425
125.653
131.049
136.61
142.33
148.203
154.222
160.383
166.678
173.1
179.644
186.301
193.064
199.926
206.88
213.918
221.032
228.217
235.464
242.766
250.115
257.504
264.925
272.369
279.829
287.296
294.765
302.228
309.676
317.1
324.491
331.838
339.133
346.367
353.535
360.629
367.64
374.559
381.375
388.078
394.657
401.1
407.397
413.536
419.506
425.295
430.893
436.289
441.471
446.43
451.155
455.638
459.868
463.838
467.54
470.966
474.111
476.968
479.535
481.807
483.781
485.453
486.82
487.882
488.637
489.095
489.252
489.111
488.664
487.901
486.835
485.474
483.823
481.885
479.66
477.149
474.351
471.265
467.89
464.226
460.271
456.026
451.491
446.665
441.552
436.154
430.476
424.525
418.31
411.844
405.144
398.225
391.109
383.818
376.38
368.825
361.186
353.499
345.797
338.114
330.485
322.945
315.529
308.266
301.179
294.278
287.566
281.041
274.695
268.517
262.492
256.597
250.811
245.103
239.46
233.835
228.236
222.563
216.915
211.005
160.321
70.5202
49.7269
40.7265
36.2332
33.4418
31.8242
30.7837
30.1992
29.9069
29.8499
29.9652
30.2295
30.6121
31.0962
31.6616
32.3005
33.003
33.7606
34.5641
35.4058
36.2794
37.1802
38.105
39.0525
40.0233
41.0198
42.0449
43.1025
44.1976
45.336
46.5243
47.7693
49.079
50.462
51.9263
53.4803
55.1324
56.8914
58.7655
60.7636
62.8955
65.1718
67.604
70.2038
72.9823
75.949
79.1123
82.4794
86.0563
89.8476
93.8569
98.0868
102.539
107.213
112.11
117.228
122.565
128.119
133.885
139.859
146.036
152.409
158.972
165.716
172.633
179.714
186.95
194.332
201.851
209.497
217.26
225.129
233.096
241.15
249.28
257.478
265.734
274.037
282.378
290.745
299.13
307.522
315.912
324.287
332.638
340.955
349.227
357.442
365.595
373.68
381.691
389.616
397.442
405.158
412.751
420.211
427.528
434.69
441.687
448.507
455.141
461.577
467.805
473.813
479.592
485.131
490.419
495.446
500.204
504.682
508.873
512.767
516.359
519.64
522.607
525.254
527.578
529.579
531.254
532.601
533.617
534.306
534.666
534.697
534.43
533.833
532.918
531.682
530.127
528.263
526.098
523.64
520.89
517.852
514.526
510.912
507.011
502.821
498.344
493.578
488.521
483.175
477.54
471.615
465.405
458.911
452.139
445.098
437.799
430.254
422.479
414.492
406.317
397.98
389.514
380.953
372.335
363.699
355.082
346.526
338.07
329.756
321.62
313.686
305.967
298.467
291.185
284.116
277.247
270.565
264.046
257.669
251.401
245.231
239.108
233.041
226.94
220.9
214.666
149.543
65.5805
46.5398
38.4123
34.2631
31.7506
30.3739
29.5549
29.1903
29.1078
29.2686
29.6104
30.1105
30.7345
31.4711
32.3086
33.2384
34.2488
35.3311
36.4756
37.6738
38.9179
40.2024
41.5234
42.8793
44.2698
45.6949
47.1554
48.652
50.1884
51.771
53.4059
55.1012
56.8676
58.7157
60.6559
62.6985
64.8541
67.1341
69.5503
72.1147
74.8398
77.7378
80.8212
84.1018
87.5912
91.3
95.2379
99.4133
103.834
108.504
113.43
118.612
124.053
129.752
135.708
141.919
148.38
155.086
162.033
169.213
176.617
184.237
192.062
200.081
208.282
216.652
225.179
233.849
242.65
251.568
260.589
269.7
278.888
288.14
297.442
306.782
316.146
325.522
334.897
344.258
353.594
362.894
372.146
381.339
390.463
399.507
408.454
417.288
425.997
434.57
443.001
451.283
459.408
467.365
475.145
482.736
490.128
497.31
504.271
511
517.487
523.721
529.692
535.389
540.804
545.926
550.747
555.258
559.451
563.319
566.855
570.053
572.905
575.411
577.566
579.367
580.814
581.912
582.661
583.055
583.094
582.809
582.165
581.187
579.888
578.262
576.311
574.037
571.449
568.557
565.37
561.897
558.14
554.104
549.791
545.202
540.339
535.202
529.792
524.108
518.149
511.915
505.406
498.622
491.566
484.238
476.643
468.787
460.678
452.326
443.742
434.942
425.947
416.781
407.474
398.061
388.582
379.075
369.584
360.153
350.829
341.662
332.692
323.947
315.445
307.191
299.189
291.433
283.913
276.616
269.52
262.6
255.824
249.171
242.598
236.117
229.649
223.282
216.788
138.272
60.2822
43.2354
36.0758
32.3877
30.259
29.1488
28.599
28.5052
28.7021
29.156
29.795
30.6087
31.5749
32.6881
33.9314
35.2975
36.7747
38.3538
40.0228
41.7748
43.6026
45.5015
47.4685
49.5016
51.5973
53.7515
55.9601
58.2215
60.5366
62.9049
65.3292
67.8223
70.4017
73.0781
75.8595
78.756
81.7825
84.9538
88.2853
91.7916
95.4872
99.3863
103.503
107.85
112.441
117.286
122.398
127.783
133.45
139.404
145.647
152.18
159.002
166.111
173.5
181.165
189.098
197.291
205.734
214.415
223.323
232.443
241.761
251.261
260.927
270.742
280.689
290.751
300.91
311.149
321.451
331.8
342.178
352.568
362.956
373.324
383.659
393.945
404.166
414.308
424.358
434.301
444.121
453.807
463.348
472.735
481.954
490.996
499.851
508.506
516.952
525.177
533.172
540.928
548.434
555.681
562.66
569.363
575.778
581.9
587.718
593.225
598.414
603.278
607.81
612.004
615.852
619.349
622.491
625.274
627.692
629.741
631.416
632.722
633.659
634.219
634.406
634.242
633.719
632.818
631.565
629.967
628.026
625.756
623.161
620.245
617.013
613.474
609.64
605.521
601.126
596.465
591.543
586.365
580.934
575.255
569.329
563.158
556.744
550.083
543.176
536.023
528.623
520.978
513.088
504.953
496.575
487.958
479.106
470.025
460.723
451.212
441.508
431.633
421.611
411.473
401.259
391.008
380.764
370.576
360.497
350.583
340.881
331.423
322.227
313.301
304.648
296.267
288.16
280.317
272.712
265.323
258.116
251.076
244.175
237.405
230.687
224.104
217.452
126.258
55.1408
40.1562
33.9938
30.8329
29.1505
28.3771
28.1612
28.4154
28.9599
29.785
30.8367
32.111
33.578
35.2344
37.0643
39.0638
41.2208
43.5288
45.9799
48.57
51.2953
54.1546
57.1444
60.26
63.4935
66.8363
70.2785
73.8125
77.4303
81.1256
84.897
88.7516
92.7045
96.7586
100.923
105.214
109.645
114.237
119.007
123.97
129.142
134.539
140.177
146.069
152.229
158.668
165.395
172.417
179.739
187.362
195.286
203.507
212.021
220.819
229.893
239.232
248.822
258.652
268.706
278.967
289.419
300.043
310.821
321.733
332.757
343.875
355.064
366.304
377.574
388.855
400.127
411.37
422.565
433.694
444.74
455.686
466.516
477.215
487.768
498.162
508.385
518.421
528.256
537.878
547.275
556.434
565.343
573.993
582.377
590.486
598.314
605.853
613.097
620.039