/*--------------------------------*- C++ -*----------------------------------*\
| =========                 |                                                 |
| \\      /  F ield         | OpenFOAM: The Open Source CFD Toolbox           |
|  \\    /   O peration     | Version:  v1906                                 |
|   \\  /    A nd           | Web:      www.OpenFOAM.com                      |
|    \\/     M anipulation  |                                                 |
\*---------------------------------------------------------------------------*/
FoamFile
{
    version     2.0;
    format      ascii;
    class       volScalarField;
    location    "1500";
    object      k;
}
// * * * * * * * * * * * * * * * * * * * * * * * * * * * * * * * * * * * * * //

dimensions      [0 2 -2 0 0 0 0];


internalField   nonuniform List<scalar> 
12225
(
2.25874
2.22667
2.16194
2.0917
2.02499
1.96454
1.91053
1.8631
1.82036
1.78355
1.74891
1.72091
1.69829
1.67998
1.66318
1.65111
1.6366
1.63111
2.25029
2.13779
1.98564
1.87243
1.78123
1.71368
1.66065
1.61695
1.5811
1.55027
1.52531
1.50222
1.48545
1.46761
1.45714
1.44239
1.4361
1.42198
2.25785
2.21888
2.1436
2.07155
2.00394
1.94414
1.89181
1.84557
1.80503
1.7689
1.7373
1.70847
1.68373
1.66041
1.64116
1.6218
1.60728
1.59133
2.25839
2.23538
2.18791
2.13577
2.08419
2.03588
1.99182
1.95173
1.9155
1.8826
1.85294
1.82577
1.8014
1.77885
1.75877
1.73979
1.72352
1.70649
2.25891
2.24457
2.21501
2.18006
2.14382
2.10823
2.07434
2.04243
2.01263
1.98488
1.9592
1.9353
1.91325
1.8927
1.8738
1.85609
1.84019
1.82438
2.25905
2.24839
2.22761
2.20199
2.17442
2.14647
2.1191
2.09276
2.06769
2.04397
2.02165
2.00064
1.98096
1.96249
1.94522
1.92901
1.91395
1.8992
2.25918
2.25077
2.23561
2.21657
2.1956
2.17389
2.1522
2.13092
2.11033
2.09054
2.07166
2.05368
2.03661
2.02044
2.00516
1.99071
1.97716
1.96402
2.25922
2.25211
2.24034
2.22547
2.20883
2.19132
2.17352
2.15582
2.13846
2.12159
2.10531
2.08967
2.07469
2.06038
2.04674
2.03376
2.02141
2.00948
2.25927
2.2531
2.24365
2.23178
2.2184
2.20416
2.18953
2.17482
2.16025
2.14595
2.13202
2.11853
2.10551
2.09298
2.08097
2.06946
2.05846
2.04785
2.25929
2.25376
2.24586
2.23607
2.22499
2.21312
2.20081
2.18832
2.17584
2.16349
2.15138
2.13956
2.12808
2.11697
2.10624
2.09591
2.08597
2.07637
2.25932
2.2543
2.24753
2.23929
2.22998
2.21996
2.20951
2.19884
2.1881
2.17742
2.16687
2.15652
2.14641
2.13657
2.12704
2.11781
2.1089
2.10026
2.25934
2.25466
2.24864
2.24143
2.23332
2.22458
2.21543
2.20605
2.19656
2.18706
2.17764
2.16835
2.15924
2.15035
2.14168
2.13326
2.1251
2.11718
2.25937
2.25498
2.24954
2.24315
2.23601
2.22832
2.22024
2.21192
2.20348
2.195
2.18656
2.1782
2.16996
2.16189
2.15401
2.14633
2.13886
2.13159
2.25939
2.25525
2.25032
2.24464
2.23834
2.23156
2.22443
2.21707
2.20957
2.20201
2.19445
2.18693
2.1795
2.1722
2.16503
2.15803
2.15119
2.14454
2.25943
2.25552
2.25102
2.24594
2.24036
2.23438
2.22809
2.22157
2.21492
2.20819
2.20143
2.19469
2.188
2.18141
2.17491
2.16855
2.16232
2.15624
2.25946
2.25574
2.25157
2.24697
2.24196
2.23661
2.23099
2.22517
2.2192
2.21315
2.20706
2.20096
2.1949
2.18889
2.18297
2.17715
2.17144
2.16585
2.25949
2.25592
2.252
2.24774
2.24314
2.23826
2.23314
2.22782
2.22237
2.21683
2.21123
2.20562
2.20002
2.19447
2.18897
2.18356
2.17824
2.17304
2.25951
2.25603
2.25225
2.24818
2.24381
2.23919
2.23434
2.22932
2.22416
2.21891
2.21361
2.20829
2.20297
2.19768
2.19245
2.18729
2.1822
2.1772
2.2595
2.25599
2.25218
2.24805
2.24363
2.23894
2.23402
2.22892
2.22368
2.21835
2.21296
2.20755
2.20215
2.19678
2.19147
2.18623
2.18109
2.17606
2.25949
2.25585
2.25179
2.24732
2.24248
2.23731
2.23188
2.22626
2.2205
2.21465
2.20876
2.20286
2.19699
2.19117
2.18542
2.17975
2.17419
2.16871
2.25943
2.25553
2.25102
2.24592
2.24031
2.23429
2.22796
2.2214
2.21469
2.2079
2.20109
2.19429
2.18754
2.18087
2.1743
2.16787
2.16158
2.15548
2.25941
2.25519
2.25002
2.24399
2.23727
2.23003
2.22243
2.2146
2.20663
2.19862
2.19061
2.18268
2.17485
2.16715
2.15962
2.15227
2.14511
2.13809
2.25935
2.25456
2.24826
2.24066
2.23209
2.22284
2.21316
2.20324
2.19321
2.18319
2.17326
2.16347
2.15388
2.14451
2.13537
2.1265
2.1179
2.10966
2.25935
2.25385
2.24584
2.23594
2.22475
2.21278
2.20039
2.18782
2.17527
2.16284
2.15065
2.13874
2.12717
2.11597
2.10515
2.09474
2.08477
2.07513
2.25927
2.25242
2.24124
2.22717
2.21139
2.1947
2.17765
2.16062
2.14383
2.12747
2.11161
2.09634
2.08166
2.06759
2.05413
2.04124
2.02885
2.01715
2.25924
2.25041
2.23397
2.21363
2.19147
2.16867
2.14591
2.12362
2.10205
2.08135
2.0616
2.0428
2.02497
2.00807
1.99208
1.97699
1.96286
1.94965
2.25889
2.24472
2.21618
2.18219
2.14678
2.11176
2.07806
2.04624
2.01649
1.98878
1.96302
1.93911
1.9169
1.89628
1.87705
1.85921
1.84221
1.82644
2.25872
2.23436
2.18569
2.13367
2.08299
2.03496
1.99029
1.94961
1.91264
1.87902
1.84842
1.82056
1.79507
1.77179
1.75036
1.73077
1.71266
1.69715
2.25333
2.17275
2.05404
1.95319
1.87048
1.80145
1.74472
1.6988
1.66018
1.62712
1.5984
1.57345
1.55133
1.53203
1.51457
1.49941
1.4853
1.47209
2.25474
2.20869
2.14517
2.0835
2.0261
1.97402
1.92692
1.88454
1.84647
1.8122
1.78128
1.75323
1.72778
1.70449
1.68331
1.66369
1.64591
1.62909
0.0308984
0.0587613
0.084541
0.10035
0.112476
0.12087
0.127314
0.13222
0.136216
0.13953
0.1424
0.144932
0.147229
0.149342
0.151309
0.153149
0.154859
0.156476
0.15793
0.159403
0.160375
0.160423
0.160072
0.159089
0.157121
0.154048
0.149824
0.144362
0.137609
0.129602
0.120031
0.10853
0.095358
0.0802417
0.0689559
0.063222
0.0620466
0.063011
0.0644526
0.064992
0.0642077
0.0611128
0.0546747
0.0484504
0.0476731
0.054924
0.066821
0.0815196
0.0987056
0.118711
0.142775
0.164064
0.183501
0.201406
0.21808
0.233681
0.248354
0.262214
0.275365
0.28791
0.299963
0.311596
0.322839
0.333724
0.344278
0.354527
0.364496
0.374207
0.383681
0.392935
0.401981
0.410832
0.419493
0.427968
0.436258
0.444365
0.452293
0.460062
0.467688
0.475168
0.4825
0.489676
0.496681
0.503494
0.510085
0.516409
0.522401
0.52798
0.533072
0.538321
0.54342
0.548548
0.553654
0.558777
0.563866
0.568904
0.5739
0.578837
0.583713
0.588522
0.593254
0.597865
0.602337
0.606641
0.610753
0.614641
0.618273
0.621623
0.624735
0.627641
0.630342
0.632835
0.635119
0.637195
0.639066
0.64074
0.642223
0.643516
0.644618
0.64554
0.646293
0.646929
0.647426
0.647785
0.648029
0.648135
0.647742
0.647602
0.647156
0.64666
0.646021
0.645289
0.64446
0.64355
0.642524
0.641397
0.640222
0.639022
0.637749
0.636478
0.635181
0.633865
0.632545
0.631235
0.629946
0.628686
0.627469
0.626305
0.625203
0.624173
0.623264
0.622489
0.621926
0.622019
0.622795
0.623827
0.624921
0.626046
0.626607
0.6259
0.625026
0.624522
0.624477
0.624778
0.62544
0.626545
0.628125
0.630051
0.632272
0.634602
0.637009
0.639137
0.641174
0.642375
0.643514
0.643052
0.642752
0.639506
0.63703
0.60698
0.0663189
0.123165
0.172938
0.200012
0.220675
0.236178
0.248798
0.259003
0.267676
0.275134
0.281777
0.287809
0.293403
0.298624
0.3035
0.30801
0.312127
0.315815
0.319039
0.321764
0.32393
0.325451
0.326272
0.326182
0.325116
0.322953
0.32031
0.317829
0.316566
0.317614
0.322402
0.333291
0.350634
0.372413
0.395832
0.419308
0.441879
0.46305
0.482941
0.501715
0.518993
0.533898
0.545853
0.555882
0.565687
0.575504
0.584337
0.591756
0.598066
0.60381
0.609333
0.616017
0.624777
0.635983
0.649549
0.665136
0.682311
0.700642
0.719755
0.739346
0.75918
0.779061
0.798827
0.818361
0.83758
0.856438
0.87491
0.892988
0.91068
0.928001
0.94497
0.961608
0.977939
0.993982
1.00975
1.02527
1.04055
1.0556
1.07044
1.08508
1.09951
1.11374
1.12775
1.14153
1.15508
1.16838
1.18141
1.19416
1.20665
1.21888
1.23081
1.24241
1.25361
1.26439
1.27483
1.28506
1.29514
1.30512
1.31502
1.32484
1.33452
1.34405
1.35345
1.36271
1.37181
1.38073
1.38946
1.39798
1.40627
1.41433
1.42217
1.42976
1.4371
1.44417
1.45097
1.4575
1.46376
1.46977
1.47551
1.481
1.48622
1.49118
1.49587
1.50027
1.50435
1.50814
1.51158
1.51473
1.51757
1.52009
1.52229
1.52416
1.5257
1.52691
1.52777
1.52828
1.52849
1.52834
1.52784
1.52704
1.52594
1.52452
1.5228
1.52079
1.51851
1.51597
1.51319
1.51018
1.50696
1.50356
1.50003
1.49637
1.4927
1.48978
1.48771
1.48574
1.48353
1.48109
1.4783
1.4752
1.47205
1.46897
1.46596
1.46293
1.45981
1.4565
1.4529
1.44887
1.44432
1.43907
1.43306
1.42605
1.41814
1.40885
1.39876
1.38673
1.37475
1.35941
1.3439
1.30887
0.105724
0.176233
0.238069
0.270502
0.296378
0.315093
0.33077
0.343694
0.355184
0.365493
0.375153
0.384315
0.393166
0.40173
0.410032
0.418058
0.425823
0.43335
0.440695
0.447922
0.455112
0.462367
0.469802
0.47754
0.485759
0.494752
0.505082
0.517692
0.53383
0.554826
0.581742
0.614843
0.653287
0.695223
0.738215
0.779917
0.818603
0.853191
0.882826
0.906294
0.922335
0.930532
0.932167
0.929143
0.923449
0.916776
0.910541
0.90612
0.904488
0.906162
0.911623
0.920932
0.933915
0.950153
0.969059
0.989972
1.01224
1.0353
1.05867
1.082
1.10503
1.12758
1.14955
1.17089
1.19161
1.21171
1.23123
1.25022
1.26872
1.28678
1.30444
1.32174
1.3387
1.35537
1.37177
1.38792
1.40383
1.41954
1.43503
1.45033
1.46543
1.48035
1.49507
1.5096
1.52393
1.53808
1.55203
1.56579
1.57938
1.59278
1.60601
1.61907
1.63196
1.64472
1.65737
1.66994
1.68246
1.69493
1.70736
1.71976
1.73214
1.74447
1.75672
1.76886
1.78086
1.7927
1.80437
1.81585
1.82713
1.83817
1.84896
1.85947
1.86967
1.87956
1.88912
1.89836
1.90728
1.91586
1.92412
1.93204
1.93962
1.94684
1.95369
1.96015
1.96623
1.9719
1.97717
1.98205
1.98651
1.99056
1.99418
1.99738
2.00015
2.00249
2.0044
2.00589
2.00694
2.0075
2.00765
2.00741
2.00676
2.00571
2.00427
2.00245
2.00027
1.99776
1.99492
1.99178
1.98836
1.98466
1.98069
1.9765
1.9722
1.96794
1.96369
1.9593
1.95468
1.94984
1.94475
1.9394
1.93387
1.9282
1.92237
1.91636
1.91013
1.90358
1.8966
1.88904
1.88077
1.8716
1.86144
1.85006
1.83745
1.82331
1.80794
1.79072
1.77268
1.75177
1.72901
1.69473
0.127022
0.220353
0.292019
0.328789
0.359369
0.382162
0.402075
0.418635
0.433676
0.447276
0.46024
0.472661
0.484819
0.496716
0.508441
0.520016
0.531527
0.543062
0.554736
0.566667
0.579015
0.592012
0.60595
0.621143
0.637858
0.656254
0.676424
0.698511
0.72276
0.749444
0.7787
0.810395
0.844115
0.87924
0.915015
0.950544
0.984653
1.01556
1.041
1.05932
1.07024
1.07494
1.0756
1.07433
1.07308
1.07312
1.07547
1.08073
1.0892
1.1009
1.11567
1.13318
1.15302
1.17467
1.19763
1.22142
1.24565
1.26998
1.29419
1.31811
1.34164
1.36474
1.38738
1.40957
1.43133
1.45267
1.47364
1.49424
1.51452
1.5345
1.55419
1.57362
1.59279
1.61172
1.63042
1.6489
1.66717
1.68523
1.70308
1.72072
1.73815
1.75538
1.7724
1.78921
1.80584
1.82228
1.83856
1.85469
1.87069
1.88658
1.90237
1.91808
1.93372
1.94928
1.96477
1.98018
1.99551
2.01075
2.02589
2.04092
2.05582
2.07059
2.08521
2.09967
2.11395
2.12804
2.14192
2.15556
2.16895
2.18205
2.19486
2.20735
2.21949
2.23128
2.24268
2.25369
2.26431
2.27451
2.28429
2.29364
2.30253
2.31096
2.31892
2.32639
2.33336
2.33983
2.34579
2.35124
2.35618
2.36059
2.36448
2.36783
2.37065
2.37295
2.37473
2.37598
2.37666
2.37681
2.37646
2.37563
2.37432
2.37253
2.37028
2.3676
2.3645
2.36099
2.3571
2.35286
2.34828
2.34339
2.3382
2.33272
2.32701
2.3211
2.31499
2.3086
2.3019
2.29489
2.28755
2.27988
2.27192
2.26367
2.25514
2.24627
2.237
2.22726
2.21697
2.20599
2.19417
2.18133
2.16732
2.15194
2.13516
2.11674
2.0969
2.07524
2.05239
2.02678
1.99896
1.96143
0.157593
0.270701
0.349642
0.390394
0.42445
0.450566
0.473958
0.494089
0.512632
0.529447
0.545405
0.560589
0.575459
0.590073
0.604637
0.619188
0.633845
0.648643
0.663652
0.678925
0.694553
0.710621
0.727242
0.744566
0.762824
0.782267
0.803036
0.825091
0.848199
0.871946
0.895927
0.920048
0.944672
0.970383
0.997485
1.02552
1.05311
1.07826
1.09933
1.11579
1.12824
1.13796
1.14645
1.1551
1.16499
1.17681
1.19092
1.2074
1.2261
1.24678
1.26911
1.29274
1.31734
1.34262
1.36831
1.3942
1.42013
1.44597
1.47164
1.49706
1.52219
1.54702
1.57153
1.59572
1.61959
1.64316
1.66643
1.68941
1.71212
1.73457
1.75678
1.77874
1.80049
1.82201
1.84332
1.86443
1.88533
1.90603
1.92653
1.94683
1.96694
1.98687
2.00663
2.02622
2.04566
2.06497
2.08415
2.1032
2.12214
2.14097
2.15969
2.1783
2.19684
2.21529
2.23367
2.25199
2.27024
2.2884
2.30647
2.32442
2.34224
2.3599
2.37739
2.39468
2.41175
2.42858
2.44513
2.46139
2.47733
2.49292
2.50815
2.52298
2.53741
2.55142
2.56497
2.57805
2.59063
2.6027
2.61423
2.62522
2.63564
2.64548
2.65472
2.66335
2.67137
2.67876
2.68553
2.69166
2.69715
2.70199
2.70619
2.70973
2.71263
2.71488
2.71649
2.71744
2.71772
2.71739
2.71647
2.71495
2.71285
2.71019
2.70699
2.70328
2.69907
2.69439
2.68926
2.6837
2.67773
2.67139
2.66467
2.65761
2.65023
2.64253
2.63451
2.62615
2.61742
2.6083
2.59877
2.58883
2.57847
2.56768
2.55644
2.54474
2.53251
2.51966
2.50609
2.49168
2.47628
2.45973
2.4419
2.42262
2.40183
2.37937
2.35541
2.32962
2.30244
2.27253
2.23998
2.19895
0.180186
0.311611
0.400316
0.445961
0.483531
0.512751
0.538938
0.561906
0.583177
0.602706
0.621079
0.638423
0.655182
0.671575
0.687858
0.704123
0.720432
0.736792
0.753233
0.769794
0.786504
0.803335
0.820229
0.837121
0.853996
0.870938
0.888066
0.905413
0.922894
0.940394
0.957961
0.975956
0.994992
1.01558
1.03774
1.06076
1.08353
1.10502
1.12478
1.14296
1.16013
1.17702
1.19433
1.21265
1.23235
1.25362
1.27645
1.30071
1.3262
1.35271
1.38001
1.40791
1.43624
1.46485
1.4936
1.5224
1.55114
1.57975
1.60818
1.63638
1.66431
1.69197
1.71935
1.74643
1.77323
1.79975
1.82599
1.85198
1.87771
1.90321
1.92847
1.95351
1.97834
2.00296
2.02738
2.0516
2.07564
2.09948
2.12315
2.14665
2.16998
2.19317
2.21622
2.23913
2.2619
2.28454
2.30704
2.3294
2.35164
2.37377
2.39582
2.4178
2.43973
2.46159
2.48338
2.50508
2.52667
2.54813
2.56945
2.5906
2.61157
2.63233
2.65286
2.67313
2.69312
2.71279
2.73212
2.75107
2.76964
2.78778
2.80546
2.82268
2.83939
2.85557
2.87119
2.88624
2.90068
2.91448
2.92764
2.94013
2.95192
2.96301
2.97337
2.983
2.99189
3.00002
3.00739
3.01399
3.01983
3.02489
3.02918
3.03268
3.03541
3.03737
3.03854
3.03892
3.03856
3.03748
3.03569
3.03318
3.02999
3.02613
3.02165
3.01656
3.01088
3.00464
2.99786
2.99057
2.98279
2.97453
2.96582
2.95666
2.94708
2.93709
2.92667
2.91581
2.90449
2.89271
2.88045
2.8677
2.85444
2.84067
2.82635
2.81146
2.79595
2.77973
2.76272
2.74478
2.72579
2.70558
2.68403
2.66097
2.63638
2.6101
2.58226
2.55259
2.52137
2.4873
2.45051
2.40585
0.202661
0.347699
0.445415
0.49494
0.535221
0.566676
0.594771
0.619538
0.642507
0.663715
0.683715
0.702619
0.720755
0.738304
0.755495
0.772423
0.789143
0.805646
0.821928
0.837974
0.853771
0.869298
0.884536
0.89947
0.914081
0.928369
0.942379
0.956192
0.969928
0.983777
0.998047
1.01315
1.02948
1.04725
1.06634
1.08637
1.10692
1.12774
1.14884
1.17037
1.19255
1.2156
1.23968
1.26487
1.29118
1.31855
1.34688
1.37604
1.4059
1.43634
1.46724
1.49852
1.53006
1.56178
1.5936
1.62543
1.65721
1.68887
1.72037
1.75167
1.78275
1.81358
1.84417
1.8745
1.90458
1.93441
1.96401
1.99338
2.02253
2.05147
2.08021
2.10876
2.13712
2.16531
2.19332
2.22117
2.24886
2.27639
2.30377
2.33101
2.35811
2.38507
2.4119
2.43859
2.46514
2.49157
2.51788
2.54408
2.5702
2.59625
2.62221
2.64807
2.67382
2.69943
2.7249
2.75023
2.77542
2.80044
2.82529
2.84993
2.87433
2.89846
2.92228
2.94578
2.96892
2.99167
3.014
3.03587
3.05726
3.07812
3.09844
3.11817
3.13729
3.15577
3.17357
3.19067
3.20704
3.22265
3.23747
3.25149
3.26468
3.27703
3.28851
3.29911
3.30883
3.31764
3.32555
3.33255
3.33864
3.34381
3.34805
3.35137
3.35376
3.35522
3.35574
3.35537
3.35415
3.35206
3.34912
3.34534
3.34075
3.33539
3.32928
3.32245
3.31492
3.30673
3.29791
3.28847
3.27846
3.26788
3.25676
3.24512
3.23296
3.22029
3.20712
3.19344
3.17922
3.16447
3.14916
3.13329
3.11685
3.09981
3.08217
3.06389
3.04491
3.02517
3.00456
2.98297
2.96028
2.93634
2.91102
2.8842
2.85583
2.82577
2.79414
2.76063
2.72545
2.68732
2.64632
2.5981
0.216989
0.372982
0.479262
0.532438
0.575103
0.608314
0.637752
0.663611
0.687488
0.709544
0.730368
0.750083
0.768963
0.787126
0.804719
0.821816
0.838482
0.854731
0.870564
0.885955
0.900869
0.91527
0.929142
0.942495
0.955368
0.967831
0.979994
0.992021
1.00413
1.01658
1.02968
1.04376
1.05906
1.07575
1.09384
1.11327
1.13402
1.15606
1.17941
1.20403
1.22989
1.25691
1.285
1.31407
1.344
1.37473
1.40616
1.43822
1.47087
1.50402
1.53762
1.5716
1.60588
1.64038
1.67502
1.70975
1.74448
1.77916
1.81374
1.8482
1.8825
1.91662
1.95055
1.98429
2.01783
2.05118
2.08434
2.11732
2.15011
2.18274
2.2152
2.2475
2.27965
2.31165
2.3435
2.37521
2.40679
2.43823
2.46954
2.50072
2.53178
2.56271
2.59352
2.62421
2.65479
2.68525
2.71562
2.74589
2.77605
2.80609
2.83599
2.86574
2.89535
2.92481
2.95413
2.98329
3.01228
3.04106
3.06959
3.09787
3.12585
3.15351
3.1808
3.20769
3.23415
3.26013
3.2856
3.31052
3.33485
3.35856
3.3816
3.40395
3.42557
3.44642
3.46646
3.48567
3.50401
3.52146
3.53798
3.55355
3.56815
3.58175
3.59433
3.60588
3.61638
3.62583
3.63421
3.64153
3.64777
3.65293
3.65701
3.65999
3.66187
3.66264
3.66236
3.66106
3.65872
3.65537
3.651
3.64566
3.63936
3.63215
3.62405
3.6151
3.60532
3.59476
3.58344
3.57141
3.55869
3.54532
3.53132
3.51671
3.50152
3.48574
3.46939
3.45247
3.43498
3.41691
3.39826
3.37902
3.35919
3.33874
3.31767
3.29593
3.27347
3.25023
3.2261
3.20097
3.17472
3.14721
3.11831
3.08791
3.05593
3.02227
2.98697
2.94975
2.9107
2.86858
2.82355
2.77158
0.228655
0.390895
0.503705
0.559591
0.603904
0.638276
0.668513
0.694947
0.719208
0.74153
0.762529
0.782367
0.801311
0.819464
0.836966
0.853903
0.870356
0.886365
0.901942
0.917067
0.931708
0.945839
0.959455
0.972573
0.985243
0.997553
1.00964
1.02168
1.0339
1.04655
1.05992
1.07427
1.08986
1.10686
1.12543
1.14564
1.16753
1.19107
1.21619
1.24278
1.27068
1.29976
1.32987
1.3609
1.39276
1.42538
1.45872
1.49273
1.52738
1.5626
1.59835
1.63455
1.67114
1.70804
1.74518
1.7825
1.81994
1.85743
1.89494
1.93242
1.96985
2.00721
2.04448
2.08164
2.11869
2.15562
2.19243
2.22912
2.26569
2.30216
2.33851
2.37476
2.4109
2.44694
2.48288
2.51872
2.55446
2.5901
2.62565
2.6611
2.69644
2.73168
2.76682
2.80185
2.83678
2.8716
2.90632
2.94092
2.9754
3.00974
3.04394
3.07798
3.11187
3.14557
3.17908
3.21236
3.2454
3.27816
3.31063
3.34275
3.37449
3.4058
3.43666
3.46703
3.49685
3.52611
3.55474
3.58272
3.61
3.63653
3.66229
3.68721
3.71128
3.73445
3.75667
3.77792
3.79815
3.81734
3.83546
3.85246
3.86834
3.88306
3.8966
3.90894
3.92007
3.92997
3.93864
3.94607
3.95226
3.95719
3.96086
3.96324
3.96434
3.9642
3.96285
3.96029
3.95652
3.95157
3.94545
3.93818
3.9298
3.92035
3.90986
3.89836
3.8859
3.87253
3.85828
3.84319
3.82733
3.81071
3.79339
3.77539
3.75675
3.73749
3.71762
3.69717
3.67615
3.65454
3.63236
3.60961
3.58626
3.56233
3.53777
3.51257
3.48666
3.45996
3.43237
3.40378
3.37406
3.34308
3.31072
3.27684
3.24139
3.20422
3.16537
3.12452
3.08172
3.03577
2.98683
2.9313
0.232658
0.39834
0.51651
0.574563
0.620138
0.65532
0.686129
0.712969
0.737522
0.760053
0.7812
0.80114
0.820158
0.838373
0.855933
0.872926
0.889446
0.905548
0.921263
0.936587
0.951511
0.966027
0.980139
0.993878
1.0073
1.0205
1.03361
1.04678
1.06022
1.07415
1.08881
1.10444
1.12127
1.13949
1.15925
1.18063
1.20366
1.22829
1.25445
1.28202
1.31086
1.34088
1.37196
1.40403
1.43701
1.47085
1.50551
1.54094
1.57709
1.61392
1.65138
1.68941
1.72795
1.76693
1.80629
1.84596
1.88587
1.92599
1.96626
2.00663
2.04707
2.08757
2.12808
2.1686
2.20912
2.24962
2.29008
2.33052
2.37092
2.41128
2.45161
2.49189
2.53212
2.57232
2.61246
2.65255
2.69258
2.73254
2.77245
2.81227
2.85203
2.8917
2.93128
2.97076
3.01015
3.04944
3.0886
3.12764
3.16653
3.20526
3.2438
3.28214
3.32026
3.35814
3.39577
3.43311
3.47014
3.50683
3.54314
3.57905
3.61451
3.64948
3.68391
3.71776
3.75096
3.78348
3.81528
3.84629
3.87648
3.9058
3.93421
3.96166
3.9881
4.0135
4.03781
4.06099
4.08301
4.10382
4.1234
4.14171
4.15872
4.1744
4.18874
4.20171
4.21328
4.22345
4.23222
4.23957
4.24549
4.24998
4.25301
4.25457
4.2547
4.25341
4.25072
4.24664
4.24118
4.23435
4.22617
4.21668
4.20591
4.19388
4.18066
4.16627
4.15076
4.13419
4.11662
4.0981
4.07868
4.05842
4.03738
4.01562
3.99318
3.97011
3.94645
3.92221
3.89744
3.87214
3.84633
3.82
3.79315
3.76577
3.73784
3.70931
3.68012
3.65017
3.61936
3.58756
3.55464
3.52046
3.48489
3.44779
3.40909
3.36864
3.32643
3.28215
3.2358
3.18625
3.13375
3.075
0.238763
0.405639
0.523674
0.581666
0.627219
0.662428
0.693266
0.720166
0.744798
0.76744
0.788728
0.80885
0.828094
0.846586
0.864481
0.881871
0.898853
0.915486
0.931815
0.947858
0.963618
0.9791
0.994319
1.00931
1.02412
1.03883
1.05356
1.06843
1.08363
1.09933
1.11574
1.13304
1.15145
1.1711
1.19214
1.21462
1.23858
1.26399
1.29081
1.31897
1.3484
1.37903
1.41079
1.44362
1.47746
1.51228
1.54801
1.58461
1.62204
1.66026
1.69923
1.73889
1.7792
1.82009
1.86149
1.90337
1.94564
1.98827
2.03119
2.07438
2.11777
2.16136
2.2051
2.24897
2.29297
2.33707
2.38125
2.42551
2.46983
2.51421
2.55863
2.60308
2.64756
2.69207
2.73658
2.7811
2.82561
2.87009
2.91455
2.95897
3.00333
3.04763
3.09185
3.13599
3.18002
3.22392
3.26769
3.31131
3.35474
3.39798
3.44099
3.48376
3.52626
3.56848
3.61038
3.65194
3.69312
3.73387
3.77413
3.81385
3.85301
3.89154
3.92941
3.96656
4.00295
4.03853
4.07325
4.10706
4.1399
4.17174
4.20251
4.23218
4.26069
4.288
4.31407
4.33886
4.36231
4.3844
4.40509
4.42434
4.44213
4.45842
4.4732
4.48643
4.49809
4.50818
4.51668
4.5236
4.52892
4.53261
4.53466
4.53508
4.5339
4.53113
4.52678
4.52086
4.51338
4.50436
4.49382
4.48179
4.46831
4.45341
4.43713
4.41953
4.40067
4.38059
4.35938
4.3371
4.31382
4.28963
4.26459
4.23879
4.2123
4.18518
4.15749
4.12929
4.10062
4.07151
4.04198
4.01204
3.98169
3.95091
3.91968
3.88794
3.85562
3.82261
3.78877
3.75397
3.71806
3.6809
3.64235
3.60225
3.56052
3.51699
3.47165
3.42415
3.37452
3.3217
3.266
3.2045
0.238156
0.405638
0.52209
0.579517
0.624993
0.660189
0.691124
0.718167
0.743014
0.765928
0.787562
0.8081
0.827844
0.846919
0.865483
0.883621
0.901426
0.918952
0.936247
0.953334
0.970233
0.986965
1.00356
1.02004
1.03648
1.05293
1.06948
1.08625
1.10336
1.12096
1.13922
1.15829
1.1783
1.19941
1.2217
1.24525
1.2701
1.29627
1.32375
1.35251
1.38252
1.41375
1.44616
1.47971
1.51435
1.55004
1.58674
1.62441
1.66302
1.70253
1.74291
1.78412
1.82612
1.86884
1.91223
1.95625
2.00083
2.04592
2.09147
2.13743
2.18377
2.23044
2.27741
2.32466
2.37217
2.4199
2.46784
2.51597
2.56427
2.61273
2.66132
2.71003
2.75884
2.80774
2.8567
2.90572
2.95478
3.00385
3.05293
3.10198
3.151
3.19997
3.24885
3.29764
3.34631
3.39483
3.44318
3.49135
3.53929
3.58698
3.63439
3.68149
3.72824
3.77461
3.82055
3.86603
3.91101
3.95547
3.99936
4.04262
4.08522
4.12708
4.16816
4.2084
4.24774
4.28613
4.32352
4.35984
4.39505
4.42909
4.46192
4.49347
4.52371
4.55259
4.58005
4.60606
4.63057
4.65355
4.67495
4.69475
4.71293
4.72944
4.74426
4.75736
4.76874
4.77837
4.78626
4.7924
4.79676
4.79932
4.80008
4.79906
4.79627
4.79171
4.78541
4.77738
4.76763
4.75617
4.74303
4.72823
4.71181
4.69381
4.67428
4.65327
4.63084
4.60707
4.58203
4.55581
4.52849
4.50018
4.47097
4.44097
4.41027
4.37896
4.34714
4.31487
4.28224
4.24929
4.21605
4.18255
4.14878
4.11474
4.08038
4.04566
4.01045
3.97464
3.93808
3.90059
3.86203
3.82222
3.78101
3.73823
3.69378
3.64749
3.59931
3.54894
3.49637
3.44067
3.38224
3.31844
0.236441
0.401713
0.514763
0.570931
0.615877
0.650809
0.681711
0.708869
0.733984
0.75729
0.779443
0.800617
0.821111
0.84104
0.860553
0.879727
0.898646
0.917358
0.935907
0.954324
0.972629
0.990841
1.00899
1.02712
1.04527
1.0635
1.08189
1.10052
1.11951
1.13897
1.15902
1.17979
1.20139
1.22392
1.2475
1.27217
1.29802
1.32507
1.35335
1.38286
1.41361
1.44557
1.47875
1.5131
1.5486
1.58524
1.62297
1.66178
1.70163
1.74252
1.78441
1.82725
1.87102
1.91567
1.96114
2.00739
2.05437
2.10202
2.15031
2.19917
2.24858
2.29848
2.34884
2.39962
2.4508
2.50234
2.55421
2.60639
2.65884
2.71156
2.7645
2.81764
2.87095
2.92441
2.978
3.03168
3.08544
3.13924
3.19306
3.24688
3.30066
3.35438
3.40801
3.46152
3.51486
3.56802
3.62096
3.67364
3.72604
3.7781
3.82978
3.88106
3.93191
3.98232
4.03222
4.08157
4.13029
4.17833
4.22563
4.27215
4.31782
4.36259
4.40642
4.44925
4.49101
4.53166
4.57113
4.60938
4.64635
4.68198
4.71623
4.74903
4.78035
4.81014
4.83834
4.86492
4.88984
4.91306
4.93454
4.95426
4.97219
4.98831
5.00257
5.01497
5.02548
5.03411
5.04086
5.0457
5.04862
5.04959
5.04862
5.04573
5.0409
5.03419
5.02559
5.01512
5.00279
4.98862
4.97262
4.95482
4.93526
4.91398
4.89104
4.86648
4.84038
4.81282
4.78387
4.75364
4.72223
4.68976
4.65635
4.62211
4.58717
4.55166
4.51567
4.47933
4.44273
4.40595
4.36903
4.33203
4.29493
4.25774
4.22042
4.18288
4.14502
4.10666
4.06764
4.02776
3.98684
3.94471
3.90117
3.85605
3.80923
3.76052
3.70987
3.65699
3.60192
3.5438
3.48311
3.41749
0.231064
0.391546
0.500842
0.555792
0.600262
0.634989
0.665946
0.693329
0.718851
0.742704
0.765552
0.787545
0.808982
0.829965
0.850642
0.871078
0.891343
0.911471
0.931491
0.951419
0.971279
0.991104
1.01093
1.03078
1.05068
1.07071
1.09092
1.11139
1.13222
1.15349
1.17531
1.19778
1.22098
1.24502
1.26998
1.29594
1.32296
1.35111
1.38041
1.4109
1.4426
1.47552
1.50966
1.54502
1.5816
1.61937
1.65835
1.6985
1.73983
1.78231
1.82591
1.87061
1.91637
1.96316
2.01093
2.05964
2.10923
2.15966
2.21089
2.26287
2.31555
2.36888
2.42283
2.47735
2.53239
2.58792
2.6439
2.70029
2.75706
2.81416
2.87157
2.92925
2.98715
3.04525
3.10351
3.16189
3.22035
3.27887
3.33741
3.39593
3.45439
3.51276
3.57099
3.62904
3.68688
3.74445
3.80173
3.85868
3.91526
3.9714
4.02707
4.08219
4.13673
4.19064
4.24388
4.29641
4.34819
4.39915
4.44924
4.4984
4.54658
4.5937
4.63971
4.68455
4.72815
4.77047
4.81144
4.851
4.8891
4.92568
4.96069
4.99409
5.02582
5.05584
5.08411
5.11058
5.13522
5.158
5.1789
5.19787
5.21491
5.22998
5.24307
5.25414
5.26321
5.27028
5.27534
5.27837
5.27934
5.27827
5.27512
5.2699
5.26267
5.25344
5.24221
5.22901
5.21383
5.19669
5.17762
5.15665
5.13381
5.10914
5.0827
5.05455
5.02476
4.99342
4.96061
4.92644
4.89103
4.85451
4.81701
4.77867
4.73963
4.70004
4.66003
4.61976
4.57934
4.53888
4.49845
4.45812
4.4179
4.37779
4.33774
4.29768
4.25745
4.21688
4.17575
4.13386
4.09099
4.04693
4.00149
3.95446
3.90568
3.85499
3.80233
3.74742
3.69033
3.63031
3.56788
3.50095
0.223603
0.377918
0.482879
0.53646
0.58035
0.614849
0.645881
0.673541
0.69955
0.724046
0.747697
0.770618
0.793109
0.815252
0.837193
0.858979
0.880678
0.902317
0.923927
0.945518
0.967108
0.988697
1.0103
1.03195
1.05368
1.07556
1.09764
1.11999
1.1427
1.16584
1.18949
1.21373
1.23865
1.26434
1.29088
1.31834
1.34681
1.37635
1.40699
1.43881
1.47182
1.50605
1.54154
1.5783
1.61633
1.65565
1.69626
1.73816
1.78135
1.82582
1.87155
1.91852
1.9667
2.01604
2.06652
2.11809
2.17071
2.22432
2.27889
2.33435
2.39067
2.44779
2.50567
2.56424
2.62346
2.68328
2.74364
2.8045
2.86581
2.92752
2.98959
3.05196
3.11459
3.17743
3.24044
3.30356
3.36676
3.42999
3.4932
3.55633
3.61936
3.68221
3.74485
3.80722
3.86928
3.93095
3.99221
4.05299
4.11323
4.1729
4.23197
4.2904
4.34812
4.40508
4.46119
4.51641
4.57068
4.62393
4.6761
4.72714
4.77698
4.82558
4.87286
4.91878
4.96328
5.00629
5.04776
5.08764
5.12588
5.16242
5.19721
5.2302
5.26136
5.29064
5.318
5.34341
5.36684
5.38826
5.40765
5.425
5.44029
5.45348
5.46457
5.47355
5.48043
5.48523
5.48792
5.48849
5.48695
5.48322
5.47732
5.46931
5.45922
5.44705
5.43282
5.41654
5.3982
5.37785
5.35549
5.33115
5.30489
5.27674
5.24675
5.215
5.18156
5.14652
5.10996
5.07201
5.0328
4.99245
4.95112
4.90894
4.86608
4.82269
4.77895
4.73502
4.69106
4.64719
4.60353
4.56014
4.51707
4.47432
4.43186
4.38958
4.34734
4.30491
4.26206
4.21855
4.17416
4.12864
4.08176
4.03329
3.98307
3.9309
3.87673
3.82034
3.76177
3.70042
3.6368
3.56909
0.213481
0.36016
0.460748
0.513021
0.556382
0.590734
0.621941
0.649989
0.676615
0.701887
0.726484
0.750479
0.774179
0.797638
0.821
0.844301
0.867611
0.890949
0.914344
0.937794
0.961304
0.984869
1.0085
1.03222
1.05604
1.08005
1.1043
1.12884
1.15372
1.17902
1.20481
1.23117
1.25816
1.28588
1.31442
1.34386
1.37428
1.40573
1.43828
1.47198
1.5069
1.54307
1.58053
1.61932
1.65946
1.70097
1.74388
1.78819
1.83391
1.88103
1.92956
1.97946
2.0307
2.08327
2.1371
2.19216
2.24841
2.30579
2.36424
2.42373
2.48418
2.54555
2.60777
2.67078
2.73452
2.79892
2.86392
2.92946
2.99549
3.06192
3.12872
3.1958
3.26313
3.33063
3.39826
3.46594
3.53362
3.60125
3.66877
3.73611
3.80322
3.87005
3.93654
4.00263
4.06827
4.13341
4.198
4.26194
4.32517
4.38761
4.44922
4.50995
4.56976
4.62861
4.68644
4.74318
4.79878
4.85318
4.90631
4.95812
5.00854
5.05752
5.10499
5.15091
5.1952
5.23782
5.27872
5.31783
5.35512
5.39053
5.42403
5.45556
5.48508
5.51258
5.538
5.56133
5.58254
5.60162
5.61856
5.63335
5.64596
5.65639
5.66463
5.6707
5.67461
5.67639
5.67599
5.67347
5.66866
5.66165
5.65247
5.64115
5.62771
5.61216
5.59451
5.57477
5.55296
5.52909
5.50319
5.4753
5.44545
5.4137
5.3801
5.34473
5.30766
5.26899
5.22881
5.18725
5.14445
5.10054
5.05566
5.00997
4.96364
4.91685
4.86978
4.82261
4.77553
4.72868
4.6822
4.63618
4.59068
4.54572
4.50128
4.45724
4.41343
4.36961
4.32553
4.28092
4.23553
4.18907
4.1413
4.09195
4.04084
3.98777
3.93268
3.87537
3.81593
3.75382
3.68959
3.62163
0.202636
0.341349
0.436919
0.487728
0.530578
0.564872
0.596387
0.624945
0.652329
0.678522
0.70423
0.729469
0.754554
0.779508
0.804492
0.829529
0.854698
0.880003
0.905467
0.931077
0.956833
0.982731
1.00877
1.03496
1.0614
1.0881
1.11511
1.14245
1.17017
1.19832
1.22693
1.25605
1.28579
1.31627
1.3476
1.37982
1.41299
1.44719
1.4825
1.51898
1.55671
1.59572
1.63609
1.67783
1.72101
1.76564
1.81175
1.85935
1.90847
1.9591
2.01123
2.06484
2.11991
2.17638
2.23423
2.29339
2.35381
2.41545
2.47823
2.54209
2.60697
2.6728
2.73952
2.80704
2.8753
2.94422
3.01372
3.08374
3.15419
3.22501
3.29612
3.36745
3.43894
3.5105
3.58208
3.6536
3.72499
3.79619
3.86714
3.93775
4.00797
4.07774
4.14697
4.21561
4.28359
4.35086
4.41737
4.48304
4.54783
4.61167
4.6745
4.73625
4.79688
4.85633
4.91453
4.97142
5.02695
5.08105
5.13368
5.18476
5.23426
5.28211
5.32827
5.37268
5.4153
5.45607
5.49496
5.53191
5.56689
5.59985
5.63076
5.65958
5.68628
5.71083
5.73321
5.75339
5.77137
5.78714
5.8007
5.81203
5.82112
5.82799
5.83263
5.8351
5.83536
5.83356
5.82946
5.82315
5.81464
5.80394
5.79109
5.77611
5.75901
5.73982
5.71855
5.6952
5.66978
5.64233
5.61287
5.58144
5.54808
5.51284
5.47579
5.43699
5.39654
5.35452
5.31105
5.26625
5.22023
5.17316
5.12517
5.07645
5.02717
4.97754
4.92773
4.87796
4.8284
4.77924
4.73061
4.68264
4.6354
4.58893
4.5432
4.4981
4.45343
4.40893
4.36433
4.31934
4.27367
4.22703
4.17912
4.12965
4.0784
4.02517
3.9699
3.9124
3.85277
3.79059
3.72639
3.65879
0.190739
0.322702
0.413636
0.463302