/*--------------------------------*- C++ -*----------------------------------*\
| =========                 |                                                 |
| \\      /  F ield         | OpenFOAM: The Open Source CFD Toolbox           |
|  \\    /   O peration     | Version:  v1906                                 |
|   \\  /    A nd           | Web:      www.OpenFOAM.com                      |
|    \\/     M anipulation  |                                                 |
\*---------------------------------------------------------------------------*/
FoamFile
{
    version     2.0;
    format      ascii;
    class       volScalarField;
    location    "1500";
    object      nut;
}
// * * * * * * * * * * * * * * * * * * * * * * * * * * * * * * * * * * * * * //

dimensions      [0 2 -1 0 0 0 0];


internalField   nonuniform List<scalar> 
12225
(
5.38048e-05
5.34216e-05
5.26393e-05
5.17771e-05
5.09448e-05
5.01786e-05
4.94841e-05
4.8866e-05
4.83022e-05
4.78113e-05
4.73448e-05
4.69643e-05
4.66546e-05
4.64024e-05
4.61698e-05
4.6002e-05
4.57993e-05
4.57225e-05
0.000743659
0.000274826
0.000208914
0.00018681
0.00017379
0.000168879
0.000164686
0.000161046
0.000158122
0.000155568
0.000153623
0.000151686
0.00015039
0.000148624
0.000148028
0.000146292
0.000146631
0.000144739
0.00337131
0.000965685
0.00066842
0.00056224
0.000503854
0.000472006
0.000448869
0.000431604
0.000418716
0.000408267
0.000399607
0.000392215
0.000386149
0.000380412
0.000376246
0.000371214
0.000369349
0.000364223
0.00784748
0.00229237
0.00147325
0.00117574
0.00101858
0.000926457
0.000864585
0.000819811
0.000786938
0.000761117
0.000740025
0.000723246
0.000709497
0.000697613
0.000688045
0.000678644
0.000673329
0.000662825
0.0127627
0.00432671
0.00270974
0.00210435
0.00178855
0.00159946
0.00147341
0.00138298
0.00131565
0.00126347
0.0012215
0.00118733
0.00115954
0.00113563
0.00111542
0.00109753
0.00108467
0.00106623
0.0171139
0.00693197
0.00436915
0.00334588
0.00280527
0.00247635
0.00225602
0.00209803
0.00197974
0.00188806
0.00181472
0.00175484
0.00170549
0.0016638
0.00162834
0.00159753
0.00157178
0.00154349
0.0205946
0.00988392
0.00641796
0.00491184
0.00409423
0.00358847
0.00324678
0.00300086
0.00281592
0.00267209
0.00255701
0.00246292
0.00238487
0.00231905
0.0022629
0.00221434
0.00217299
0.00213036
0.0232406
0.0129305
0.00876063
0.00676554
0.00563798
0.00492463
0.00443617
0.00408177
0.00381355
0.0036039
0.00343562
0.00329768
0.00318277
0.00308567
0.00300263
0.0029308
0.00286843
0.00280709
0.0252063
0.0158686
0.0112824
0.00885735
0.00741807
0.00648202
0.00583009
0.00535193
0.00498719
0.00470034
0.00446908
0.00427885
0.00411983
0.00398506
0.0038695
0.00376935
0.00368163
0.00359854
0.0266541
0.0185548
0.0138526
0.0111072
0.00938564
0.00822864
0.0074057
0.00679347
0.00632161
0.00594758
0.00564419
0.00539342
0.00518289
0.00500381
0.00484974
0.00471579
0.00459768
0.00448858
0.0277221
0.0209145
0.0163557
0.013429
0.0114839
0.0101278
0.00913945
0.00839165
0.00780818
0.00734132
0.00695988
0.00664277
0.00637525
0.00614676
0.00594946
0.00577736
0.00562523
0.00548665
0.0284467
0.0227414
0.0184775
0.0155117
0.0134325
0.0119301
0.0108078
0.00994347
0.00926021
0.00870797
0.00825319
0.00787269
0.00755001
0.00727318
0.00703321
0.00682317
0.00663705
0.00646882
0.0290074
0.0243028
0.0204371
0.0175382
0.0153938
0.0137846
0.0125498
0.0115799
0.0108017
0.0101656
0.00963698
0.00919153
0.00881155
0.00848395
0.0081988
0.00794833
0.00772601
0.00752575
0.0294888
0.0257554
0.0223977
0.0196764
0.0175405
0.0158662
0.0145391
0.0134712
0.0125984
0.0118745
0.0112661
0.0107486
0.0103039
0.00991814
0.00958058
0.00928282
0.00901785
0.00877964
0.0298837
0.0270284
0.024239
0.0217975
0.0197576
0.0180789
0.0166977
0.015554
0.0145982
0.0137915
0.0131041
0.0125128
0.0120001
0.0115518
0.0111572
0.0108074
0.0104951
0.0102142
0.0301876
0.0280602
0.0258267
0.0237253
0.0218564
0.0202382
0.0188521
0.0176673
0.016652
0.015778
0.0150212
0.0143619
0.013784
0.0132746
0.012823
0.0124204
0.0120597
0.0117348
0.0303978
0.0288004
0.0270242
0.0252473
0.0235765
0.0220603
0.0207108
0.0195212
0.0184764
0.0175591
0.0167522
0.0160402
0.0154096
0.014849
0.0143484
0.0138998
0.013496
0.0131317
0.0305044
0.0291848
0.027668
0.0260933
0.0245603
0.0231267
0.0218184
0.0206414
0.0195906
0.0186557
0.0178245
0.0170846
0.0164248
0.0158347
0.0153054
0.0148291
0.0143989
0.0140088
0.0304715
0.0290671
0.0274719
0.0258371
0.0242637
0.0228061
0.0214859
0.0203051
0.0192558
0.0183254
0.0175004
0.0167677
0.0161153
0.0155327
0.0150108
0.0145419
0.0141195
0.0137382
0.0302311
0.028214
0.0260762
0.0240424
0.022214
0.0206157
0.0192353
0.0180471
0.017023
0.0161371
0.0153668
0.0146934
0.0141015
0.0135783
0.0131136
0.0126991
0.012328
0.0119949
0.0298207
0.0268282
0.0239499
0.0214633
0.0194057
0.0177242
0.0163475
0.0152114
0.0142641
0.0134657
0.0127859
0.0122015
0.0116947
0.0112516
0.0108615
0.0105162
0.0102093
0.0099366
0.0291396
0.0247089
0.0209851
0.0181326
0.0159865
0.0143549
0.0130899
0.0120884
0.0112796
0.0106148
0.0100599
0.0095904
0.0091884
0.00884066
0.00853712
0.00827017
0.00803411
0.00782537
0.0280361
0.0217164
0.0172854
0.0143384
0.0123316
0.0109082
0.00985729
0.00905435
0.00842297
0.0079145
0.00749675
0.00714774
0.00685196
0.00659819
0.00637801
0.00618524
0.00601515
0.0058666
0.0262544
0.0178169
0.0131461
0.0104898
0.00884769
0.00775167
0.00697432
0.00639701
0.00595244
0.00560003
0.00531408
0.00507756
0.00487876
0.00470939
0.00456332
0.00443605
0.00432394
0.00422614
0.0233815
0.013206
0.00902272
0.00699369
0.00583846
0.00510171
0.00459328
0.00422304
0.00394188
0.00372126
0.00354369
0.00339776
0.00327576
0.00317234
0.00308332
0.00300591
0.00293688
0.00287733
0.0189046
0.00845566
0.00545017
0.00418499
0.00350648
0.0030863
0.00280105
0.00259667
0.00244291
0.00232296
0.00222692
0.0021483
0.00208281
0.00202754
0.00197992
0.00193887
0.00190227
0.00187118
0.0125845
0.00438898
0.00278863
0.00217251
0.00185042
0.00165234
0.00151842
0.00142442
0.00135368
0.00129846
0.00125446
0.00121851
0.0011887
0.00116368
0.00114165
0.00112307
0.00110563
0.0010909
0.00562612
0.0017115
0.00115553
0.000946001
0.000837008
0.000769053
0.000723366
0.000693213
0.000668836
0.0006494
0.00063389
0.000620884
0.000609652
0.000600124
0.000591466
0.00058427
0.00057706
0.000572114
0.00117126
0.000435647
0.000327295
0.000284814
0.000262919
0.000248767
0.000241432
0.000237217
0.00023325
0.000229646
0.000226418
0.000223614
0.00022106
0.000218902
0.000216831
0.000215173
0.000213386
0.000211757
7.08579e-05
7.01306e-05
6.91148e-05
6.81142e-05
6.71693e-05
6.63003e-05
6.55047e-05
6.47803e-05
6.41225e-05
6.35249e-05
6.29805e-05
6.24827e-05
6.20275e-05
6.1608e-05
6.12241e-05
6.08662e-05
6.054e-05
6.02299e-05
1.04164e-05
3.07122e-05
3.68236e-05
4.01016e-05
4.24341e-05
4.39682e-05
4.51054e-05
4.59465e-05
4.66161e-05
4.71599e-05
4.76217e-05
4.80219e-05
4.83788e-05
4.87021e-05
4.89984e-05
4.92716e-05
4.95219e-05
4.97547e-05
4.99628e-05
5.0164e-05
5.02871e-05
5.0262e-05
5.0179e-05
4.99948e-05
4.96552e-05
4.91385e-05
4.84332e-05
4.75175e-05
4.63721e-05
4.49881e-05
4.32892e-05
4.11729e-05
3.86219e-05
3.55027e-05
3.28904e-05
3.14358e-05
3.10476e-05
3.12371e-05
3.15394e-05
3.16409e-05
3.14396e-05
3.06892e-05
2.90572e-05
2.73092e-05
2.69377e-05
2.88025e-05
3.17487e-05
3.50685e-05
3.85925e-05
4.23216e-05
4.64e-05
4.97612e-05
5.26269e-05
5.51233e-05
5.73405e-05
5.93314e-05
6.11364e-05
6.27862e-05
6.43052e-05
6.57148e-05
6.70348e-05
6.82788e-05
6.94544e-05
7.05684e-05
7.16267e-05
7.26345e-05
7.35965e-05
7.45169e-05
7.53993e-05
7.62467e-05
7.70616e-05
7.78462e-05
7.8602e-05
7.93304e-05
8.00323e-05
8.07086e-05
8.13609e-05
8.19918e-05
8.26028e-05
8.31943e-05
8.37664e-05
8.4319e-05
8.48512e-05
8.53618e-05
8.58487e-05
8.63086e-05
8.67372e-05
8.71286e-05
8.7472e-05
8.7827e-05
8.81652e-05
8.85022e-05
8.88329e-05
8.91628e-05
8.94873e-05
8.98039e-05
9.01142e-05
9.04167e-05
9.07112e-05
9.09976e-05
9.12753e-05
9.1541e-05
9.17935e-05
9.20307e-05
9.2251e-05
9.24523e-05
9.26324e-05
9.27893e-05
9.29251e-05
9.30436e-05
9.31451e-05
9.32295e-05
9.32968e-05
9.33472e-05
9.33812e-05
9.33993e-05
9.3402e-05
9.33896e-05
9.33624e-05
9.33214e-05
9.32631e-05
9.32011e-05
9.31253e-05
9.30408e-05
9.29473e-05
9.28393e-05
9.26964e-05
9.25709e-05
9.24234e-05
9.2271e-05
9.2108e-05
9.19376e-05
9.17596e-05
9.1575e-05
9.13815e-05
9.11797e-05
9.09734e-05
9.07646e-05
9.05501e-05
9.03349e-05
9.01168e-05
8.98964e-05
8.96748e-05
8.94528e-05
8.92313e-05
8.90105e-05
8.87916e-05
8.85754e-05
8.83625e-05
8.81535e-05
8.79521e-05
8.77598e-05
8.75837e-05
8.74597e-05
8.73828e-05
8.7318e-05
8.7251e-05
8.71837e-05
8.70593e-05
8.68501e-05
8.66224e-05
8.64148e-05
8.62408e-05
8.60908e-05
8.59597e-05
8.5854e-05
8.57852e-05
8.57411e-05
8.57197e-05
8.57093e-05
8.57088e-05
8.56947e-05
8.56781e-05
8.56103e-05
8.55489e-05
8.53711e-05
8.52072e-05
8.48597e-05
8.4547e-05
8.23881e-05
1.52584e-05
7.62999e-05
0.000164912
0.000222873
0.00026777
0.000299624
0.000324795
0.00034381
0.000359674
0.000372863
0.000384473
0.000394986
0.000404886
0.000414257
0.000423079
0.000431183
0.00043842
0.000444649
0.000449818
0.000453856
0.000456819
0.000458679
0.000459227
0.000457186
0.000450713
0.000440722
0.000430629
0.000422988
0.000419022
0.000417163
0.000418874
0.00043013
0.00045553
0.000488728
0.000519986
0.000546987
0.000569702
0.000588865
0.000605504
0.000620849
0.000635985
0.000651182
0.000665592
0.000677733
0.000686882
0.000693396
0.000697674
0.000699665
0.000699047
0.000695775
0.000689993
0.000685984
0.000685817
0.00068992
0.000697858
0.000708846
0.000721986
0.000736403
0.000751291
0.000765903
0.000780707
0.000796342
0.000812616
0.000829178
0.000845713
0.000861988
0.000877845
0.00089319
0.000907976
0.000922191
0.000935842
0.000948944
0.00096151
0.000973536
0.000984984
0.000995765
0.0010057
0.00101492
0.00102369
0.00103214
0.00104033
0.00104828
0.00105601
0.00106352
0.00107081
0.00107787
0.00108466
0.00109112
0.00109713
0.00110252
0.00110729
0.0011113
0.00111442
0.00111657
0.00111829
0.00111982
0.00112128
0.00112276
0.00112432
0.00112598
0.00112779
0.00112974
0.00113177
0.00113382
0.00113577
0.0011375
0.00113871
0.00113887
0.00113823
0.0011374
0.00113651
0.00113558
0.00113459
0.00113353
0.0011324
0.00113122
0.00113
0.00112876
0.0011275
0.00112622
0.0011249
0.00112357
0.00112221
0.0011208
0.00111929
0.00111778
0.00111618
0.0011144
0.00111261
0.00111071
0.00110873
0.00110663
0.00110441
0.0011021
0.00109969
0.00109719
0.00109461
0.00109184
0.00108897
0.00108602
0.001083
0.00107992
0.00107677
0.00107357
0.00107033
0.00106705
0.00106377
0.0010605
0.0010572
0.00105392
0.00105075
0.00104753
0.00104423
0.00104224
0.00104167
0.00104103
0.00103984
0.00103838
0.00103685
0.00103558
0.00103427
0.00103258
0.00103035
0.00102739
0.00102348
0.00101841
0.0010121
0.00100453
0.000995827
0.000986074
0.000975559
0.000964303
0.000952789
0.000940767
0.000929156
0.000916634
0.000906758
0.000894134
0.000887853
0.000849718
1.92707e-05
0.000100229
0.000226983
0.000332048
0.000422227
0.000494936
0.000555373
0.000602345
0.000642548
0.000677028
0.000708715
0.000738492
0.000767409
0.000795411
0.000822493
0.000848391
0.000873081
0.000896685
0.000919559
0.000942109
0.00096476
0.000987827
0.00101119
0.0010337
0.00105271
0.00106661
0.00107786
0.00108917
0.00110204
0.0011159
0.00112837
0.00113689
0.00113959
0.00114052
0.0011438
0.00115048
0.00116098
0.00117528
0.0011934
0.00121569
0.00124244
0.00127141
0.0013024
0.00133377
0.00136399
0.0013922
0.00141809
0.00144205
0.00146443
0.00148441
0.00150529
0.00152745
0.0015518
0.00157892
0.00160861
0.00164037
0.0016735
0.00170731
0.00174118
0.00177464
0.00180741
0.0018393
0.00187009
0.00189959
0.00192767
0.00195425
0.00197931
0.00200287
0.00202496
0.00204564
0.00206498
0.00208306
0.00209993
0.00211564
0.00213025
0.0021438
0.00215635
0.002168
0.00217887
0.00218901
0.00219846
0.00220723
0.00221533
0.00222271
0.00222931
0.00223504
0.00223973
0.00224316
0.00224499
0.00224554
0.00224525
0.00224435
0.00224301
0.00224142
0.0022398
0.00223827
0.00223694
0.0022359
0.0022352
0.00223497
0.00223523
0.00223588
0.0022367
0.00223754
0.00223823
0.00223864
0.00223865
0.00223825
0.00223757
0.00223673
0.00223573
0.00223452
0.002233
0.00223112
0.00222893
0.00222657
0.00222413
0.00222167
0.00221921
0.00221676
0.00221432
0.00221188
0.00220938
0.00220685
0.0022043
0.0022017
0.00219904
0.00219633
0.00219359
0.00219077
0.0021879
0.00218495
0.00218193
0.00217888
0.0021758
0.00217272
0.00216954
0.00216622
0.00216293
0.00215972
0.00215655
0.00215342
0.00215031
0.00214727
0.00214433
0.00214148
0.00213878
0.00213628
0.00213401
0.00213194
0.00212993
0.00212801
0.00212638
0.00212539
0.00212482
0.00212403
0.00212285
0.0021214
0.00211977
0.00211781
0.00211518
0.00211159
0.0021068
0.00210064
0.00209296
0.00208355
0.00207229
0.00205915
0.00204425
0.0020277
0.00200987
0.00199076
0.00197099
0.00195015
0.00192963
0.00190781
0.00188864
0.00186593
0.00184431
0.00177573
2.11249e-05
0.000121553
0.000274626
0.000399098
0.000519085
0.000617829
0.000707894
0.000781152
0.000847424
0.00090535
0.000960014
0.0010114
0.00106121
0.00110886
0.0011547
0.00119842
0.00124042
0.001281
0.00132064
0.00135947
0.00139767
0.00143556
0.00147329
0.00151018
0.00154376
0.0015688
0.00158557
0.00159473
0.00159711
0.00159405
0.0015876
0.00157973
0.00157235
0.00156774
0.00156806
0.0015744
0.0015869
0.00160564
0.00163067
0.00166235
0.00169795
0.00173912
0.00178633
0.00183847
0.00189427
0.00195162
0.00200871
0.00206403
0.00211576
0.00216553
0.00221353
0.00226017
0.0023057
0.00235055
0.00239506
0.00243929
0.00248308
0.00252613
0.00256818
0.00260901
0.00264843
0.00268626
0.00272236
0.00275663
0.00278897
0.00281932
0.00284769
0.00287412
0.00289869
0.00292148
0.00294258
0.00296208
0.00298007
0.00299664
0.00301187
0.00302585
0.00303868
0.00305042
0.00306113
0.00307086
0.00307967
0.00308756
0.00309456
0.00310067
0.00310589
0.0031102
0.00311361
0.00311614
0.00311788
0.00311899
0.00311965
0.00311998
0.00312012
0.00312018
0.00312026
0.00312044
0.00312078
0.0031213
0.00312203
0.00312296
0.00312403
0.00312517
0.00312631
0.00312735
0.00312822
0.00312887
0.00312927
0.00312942
0.00312932
0.00312893
0.00312817
0.00312688
0.00312482
0.00312154
0.00311749
0.00311315
0.0031087
0.00310423
0.00309976
0.0030953
0.00309084
0.00308638
0.0030819
0.00307741
0.00307289
0.00306833
0.00306373
0.00305914
0.00305453
0.0030499
0.00304526
0.00304061
0.00303597
0.00303138
0.00302686
0.00302238
0.00301782
0.00301332
0.00300899
0.0030049
0.00300098
0.0029972
0.0029936
0.00299021
0.002987
0.00298395
0.00298119
0.00297882
0.00297686
0.00297532
0.0029741
0.00297314
0.00297242
0.00297195
0.00297141
0.00297045
0.00296887
0.0029667
0.00296384
0.00296012
0.00295532
0.00294926
0.00294173
0.0029324
0.00292108
0.00290773
0.00289241
0.00287506
0.00285573
0.00283438
0.00281123
0.00278623
0.0027599
0.00273195
0.00270361
0.00267364
0.00264494
0.00261125
0.0025723
0.00248842
2.35308e-05
0.000146693
0.00032462
0.000474131
0.000617394
0.000741989
0.000856888
0.000957773
0.00104979
0.0011307
0.00120595
0.00127502
0.00134101
0.00140343
0.00146349
0.00152086
0.00157614
0.001629
0.00167939
0.00172684
0.00177097
0.00181096
0.00184589
0.00187471
0.00189684
0.00191152
0.00191896
0.00192003
0.00191615
0.00190913
0.00190091
0.00189334
0.00188739
0.00188375
0.00188306
0.00188768
0.00190093
0.00192508
0.00196191
0.00201026
0.00206914
0.00213662
0.00221009
0.00228694
0.00236472
0.00244135
0.002515
0.00258646
0.00265466
0.00271953
0.00278155
0.0028411
0.00289854
0.00295411
0.00300799
0.0030602
0.00311072
0.00315948
0.00320632
0.00325107
0.00329357
0.00333375
0.00337154
0.00340694
0.00344
0.00347079
0.00349939
0.0035259
0.00355039
0.00357298
0.00359375
0.0036128
0.00363023
0.00364613
0.0036606
0.00367371
0.00368556
0.00369622
0.00370576
0.00371425
0.00372175
0.00372829
0.00373394
0.00373875
0.00374276
0.00374604
0.00374868
0.00375075
0.00375236
0.0037536
0.00375459
0.00375539
0.00375608
0.00375672
0.00375735
0.00375802
0.00375874
0.00375954
0.00376041
0.00376135
0.00376234
0.00376332
0.00376424
0.00376507
0.00376576
0.00376629
0.00376663
0.00376678
0.00376668
0.0037663
0.00376557
0.00376442
0.0037628
0.00376076
0.00375844
0.00375599
0.00375345
0.00375086
0.00374822
0.00374554
0.00374281
0.00374003
0.0037372
0.00373433
0.00373141
0.00372846
0.00372547
0.00372246
0.00371943
0.00371639
0.00371336
0.00371035
0.00370738
0.00370447
0.00370166
0.00369885
0.00369603
0.00369339
0.00369085
0.00368855
0.00368644
0.00368452
0.0036828
0.00368125
0.00367972
0.00367812
0.00367684
0.00367605
0.00367577
0.00367598
0.0036766
0.00367752
0.00367858
0.00367948
0.00367954
0.00367887
0.00367744
0.00367517
0.00367192
0.0036675
0.00366171
0.00365436
0.0036452
0.00363399
0.00362056
0.00360479
0.00358661
0.00356592
0.00354265
0.00351677
0.00348832
0.00345738
0.00342416
0.00338879
0.00335162
0.00331258
0.00327145
0.00322494
0.0031659
0.00307652
2.51619e-05
0.000161333
0.000362378
0.000535681
0.000699326
0.000845107
0.000977371
0.001097
0.00120564
0.00130523
0.00139693
0.0014817
0.00156037
0.00163335
0.00170191
0.00176646
0.00182716
0.00188354
0.00193527
0.00198198
0.00202358
0.00205992
0.00209087
0.00211633
0.00213628
0.0021508
0.00216017
0.0021651
0.00216671
0.0021664
0.00216515
0.00216365
0.00216477
0.00217117
0.00218535
0.00220872
0.00224159
0.00228407
0.00233639
0.00239834
0.0024681
0.00254409
0.00262427
0.00270674
0.00278954
0.00287108
0.00295034
0.00302678
0.00310019
0.00317057
0.00323791
0.00330237
0.00336409
0.00342317
0.0034797
0.00353373
0.00358526
0.00363431
0.00368084
0.00372485
0.00376634
0.00380532
0.00384182
0.00387589
0.00390761
0.00393704
0.00396427
0.00398941
0.00401254
0.00403376
0.00405317
0.00407088
0.00408697
0.00410156
0.00411474
0.00412659
0.00413721
0.00414666
0.00415504
0.00416242
0.00416886
0.00417444
0.00417925
0.00418335
0.00418685
0.0041898
0.00419229
0.0041944
0.00419618
0.00419769
0.004199
0.00420017
0.00420123
0.00420225
0.00420326
0.00420428
0.00420532
0.00420639
0.00420748
0.00420857
0.00420965
0.0042107
0.00421168
0.00421258
0.00421338
0.00421405
0.00421458
0.00421494
0.00421511
0.00421506
0.00421477
0.00421423
0.00421346
0.0042125
0.0042114
0.0042102
0.00420891
0.00420755
0.00420611
0.0042046
0.00420302
0.00420137
0.00419966
0.00419788
0.00419605
0.00419417
0.00419224
0.00419029
0.00418831
0.00418632
0.00418434
0.00418238
0.00418047
0.00417862
0.0041768
0.00417503
0.0041733
0.00417171
0.00417028
0.00416907
0.00416808
0.00416733
0.00416681
0.00416653
0.00416646
0.00416665
0.0041672
0.00416816
0.0041695
0.00417116
0.00417305
0.00417504
0.00417698
0.00417866
0.00417988
0.00418054
0.0041805
0.00417962
0.00417771
0.00417456
0.00416995
0.00416366
0.00415541
0.00414496
0.00413207
0.00411653
0.00409816
0.00407677
0.00405225
0.00402451
0.00399355
0.00395943
0.0039223
0.00388237
0.00383977
0.00379448
0.00374546
0.00369012
0.00362201
0.0035342
2.66878e-05
0.000172218
0.000392774
0.000586114
0.000763529
0.00092279
0.00106597
0.00119596
0.00131423
0.00142266
0.00152237
0.00161439
0.00169973
0.00177892
0.00185237
0.00192059
0.00198387
0.00204241
0.00209631
0.0021456
0.00219026
0.00223027
0.00226561
0.00229634
0.0023226
0.00234468
0.00236301
0.00237819
0.00239106
0.00240234
0.002414
0.00242806
0.00244521
0.0024668
0.00249458
0.00252994
0.00257375
0.00262627
0.00268712
0.00275537
0.00282961
0.00290817
0.00298997
0.0030735
0.00315642
0.00323768
0.00331654
0.00339267
0.00346608
0.00353615
0.00360299
0.00366664
0.00372718
0.0037847
0.00383928
0.00389099
0.00393992
0.00398611
0.00402963
0.00407054
0.0041089
0.00414476
0.00417821
0.00420931
0.00423814
0.00426481
0.00428939
0.004312
0.00433272
0.00435166
0.00436892
0.00438461
0.00439881
0.00441164
0.00442319
0.00443354
0.00444279
0.00445102
0.00445832
0.00446476
0.00447044
0.00447543
0.00447981
0.00448366
0.00448704
0.00449001
0.00449262
0.00449493
0.00449701
0.0044989
0.00450068
0.0045024
0.00450409
0.00450578
0.00450746
0.00450913
0.0045108
0.00451245
0.00451409
0.00451571
0.00451731
0.00451886
0.00452036
0.00452178
0.00452311
0.00452434
0.00452545
0.00452643
0.00452726
0.00452793
0.00452844
0.00452879
0.004529
0.00452907
0.00452903
0.00452888
0.00452863
0.00452827
0.00452782
0.00452727
0.00452662
0.00452587
0.00452504
0.00452411
0.00452311
0.00452204
0.00452089
0.00451969
0.00451844
0.00451715
0.00451584
0.00451454
0.00451326
0.00451197
0.00451072
0.00450946
0.00450828
0.00450723
0.00450636
0.00450569
0.00450527
0.0045051
0.00450523
0.00450567
0.00450645
0.00450761
0.00450919
0.00451118
0.00451356
0.00451629
0.00451928
0.00452244
0.00452566
0.0045288
0.00453171
0.00453426
0.00453627
0.00453758
0.00453798
0.00453723
0.00453508
0.00453126
0.00452546
0.00451737
0.00450667
0.00449308
0.0044763
0.00445611
0.0044323
0.00440476
0.00437342
0.00433836
0.00429968
0.00425761
0.0042122
0.00416335
0.0041099
0.00404991
0.00397885
0.00389438
2.76188e-05
0.000178083
0.000413168
0.00062085
0.000807983
0.000976185
0.0011275
0.00126485
0.00138976
0.00150406
0.00160895
0.00170552
0.0017949
0.00187791
0.00195501
0.00202667
0.0020933
0.00215528
0.0022129
0.0022664
0.00231592
0.0023616
0.00240352
0.00244175
0.00247637
0.00250752
0.00253538
0.00256023
0.00258249
0.00260283
0.00262146
0.00263995
0.00266168
0.00268897
0.00272308
0.00276462
0.00281414
0.0028721
0.00293858
0.00301297
0.003094
0.00317981
0.00326829
0.00335727
0.00344453
0.00352805
0.00360768
0.00368339
0.00375479
0.00382217
0.00388573
0.00394567
0.00400214
0.00405533
0.00410537
0.00415242
0.0041966
0.00423803
0.00427682
0.00431306
0.00434687
0.00437833
0.00440753
0.00443458
0.00445958
0.00448261
0.00450379
0.00452321
0.00454098
0.00455721
0.00457199
0.00458542
0.00459761
0.00460865
0.00461863
0.00462764
0.00463576
0.00464308
0.00464968
0.00465563
0.00466101
0.00466589
0.00467033
0.00467439
0.00467812
0.00468157
0.0046848
0.00468786
0.0046908
0.00469368
0.00469653
0.00469936
0.00470217
0.00470496
0.00470772
0.00471046
0.00471319
0.00471591
0.00471862
0.00472131
0.00472396
0.00472656
0.0047291
0.00473157
0.00473396
0.00473626
0.00473844
0.00474051
0.00474245
0.00474426
0.00474593
0.00474746
0.00474886
0.00475012
0.00475126
0.00475225
0.00475312
0.00475385
0.00475444
0.00475489
0.00475521
0.00475538
0.00475543
0.00475534
0.00475513
0.0047548
0.00475435
0.00475379
0.00475313
0.00475238
0.00475156
0.00475069
0.00474976
0.00474881
0.00474779
0.00474678
0.00474581
0.00474495
0.00474423
0.00474372
0.00474343
0.00474344
0.00474377
0.00474448
0.00474561
0.00474721
0.0047493
0.00475189
0.00475499
0.00475856
0.00476256
0.00476693
0.00477157
0.00477639
0.00478125
0.00478601
0.00479049
0.00479449
0.0047978
0.00480014
0.00480124
0.00480077
0.00479836
0.00479364
0.00478622
0.00477572
0.00476177
0.00474408
0.00472239
0.00469654
0.00466644
0.00463215
0.00459376
0.00455147
0.00450528
0.00445511
0.00439989
0.00433839
0.00426738
0.00418639
2.83558e-05
0.000181334
0.000427063
0.000644645
0.000838846
0.00101348
0.0011707
0.00131343
0.00144327
0.00156209
0.00167112
0.00177161
0.00186442
0.00195077
0.0020312
0.00210626
0.00217643
0.00224213
0.00230373
0.00236163
0.00241611
0.00246741
0.00251564
0.00256087
0.00260314
0.00264243
0.00267873
0.00271201
0.00274228
0.00276962
0.00279399
0.00281687
0.0028419
0.00287191
0.00290894
0.00295437
0.00300893
0.00307266
0.0031449
0.00322436
0.00330932
0.00339791
0.00348816
0.0035779
0.00366526
0.0037487
0.0038269
0.00389931
0.00396667
0.00402956
0.00408821
0.00414288
0.00419384
0.00424133
0.00428558
0.00432681
0.00436519
0.00440091
0.00443411
0.00446493
0.00449349
0.00451994
0.00454437
0.00456692
0.00458768
0.00460678
0.00462432
0.0046404
0.00465513
0.00466862
0.00468096
0.00469225
0.00470259
0.00471206
0.00472075
0.00472874
0.0047361
0.00474291
0.00474923
0.00475513
0.00476067
0.0047659
0.00477088
0.00477564
0.00478024
0.0047847
0.00478908
0.0047934
0.0047977
0.004802
0.00480631
0.00481063
0.00481495
0.00481929
0.00482364
0.004828
0.00483237
0.00483674
0.00484109
0.00484541
0.00484971
0.00485396
0.00485815
0.00486227
0.0048663
0.00487023
0.00487405
0.00487775
0.00488132
0.00488475
0.00488803
0.00489115
0.00489412
0.00489692
0.00489955
0.00490201
0.00490429
0.00490638
0.00490828
0.00490999
0.0049115
0.00491282
0.00491394
0.00491486
0.00491559
0.00491613
0.00491648
0.00491665
0.00491663
0.00491645
0.00491611
0.00491563
0.00491503
0.00491429
0.00491343
0.00491252
0.0049116
0.00491073
0.00490995
0.00490932
0.00490891
0.00490878
0.004909
0.00490963
0.00491074
0.00491239
0.00491463
0.0049175
0.00492102
0.00492521
0.00493004
0.00493548
0.00494148
0.00494794
0.00495477
0.00496181
0.00496889
0.00497581
0.00498232
0.00498813
0.00499293
0.00499634
0.00499795
0.0049973
0.00499393
0.00498738
0.00497723
0.0049631
0.00494471
0.00492183
0.00489436
0.0048623
0.00482573
0.00478482
0.00473957
0.00468993
0.00463503
0.00457413
0.00450488
0.00442735
2.86089e-05
0.000180673
0.000433419
0.000657312
0.000857108
0.00103683
0.0011987
0.0013457
0.00147947
0.0016019
0.00171429
0.00181797
0.00191382
0.00200291
0.00208618
0.00216417
0.00223746
0.00230658
0.00237199
0.00243409
0.0024932
0.0025496
0.00260346
0.00265487
0.00270383
0.00275032
0.00279422
0.00283544
0.00287383
0.00290926
0.00294165
0.00297177
0.00300318
0.00303873
0.00308053
0.00312991
0.00318734
0.00325254
0.00332457
0.00340202
0.00348324
0.00356644
0.00364998
0.00373266
0.0038134
0.00389123
0.00396529
0.00403484
0.00409898
0.00415743
0.00421085
0.00425978
0.00430469
0.00434598
0.00438399
0.00441901
0.0044513
0.00448107
0.00450852
0.00453383
0.00455714
0.0045786
0.00459836
0.00461654
0.00463326
0.00464866
0.00466283
0.0046759
0.00468796
0.00469911
0.00470946
0.00471909
0.00472808
0.00473653
0.00474449
0.00475205
0.00475926
0.00476618
0.00477287
0.00477937
0.00478572
0.00479196
0.00479814
0.00480427
0.00481038
0.00481651
0.00482267
0.00482889
0.00483517
0.00484153
0.00484795
0.00485444
0.00486098
0.00486756
0.00487418
0.00488082
0.00488747
0.00489413
0.00490076
0.00490736
0.00491392
0.0049204
0.00492682
0.00493314
0.00493936
0.00494546
0.00495142
0.00495724
0.00496291
0.00496841
0.00497372
0.00497885
0.00498378
0.00498849
0.00499299
0.00499726
0.00500129
0.00500507
0.00500859
0.00501186
0.00501485
0.00501757
0.00502002
0.00502219
0.00502408
0.00502568
0.00502701
0.00502805
0.00502881
0.00502929
0.00502952
0.00502951
0.00502925
0.00502876
0.00502807
0.00502722
0.00502627
0.00502528
0.00502431
0.00502342
0.00502269
0.00502221
0.00502207
0.00502236
0.00502316
0.00502456
0.00502665
0.0050295
0.00503316
0.00503769
0.0050431
0.0050494
0.00505656
0.00506452
0.0050732
0.00508246
0.00509214
0.00510203
0.00511186
0.00512133
0.00513009
0.00513773
0.00514377
0.00514769
0.00514895
0.00514702
0.00514142
0.00513172
0.00511757
0.00509872
0.00507499
0.00504636
0.00501287
0.00497467
0.00493175
0.00488413
0.00483112
0.00477233
0.0047059
0.00463224
2.89881e-05
0.000183784
0.00043906
0.000665813
0.000868534
0.0010511
0.00121571
0.00136534
0.00150162
0.00162646
0.00174117
0.00184707
0.00194509
0.0020363
0.0021217
0.00220189
0.00227751
0.00234916
0.00241736
0.00248255
0.00254508
0.00260524
0.00266328
0.00271935
0.00277351
0.00282578
0.00287614
0.00292452
0.00297082
0.00301497
0.00305699
0.00309698
0.00313636
0.00317779
0.00322317
0.00327361
0.00332951
0.00339065
0.00345636
0.00352579
0.00359794
0.00367178
0.00374636
0.00382063
0.00389359
0.0039643
0.0040318
0.00409514
0.00415335
0.00420546
0.00425231
0.0042946
0.0043329
0.00436769
0.00439936
0.00442824
0.00445462
0.00447875
0.00450084
0.00452108
0.00453965
0.00455671
0.0045724
0.00458685
0.00460021
0.0046126
0.00462413
0.00463491
0.00464505
0.00465464
0.00466378
0.00467253
0.00468098
0.0046892
0.00469725
0.00470517
0.00471302
0.00472083
0.00472865
0.0047365
0.00474442
0.00475242
0.00476051
0.00476873
0.00477707
0.00478556
0.00479419
0.00480296
0.00481188
0.00482092
0.00483008
0.00483934
0.00484868
0.00485809
0.00486754
0.00487703
0.00488653
0.00489603
0.00490552
0.00491497
0.00492437
0.0049337
0.00494293
0.00495205
0.00496104
0.00496988
0.00497855
0.00498704
0.00499533
0.00500341
0.00501126
0.00501887
0.00502623
0.00503332
0.00504012
0.00504663
0.00505284
0.00505872
0.00506427
0.00506948
0.00507434
0.00507883
0.00508295
0.00508669
0.00509006
0.00509303
0.00509561
0.00509779
0.00509957
0.00510095
0.00510196
0.00510259
0.00510285
0.00510277
0.00510236
0.00510167
0.00510075
0.00509967
0.00509849
0.00509731
0.0050962
0.00509528
0.00509464
0.00509441
0.00509469
0.00509562
0.00509729
0.00509983
0.00510334
0.0051079
0.00511358
0.00512042
0.00512843
0.0051376
0.00514787
0.00515914
0.00517125
0.005184
0.00519713
0.00521031
0.00522317
0.00523526
0.00524604
0.00525494
0.00526134
0.00526465
0.00526431
0.00525984
0.00525082
0.00523695
0.005218
0.00519388
0.00516461
0.00513029
0.00509093
0.00504657
0.00499671
0.00494118
0.00487844
0.0048091
2.89524e-05
0.000185491
0.000439679
0.000666686
0.000870381
0.00105426
0.0012203
0.00137138
0.00150905
0.0016352
0.00175112
0.00185807
0.00195698
0.00204923
0.00213551
0.0022166
0.00229316
0.00236582
0.00243516
0.00250164
0.00256569
0.00262763
0.0026877
0.00274608
0.00280294
0.00285837
0.00291241
0.00296508
0.00301639
0.00306637
0.00311506
0.00316256
0.00320898
0.00325493
0.0033022
0.00335183
0.00340439
0.00346007
0.00351875
0.00357999
0.00364319
0.00370766
0.00377266
0.00383735
0.00390087
0.00396232
0.00402078
0.0040753
0.00412497
0.00416898
0.00420822
0.00424338
0.004275
0.00430352
0.00432932
0.00435272
0.00437399
0.00439336
0.00441106
0.00442727
0.00444217
0.00445592
0.00446867
0.00448056
0.00449173
0.0045023
0.00451237
0.00452206
0.00453146
0.00454066
0.00454974
0.00455877
0.00456781
0.00457691
0.00458612
0.00459547
0.004605
0.00461472
0.00462466
0.00463484
0.00464525
0.00465591
0.00466681
0.00467797
0.00468937
0.00470101
0.00471288
0.00472496
0.00473723
0.00474969
0.0047623
0.00477504
0.00478789
0.00480082
0.00481382
0.00482685
0.0048399
0.00485292
0.0048659
0.00487881
0.00489163
0.00490434
0.00491691
0.00492933
0.00494157
0.00495362
0.00496545
0.00497705
0.00498841
0.00499949
0.00501029
0.00502079
0.00503096
0.00504081
0.0050503
0.00505943
0.00506817
0.00507652
0.00508444
0.00509194
0.00509899
0.00510558
0.0051117
0.00511734
0.00512249
0.00512713
0.00513125
0.00513484
0.0051379
0.00514044
0.00514248
0.005144
0.00514504