/*--------------------------------*- C++ -*----------------------------------*\
| =========                 |                                                 |
| \\      /  F ield         | OpenFOAM: The Open Source CFD Toolbox           |
|  \\    /   O peration     | Version:  v1906                                 |
|   \\  /    A nd           | Web:      www.OpenFOAM.com                      |
|    \\/     M anipulation  |                                                 |
\*---------------------------------------------------------------------------*/
FoamFile
{
    version     2.0;
    format      ascii;
    class       volScalarField;
    location    "1500";
    object      p;
}
// * * * * * * * * * * * * * * * * * * * * * * * * * * * * * * * * * * * * * //

dimensions      [0 2 -2 0 0 0 0];


internalField   nonuniform List<scalar> 
12225
(
-3.36173
-4.56409
-4.6141
-4.61899
-4.75428
-4.8918
-4.99704
-5.09026
-5.17986
-5.26416
-5.34213
-5.41803
-5.49552
-5.57604
-5.65963
-5.75144
-5.86062
-5.99743
-5.12226
-5.63708
-5.79467
-5.78019
-5.83519
-5.89952
-5.94715
-5.99515
-6.04843
-6.10316
-6.1575
-6.21311
-6.2732
-6.3372
-6.40633
-6.48267
-6.56554
-6.68827
-4.53723
-5.31766
-5.45696
-5.42505
-5.45761
-5.50642
-5.54686
-5.58895
-5.63559
-5.68352
-5.73158
-5.78069
-5.83341
-5.88889
-5.949
-6.01142
-6.07769
-6.12621
-5.19243
-5.65897
-5.87654
-5.95039
-6.04252
-6.12573
-6.18676
-6.24018
-6.2928
-6.34423
-6.39472
-6.44582
-6.49944
-6.5558
-6.61505
-6.67695
-6.73916
-6.81013
-5.00152
-5.46012
-5.67519
-5.73561
-5.79755
-5.85204
-5.89297
-5.93147
-5.97149
-6.01202
-6.05274
-6.09445
-6.13801
-6.18382
-6.23018
-6.27828
-6.31613
-6.34508
-5.37891
-5.68079
-5.88675
-5.98933
-6.09259
-6.1844
-6.25903
-6.32522
-6.38734
-6.44614
-6.50248
-6.5578
-6.61314
-6.66911
-6.72463
-6.7804
-6.83252
-6.89013
-5.31352
-5.56101
-5.76083
-5.85896
-5.94541
-6.01594
-6.07112
-6.11957
-6.16524
-6.20894
-6.25127
-6.29309
-6.33474
-6.37648
-6.41652
-6.45506
-6.48277
-6.49875
-5.55438
-5.73799
-5.91268
-6.02008
-6.12399
-6.21578
-6.29483
-6.36647
-6.43331
-6.4963
-6.55627
-6.61418
-6.67057
-6.72578
-6.77907
-6.83058
-6.87991
-6.93124
-5.5417
-5.66841
-5.82898
-5.93066
-6.02398
-6.10218
-6.16737
-6.22481
-6.27727
-6.32606
-6.37204
-6.41598
-6.45805
-6.49837
-6.53555
-6.56932
-6.59356
-6.60773
-5.70326
-5.81287
-5.95217
-6.05177
-6.1503
-6.23868
-6.31793
-6.39094
-6.4592
-6.52354
-6.58462
-6.64301
-6.69901
-6.75275
-6.80404
-6.85279
-6.90067
-6.94793
-5.71324
-5.77791
-5.89798
-5.98892
-6.0782
-6.15674
-6.22601
-6.28845
-6.34553
-6.39829
-6.44744
-6.49353
-6.53666
-6.57687
-6.61329
-6.64564
-6.67041
-6.68811
-5.81607
-5.88257
-5.99041
-6.07738
-6.16658
-6.24875
-6.32471
-6.3956
-6.46212
-6.52485
-6.5842
-6.64051
-6.69395
-6.74456
-6.79246
-6.83736
-6.88125
-6.92233
-5.8333
-5.87042
-5.96023
-6.03836
-6.11941
-6.19443
-6.26352
-6.32734
-6.38642
-6.44129
-6.4924
-6.54005
-6.58433
-6.62523
-6.66237
-6.69554
-6.72344
-6.74648
-5.91807
-5.96178
-6.04365
-6.11812
-6.19684
-6.27262
-6.3448
-6.41342
-6.47845
-6.54003
-6.59833
-6.65346
-6.70555
-6.75461
-6.8009
-6.84413
-6.88548
-6.9229
-5.9407
-5.96296
-6.02581
-6.08989
-6.15942
-6.22809
-6.2941
-6.3569
-6.41617
-6.4719
-6.52415
-6.573
-6.61853
-6.66071
-6.69963
-6.73513
-6.76781
-6.79716
-6.0082
-6.03545
-6.09306
-6.15316
-6.21821
-6.28396
-6.34828
-6.4104
-6.46971
-6.52591
-6.57885
-6.62849
-6.67478
-6.71776
-6.7573
-6.79355
-6.82576
-6.85483
-6.0338
-6.0532
-6.10053
-6.15533
-6.21659
-6.28085
-6.34545
-6.40918
-6.47121
-6.53105
-6.58846
-6.64329
-6.69558
-6.74517
-6.79257
-6.83704
-6.88081
-6.92005
-6.04459
-6.05895
-6.09721
-6.14261
-6.19244
-6.24406
-6.29484
-6.34347
-6.38909
-6.43117
-6.46941
-6.50377
-6.5341
-6.56078
-6.58334
-6.60326
-6.61802
-6.63369
-6.08544
-6.11355
-6.16807
-6.23063
-6.30005
-6.37428
-6.4507
-6.52805
-6.60547
-6.68233
-6.75824
-6.83283
-6.90594
-6.97702
-7.04625
-7.11199
-7.176
-7.23247
-5.9508
-5.95787
-5.99281
-6.0343
-6.0777
-6.12036
-6.15956
-6.19429
-6.2241
-6.24884
-6.2685
-6.28329
-6.29329
-6.29913
-6.30062
-6.29991
-6.29504
-6.29414
-5.97942
-6.02513
-6.10078
-6.17695
-6.25689
-6.33877
-6.42001
-6.49995
-6.57832
-6.65493
-6.72988
-6.80334
-6.87579
-6.94744
-7.0194
-7.09073
-7.16466
-7.23358
-5.79483
-5.8139
-5.87878
-5.93839
-5.99328
-6.04211
-6.08292
-6.11644
-6.14372
-6.16545
-6.1821
-6.19397
-6.20098
-6.20312
-6.19912
-6.18959
-6.16966
-6.14727
-5.82288
-5.90474
-6.01979
-6.11741
-6.2132
-6.30688
-6.39513
-6.47828
-6.55717
-6.63217
-6.70373
-6.77248
-6.8394
-6.9055
-6.97313
-7.04364
-7.1246
-7.21223
-5.55989
-5.63451
-5.7579
-5.83812
-5.90013
-5.94999
-5.98707
-6.01525
-6.03801
-6.05677
-6.07211
-6.08441
-6.09363
-6.09944
-6.09995
-6.09358
-6.07056
-6.03043
-5.62401
-5.78285
-5.95364
-6.07093
-6.17928
-6.28195
-6.37171
-6.45087
-6.52295
-6.5892
-6.65039
-6.70751
-6.76165
-6.81375
-6.86595
-6.92066
-6.98951
-7.08032
-5.21035
-5.45275
-5.64022
-5.71015
-5.75415
-5.79073
-5.81542
-5.83412
-5.85215
-5.86984
-5.88649
-5.90203
-5.9164
-5.92943
-5.94004
-5.94689
-5.93926
-5.90454
-5.40221
-5.70348
-5.93429
-6.0498
-6.1547
-6.25093
-6.32353
-6.38122
-6.43261
-6.47966
-6.52282
-6.56306
-6.60123
-6.6377
-6.67326
-6.70879
-6.75371
-6.82471
-4.66584
-5.27087
-5.43548
-5.41562
-5.42163
-5.45117
-5.47544
-5.49809
-5.52462
-5.55271
-5.58012
-5.60655
-5.63201
-5.65637
-5.67933
-5.7011
-5.71557
-5.70749
-5.29074
-5.67734
-5.90125
-5.914
-5.9544
-6.00332
-6.03657
-6.0663
-6.09982
-6.13524
-6.17024
-6.20452
-6.23815
-6.27093
-6.30258
-6.33318
-6.36738
-6.41976
-3.42005
-4.54083
-4.61138
-4.59148
-4.69092
-4.80977
-4.90183
-4.97965
-5.05351
-5.12265
-5.1858
-5.2437
-5.29731
-5.34695
-5.3927
-5.43427
-5.47012
-5.49867
-6.22072
-6.24837
-6.27716
-6.31498
-6.36143
-6.41199
-6.46347
-6.51598
-6.56917
-6.62297
-6.67711
-6.73144
-6.7857
-6.8396
-6.89285
-6.94515
-6.99618
-7.04547
-7.09249
-7.13634
-7.1758
-7.20936
-7.235
-7.25029
-7.25484
-7.24992
-7.23573
-7.21224
-7.1801
-7.14101
-7.09722
-7.05162
-7.00744
-6.96881
-6.94152
-6.9286
-6.92745
-6.93232
-6.93803
-6.94108
-6.9391
-6.92975
-6.91278
-6.89339
-6.88183
-6.8839
-6.89879
-6.92444
-6.9609
-7.0083
-7.0637
-7.12182
-7.18045
-7.23899
-7.29632
-7.35157
-7.4039
-7.45274
-7.49767
-7.53848
-7.57511
-7.60756
-7.6359
-7.66023
-7.68069
-7.69744
-7.71061
-7.72034
-7.72675
-7.72995
-7.73
-7.72698
-7.72092
-7.71184
-7.69975
-7.68464
-7.66648
-7.64527
-7.62097
-7.59353
-7.56288
-7.52898
-7.49172
-7.45104
-7.40684
-7.35903
-7.30741
-7.25178
-7.1921
-7.1285
-7.06097
-6.98937
-6.91324
-6.8321
-6.74605
-6.65532
-6.55987
-6.45965
-6.35447
-6.24403
-6.12813
-6.0068
-5.88005
-5.7478
-5.60996
-5.46645
-5.31715
-5.16204
-5.00106
-4.83419
-4.66137
-4.4826
-4.29785
-4.10714
-3.91049
-3.70796
-3.49959
-3.28544
-3.06558
-2.84005
-2.60896
-2.37252
-2.13091
-1.88414
-1.63236
-1.37563
-1.114
-0.847932
-0.577684
-0.303316
-0.0251604
0.256542
0.541482
0.829357
1.11978
1.41229
1.70645
2.00186
2.29801
2.5944
2.89046
3.18556
3.47914
3.77062
4.05943
4.34502
4.62691
4.90461
5.17773
5.44592
5.70907
5.96711
6.21996
6.46865
6.71386
6.95517
7.19286
7.42757
7.6604
7.89208
8.12282
8.35362
8.58567
8.81992
9.05719
9.29815
9.54338
9.79312
10.0475
10.3061
10.5685
10.8333
11.1001
11.3661
11.6327
11.8942
12.1591
12.4139
12.7022
12.9765
-6.29696
-6.37219
-6.41713
-6.47631
-6.53028
-6.58512
-6.63637
-6.68893
-6.74004
-6.79154
-6.84259
-6.89369
-6.94432
-6.99449
-7.04389
-7.09242
-7.13981
-7.18579
-7.2299
-7.27163
-7.31023
-7.34489
-7.3744
-7.39833
-7.4142
-7.41793
-7.40762
-7.38301
-7.34397
-7.29064
-7.22564
-7.15521
-7.08697
-7.02785
-6.98335
-6.95604
-6.94409
-6.94361
-6.95001
-6.95798
-6.96308
-6.96286
-6.95559
-6.94041
-6.93081
-6.93917
-6.96327
-7.00121
-7.05133
-7.11146
-7.17822
-7.24822
-7.31934
-7.38984
-7.45817
-7.5232
-7.58413
-7.64048
-7.69203
-7.73876
-7.78076
-7.81822
-7.85131
-7.88023
-7.90519
-7.92638
-7.94394
-7.95803
-7.96877
-7.97625
-7.98056
-7.98174
-7.97983
-7.97485
-7.96681
-7.95568
-7.94145
-7.92407
-7.90349
-7.87965
-7.85249
-7.82192
-7.78784
-7.75017
-7.70881
-7.66365
-7.6146
-7.56156
-7.50451
-7.44332
-7.37769
-7.30722
-7.23211
-7.15301
-7.06998
-6.98271
-6.89102
-6.79476
-6.69378
-6.58793
-6.47725
-6.36164
-6.24083
-6.11462
-5.98287
-5.84544
-5.7022
-5.55305
-5.39792
-5.23679
-5.06962
-4.8964
-4.7171
-4.53172
-4.3403
-4.14288
-3.9395
-3.73024
-3.51516
-3.29433
-3.06789
-2.83599
-2.59863
-2.35587
-2.10804
-1.85494
-1.59701
-1.33458
-1.06754
-0.796241
-0.520881
-0.241732
0.0409362
0.32681
0.615536
0.90671
1.19995
1.4948
1.79078
2.08738
2.38409
2.68031
2.97549
3.26907
3.56047
3.84916
4.13461
4.41635
4.69397
4.96703
5.23512
5.49809
5.75599
6.00706
6.25171
6.4922
6.72909
6.96298
7.19464
7.42545
7.65601
7.88665
8.11831
8.35177
8.58782
8.82715
9.07035
9.31766
9.56927
9.82478
10.0841
10.3458
10.61
10.8736
11.1388
11.3991
11.6649
11.9183
12.204
12.4581
-6.32974
-6.43884
-6.46132
-6.5248
-6.55685
-6.60957
-6.64775
-6.69357
-6.73535
-6.78188
-6.82749
-6.87521
-6.92228
-6.96965
-7.01612
-7.06216
-7.10727
-7.15153
-7.19432
-7.23506
-7.27273
-7.30627
-7.33414
-7.35445
-7.365
-7.36503
-7.35681
-7.34105
-7.31838
-7.28838
-7.24918
-7.19923
-7.14025
-7.07932
-7.02573
-6.9862
-6.96309
-6.95492
-6.95627
-6.96353
-6.97362
-6.98349
-6.9928
-7.00113
-7.01133
-7.02735
-7.0512
-7.08344
-7.12291
-7.16794
-7.21705
-7.2686
-7.32092
-7.37284
-7.4234
-7.47195
-7.51799
-7.56119
-7.60135
-7.63835
-7.67211
-7.7026
-7.72983
-7.75381
-7.7746
-7.79224
-7.8068
-7.81832
-7.82686
-7.83246
-7.83516
-7.83496
-7.83189
-7.82593
-7.81706
-7.80528
-7.79053
-7.77279
-7.75199
-7.7281
-7.70104
-7.67075
-7.63717
-7.60022
-7.55983
-7.51591
-7.46833
-7.417
-7.36185
-7.30284
-7.2399
-7.17277
-7.10127
-7.02543
-6.94519
-6.86044
-6.77109
-6.67704
-6.57816
-6.47406
-6.36458
-6.24966
-6.1294
-6.00374
-5.87259
-5.73586
-5.59347
-5.44534
-5.29141
-5.1316
-4.96588
-4.7942
-4.61656
-4.43294
-4.24336
-4.04787
-3.8465
-3.63931
-3.42636
-3.20772
-2.9835
-2.75388
-2.51895
-2.27873
-2.03333
-1.7829
-1.52754
-1.26767
-1.00332
-0.734742
-0.462154
-0.185808
0.0940155
0.376993
0.662776
0.951038
1.24141
1.53341
1.82653
2.1203
2.41416
2.70758
3
3.29089
3.57967
3.86583
4.14885
4.42828
4.70372
4.97486
5.24171
5.5041
5.76188
6.01516
6.26406
6.50872
6.74964
6.98743
7.2228
7.45639
7.68897
7.92126
8.15416
8.38857
8.62525
8.86474
9.10763
9.35425
9.60496
9.85945
10.1178
10.3785
10.642
10.905
11.1702
11.43
11.6968
11.9482
12.2319
12.4663
-6.34842
-6.48754
-6.50936
-6.59328
-6.61655
-6.68056
-6.71509
-6.77126
-6.81257
-6.86346
-6.90862
-6.95816
-7.0043
-7.05148
-7.09668
-7.1421
-7.1867
-7.23134
-7.27506
-7.31746
-7.35783
-7.3957
-7.42982
-7.45798
-7.47841
-7.48825
-7.48721
-7.47693
-7.45871
-7.43222
-7.3951
-7.34471
-7.28232
-7.2155
-7.15469
-7.10733
-7.0755
-7.05941
-7.05555
-7.05971
-7.06888
-7.08072
-7.09414
-7.10929
-7.12815
-7.15225
-7.18194
-7.21731
-7.25777
-7.30245
-7.35049
-7.40109
-7.45343
-7.50676
-7.56026
-7.61314
-7.66463
-7.7141
-7.76101
-7.80498
-7.84575
-7.88314
-7.91709
-7.94757
-7.97459
-7.99821
-8.01847
-8.03543
-8.04916
-8.05969
-8.06708
-8.07135
-8.07251
-8.07059
-8.06557
-8.05745
-8.0462
-8.03178
-8.01415
-7.99325
-7.96902
-7.94138
-7.91024
-7.87551
-7.83711
-7.79492
-7.74887
-7.69884
-7.64476
-7.58654
-7.52409
-7.45738
-7.38643
-7.31133
-7.23201
-7.14836
-7.06024
-6.9675
-6.86986
-6.76729
-6.66004
-6.54775
-6.4302
-6.30721
-6.17865
-6.04439
-5.90433
-5.75838
-5.60647
-5.44857
-5.28463
-5.11464
-4.93856
-4.75641
-4.56819
-4.37394
-4.17371
-3.96757
-3.75558
-3.53784
-3.31443
-3.08547
-2.85106
-2.6113
-2.36632
-2.11619
-1.86115
-1.60142
-1.33709
-1.06844
-0.795651
-0.518992
-0.238728
0.0448347
0.331335
0.620394
0.911633
1.20467
1.49901
1.79412
2.08934
2.38421
2.67816
2.97061
3.261
3.54877
3.83338
4.11434
4.39123
4.66364
4.93133
5.19411
5.4519
5.70429
5.95151
6.19441
6.43345
6.66919
6.90232
7.13387
7.36471
7.59556
7.82734
8.06082
8.2969
8.53634
8.7798
9.02751
9.27977
9.53612
9.79664
10.0597
10.3258
10.5912
10.8594
11.1209
11.3902
11.6398
11.921
12.1397
-6.3179
-6.48459
-6.50791
-6.60151
-6.61822
-6.68417
-6.71074
-6.76493
-6.80015
-6.85158
-6.89229
-6.94023
-6.98231
-7.02755
-7.06933
-7.11282
-7.15493
-7.19811
-7.24039
-7.28238
-7.32268
-7.36109
-7.39592
-7.4259
-7.44831
-7.46197
-7.46641
-7.46338
-7.45422
-7.43923
-7.41622
-7.3821
-7.33692
-7.28601
-7.23726
-7.19695
-7.1683
-7.15163
-7.14497
-7.14646
-7.15398
-7.16564
-7.18021
-7.19673
-7.21548
-7.23685
-7.26098
-7.28817
-7.3184
-7.35152
-7.38733
-7.42544
-7.46529
-7.50622
-7.54757
-7.58866
-7.62887
-7.66767
-7.70464
-7.73945
-7.77183
-7.80162
-7.8287
-7.85298
-7.87444
-7.89306
-7.90883
-7.92177
-7.93189
-7.93921
-7.94372
-7.94544
-7.94437
-7.94049
-7.93379
-7.92425
-7.91182
-7.89648
-7.87817
-7.85684
-7.83245
-7.80493
-7.77421
-7.74023
-7.70292
-7.66219
-7.61795
-7.57011
-7.51856
-7.46319
-7.40386
-7.34036
-7.27252
-7.20022
-7.12335
-7.04182
-6.95554
-6.86444
-6.7684
-6.66742
-6.56126
-6.44985
-6.33311
-6.21097
-6.08331
-5.95004
-5.81107
-5.66631
-5.51569
-5.35915
-5.19665
-5.02815
-4.85365
-4.67313
-4.48661
-4.29412
-4.09568
-3.89137
-3.68123
-3.46536
-3.24386
-3.01682
-2.78436
-2.54655
-2.30352
-2.05539
-1.80233
-1.54455
-1.28217
-1.01545
-0.744572
-0.46979
-0.191361
0.090421
0.375229
0.662699
0.952465
1.24412
1.5372
1.83115
2.12539
2.41943
2.7127
3.00464
3.29468
3.58228
3.86691
4.1481
4.42544
4.69858
4.96731
5.23145
5.49095
5.74584
5.99624
6.24227
6.48419
6.72249
6.95779
7.19084
7.42243
7.65332
7.88455
8.11701
8.35164
8.58919
8.83043
9.07581
9.3258
9.58004
9.83874
10.1002
10.3652
10.6296
10.8972
11.1578
11.4269
11.6742
11.9522
12.1641
-6.26461
-6.46619
-6.50091
-6.60879
-6.62892
-6.70012
-6.72958
-6.78582
-6.82279
-6.87341
-6.91619
-6.96551
-7.00995
-7.05594
-7.09962
-7.14412
-7.18795
-7.23249
-7.27661
-7.32033
-7.3629
-7.40396
-7.44223
-7.47697
-7.50561
-7.52586
-7.53679
-7.53848
-7.53147
-7.51579
-7.49087
-7.45662
-7.41522
-7.37138
-7.33055
-7.29675
-7.27179
-7.25582
-7.24808
-7.24756
-7.25293
-7.26296
-7.27674
-7.29362
-7.31354
-7.33652
-7.36272
-7.3923
-7.42525
-7.46144
-7.50059
-7.54226
-7.58588
-7.63083
-7.67643
-7.72204
-7.76702
-7.81085
-7.85306
-7.89327
-7.93118
-7.96659
-7.99932
-8.02927
-8.05636
-8.08053
-8.10178
-8.12007
-8.13542
-8.1478
-8.15722
-8.16368
-8.16715
-8.16763
-8.1651
-8.15952
-8.15086
-8.13907
-8.12411
-8.1059
-8.08438
-8.05947
-8.0311
-7.99918
-7.96361
-7.9243
-7.88114
-7.83402
-7.78285
-7.72755
-7.66808
-7.60441
-7.53656
-7.46452
-7.38824
-7.30762
-7.22251
-7.13279
-7.03826
-6.93886
-6.83401
-6.72381
-6.60813
-6.48688
-6.35995
-6.22726
-6.08871
-5.94424
-5.79378
-5.63727
-5.4747
-5.30603
-5.13124
-4.95035
-4.76338
-4.57034
-4.3713
-4.16631
-3.95544
-3.73878
-3.51643
-3.28848
-3.05505
-2.81626
-2.57221
-2.32302
-2.06886
-1.80991
-1.54633
-1.27834
-1.00614
-0.72999
-0.450127
-0.166849
0.1195
0.408567
0.700014
0.993426
1.28828
1.58401
1.88004
2.17588
2.47093
2.76461
3.05633
3.34552
3.63164
3.91417
4.19266
4.46671
4.73605
5.00045
5.25981
5.51405
5.76327
6.00784
6.24819
6.48487
6.71856
6.95012
7.18044
7.41044
7.6411
7.87342
8.10837
8.34678
8.58943
8.83666
9.0889
9.34567
9.60717
9.8715
10.1395
10.4065
10.677
10.939
11.2097
11.4547
11.7315
11.9326
-6.19283
-6.42695
-6.46968
-6.58825
-6.60872
-6.68223
-6.7111
-6.76628
-6.80153
-6.84987
-6.8896
-6.93548
-6.97779
-7.02267
-7.06497
-7.1077
-7.14952
-7.19176
-7.23351
-7.27504
-7.31535
-7.35378
-7.38923
-7.42114
-7.44874
-7.47073
-7.48607
-7.4943
-7.4953
-7.48906
-7.47561
-7.45546
-7.43033
-7.40315
-7.37713
-7.35477
-7.33753
-7.32619
-7.3208
-7.32099
-7.32603
-7.33515
-7.34767
-7.3631
-7.38123
-7.40199
-7.42535
-7.4513
-7.47974
-7.5105
-7.54331
-7.57782
-7.61359
-7.65017
-7.68709
-7.72389
-7.76015
-7.79549
-7.82956
-7.86206
-7.89278
-7.92149
-7.94805
-7.97233
-7.99424
-8.01371
-8.03068
-8.04512
-8.05699
-8.06627
-8.07294
-8.07697
-8.07834
-8.07703
-8.073
-8.06622
-8.05665
-8.04424
-8.02892
-8.01064
-7.98933
-7.96493
-7.93737
-7.90659
-7.87251
-7.83506
-7.79415
-7.74967
-7.70152
-7.64955
-7.59363
-7.53355
-7.46914
-7.4002
-7.32656
-7.24811
-7.16473
-7.07636
-6.98281
-6.88433
-6.78109
-6.67271
-6.55901
-6.43986
-6.3151
-6.18464
-6.04837
-5.9062
-5.75806
-5.60389
-5.44364
-5.2773
-5.10483
-4.92625
-4.74156
-4.5508
-4.354
-4.15123
-3.94256
-3.72807
-3.50786
-3.28201
-3.05065
-2.81388
-2.57182
-2.32458
-2.0723
-1.81516
-1.55332
-1.28698
-1.01634
-0.741643
-0.463109
-0.181039
0.10426
0.392494
0.683305
0.976242
1.2708
1.56644
1.86263
2.15883
2.45446
2.74893
3.04166
3.33206
3.61958
3.9037
4.18397
4.45999
4.73144
4.99807
5.25974
5.51633
5.7679
6.01463
6.25677
6.49476
6.7292
6.96084
7.19059
7.41933
7.64822
7.87829
8.11066
8.34628
8.58611
8.83066
9.08052
9.3353
9.59527
9.85847
10.1258
10.3923
10.6628
10.9244
11.1952
11.4387
11.7141
11.9107
-6.12956
-6.3869
-6.44057
-6.56981
-6.59364
-6.67134
-6.7026
-6.75936
-6.79592
-6.84418
-6.88419
-6.92965
-6.9717
-7.01589
-7.0587
-7.10223
-7.14455
-7.18671
-7.22842
-7.26977
-7.31006
-7.34878
-7.38481
-7.41709
-7.44467
-7.46666
-7.48237
-7.4915
-7.49409
-7.4905
-7.48135
-7.46764
-7.45094
-7.43322
-7.41644
-7.40225
-7.39182
-7.38585
-7.38453
-7.38774
-7.39511
-7.40625
-7.42079
-7.43847
-7.45914
-7.48268
-7.50904
-7.53811
-7.56975
-7.60374
-7.6398
-7.67759
-7.71673
-7.75679
-7.79736
-7.83801
-7.87832
-7.91791
-7.95644
-7.99359
-8.02911
-8.06274
-8.09432
-8.12369
-8.15071
-8.17531
-8.19738
-8.21687
-8.23373
-8.24791
-8.25936
-8.26805
-8.27394
-8.27699
-8.27715
-8.27438
-8.26863
-8.25983
-8.24793
-8.23285
-8.21453
-8.19288
-8.16782
-8.13927
-8.10712
-8.07128
-8.03164
-7.98809
-7.94053
-7.88887
-7.83305
-7.77303
-7.70878
-7.64028
-7.56748
-7.49032
-7.40864
-7.32234
-7.23115
-7.13427
-7.03183
-6.92378
-6.81011
-6.69075
-6.5656
-6.43459
-6.29765
-6.1547
-6.00568
-5.85054
-5.68926
-5.5218
-5.34816
-5.16835
-4.98239
-4.79031
-4.59216
-4.38801
-4.17794
-3.96203
-3.74038
-3.51309
-3.28028
-3.04207
-2.79857
-2.54989
-2.29617
-2.03756
-1.77424
-1.50641
-1.23429
-0.958067
-0.678015
-0.394392
-0.107443
0.182497
0.475031
0.769709
1.06603
1.36347
1.66146
1.95948
2.2569
2.55314
2.84759
3.13967
3.42879
3.71442
3.99608
4.27335
4.5459
4.81344
5.07582
5.33293
5.58479
5.83159
6.07367
6.3115
6.54571
6.77711
7.00662
7.23526
7.46419
7.69455
7.9275
8.16403
8.40509
8.65116
8.90283
9.15964
9.42186
9.68737
9.95712
10.2257
10.4982
10.7608
11.0326
11.2741
11.549
11.7378
-6.07583
-6.34466
-6.40731
-6.54225
-6.56784
-6.64666
-6.67829
-6.73441
-6.77028
-6.81691
-6.85518
-6.89816
-6.93786
-6.97952
-7.01953
-7.05989
-7.09937
-7.13867
-7.17682
-7.21399
-7.24997
-7.28439
-7.31691
-7.34695
-7.37393
-7.3972
-7.41623
-7.43069
-7.44048
-7.44576
-7.44694
-7.44473
-7.44015
-7.43448
-7.42901
-7.42491
-7.42306
-7.42404
-7.42814
-7.4354
-7.44575
-7.45902
-7.47506
-7.49368
-7.51475
-7.53813
-7.56371
-7.59131
-7.62077
-7.65187
-7.68436
-7.71796
-7.75237
-7.7873
-7.82242
-7.85742
-7.892
-7.92588
-7.95879
-7.99049
-8.02078
-8.04947
-8.07639
-8.1014
-8.12441
-8.1453
-8.164
-8.18044
-8.19456
-8.20629
-8.2156
-8.22242
-8.22673
-8.22848
-8.2276
-8.22407
-8.21781
-8.20876
-8.19686
-8.18203
-8.16421
-8.14332
-8.11928
-8.09202
-8.06144
-8.02745
-7.98996
-7.94887
-7.9041
-7.85554
-7.80305
-7.74645
-7.68551
-7.61996
-7.54958
-7.47425
-7.3938
-7.30815
-7.21782
-7.12282
-7.0228
-6.91751
-6.80677
-6.69043
-6.56835
-6.4404
-6.3065
-6.16654
-6.02047
-5.86821
-5.70974
-5.54502
-5.37405
-5.19681
-5.01335
-4.82369
-4.62789
-4.426
-4.21811
-4.00431
-3.78468
-3.55935
-3.32843
-3.09202
-2.85025
-2.60321
-2.35104
-2.09386
-1.83185
-1.56522
-1.29417
-1.0189
-0.739638
-0.456586
-0.169997
0.119773
0.412345
0.707273
1.00406
1.30218
1.6011
1.90025
2.19903
2.49683
2.79304
3.08705
3.37827
3.66612
3.9501
4.22973
4.50463
4.77446
5.03899
5.29805
5.55163
5.79982
6.04288
6.28121
6.51539
6.7462
6.97461
7.20166
7.42863
7.65675
7.88729
8.1214
8.36017
8.60424
8.85429
9.10992
9.37142
9.63662
9.90644
10.1753
10.4483
10.711
10.9832
11.2239
11.4984
11.6837
-6.04567
-6.3163
-6.38688
-6.52632
-6.55341
-6.63419
-6.66634
-6.72325
-6.75921
-6.80588
-6.84388
-6.88645
-6.92559
-6.96662
-7.00622
-7.04635
-7.08538
-7.12395
-7.16154
-7.1982
-7.23317
-7.26622
-7.29715
-7.32549
-7.35095
-7.37317
-7.39197
-7.40725
-7.41911
-7.4278
-7.43375
-7.43757
-7.44001
-7.44192
-7.44411
-7.44735
-7.45222
-7.45916
-7.46845
-7.48021
-7.49451
-7.51134
-7.53064
-7.55234
-7.57638
-7.60264
-7.631
-7.66134
-7.69348
-7.72725
-7.76241
-7.79874
-7.83597
-7.87381
-7.91198
-7.95018
-7.98812
-8.02554
-8.06216
-8.09774
-8.13206
-8.16491
-8.19613
-8.22555
-8.25304
-8.27848
-8.30177
-8.32282
-8.34154
-8.35786
-8.37171
-8.38302
-8.39174
-8.3978
-8.40113
-8.40168
-8.39938
-8.39414
-8.38589
-8.37456
-8.36006
-8.3423
-8.3212
-8.29664
-8.26854
-8.23679
-8.20125
-8.16183
-8.11841
-8.0709
-8.01921
-7.96327
-7.90306
-7.83853
-7.76961
-7.69629
-7.61836
-7.53522
-7.44642
-7.35199
-7.25194
-7.14621
-7.03475
-6.91747
-6.79431
-6.66517
-6.52998
-6.38868
-6.2412
-6.0875
-5.92755
-5.76132
-5.58881
-5.41002
-5.22499
-5.03375
-4.83637
-4.63291
-4.42345
-4.20809
-3.98691
-3.76005
-3.52762
-3.28975
-3.04653
-2.79807
-2.54448
-2.28588
-2.02245
-1.75441
-1.48196
-1.2053
-0.924572
-0.63999
-0.351829
-0.0604422
0.233786
0.530412
0.828958
1.1289
1.42968
1.73074
2.03147
2.33125
2.62945
2.92546
3.21867
3.50848
3.79438
4.07587
4.35256
4.62409
4.89021
5.15074
5.40563
5.65497
5.899
6.13812
6.37291
6.60416
6.83285
7.06012
7.28727
7.51563
7.74655
7.98119
8.2207
8.46571
8.71694
8.97396
9.23704
9.50392
9.77545
10.0458
10.3202
10.5836
10.8561
11.0953
11.3694
11.5494
-6.02446
-6.30078
-6.37011
-6.51029
-6.53701
-6.61753
-6.6491
-6.70524
-6.74015
-6.78554
-6.82195
-6.86273
-6.89978
-6.93855
-6.97562
-7.01311
-7.04953
-7.08564
-7.12062
-7.15494
-7.18808
-7.21972
-7.24961
-7.27779
-7.30398
-7.32792
-7.34946
-7.36855
-7.38521
-7.39961
-7.41203
-7.42288
-7.43266
-7.44192
-7.45123
-7.46109
-7.47197
-7.4842
-7.49806
-7.51372
-7.53129
-7.55082
-7.57231
-7.5957
-7.62095
-7.64794
-7.67656
-7.70667
-7.73811
-7.77072
-7.8043
-7.83864
-7.87353
-7.90874
-7.94405
-7.97921
-8.014
-8.04821
-8.08163
-8.11406
-8.14531
-8.17523
-8.20365
-8.23044
-8.25549
-8.27869
-8.29994
-8.31915
-8.33624
-8.35114
-8.36376
-8.37404
-8.38192
-8.38733
-8.39021
-8.39049
-8.38809
-8.38295
-8.37497
-8.36408
-8.35019
-8.33321
-8.31307
-8.28966
-8.2629
-8.23268
-8.19892
-8.16149
-8.12035
-8.07534
-8.02635
-7.97313
-7.91549
-7.85316
-7.78585
-7.71344
-7.63628
-7.55453
-7.46796
-7.37631
-7.27936
-7.17693
-7.06885
-6.95497
-6.83516
-6.70932
-6.57734
-6.43913
-6.29463
-6.14379
-5.98657
-5.82295
-5.65292
-5.47648
-5.29367
-5.10454
-4.90915
-4.70756
-4.49987
-4.28615
-4.06654
-3.84113
-3.61008
-3.37349
-3.13147
-2.88412
-2.63152
-2.37379
-2.11111
-1.8437
-1.57177
-1.29547
-1.01493
-0.730343
-0.441993
-0.150233
0.144563
0.441966
0.741491
1.04262
1.34479
1.64742
1.94991
2.2516
2.55187
2.85007
3.14556
3.43772
3.72599
4.00984
4.2888
4.56249
4.83058
5.09285
5.34919
5.59964
5.8444
6.08383
6.31851
6.5492
6.77694
7.00293
7.22857
7.45527
7.68448
7.91749
8.15552
8.39935
8.64974
8.90632
9.16932
9.43645
9.70846
9.97945
10.2544
10.5182
10.7909
11.0297
11.3034
11.4807
-6.02569
-6.30845
-6.37084
-6.51186
-6.53601
-6.61745
-6.64769
-6.70428
-6.73843
-6.78395
-6.8198
-6.86041
-6.89688
-6.93521
-6.97162
-7.0085
-7.04416
-7.07947
-7.11364
-7.14694
-7.17874
-7.20936
-7.23853
-7.26587
-7.2913
-7.31499
-7.33688
-7.35694
-7.37527
-7.39205
-7.40753
-7.42203
-7.43591
-7.44957
-7.46341
-7.47778
-7.49301
-7.50939
-7.52714
-7.54642
-7.56735
-7.58999
-7.61438
-7.64051
-7.66833
-7.69778
-7.72876
-7.76118
-7.79488
-7.82974
-7.86558
-7.90222
-7.93948
-7.97715
-8.01503
-8.0529
-8.09054
-8.12775
-8.16433
-8.20007
-8.2348
-8.26832
-8.30048
-8.33113
-8.36014
-8.38739
-8.41277
-8.43617
-8.45749
-8.47664
-8.49353
-8.50807
-8.52018
-8.5298
-8.53683
-8.5412
-8.54283
-8.54162
-8.53749
-8.53034
-8.52008
-8.50661
-8.48983
-8.46963
-8.44591
-8.41854
-8.38737
-8.35231
-8.31323
-8.27003
-8.22261
-8.17088
-8.11492
-8.0545
-7.98958
-7.91956
-7.84417
-7.76329
-7.67686
-7.58484
-7.48713
-7.38366
-7.27434
-7.15909
-7.03781
-6.91042
-6.77685
-6.63702
-6.49089
-6.3384
-6.17952
-6.01424
-5.84254
-5.66445
-5.48
-5.28923
-5.0922
-4.88901
-4.67972
-4.46444
-4.24328
-4.01636
-3.78382
-3.54579
-3.30237
-3.05364
-2.79967
-2.5406
-2.27659
-2.00785
-1.7346
-1.45696
-1.175
-0.888937
-0.599078
-0.305747
-0.00931256
0.289796
0.591104
0.89409
1.1982
1.50284
1.80739
2.11122
2.41366
2.71407
3.0118
3.30622
3.59673
3.88279
4.16393
4.43973
4.70985
4.97402
5.23213
5.48418
5.73035
5.97098
6.20661
6.43801
6.66624
6.89256
7.11842
7.34531
7.57474
7.80803
8.04647
8.29087
8.54199
8.79949
9.06356
9.33184
9.60497
9.87698
10.1526
10.4168
10.6894
10.9271
11.1997
11.3736
-6.04183
-6.32167
-6.37535
-6.51354
-6.53404
-6.61448
-6.64224
-6.69805
-6.7303
-6.77492
-6.80913
-6.84864
-6.88355
-6.92062
-6.9555
-6.99104
-7.0253
-7.05944
-7.0925
-7.12496
-7.15634
-7.18669
-7.21564
-7.24353
-7.27023
-7.29537
-7.31901
-7.3414
-7.36241
-7.38229
-7.40121
-7.41943
-7.4372
-7.45482
-7.47258
-7.49075
-7.50961
-7.52937
-7.55023
-7.57233
-7.59578
-7.62064
-7.64694
-7.67468
-7.70383
-7.73432
-7.76608
-7.799
-7.83295
-7.86782
-7.90343
-7.93964
-7.97626
-8.01314
-8.05009
-8.08693
-8.12347
-8.15955
-8.19498
-8.22959
-8.26321
-8.2957
-8.32688
-8.35663
-8.38483
-8.41135
-8.4361
-8.45898
-8.47987
-8.4987
-8.51536
-8.52977
-8.54184
-8.55151
-8.55869
-8.56328
-8.56521
-8.56439
-8.56071
-8.55409
-8.54443
-8.53163
-8.5156
-8.49622
-8.47343
-8.44709
-8.41709
-8.38332
-8.34572
-8.30418
-8.25843
-8.20833
-8.15353
-8.09411
-8.03017
-7.96165
-7.8883
-7.80994
-7.72638
-7.63743
-7.54291
-7.44267
-7.33654
-7.22442
-7.10616
-6.98168
-6.85087
-6.71365
-6.56996
-6.41977
-6.26303
-6.09972
-5.92986
-5.75345
-5.57053
-5.38116
-5.1854
-4.98335
-4.7751
-4.56073
-4.34039
-4.1142
-3.88232
-3.64488
-3.40197
-3.15366
-2.90003
-2.6412
-2.37733
-2.10868
-1.83541
-1.55755
-1.27524
-0.988717
-0.698242
-0.404141
-0.106782
0.193412
0.495963
0.800349
1.10601
1.41234
1.7187
2.02446
2.32893
2.63144
2.93133
3.22793
3.52062
3.80882
4.09204
4.36979
4.6417
4.90748
5.16695
5.42011
5.66708
5.90821
6.14401
6.37526
6.60305
6.82871
7.05375
7.27975
7.50828
7.74074
7.97847
8.22236
8.47322
8.73072
8.99501
9.26372
9.53732
9.80987
10.0858
10.3503
10.6225
10.8598
11.1314
11.3035
-6.07527
-6.34539
-6.39132
-6.52619
-6.54392
-6.62385
-6.64975
-6.70564
-6.73665
-6.78137
-6.81472
-6.85417
-6.88836
-6.92513
-6.95931
-6.99439
-7.02795
-7.06151
-7.0939
-7.12576
-7.15644
-7.18625
-7.21498
-7.24263
-7.26897
-7.29439
-7.31886
-7.3421
-7.36419
-7.38558
-7.40624
-7.4265
-7.44656
-7.46661
-7.4869
-7.50767
-7.52913
-7.55145
-7.5748
-7.5993
-7.62505
-7.65212
-7.68054
-7.71032
-7.74146
-7.77391
-7.80761
-7.84247
-7.8784
-7.91526
-7.95292
-7.99124
-8.03004
-8.06919
-8.10852
-8.14785
-8.18702
-8.22585
-8.26417
-8.30181
-8.3386
-8.37438
-8.40898
-8.44225
-8.47406
-8.5043
-8.53282
-8.55954
-8.58433
-8.60709
-8.62773
-8.64613
-8.66221
-8.67587
-8.68703
-8.69559
-8.70147
-8.70455
-8.70474
-8.70193
-8.69603
-8.68691
-8.67449
-8.65863
-8.63922
-8.61616
-8.58922
-8.55827
-8.52338
-8.48424
-8.44084
-8.39304
-8.34046
-8.28297
-8.22025
-8.15232
-8.079
-8.00022
-7.91584
-7.82578
-7.72993
-7.62818
-7.52044
-7.4066
-7.28658
-7.16029
-7.02765
-6.88861
-6.74309
-6.59107
-6.43252
-6.26741
-6.09576
-5.91756
-5.73287
-5.54174
-5.34425
-5.14048
-4.93053
-4.71449
-4.4925
-4.2647
-4.03125
-3.79227
-3.54787
-3.29811
-3.04303
-2.78278
-2.51758
-2.2476
-1.97292
-1.69362
-1.40986
-1.12186
-0.829874
-0.534211
-0.235235
0.0666324
0.370918
0.677102
0.984616
1.29286
1.6012
1.90897
2.2155
2.52011
2.82212
3.12085
3.41568
3.70601
3.99133
4.27115
4.54505
4.81272
5.07398
5.32879
5.57726
5.8197
6.05661
6.28875
6.51723
6.7434
6.96886
7.19521
7.42407
7.65686
7.89494
8.13925
8.39061
8.64872
8.91364
9.18301
9.45713
9.73013
10.0061
10.2705
10.5419
10.7782
11.0479
11.218
-6.11644
-6.3703
-6.40805
-6.53698
-6.55123
-6.62925
-6.65239
-6.70753
-6.73646
-6.78074
-6.81256
-6.85163
-6.8847
-6.92111
-6.95448
-6.98924
-7.02224
-7.05558
-7.08766
-7.11952
-7.15036
-7.18067
-7.2099
-7.23825
-7.26561
-7.292
-7.31762
-7.34251
-7.3663
-7.38928
-7.41187
-7.43427
-7.45649
-7.47871
-7.50121
-7.5241
-7.54765
-7.57197
-7.59724
-7.62355
-7.65101
-7.67967
-7.70958
-7.74074
-7.77315
-7.80678
-7.84157
-7.87743
-7.91428
-7.95199
-7.99042
-8.02943
-8.06888
-8.10861
-8.14847
-8.18831
-8.22797
-8.26727
-8.30606
-8.34416
-8.38143
-8.4177
-8.45281
-8.48662
-8.51899
-8.54979
-8.5789
-8.60621
-8.6316
-8.65496
-8.67619
-8.69519
-8.71186
-8.72611
-8.73784
-8.74695
-8.75334
-8.75691
-8.75755
-8.75517
-8.74963
-8.74085
-8.72872
-8.71308
-8.69393
-8.67106
-8.64429
-8.61363
-8.57891
-8.54006
-8.49712
-8.44995
-8.39841
-8.34226
-8.28132
-8.21545
-8.14443
-8.0681
-7.98627
-7.89878
-7.80547
-7.7062
-7.60083
-7.48923
-7.37132
-7.24697
-7.11612
-6.97869
-6.83464
-6.68392
-6.52651
-6.36239
-6.19158
-6.0141
-5.82998
-5.6393
-5.44215
-5.2386
-5.02878
-4.81278
-4.59077
-4.36287
-4.12928
-3.89012
-3.64547
-3.39538
-3.13999
-2.87942
-2.61385
-2.34335
-2.06805
-1.78807
-1.50357
-1.21473
-0.921815
-0.625128
-0.325032
-0.0219485
0.283646
0.591227
0.900222
1.21002
1.51998
1.82944
2.13769
2.44405
2.74783
3.04834
3.34493
3.637
3.924
4.20542
4.48081
4.74986
5.01235
5.26823
5.5176
5.76076
5.9982
6.23066
6.45927
6.68545
6.91083
7.13706
7.36577
7.59842
7.8364
8.08068
8.33209
8.59035
8.85546
9.12508
9.39932
9.67243
9.94814
10.2122
10.4826
10.7183
10.9859
11.155
-6.16363
-6.39596
-6.42768
-6.54992
-6.56205
-6.63854
-6.65981
-6.715
-6.74257
-6.78733
-6.81829
-6.85786
-6.89046
-6.9273
-6.96048
-6.99559
-7.02859
-7.06227
-7.09456
-7.12689
-7.1581
-7.18884
-7.21858
-7.24774
-7.27588
-7.3031
-7.32938
-7.35475
-7.37964
-7.4042
-7.42806
-7.4516
-7.47534
-7.49896
-7.52287
-7.54734
-7.57247
-7.59845
-7.62537
-7.65334
-7.68246
-7.71279
-7.74438
-7.77725
-7.81141
-7.84682
-7.88346
-7.92123
-7.96007
-7.99985
-8.04045
-8.08173
-8.12352
-8.16569
-8.20808
-8.25054
-8.29291
-8.33503
-8.37673
-8.41785
-8.45821
-8.49766
-8.53604
-8.57319
-8.60896
-8.64323
-8.67584
-8.70669
-8.73565
-8.7626
-8.78744
-8.81006
-8.83036
-8.84823
-8.86358
-8.8763
-8.8863
-8.89346
-8.89769
-8.89886
-8.89688
-8.89162
-8.88296
-8.87082
-8.85502
-8.83547
-8.81198
-8.78432
-8.75225
-8.71565
-8.67431
-8.62817
-8.57711
-8.52097
-8.45961
-8.39291
-8.32072
-8.24293
-8.15942
-8.07006
-7.97473
-7.87334