/*--------------------------------*- C++ -*----------------------------------*\
| =========                 |                                                 |
| \\      /  F ield         | OpenFOAM: The Open Source CFD Toolbox           |
|  \\    /   O peration     | Version:  v1906                                 |
|   \\  /    A nd           | Web:      www.OpenFOAM.com                      |
|    \\/     M anipulation  |                                                 |
\*---------------------------------------------------------------------------*/
FoamFile
{
    version     2.0;
    format      ascii;
    class       surfaceScalarField;
    location    "1500";
    object      phi;
}
// * * * * * * * * * * * * * * * * * * * * * * * * * * * * * * * * * * * * * //

dimensions      [0 3 -1 0 0 0 0];
oriented        oriented;


internalField   nonuniform List<scalar> 
24170
(
3.08282e-06
1.05586e-07
2.98699e-06
9.58296e-08
2.92067e-06
6.63212e-08
2.86464e-06
5.60313e-08
2.81578e-06
4.8859e-08
2.77289e-06
4.28843e-08
2.73477e-06
3.81288e-08
2.70051e-06
3.426e-08
2.66961e-06
3.08923e-08
2.64173e-06
2.7887e-08
2.61639e-06
2.53321e-08
2.59321e-06
2.31846e-08
2.57207e-06
2.11435e-08
2.55298e-06
1.90891e-08
2.53624e-06
1.67307e-08
2.52222e-06
1.40206e-08
2.51182e-06
1.04037e-08
-6.8541e-10
2.5125e-06
3.44276e-06
8.00769e-08
3.44404e-06
9.45455e-08
3.43233e-06
7.80374e-08
3.41872e-06
6.96372e-08
3.40399e-06
6.35938e-08
3.38918e-06
5.76865e-08
3.37481e-06
5.25039e-08
3.36097e-06
4.81005e-08
3.34769e-06
4.41723e-08
3.335e-06
4.0573e-08
3.32297e-06
3.73632e-08
3.31164e-06
3.45174e-08
3.30092e-06
3.18586e-08
3.29083e-06
2.91777e-08
3.28123e-06
2.63363e-08
3.27219e-06
2.30538e-08
3.26426e-06
1.83421e-08
8.79052e-09
3.25478e-06
3.67627e-06
6.63235e-08
3.67856e-06
9.22551e-08
3.67278e-06
8.38209e-08
3.66525e-06
7.71638e-08
3.65766e-06
7.11886e-08
3.65048e-06
6.48633e-08
3.64377e-06
5.92083e-08
3.63747e-06
5.44001e-08
3.63152e-06
5.01316e-08
3.62585e-06
4.62361e-08
3.6205e-06
4.27176e-08
3.61548e-06
3.95307e-08
3.61082e-06
3.65261e-08
3.6065e-06
3.34898e-08
3.60252e-06
3.03235e-08
3.59901e-06
2.6556e-08
3.59482e-06
2.25399e-08
1.64121e-08
3.5872e-06
3.93546e-06
5.62488e-08
3.94301e-06
8.47038e-08
3.94509e-06
8.17402e-08
3.9451e-06
7.71573e-08
3.94391e-06
7.23814e-08
3.94188e-06
6.68924e-08
3.93937e-06
6.17145e-08
3.93664e-06
5.71371e-08
3.9338e-06
5.29641e-08
3.93096e-06
4.90846e-08
3.92817e-06
4.55019e-08
3.92552e-06
4.21775e-08
3.92306e-06
3.89884e-08
3.92081e-06
3.5746e-08
3.91877e-06
3.23608e-08
3.91688e-06
2.84413e-08
3.91543e-06
2.39924e-08
1.69314e-08
3.91491e-06
4.2181e-06
4.52756e-08
4.22758e-06
7.52273e-08
4.2315e-06
7.78128e-08
4.23285e-06
7.58073e-08
4.23302e-06
7.22127e-08
4.23253e-06
6.7388e-08
4.23171e-06
6.25305e-08
4.23077e-06
5.80787e-08
4.22978e-06
5.39549e-08
4.22877e-06
5.00936e-08
4.22778e-06
4.6492e-08
4.22685e-06
4.31044e-08
4.22601e-06
3.98297e-08
4.22526e-06
3.64986e-08
4.22454e-06
3.30785e-08
4.22378e-06
2.91991e-08
4.22227e-06
2.55015e-08
2.10795e-08
4.21813e-06
4.51709e-06
3.72701e-08
4.52581e-06
6.65067e-08
4.53153e-06
7.20934e-08
4.53556e-06
7.17751e-08
4.53859e-06
6.91906e-08
4.54078e-06
6.51899e-08
4.54238e-06
6.09323e-08
4.54359e-06
5.68767e-08
4.54452e-06
5.3025e-08
4.54525e-06
4.93546e-08
4.54588e-06
4.58695e-08
4.54645e-06
4.25341e-08
4.54701e-06
3.92707e-08
4.54755e-06
3.59519e-08
4.5481e-06
3.25281e-08
4.54852e-06
2.87813e-08
4.54927e-06
2.47535e-08
1.98865e-08
4.55046e-06
4.83986e-06
3.01326e-08
4.84838e-06
5.79818e-08
4.85438e-06
6.60911e-08
4.85853e-06
6.76296e-08
4.86153e-06
6.61953e-08
4.8637e-06
6.3012e-08
4.86536e-06
5.9275e-08
4.86672e-06
5.55169e-08
4.8679e-06
5.1846e-08
4.86896e-06
4.82953e-08
4.86994e-06
4.48857e-08
4.87088e-06
4.15924e-08
4.87179e-06
3.83622e-08
4.87265e-06
3.50953e-08
4.87338e-06
3.17949e-08
4.87385e-06
2.83114e-08
4.87352e-06
2.50838e-08
2.17652e-08
4.87164e-06
5.18533e-06
2.43816e-08
5.19296e-06
5.03489e-08
5.19932e-06
5.97315e-08
5.20457e-06
6.23806e-08
5.20903e-06
6.17368e-08
5.21281e-06
5.92345e-08
5.21606e-06
5.60255e-08
5.21893e-06
5.26464e-08
5.22152e-06
4.92589e-08
5.22388e-06
4.59272e-08
5.22609e-06
4.26822e-08
5.22817e-06
3.95114e-08
5.23015e-06
3.63788e-08
5.23203e-06
3.32195e-08
5.23381e-06
3.00135e-08
5.23544e-06
2.66858e-08
5.23729e-06
2.32243e-08
1.96493e-08
5.23941e-06
5.55572e-06
1.99944e-08
5.56254e-06
4.3531e-08
5.56878e-06
5.34978e-08
5.57399e-06
5.71618e-08
5.57834e-06
5.73912e-08
5.58195e-06
5.56272e-08
5.58501e-06
5.29669e-08
5.58769e-06
4.99637e-08
5.59011e-06
4.68416e-08
5.59233e-06
4.3707e-08
5.5944e-06
4.06135e-08
5.59634e-06
3.7567e-08
5.59816e-06
3.45573e-08
5.59984e-06
3.15442e-08
5.60129e-06
2.85589e-08
5.60241e-06
2.55627e-08
5.60281e-06
2.28317e-08
2.01518e-08
5.6023e-06
5.95382e-06
1.59552e-08
5.96019e-06
3.71538e-08
5.96643e-06
4.72591e-08
5.97213e-06
5.14631e-08
5.97729e-06
5.22309e-08
5.98192e-06
5.09949e-08
5.98611e-06
4.87801e-08
5.98995e-06
4.61269e-08
5.9935e-06
4.32861e-08
5.99682e-06
4.03843e-08
5.99995e-06
3.74853e-08
6.00291e-06
3.46077e-08
6.00572e-06
3.17511e-08
6.00836e-06
2.88974e-08
6.01088e-06
2.60477e-08
6.01325e-06
2.3192e-08
6.01576e-06
2.03179e-08
1.76151e-08
6.0183e-06
6.37948e-06
1.32875e-08
6.38479e-06
3.18431e-08
6.39062e-06
4.14338e-08
6.39615e-06
4.59264e-08
6.40119e-06
4.71947e-08
6.40568e-06
4.65059e-08
6.40969e-06
4.47699e-08
6.41331e-06
4.25006e-08
6.41663e-06
3.99685e-08
6.4197e-06
3.73209e-08
6.42254e-06
3.46392e-08
6.42519e-06
3.19585e-08
6.42764e-06
2.92996e-08
6.42988e-06
2.66618e-08
6.43184e-06
2.40858e-08
6.43346e-06
2.15703e-08
6.43451e-06
1.92721e-08
1.70947e-08
6.43503e-06
5.74324e-06
1.08835e-08
5.74769e-06
2.7393e-08
5.75262e-06
3.65014e-08
5.75748e-06
4.10625e-08
5.76212e-06
4.25614e-08
5.76644e-06
4.21852e-08
5.77046e-06
4.07535e-08
5.7742e-06
3.8753e-08
5.77771e-06
3.64566e-08
5.78102e-06
3.40182e-08
5.78413e-06
3.15245e-08
5.78707e-06
2.90191e-08
5.78985e-06
2.6526e-08
5.79245e-06
2.40562e-08
5.79491e-06
2.16252e-08
5.79723e-06
1.92532e-08
5.79957e-06
1.69325e-08
1.4856e-08
5.80181e-06
6.99986e-06
9.17978e-09
7.004e-06
2.32525e-08
7.00914e-06
3.13598e-08
7.01449e-06
3.57178e-08
7.01967e-06
3.73771e-08
7.02453e-06
3.73241e-08
7.02904e-06
3.62459e-08
7.03321e-06
3.45776e-08
7.03709e-06
3.25817e-08
7.04069e-06
3.04145e-08
7.04405e-06
2.81699e-08
7.04717e-06
2.59011e-08
7.05005e-06
2.36443e-08
7.05268e-06
2.1421e-08
7.05504e-06
1.92642e-08
7.0571e-06
1.71923e-08
7.05878e-06
1.52572e-08
1.33607e-08
7.06027e-06
8.53319e-06
6.83902e-09
8.53808e-06
1.8361e-08
8.544e-06
2.54401e-08
8.55027e-06
2.9449e-08
8.55653e-06
3.11186e-08
8.56259e-06
3.12601e-08
8.56839e-06
3.045e-08
8.57389e-06
2.90693e-08
8.57912e-06
2.73603e-08
8.58406e-06
2.54723e-08
8.58873e-06
2.34969e-08
8.59314e-06
2.14896e-08
8.5973e-06
1.94855e-08
8.60121e-06
1.75093e-08
8.6049e-06
1.55817e-08
8.60836e-06
1.37302e-08
8.61165e-06
1.19669e-08
1.04513e-08
8.61456e-06
1.04007e-05
5.38237e-09
1.04049e-05
1.41144e-08
1.04108e-05
1.95991e-08
1.04174e-05
2.28229e-08
1.04242e-05
2.42704e-08
1.0431e-05
2.4502e-08
1.04375e-05
2.394e-08
1.04437e-05
2.28767e-08
1.04495e-05
2.151e-08
1.04551e-05
1.9969e-08
1.04602e-05
1.83372e-08
1.0465e-05
1.66696e-08
1.04695e-05
1.50019e-08
1.04737e-05
1.33616e-08
1.04775e-05
1.17624e-08
1.0481e-05
1.02244e-08
1.04842e-05
8.73567e-09
7.28142e-09
1.04874e-05
1.26789e-05
3.27382e-09
1.26839e-05
9.07318e-09
1.26906e-05
1.29201e-08
1.26982e-05
1.52605e-08
1.27061e-05
1.63558e-08
1.2714e-05
1.6562e-08
1.27218e-05
1.61705e-08
1.27293e-05
1.53902e-08
1.27364e-05
1.43695e-08
1.27432e-05
1.32083e-08
1.27496e-05
1.19737e-08
1.27555e-05
1.07106e-08
1.27611e-05
9.45194e-09
1.27662e-05
8.22072e-09
1.27709e-05
7.04151e-09
1.27752e-05
5.93166e-09
1.2779e-05
4.91443e-09
4.02511e-09
1.27823e-05
1.5455e-05
1.49176e-09
1.54599e-05
4.11444e-09
1.54671e-05
5.78551e-09
1.54756e-05
6.72912e-09
1.54849e-05
7.063e-09
1.54945e-05
6.95044e-09
1.55041e-05
6.531e-09
1.55136e-05
5.90593e-09
1.55228e-05
5.15027e-09
1.55317e-05
4.31801e-09
1.55403e-05
3.4459e-09
1.55484e-05
2.56223e-09
1.55562e-05
1.68257e-09
1.55636e-05
8.26807e-10
1.55706e-05
-8.2672e-12
1.55773e-05
-7.93928e-10
1.55838e-05
-1.56336e-09
-2.19659e-09
1.559e-05
1.88392e-05
-3.69341e-11
1.88439e-05
-6.67822e-10
1.8851e-05
-1.25766e-09
1.88594e-05
-1.69427e-09
1.88685e-05
-2.02495e-09
1.88777e-05
-2.28625e-09
1.88868e-05
-2.50602e-09
1.88954e-05
-2.70435e-09
1.89034e-05
-2.8919e-09
1.89108e-05
-3.07431e-09
1.89175e-05
-3.25363e-09
1.89235e-05
-3.43155e-09
1.89288e-05
-3.60756e-09
1.89334e-05
-3.7849e-09
1.89374e-05
-3.96303e-09
1.89407e-05
-4.14689e-09
1.89435e-05
-4.35618e-09
-4.65614e-09
1.8946e-05
2.29673e-05
-3.97484e-09
2.29763e-05
-9.68847e-09
2.29886e-05
-1.35723e-08
2.30031e-05
-1.62036e-08
2.3019e-05
-1.79425e-08
2.30358e-05
-1.90386e-08
2.3053e-05
-1.96927e-08
2.30703e-05
-2.00518e-08
2.30876e-05
-2.02145e-08
2.31048e-05
-2.02438e-08
2.31217e-05
-2.01784e-08
2.31383e-05
-2.00364e-08
2.31546e-05
-1.98231e-08
2.31703e-05
-1.95284e-08
2.31855e-05
-1.91384e-08
2.32e-05
-1.8618e-08
2.32136e-05
-1.79622e-08
-1.68137e-08
2.32257e-05
1.68112e-05
-4.51515e-09
1.68148e-05
-1.32056e-08
1.68203e-05
-1.91297e-08
1.68269e-05
-2.27778e-08
1.68337e-05
-2.47557e-08
1.68403e-05
-2.55847e-08
1.68462e-05
-2.56815e-08
1.68515e-05
-2.53333e-08
1.6856e-05
-2.47212e-08
1.68597e-05
-2.39561e-08
1.68627e-05
-2.31028e-08
1.68648e-05
-2.22002e-08
1.68663e-05
-2.12674e-08
1.68671e-05
-2.03255e-08
1.68673e-05
-1.93808e-08
1.68672e-05
-1.84814e-08
1.68668e-05
-1.76258e-08
-1.72846e-08
1.68673e-05
1.46387e-05
-8.62579e-09
1.46468e-05
-2.13439e-08
1.46568e-05
-2.91302e-08
1.46677e-05
-3.36847e-08
1.46791e-05
-3.6085e-08
1.46905e-05
-3.70176e-08
1.47018e-05
-3.70263e-08
1.4713e-05
-3.64903e-08
1.47239e-05
-3.56445e-08
1.47346e-05
-3.46345e-08
1.4745e-05
-3.35548e-08
1.47553e-05
-3.24644e-08
1.47654e-05
-3.14049e-08
1.47755e-05
-3.03947e-08
1.47856e-05
-2.94591e-08
1.47957e-05
-2.85647e-08
1.48058e-05
-2.77457e-08
-2.63631e-08
1.48149e-05
1.27416e-05
-1.01042e-08
1.27468e-05
-2.65027e-08
1.27534e-05
-3.57642e-08
1.27601e-05
-4.04288e-08
1.27663e-05
-4.2282e-08
1.27717e-05
-4.23985e-08
1.27762e-05
-4.15504e-08
1.278e-05
-4.02228e-08
1.2783e-05
-3.8669e-08
1.27854e-05
-3.70187e-08
1.27872e-05
-3.53402e-08
1.27884e-05
-3.36659e-08
1.2789e-05
-3.19964e-08
1.27889e-05
-3.0325e-08
1.2788e-05
-2.86049e-08
1.27863e-05
-2.68399e-08
1.27835e-05
-2.49158e-08
-2.35589e-08
1.27807e-05
1.10966e-05
-1.57286e-08
1.11062e-05
-3.61701e-08
1.11166e-05
-4.61248e-08
1.11268e-05
-5.06416e-08
1.11367e-05
-5.21606e-08
1.11461e-05
-5.17919e-08
1.11549e-05
-5.0402e-08
1.11633e-05
-4.85571e-08
1.11711e-05
-4.65304e-08
1.11786e-05
-4.44586e-08
1.11856e-05
-4.2426e-08
1.11925e-05
-4.04838e-08
1.11991e-05
-3.86716e-08
1.12058e-05
-3.70192e-08
1.12128e-05
-3.56024e-08
1.12204e-05
-3.4459e-08
1.12294e-05
-3.38293e-08
-3.29482e-08
1.12387e-05
9.65974e-06
-2.02546e-08
9.66818e-06
-4.46061e-08
9.6761e-06
-5.40465e-08
9.68246e-06
-5.70034e-08
9.68735e-06
-5.70491e-08
9.69099e-06
-5.54313e-08
9.69368e-06
-5.30928e-08
9.69571e-06
-5.05889e-08
9.69728e-06
-4.80965e-08
9.69848e-06
-4.56661e-08
9.69939e-06
-4.33282e-08
9.7e-06
-4.10979e-08
9.70029e-06
-3.8963e-08
9.70017e-06
-3.69021e-08
9.69939e-06
-3.48169e-08
9.69755e-06
-3.26174e-08
9.69356e-06
-2.98406e-08
-2.69846e-08
9.6876e-06
8.41352e-06
-2.84234e-08
8.4251e-06
-5.61848e-08
8.43529e-06
-6.42346e-08
8.44407e-06
-6.57892e-08
8.45181e-06
-6.4787e-08
8.4585e-06
-6.21207e-08
8.46424e-06
-5.8836e-08
8.46922e-06
-5.55681e-08
8.47359e-06
-5.24602e-08
8.47745e-06
-4.95262e-08
8.4809e-06
-4.6783e-08
8.48404e-06
-4.42367e-08
8.48696e-06
-4.18865e-08
8.48979e-06
-3.97295e-08
8.49281e-06
-3.78319e-08
8.49646e-06
-3.62703e-08
8.50225e-06
-3.56327e-08
-3.567e-08
8.51094e-06
7.32786e-06
-3.89946e-08
7.33968e-06
-6.80102e-08
7.3464e-06
-7.09579e-08
7.34969e-06
-6.9076e-08
7.35114e-06
-6.62372e-08
7.35149e-06
-6.24719e-08
7.35126e-06
-5.86055e-08
7.35078e-06
-5.5089e-08
7.35019e-06
-5.18671e-08
7.34952e-06
-4.8855e-08
7.34878e-06
-4.604e-08
7.34796e-06
-4.34218e-08
7.34706e-06
-4.09841e-08
7.34605e-06
-3.872e-08
7.34477e-06
-3.65534e-08
7.34293e-06
-3.44272e-08
7.33886e-06
-3.15697e-08
-2.7466e-08
7.33066e-06
6.38127e-06
-5.01986e-08
6.39312e-06
-7.98636e-08
6.3999e-06
-7.77356e-08
6.40411e-06
-7.32812e-08
6.40656e-06
-6.86898e-08
6.40752e-06
-6.34308e-08
6.40745e-06
-5.8534e-08
6.40672e-06
-5.43603e-08
6.40557e-06
-5.07209e-08
6.40416e-06
-4.74393e-08
6.40257e-06
-4.44528e-08
6.40088e-06
-4.17301e-08
6.39913e-06
-3.92412e-08
6.39737e-06
-3.69547e-08
6.39571e-06
-3.48939e-08
6.39432e-06
-3.30423e-08
6.3949e-06
-3.21471e-08
-3.27929e-08
6.40023e-06
5.563e-06
-6.77342e-08
5.5691e-06
-8.59587e-08
5.5647e-06
-7.33361e-08
5.55727e-06
-6.58571e-08
5.5495e-06
-6.09205e-08
5.5421e-06
-5.60241e-08
5.53526e-06
-5.16949e-08
5.52893e-06
-4.80381e-08
5.523e-06
-4.47881e-08
5.51737e-06
-4.18129e-08
5.512e-06
-3.90772e-08
5.50684e-06
-3.65677e-08
5.50186e-06
-3.42619e-08
5.49706e-06
-3.2158e-08
5.49239e-06
-3.02237e-08
5.48787e-06
-2.8521e-08
5.48204e-06
-2.63163e-08
-2.21462e-08
5.47139e-06
4.85296e-06
-9.30904e-08
4.85866e-06
-9.16595e-08
4.84879e-06
-6.34665e-08
4.8377e-06
-5.47636e-08
4.8255e-06
-4.87163e-08
4.8133e-06
-4.38258e-08
4.80159e-06
-3.9985e-08
4.79044e-06
-3.68882e-08
4.77984e-06
-3.41872e-08
4.76973e-06
-3.17097e-08
4.76008e-06
-2.94232e-08
4.75083e-06
-2.73211e-08
4.74197e-06
-2.53978e-08
4.73346e-06
-2.36455e-08
4.72533e-06
-2.20984e-08
4.71757e-06
-2.07591e-08
4.71174e-06
-2.04879e-08
-2.16853e-08
4.71128e-06
4.10959e-06
4.01793e-06
3.95446e-06
3.8997e-06
3.85098e-06
3.80715e-06
3.76717e-06
3.73028e-06
3.69609e-06
3.66438e-06
3.63496e-06
3.60764e-06
3.58224e-06
3.5586e-06
3.5365e-06
3.51574e-06
3.49525e-06
3.47357e-06
7.13794e-08
-7.13662e-08
1.71765e-07
-1.00368e-07
2.83905e-07
-1.12143e-07
3.8291e-07
-9.89999e-08
4.71294e-07
-8.83898e-08
5.49057e-07
-7.7764e-08
6.19455e-07
-7.04058e-08
6.83561e-07
-6.4109e-08
7.43032e-07
-5.94787e-08
7.98574e-07
-5.55445e-08
8.50828e-07
-5.22608e-08
9.00051e-07
-4.9225e-08
9.46453e-07
-4.64067e-08
9.90139e-07
-4.36841e-08
1.03119e-06
-4.10556e-08
1.06965e-06
-3.8456e-08
1.10548e-06
-3.58292e-08
1.13854e-06
-3.30537e-08
1.16852e-06
-2.9981e-08
1.19497e-06
-2.64486e-08
1.21724e-06
-2.22751e-08
1.2343e-06
-1.70578e-08
1.24469e-06
-1.03977e-08
1.24635e-06
-1.66841e-09
1.23683e-06
9.51679e-09
1.21437e-06
2.24345e-08
1.17803e-06
3.63289e-08
1.12713e-06
5.08731e-08
1.06151e-06
6.56168e-08
9.81935e-07
7.95553e-08
8.90634e-07
9.1303e-08
7.91482e-07
9.91624e-08
6.89753e-07
1.01743e-07
5.91331e-07
9.84603e-08
5.02127e-07
8.92205e-08
4.27694e-07
7.44713e-08
3.71308e-07
5.63909e-08
3.32243e-07
3.90758e-08
3.05675e-07
2.6557e-08
2.83753e-07
2.19193e-08
2.55975e-07
2.77634e-08
2.11998e-07
4.39991e-08
1.44026e-07
6.796e-08
5.12905e-08
9.27723e-08
-5.64551e-08
1.07729e-07
-1.69384e-07
1.12942e-07
-2.85641e-07
1.16233e-07
-4.03569e-07
1.17923e-07
-5.20627e-07
1.17036e-07
-6.34542e-07
1.13902e-07
-7.44287e-07
1.09727e-07
-8.49619e-07
1.05319e-07
-9.5009e-07
1.00458e-07
-1.04509e-06
9.49859e-08
-1.1342e-06
8.91051e-08
-1.21725e-06
8.3039e-08
-1.29428e-06
7.70204e-08
-1.36552e-06
7.12323e-08
-1.43133e-06
6.58026e-08
-1.49214e-06
6.08033e-08
-1.5484e-06
5.62619e-08
-1.60058e-06
5.21746e-08
-1.6491e-06
4.85204e-08
-1.69437e-06
4.52633e-08
-1.73673e-06
4.23616e-08
-1.77651e-06
3.97697e-08
-1.81395e-06
3.74447e-08
-1.8493e-06
3.5345e-08
-1.88273e-06
3.34346e-08
-1.91442e-06
3.168e-08
-1.94447e-06
3.00536e-08
-1.973e-06
2.85302e-08
-2.00009e-06
2.7089e-08
-2.0258e-06
2.57113e-08
-2.05019e-06
2.43821e-08
-2.07328e-06
2.30868e-08
-2.0951e-06
2.18138e-08
-2.11566e-06
2.05512e-08
-2.13496e-06
1.92918e-08
-2.153e-06
1.80293e-08
-2.16976e-06
1.67623e-08
-2.18526e-06
1.54864e-08
-2.19947e-06
1.4202e-08
-2.21238e-06
1.29048e-08
-2.22398e-06
1.15974e-08
-2.23427e-06
1.02792e-08
-2.24323e-06
8.95473e-09
-2.25083e-06
7.60012e-09
-2.25699e-06
6.16625e-09
-2.26162e-06
4.63242e-09
-2.26463e-06
3.01792e-09
-2.26599e-06
1.36526e-09
-2.26582e-06
-1.7565e-10
-2.26441e-06
-1.40346e-09
-2.26202e-06
-2.39627e-09
-2.25868e-06
-3.34214e-09
-2.25439e-06
-4.28442e-09
-2.24915e-06
-5.24838e-09
-2.2429e-06
-6.24982e-09
-2.23559e-06
-7.30803e-09
-2.22718e-06
-8.41381e-09
-2.21771e-06
-9.48052e-09
-2.20718e-06
-1.05328e-08
-2.19559e-06
-1.1594e-08
-2.18292e-06
-1.2674e-08
-2.16914e-06
-1.37778e-08
-2.15423e-06
-1.4909e-08
-2.13816e-06
-1.60725e-08
-2.12089e-06
-1.72723e-08
-2.10238e-06
-1.8508e-08
-2.0826e-06
-1.97745e-08
-2.06153e-06
-2.10691e-08
-2.03914e-06
-2.23896e-08
-2.0154e-06
-2.37344e-08
-1.9903e-06
-2.51013e-08
-1.96381e-06
-2.64883e-08
-1.93591e-06
-2.78929e-08
-1.9066e-06
-2.93117e-08
-1.87586e-06
-3.07405e-08
-1.84367e-06
-3.21828e-08
-1.81002e-06
-3.36555e-08
-1.77485e-06
-3.51649e-08
-1.73816e-06
-3.66902e-08
-1.69993e-06
-3.82331e-08
-1.66011e-06
-3.98153e-08
-1.61874e-06
-4.1371e-08
-1.57588e-06
-4.28613e-08
-1.53144e-06
-4.44494e-08
-1.48539e-06
-4.60493e-08
-1.43775e-06
-4.76349e-08
-1.3885e-06
-4.92508e-08
-1.33764e-06
-5.08644e-08
-1.28516e-06
-5.24858e-08
-1.23106e-06
-5.41007e-08
-1.17536e-06
-5.57012e-08
-1.11808e-06
-5.72787e-08
-1.05926e-06
-5.88272e-08
-9.98948e-07
-6.03272e-08
-9.37181e-07
-6.17892e-08
-8.7402e-07
-6.31903e-08
-8.09619e-07
-6.44358e-08
-7.44116e-07
-6.55417e-08
-6.77633e-07
-6.6525e-08
-6.10319e-07
-6.73585e-08
-5.42347e-07
-6.80179e-08
-4.73913e-07
-6.84797e-08
-4.05238e-07
-6.87181e-08
-3.36567e-07
-6.87105e-08
-2.68173e-07
-6.84282e-08
-2.00359e-07
-6.78415e-08
-1.33364e-07
-6.70131e-08
-6.76376e-08
-6.57349e-08
-3.97645e-09
-6.36584e-08
5.83972e-08
-6.2359e-08
1.19948e-07
-6.15236e-08
1.79429e-07
-5.94428e-08
2.35891e-07
-5.64113e-08
2.88888e-07
-5.29364e-08
3.37937e-07
-4.89785e-08
3.82593e-07
-4.45765e-08
4.23097e-07
-4.0417e-08
4.60136e-07
-3.69475e-08
4.94519e-07
-3.42871e-08
5.27094e-07
-3.24779e-08
5.58845e-07
-3.16528e-08
5.90815e-07
-3.18753e-08
6.24079e-07
-3.3169e-08
6.59568e-07
-3.54013e-08
6.98195e-07
-3.85394e-08
7.40553e-07
-4.22774e-08
7.873e-07
-4.66681e-08
8.38426e-07
-5.10563e-08
8.94418e-07
-5.59226e-08
9.54176e-07
-5.96987e-08
1.01826e-06
-6.40211e-08
1.08332e-06
-6.50165e-08
1.15063e-06
-6.72587e-08
1.21154e-06
-6.08664e-08
1.25965e-06
-4.80779e-08
-9.12544e-09
1.26881e-06
1.15823e-07
-1.8718e-07
1.89574e-07
-1.74112e-07
2.48256e-07
-1.70825e-07
2.91708e-07
-1.42451e-07
3.37649e-07
-1.34334e-07
3.8105e-07
-1.21165e-07
4.2629e-07
-1.15649e-07
4.70784e-07
-1.08604e-07
5.15631e-07
-1.0433e-07
5.59606e-07
-9.95211e-08
6.02735e-07
-9.53926e-08
6.44248e-07
-9.07383e-08
6.83981e-07
-8.61414e-08
7.21669e-07
-8.13718e-08
7.57372e-07
-7.67597e-08
7.91122e-07
-7.2204e-08
8.22999e-07
-6.77061e-08
8.52965e-07
-6.30175e-08
8.80897e-07
-5.79128e-08
9.06574e-07
-5.21236e-08
9.29663e-07
-4.53654e-08
9.49982e-07
-3.73765e-08
9.67439e-07
-2.78582e-08
9.82443e-07
-1.66756e-08
9.95918e-07
-3.96302e-09
1.00732e-06
1.10294e-08
1.01471e-06
2.89256e-08
1.01511e-06
5.04653e-08
1.00445e-06
7.62687e-08
9.77605e-07
1.06394e-07
9.29985e-07
1.38923e-07
8.59985e-07
1.69165e-07
7.70575e-07
1.91158e-07
6.68488e-07
2.00557e-07
5.6131e-07
1.96406e-07
4.55084e-07
1.80705e-07
3.54012e-07
1.57466e-07
2.59468e-07
1.33622e-07
1.67171e-07
1.18853e-07
7.02997e-08
1.18789e-07
-3.57741e-08
1.33836e-07
-1.51162e-07
1.59388e-07
-2.71116e-07
1.87915e-07
-3.90707e-07
2.12366e-07
-5.10897e-07
2.27918e-07
-6.32775e-07
2.34819e-07
-7.51787e-07
2.35242e-07
-8.63564e-07
2.29697e-07
-9.65455e-07
2.18923e-07
-1.05589e-06
2.04332e-07
-1.13383e-06
1.87663e-07
-1.19861e-06
1.70092e-07
-1.25052e-06
1.52365e-07
-1.29071e-06
1.35174e-07
-1.32071e-06
1.19103e-07
-1.34219e-06
1.04509e-07
-1.35674e-06
9.15701e-08
-1.36582e-06
8.03057e-08
-1.37065e-06
7.06295e-08
-1.37224e-06
6.23926e-08
-1.3714e-06
5.54245e-08
-1.36878e-06
4.95519e-08
-1.36487e-06
4.4609e-08
-1.36005e-06
4.04413e-08
-1.35461e-06
3.69134e-08
-1.34875e-06
3.39081e-08
-1.34263e-06
3.13289e-08
-1.33638e-06
2.90958e-08
-1.33009e-06
2.71455e-08
-1.32384e-06
2.54271e-08
-1.31769e-06
2.39018e-08
-1.3117e-06
2.25389e-08
-1.30593e-06
2.13151e-08
-1.30043e-06
2.02117e-08
-1.29526e-06
1.92139e-08
-1.29049e-06
1.83074e-08
-1.28616e-06
1.74798e-08
-1.28233e-06
1.67196e-08
-1.27906e-06
1.60192e-08
-1.2764e-06
1.53711e-08
-1.27441e-06
1.477e-08
-1.27314e-06
1.42099e-08
-1.27263e-06
1.36877e-08
-1.27293e-06
1.31997e-08
-1.27408e-06
1.27472e-08
-1.27614e-06
1.23297e-08
-1.27913e-06
1.19452e-08
-1.2831e-06
1.15737e-08
-1.28812e-06
1.11851e-08
-1.29425e-06
1.0771e-08
-1.30155e-06
1.03211e-08
-1.30999e-06
9.80597e-09
-1.31932e-06
9.15444e-09
-1.32905e-06
8.32362e-09
-1.33879e-06
7.34375e-09
-1.34836e-06
6.22174e-09
-1.35762e-06
4.9767e-09
-1.3665e-06
3.62876e-09
-1.37495e-06
2.19762e-09
-1.38292e-06
6.57066e-10
-1.39019e-06
-1.13947e-09
-1.39652e-06
-3.15696e-09
-1.40175e-06
-5.30398e-09
-1.4058e-06
-7.55093e-09
-1.4086e-06
-9.87071e-09
-1.41013e-06
-1.22529e-08
-1.41035e-06
-1.4693e-08
-1.40923e-06
-1.71916e-08
-1.40676e-06
-1.97474e-08
-1.40291e-06
-2.23571e-08
-1.39767e-06
-2.50169e-08
-1.39101e-06
-2.77237e-08
-1.38292e-06
-3.04752e-08
-1.37339e-06
-3.32695e-08
-1.36238e-06
-3.61038e-08
-1.3499e-06
-3.89756e-08
-1.33591e-06
-4.18818e-08
-1.3204e-06
-4.4819e-08
-1.30335e-06
-4.77849e-08
-1.28475e-06
-5.07879e-08
-1.26455e-06
-5.38461e-08
-1.24277e-06
-5.69464e-08
-1.21942e-06
-6.00398e-08
-1.19449e-06
-6.31666e-08
-1.16793e-06
-6.63751e-08
-1.13979e-06
-6.95089e-08
-1.11002e-06
-7.26319e-08
-1.07854e-06
-7.59307e-08
-1.04538e-06
-7.9213e-08
-1.01051e-06
-8.25069e-08
-9.73926e-07
-8.58292e-08
-9.35625e-07
-8.91649e-08
-8.95587e-07
-9.25225e-08
-8.53779e-07
-9.59076e-08
-8.10163e-07
-9.93165e-08
-7.64759e-07
-1.02682e-07
-7.17675e-07
-1.05913e-07
-6.68963e-07
-1.09043e-07
-6.18569e-07
-1.12189e-07
-5.66564e-07
-1.15205e-07
-5.13061e-07
-1.1795e-07
-4.58162e-07
-1.20453e-07
-4.01991e-07
-1.22709e-07
-3.4469e-07
-1.24673e-07
-2.86421e-07
-1.263e-07
-2.27368e-07
-1.27545e-07
-1.67739e-07
-1.2836e-07
-1.07746e-07
-1.28714e-07
-4.75701e-08
-1.28613e-07
1.25724e-08
-1.27991e-07
7.21807e-08
-1.26626e-07
1.30961e-07
-1.24516e-07
1.89095e-07
-1.2179e-07
2.45486e-07
-1.18744e-07
2.99086e-07
-1.15114e-07
3.50057e-07
-1.104e-07
3.98452e-07
-1.04788e-07
4.44159e-07
-9.86206e-08
4.87381e-07
-9.21752e-08
5.28475e-07
-8.56402e-08
5.6748e-07
-7.93902e-08
6.04479e-07
-7.39122e-08
6.39739e-07
-6.95125e-08
6.73755e-07
-6.64576e-08
7.07192e-07
-6.50547e-08
7.40829e-07
-6.54783e-08
7.7551e-07
-6.7818e-08
8.12052e-07
-7.19125e-08
8.51239e-07
-7.76981e-08
8.93715e-07
-8.47275e-08
9.40052e-07
-9.29813e-08
9.90525e-07
-1.01507e-07
1.04534e-06
-1.10715e-07
1.10419e-06
-1.18534e-07
1.16696e-06
-1.26773e-07
1.23246e-06
-1.30503e-07
1.30011e-06
-1.3489e-07
1.36699e-06
-1.27732e-07
1.43464e-06
-1.15713e-07
-7.20571e-08
1.49758e-06
6.39856e-08
-2.51158e-07
8.78283e-08
-1.9795e-07
1.1626e-07
-1.99258e-07
1.42973e-07
-1.69165e-07
1.76856e-07
-1.68219e-07
2.13099e-07
-1.57409e-07
2.54732e-07
-1.57284e-07
2.97934e-07
-1.51806e-07
3.43825e-07
-1.50223e-07
3.8936e-07
-1.45057e-07
4.34217e-07
-1.40251e-07
4.76565e-07
-1.33086e-07
5.16326e-07
-1.25903e-07
5.53156e-07
-1.18201e-07
5.87589e-07
-1.11193e-07
6.19921e-07
-1.04534e-07
6.50598e-07
-9.83825e-08
6.7961e-07
-9.20279e-08
7.0668e-07
-8.49829e-08
7.31227e-07
-7.66688e-08
7.52576e-07
-6.67152e-08
7.69648e-07
-5.44478e-08
7.80894e-07
-3.91059e-08
7.84423e-07
-2.02059e-08
7.78877e-07
1.58189e-09
7.65075e-07
2.48278e-08
7.44724e-07
4.92737e-08
7.19622e-07
7.55626e-08
6.90552e-07
1.05334e-07
6.55869e-07
1.41073e-07
6.11159e-07
1.83631e-07
5.51397e-07
2.28926e-07
4.7467e-07
2.67887e-07
3.83887e-07
2.91343e-07
2.85001e-07
2.95295e-07
1.83633e-07
2.82076e-07
8.21912e-08
2.58909e-07
-2.14729e-08
2.37286e-07
-1.32066e-07
2.29446e-07
-2.51274e-07
2.37996e-07
-3.74963e-07
2.57523e-07
-4.96808e-07
2.81234e-07
-6.11901e-07
3.03007e-07
-7.17881e-07
3.18348e-07
-8.14527e-07
3.24562e-07
-9.01263e-07
3.21555e-07
-9.76757e-07
3.10734e-07
-1.04065e-06
2.93583e-07
-1.09378e-06
2.72053e-07
-1.13766e-06
2.48216e-07
-1.17379e-06
2.23788e-07
-1.20377e-06
2.00066e-07
-1.22935e-06
1.77943e-07
-1.25214e-06
1.5796e-07
-1.27339e-06
1.40357e-07
-1.29402e-06
1.2513e-07
-1.31457e-06
1.12127e-07
-1.33537e-06
1.01104e-07
-1.35654e-06
9.17903e-08
-1.37806e-06
8.39179e-08
-1.39988e-06
7.72441e-08
-1.42189e-06
7.15591e-08
-1.44397e-06
6.66856e-08
-1.466e-06
6.24745e-08
-1.48789e-06
5.88021e-08
-1.50955e-06
5.55669e-08
-1.53091e-06
5.26863e-08
-1.55191e-06
5.00941e-08
-1.5725e-06
4.77375e-08
-1.59265e-06
4.55751e-08
-1.61233e-06
4.35748e-08
-1.6315e-06
4.17113e-08
-1.65015e-06
3.9965e-08
-1.66826e-06
3.83202e-08
-1.68581e-06
3.67647e-08
-1.70279e-06
3.52883e-08
-1.7192e-06
3.38833e-08
-1.73502e-06
3.25431e-08
-1.75027e-06
3.12642e-08
-1.76495e-06
3.00448e-08
-1.77906e-06
2.88847e-08
-1.79264e-06
2.77827e-08
-1.80569e-06
2.67367e-08
-1.81823e-06
2.57404e-08
-1.83027e-06
2.47845e-08
-1.84179e-06
2.38532e-08
-1.85278e-06
2.29265e-08
-1.86318e-06
2.19759e-08
-1.87297e-06
2.09743e-08
-1.88209e-06
1.99009e-08
-1.89049e-06
1.87226e-08
-1.89806e-06
1.73769e-08
-1.9047e-06
1.57894e-08
-1.91031e-06
1.39376e-08
-1.91482e-06
1.18512e-08
-1.91815e-06
9.55458e-09
-1.92025e-06
7.06955e-09
-1.92103e-06
4.41292e-09
-1.92044e-06
1.60269e-09
-1.91847e-06
-1.31061e-09
-1.91532e-06
-4.29474e-09
-1.91112e-06
-7.36318e-09
-1.90589e-06
-1.05342e-08
-1.89963e-06
-1.38109e-08
-1.89232e-06
-1.71878e-08
-1.88392e-06
-2.0659e-08
-1.87439e-06
-2.42205e-08
-1.86371e-06
-2.78703e-08
-1.85185e-06
-3.1608e-08
-1.83878e-06
-3.54298e-08
-1.82447e-06
-3.93303e-08
-1.80889e-06
-4.33037e-08
-1.79202e-06
-4.73455e-08
-1.77383e-06
-5.14526e-08
-1.75431e-06
-5.56237e-08
-1.73343e-06
-5.98568e-08
-1.71116e-06
-6.41489e-08
-1.68748e-06
-6.84952e-08
-1.66238e-06
-7.28915e-08
-1.63583e-06
-7.73388e-08
-1.60783e-06
-8.18436e-08
-1.57837e-06
-8.63994e-08
-1.54742e-06
-9.09923e-08
-1.51494e-06
-9.56427e-08
-1.48098e-06
-1.00341e-07
-1.44547e-06
-1.05015e-07
-1.40835e-06
-1.09751e-07
-1.36968e-06
-1.146e-07
-1.32944e-06
-1.19451e-07
-1.28761e-06
-1.24337e-07
-1.24419e-06
-1.29251e-07
-1.19917e-06
-1.34187e-07
-1.15254e-06
-1.39146e-07
-1.10432e-06
-1.44125e-07
-1.05453e-06
-1.491e-07
-1.00322e-06
-1.53988e-07
-9.50404e-07
-1.58731e-07
-8.96039e-07
-1.63407e-07
-8.40252e-07
-1.67977e-07
-7.83246e-07
-1.72213e-07
-7.25083e-07
-1.76116e-07
-6.65826e-07
-1.79713e-07
-6.05606e-07
-1.82931e-07
-5.44587e-07
-1.85694e-07
-4.82951e-07
-1.87939e-07
-4.20892e-07
-1.89606e-07
-3.58618e-07
-1.90636e-07
-2.96363e-07
-1.90971e-07
-2.3441e-07
-1.90569e-07
-1.73032e-07
-1.89372e-07
-1.12404e-07
-1.87255e-07
-5.2782e-08
-1.84141e-07
5.40464e-09
-1.79979e-07
6.17178e-08
-1.7506e-07
1.15969e-07
-1.69366e-07
1.68169e-07
-1.62601e-07
2.18284e-07
-1.54902e-07
2.66287e-07
-1.46624e-07
3.12288e-07
-1.38175e-07
3.56419e-07
-1.2977e-07
3.98792e-07
-1.2176e-07
4.39698e-07
-1.14816e-07
4.79653e-07
-1.09464e-07
5.19168e-07
-1.05969e-07
5.5873e-07
-1.04613e-07
5.98942e-07
-1.05686e-07
6.40558e-07
-1.09429e-07
6.84397e-07
-1.15748e-07
7.31214e-07
-1.2451e-07
7.81616e-07
-1.35124e-07
8.36006e-07
-1.47365e-07
8.94586e-07
-1.60081e-07
9.57299e-07
-1.7342e-07
1.02392e-06
-1.85146e-07
1.09385e-06
-1.9669e-07
1.16644e-06
-2.0308e-07
1.24037e-06
-2.0881e-07
1.31444e-06
-2.01784e-07
1.39066e-06
-1.91919e-07
-1.46173e-07
1.46478e-06
2.88852e-08
-2.80038e-07
3.06787e-08
-1.9974e-07
4.51627e-08
-2.13743e-07
6.30705e-08
-1.87074e-07
7.95551e-08
-1.84705e-07
9.71858e-08
-1.75041e-07
1.15558e-07
-1.75658e-07
1.37595e-07
-1.73844e-07
1.62121e-07
-1.7475e-07
1.88551e-07
-1.71487e-07
2.15082e-07
-1.66781e-07
2.40211e-07
-1.58215e-07
2.63494e-07
-1.49186e-07
2.8502e-07
-1.39726e-07
3.05336e-07
-1.31509e-07
3.24893e-07
-1.2409e-07
3.43863e-07
-1.17352e-07
3.61759e-07
-1.09922e-07
3.77796e-07
-1.01019e-07
3.91529e-07
-9.04004e-08
4.02895e-07
-7.80815e-08
4.11387e-07
-6.29388e-08
4.15794e-07
-4.35131e-08
4.13984e-07
-1.83958e-08
4.02515e-07
1.30499e-08
3.79803e-07
4.75387e-08
3.47127e-07
8.19475e-08
3.07343e-07
1.15344e-07
2.63212e-07
1.49462e-07
2.16131e-07
1.88151e-07
1.65783e-07
2.33977e-07
1.11134e-07
2.83574e-07
5.19152e-08
3.27105e-07
-1.09323e-08
3.54192e-07
-7.64924e-08
3.60856e-07
-1.46136e-07
3.51721e-07
-2.24847e-07
3.3762e-07
-3.17607e-07
3.30047e-07
-4.22078e-07
3.33917e-07
-5.29815e-07
3.45733e-07
-6.32341e-07
3.60048e-07
-7.2367e-07
3.72563e-07
-8.00761e-07
3.80098e-07
-8.63132e-07
3.80718e-07
-9.12136e-07
3.73565e-07
-9.49918e-07
3.59337e-07
-9.7885e-07
3.39664e-07
-1.00171e-06
3.16437e-07
-1.02126e-06
2.91604e-07
-1.03978e-06
2.66739e-07
-1.05887e-06
2.4287e-07
-1.07946e-06
2.20655e-07
-1.10192e-06
2.00407e-07
-1.12616e-06
1.82192e-07
-1.15174e-06
1.65939e-07
-1.17812e-06
1.51508e-07
-1.20473e-06
1.38739e-07
-1.23109e-06
1.27463e-07
-1.25682e-06
1.1752e-07
-1.28166e-06
1.08759e-07
-1.30546e-06
1.0104e-07
-1.32813e-06
9.42339e-08
-1.34967e-06
8.82249e-08
-1.37011e-06
8.29066e-08
-1.38949e-06
7.81849e-08
-1.4079e-06
7.39757e-08
-1.42542e-06
7.02058e-08
-1.44214e-06
6.68107e-08
-1.45814e-06
6.37349e-08
-1.47349e-06
6.09303e-08
-1.48828e-06
5.83565e-08
-1.50255e-06
5.59794e-08
-1.51635e-06
5.37714e-08
-1.52974e-06
5.17099e-08
-1.54276e-06
4.97763e-08
-1.55542e-06
4.79548e-08
-1.56777e-06
4.62318e-08
-1.57983e-06
4.45945e-08
-1.59159e-06
4.30306e-08
-1.60307e-06
4.15258e-08
-1.61425e-06
4.00643e-08
-1.6251e-06
3.86276e-08
-1.63556e-06
3.71978e-08
-1.64558e-06
3.57578e-08
-1.65509e-06
3.42943e-08
-1.66404e-06
3.27985e-08
-1.67238e-06
3.12658e-08
-1.6801e-06
2.96944e-08
-1.6872e-06
2.80838e-08
-1.69374e-06
2.64333e-08
-1.69974e-06
2.47273e-08
-1.70529e-06
2.29265e-08
-1.71047e-06
2.09717e-08
-1.71534e-06
1.88117e-08
-1.71991e-06
1.64136e-08
-1.72412e-06
1.37648e-08
-1.72792e-06
1.08659e-08
-1.73123e-06
7.72566e-09
-1.73398e-06
4.35047e-09
-1.73603e-06
7.36557e-10
-1.73726e-06
-3.06781e-09
-1.73753e-06
-7.0897e-09
-1.73676e-06
-1.13068e-08
-1.73488e-06
-1.56937e-08
-1.73184e-06
-2.02338e-08
-1.72759e-06
-2.49138e-08
-1.72208e-06
-2.97243e-08
-1.7153e-06
-3.46567e-08
-1.7072e-06
-3.97039e-08
-1.69778e-06
-4.48582e-08
-1.68699e-06
-5.01121e-08
-1.67484e-06
-5.54585e-08