/*--------------------------------*- C++ -*----------------------------------*\
| =========                 |                                                 |
| \\      /  F ield         | OpenFOAM: The Open Source CFD Toolbox           |
|  \\    /   O peration     | Version:  v1906                                 |
|   \\  /    A nd           | Web:      www.OpenFOAM.com                      |
|    \\/     M anipulation  |                                                 |
\*---------------------------------------------------------------------------*/
FoamFile
{
    version     2.0;
    format      ascii;
    class       volSymmTensorField;
    location    "1500";
    object      R;
}
// * * * * * * * * * * * * * * * * * * * * * * * * * * * * * * * * * * * * * //

dimensions      [0 2 -2 0 0 0 0];


internalField   nonuniform List<symmTensor> 
12225
(
(1.62918 -0.333427 0 1.36079 0 1.52752)
(1.99604 -0.597709 0 0.915071 0 1.54224)
(2.14975 -0.58621 0 0.685668 0 1.48847)
(2.16279 -0.548281 0 0.594788 0 1.42581)
(2.12998 -0.521047 0 0.549789 0 1.37022)
(2.08407 -0.501309 0 0.521797 0 1.32321)
(2.03679 -0.485835 0 0.501229 0 1.28305)
(1.99267 -0.473093 0 0.484897 0 1.24863)
(1.95144 -0.46203 0 0.471084 0 1.21819)
(1.91547 -0.452626 0 0.459558 0 1.19207)
(1.88072 -0.443873 0 0.449142 0 1.16796)
(1.85334 -0.437262 0 0.440541 0 1.14794)
(1.83129 -0.432053 0 0.433555 0 1.13174)
(1.81387 -0.427764 0 0.427825 0 1.11826)
(1.79745 -0.423774 0 0.42264 0 1.10626)
(1.78594 -0.421296 0 0.419136 0 1.09714)
(1.77204 -0.41712 0 0.414109 0 1.08705)
(1.7665 -0.417984 0 0.413629 0 1.08209)
(1.52372 -0.0379495 0 1.4601 0 1.51677)
(1.57651 -0.140434 0 1.18694 0 1.51214)
(1.5867 -0.190041 0 0.927619 0 1.45696)
(1.57203 -0.209351 0 0.77376 0 1.39907)
(1.54344 -0.218166 0 0.676175 0 1.34284)
(1.51875 -0.225241 0 0.611032 0 1.29757)
(1.49706 -0.231432 0 0.564334 0 1.25991)
(1.47759 -0.236852 0 0.528956 0 1.22736)
(1.46102 -0.241829 0 0.501339 0 1.19983)
(1.44634 -0.246097 0 0.478956 0 1.17525)
(1.43467 -0.250341 0 0.460861 0 1.15508)
(1.42369 -0.25362 0 0.445174 0 1.13558)
(1.4165 -0.257754 0 0.433051 0 1.12135)
(1.40895 -0.260074 0 0.421073 0 1.10519)
(1.4047 -0.264282 0 0.413602 0 1.09597)
(1.40003 -0.265391 0 0.403036 0 1.08172)
(1.39656 -0.269302 0 0.399413 0 1.07622)
(1.39238 -0.269187 0 0.389427 0 1.06216)
(1.51161 -0.00810018 0 1.49388 0 1.51021)
(1.53451 -0.0358634 0 1.38468 0 1.51858)
(1.54642 -0.061516 0 1.23517 0 1.50561)
(1.54335 -0.0798465 0 1.11799 0 1.48176)
(1.52919 -0.0934483 0 1.02639 0 1.4523)
(1.51232 -0.105327 0 0.952942 0 1.42301)
(1.49503 -0.115988 0 0.893105 0 1.39549)
(1.47798 -0.125604 0 0.843405 0 1.36975)
(1.46208 -0.134423 0 0.801603 0 1.34638)
(1.44723 -0.142371 0 0.765855 0 1.32471)
(1.43395 -0.149844 0 0.735174 0 1.30547)
(1.42163 -0.156428 0 0.708111 0 1.28719)
(1.41078 -0.162896 0 0.685007 0 1.27167)
(1.40134 -0.168286 0 0.663441 0 1.25603)
(1.39163 -0.173896 0 0.646599 0 1.24409)
(1.38696 -0.178226 0 0.62689 0 1.22976)
(1.37264 -0.182689 0 0.619322 0 1.2226)
(1.38694 -0.185785 0 0.5894 0 1.20633)
(1.51151 -0.00606785 0 1.49419 0 1.51108)
(1.52718 -0.0162816 0 1.42186 0 1.52172)
(1.53968 -0.0294836 0 1.31299 0 1.52314)
(1.54283 -0.041921 0 1.21361 0 1.5151)
(1.53772 -0.0522154 0 1.12983 0 1.50083)
(1.52866 -0.061292 0 1.05921 0 1.48389)
(1.51776 -0.069542 0 0.999647 0 1.46623)
(1.50596 -0.0771108 0 0.948977 0 1.44852)
(1.49406 -0.0841509 0 0.905497 0 1.43145)
(1.48236 -0.090639 0 0.867796 0 1.41504)
(1.47121 -0.09675 0 0.834938 0 1.39972)
(1.46059 -0.102339 0 0.80589 0 1.38506)
(1.45062 -0.107686 0 0.780451 0 1.37173)
(1.44156 -0.112428 0 0.757352 0 1.35879)
(1.4325 -0.117032 0 0.737571 0 1.34748)
(1.42568 -0.120917 0 0.718016 0 1.33588)
(1.41625 -0.124542 0 0.703888 0 1.3269)
(1.41305 -0.127699 0 0.683968 0 1.31596)
(1.50986 -0.00454005 0 1.49822 0 1.50974)
(1.52088 -0.00882898 0 1.44953 0 1.51874)
(1.53214 -0.0149231 0 1.3734 0 1.52449)
(1.53782 -0.0219843 0 1.2985 0 1.5238)
(1.53771 -0.0286164 0 1.23193 0 1.51801)
(1.53402 -0.0349204 0 1.17323 0 1.50922)
(1.52819 -0.0410236 0 1.12165 0 1.49885)
(1.52101 -0.0468962 0 1.07623 0 1.48762)
(1.51312 -0.0525318 0 1.03604 0 1.47611)
(1.50489 -0.0578794 0 1.0003 0 1.46458)
(1.49664 -0.0629826 0 0.968424 0 1.45335)
(1.48848 -0.0677737 0 0.939767 0 1.44236)
(1.48052 -0.0723314 0 0.91404 0 1.43193)
(1.47296 -0.076508 0 0.890633 0 1.42181)
(1.46554 -0.080424 0 0.869649 0 1.41242)
(1.45898 -0.0839088 0 0.849982 0 1.40322)
(1.45222 -0.0869938 0 0.832988 0 1.39518)
(1.44729 -0.0899456 0 0.814613 0 1.38685)
(1.50977 -0.00411463 0 1.49855 0 1.50978)
(1.51844 -0.00585502 0 1.46075 0 1.51759)
(1.52823 -0.00840054 0 1.40247 0 1.52452)
(1.53472 -0.0122135 0 1.34198 0 1.52728)
(1.53717 -0.0162801 0 1.28551 0 1.52615)
(1.53668 -0.020403 0 1.23396 0 1.52229)
(1.53414 -0.0245803 0 1.18741 0 1.51665)
(1.53015 -0.0287368 0 1.14555 0 1.50983)
(1.52519 -0.0328193 0 1.10788 0 1.50231)
(1.51963 -0.0367793 0 1.07391 0 1.49439)
(1.51374 -0.0406105 0 1.04321 0 1.48634)
(1.50767 -0.0442684 0 1.01536 0 1.47826)
(1.50155 -0.0477566 0 0.99005 0 1.47032)
(1.49553 -0.0510062 0 0.966922 0 1.46252)
(1.48959 -0.0540241 0 0.945821 0 1.45503)
(1.48401 -0.0567673 0 0.926247 0 1.44776)
(1.47848 -0.0592084 0 0.908448 0 1.44097)
(1.47356 -0.0616342 0 0.890644 0 1.43419)
(1.50946 -0.00339029 0 1.49937 0 1.50954)
(1.51632 -0.00434604 0 1.46915 0 1.51608)
(1.52448 -0.0051153 0 1.42401 0 1.52273)
(1.53074 -0.00680792 0 1.37561 0 1.52679)
(1.53423 -0.00894495 0 1.32899 0 1.52799)
(1.53542 -0.0113499 0 1.28542 0 1.52695)
(1.53486 -0.0139874 0 1.24528 0 1.52426)
(1.53295 -0.0167677 0 1.20852 0 1.52038)
(1.53007 -0.0196103 0 1.17492 0 1.51567)
(1.5265 -0.0224545 0 1.14418 0 1.51042)
(1.52246 -0.0252643 0 1.11603 0 1.50483)
(1.51812 -0.0279944 0 1.09019 0 1.49904)
(1.5136 -0.030617 0 1.06645 0 1.49318)
(1.50901 -0.0330885 0 1.04455 0 1.48731)
(1.50443 -0.0353863 0 1.02433 0 1.48156)
(1.49998 -0.0375045 0 1.00551 0 1.47593)
(1.49571 -0.0394218 0 0.988026 0 1.47058)
(1.49157 -0.0413619 0 0.971187 0 1.46528)
(1.50951 -0.00299397 0 1.49931 0 1.50962)
(1.5153 -0.00361878 0 1.47355 0 1.51537)
(1.52212 -0.00352411 0 1.43711 0 1.52144)
(1.52788 -0.00402155 0 1.39714 0 1.52593)
(1.53176 -0.00497657 0 1.35753 0 1.52838)
(1.53389 -0.00627154 0 1.31968 0 1.52906)
(1.53458 -0.00785678 0 1.28415 0 1.52831)
(1.53409 -0.0096432 0 1.25111 0 1.52645)
(1.53268 -0.0115486 0 1.22048 0 1.52376)
(1.53058 -0.0135127 0 1.19214 0 1.52047)
(1.52797 -0.0154917 0 1.16592 0 1.51674)
(1.52498 -0.0174432 0 1.14164 0 1.51271)
(1.52174 -0.0193325 0 1.11914 0 1.50849)
(1.51835 -0.0211274 0 1.09823 0 1.50418)
(1.51487 -0.0228055 0 1.07877 0 1.49984)
(1.51141 -0.0243691 0 1.06057 0 1.49555)
(1.50792 -0.0258364 0 1.04357 0 1.49133)
(1.50428 -0.0273326 0 1.02753 0 1.48716)
(1.50947 -0.0024539 0 1.49948 0 1.5096)
(1.51438 -0.00306532 0 1.4772 0 1.51463)
(1.52006 -0.00262746 0 1.44724 0 1.51999)
(1.52515 -0.00241937 0 1.41401 0 1.52441)
(1.52897 -0.00255625 0 1.38045 0 1.52737)
(1.53149 -0.00301931 0 1.34786 0 1.52897)
(1.53285 -0.00378267 0 1.31683 0 1.52938)
(1.53321 -0.00477659 0 1.28762 0 1.52882)
(1.53276 -0.0059287 0 1.26025 0 1.52749)
(1.53167 -0.00718123 0 1.23466 0 1.52557)
(1.53008 -0.00848777 0 1.21077 0 1.52319)
(1.52811 -0.00980657 0 1.18847 0 1.52048)
(1.52586 -0.0111021 0 1.16763 0 1.51753)
(1.52341 -0.0123476 0 1.14813 0 1.51443)
(1.52085 -0.0135251 0 1.12985 0 1.51124)
(1.51821 -0.0146413 0 1.11268 0 1.50803)
(1.51551 -0.0157079 0 1.09657 0 1.50484)
(1.51247 -0.0168277 0 1.08157 0 1.50165)
(1.5095 -0.0020995 0 1.49944 0 1.50964)
(1.51385 -0.00273212 0 1.47947 0 1.51421)
(1.51866 -0.00217941 0 1.45408 0 1.51898)
(1.52313 -0.00160967 0 1.42587 0 1.52314)
(1.52673 -0.00127285 0 1.39696 0 1.52629)
(1.52938 -0.00122121 0 1.36846 0 1.5284)
(1.53111 -0.00144985 0 1.34097 0 1.52954)
(1.53202 -0.0019064 0 1.31476 0 1.52986)
(1.53223 -0.00253016 0 1.28994 0 1.5295)
(1.53187 -0.00326907 0 1.26652 0 1.52859)
(1.53105 -0.00407938 0 1.24448 0 1.52723)
(1.52985 -0.00492318 0 1.22373 0 1.52553)
(1.52837 -0.00576889 0 1.20421 0 1.52357)
(1.52668 -0.00659485 0 1.18584 0 1.52142)
(1.52482 -0.00738892 0 1.16852 0 1.51914)
(1.52283 -0.00815934 0 1.15221 0 1.51679)
(1.52064 -0.00893325 0 1.1369 0 1.51439)
(1.51805 -0.00975547 0 1.12272 0 1.51196)
(1.50947 -0.00168873 0 1.49956 0 1.50962)
(1.51335 -0.00234724 0 1.48147 0 1.51379)
(1.51744 -0.00182254 0 1.45961 0 1.518)
(1.52132 -0.00109243 0 1.43543 0 1.52183)
(1.52461 -0.000468034 0 1.41041 0 1.52493)
(1.52719 -5.8105e-05 0 1.38548 0 1.52725)
(1.52906 0.000114057 0 1.36116 0 1.5288)
(1.53026 7.75452e-05 0 1.33776 0 1.52966)
(1.53088 -0.000123086 0 1.3154 0 1.52993)
(1.531 -0.000444788 0 1.29414 0 1.5297)
(1.5307 -0.000849068 0 1.27397 0 1.52907)
(1.53007 -0.00130261 0 1.25486 0 1.52811)
(1.52916 -0.00177817 0 1.23677 0 1.52689)
(1.52803 -0.00225784 0 1.21965 0 1.52547)
(1.52673 -0.00273241 0 1.20344 0 1.5239)
(1.52525 -0.00320829 0 1.18813 0 1.52224)
(1.52355 -0.00369756 0 1.17373 0 1.52051)
(1.5214 -0.0042552 0 1.16042 0 1.51871)
(1.50944 -0.00142497 0 1.49966 0 1.50959)
(1.51302 -0.00208675 0 1.4828 0 1.5135)
(1.51662 -0.00162764 0 1.46331 0 1.51733)
(1.52005 -0.000864638 0 1.44196 0 1.52086)
(1.52303 -0.000120532 0 1.41977 0 1.52384)
(1.52549 0.000467545 0 1.39747 0 1.52621)
(1.52737 0.000858518 0 1.37553 0 1.52796)
(1.52872 0.00106483 0 1.35423 0 1.52914)
(1.52958 0.00111853 0 1.33372 0 1.52981)
(1.53 0.00105466 0 1.31408 0 1.53004)
(1.53006 0.000906081 0 1.29532 0 1.5299)
(1.5298 0.000701256 0 1.27745 0 1.52946)
(1.52929 0.000462944 0 1.26045 0 1.52876)
(1.52856 0.000205556 0 1.24428 0 1.52786)
(1.52763 -6.46029e-05 0 1.22892 0 1.5268)
(1.52652 -0.000353166 0 1.21438 0 1.52563)
(1.52513 -0.000676482 0 1.2007 0 1.52436)
(1.5233 -0.00104854 0 1.18804 0 1.52301)
(1.50937 -0.00115241 0 1.49983 0 1.50953)
(1.5127 -0.0017781 0 1.48405 0 1.51321)
(1.51589 -0.00139746 0 1.46649 0 1.5167)
(1.51891 -0.000657767 0 1.44747 0 1.51993)
(1.5216 0.00013605 0 1.42767 0 1.52275)
(1.52388 0.000833249 0 1.40766 0 1.52509)
(1.52572 0.00137846 0 1.38782 0 1.52694)
(1.52712 0.00176864 0 1.36842 0 1.52831)
(1.52811 0.00202329 0 1.34961 0 1.52924)
(1.52873 0.00216873 0 1.33148 0 1.52979)
(1.52903 0.00223143 0 1.31407 0 1.53001)
(1.52906 0.00223484 0 1.29739 0 1.52994)
(1.52884 0.00219751 0 1.28145 0 1.52964)
(1.52841 0.00213157 0 1.26623 0 1.52915)
(1.52779 0.0020423 0 1.25173 0 1.52849)
(1.52696 0.0019285 0 1.23798 0 1.52772)
(1.52586 0.00178481 0 1.22502 0 1.52684)
(1.52433 0.00158647 0 1.21299 0 1.52586)
(1.50928 -0.000924738 0 1.50005 0 1.50945)
(1.51238 -0.00149746 0 1.4852 0 1.51292)
(1.51522 -0.00120286 0 1.4693 0 1.51612)
(1.51787 -0.000531976 0 1.45234 0 1.51907)
(1.52027 0.000244758 0 1.43471 0 1.5217)
(1.52235 0.000977133 0 1.41681 0 1.52396)
(1.52409 0.00160139 0 1.39894 0 1.52583)
(1.52549 0.00210245 0 1.38133 0 1.52732)
(1.52656 0.00248888 0 1.36413 0 1.52845)
(1.52733 0.00277843 0 1.34744 0 1.52925)
(1.52782 0.00299091 0 1.33131 0 1.52976)
(1.52807 0.00314431 0 1.31577 0 1.53002)
(1.5281 0.00325291 0 1.30085 0 1.53006)
(1.52793 0.00332559 0 1.28655 0 1.52992)
(1.52756 0.00336586 0 1.27288 0 1.52962)
(1.52698 0.00337166 0 1.25988 0 1.52919)
(1.52613 0.00333552 0 1.2476 0 1.52865)
(1.52492 0.00327103 0 1.23614 0 1.52802)
(1.50917 -0.000652242 0 1.50035 0 1.50934)
(1.51203 -0.00109243 0 1.48642 0 1.51259)
(1.51455 -0.000857729 0 1.47198 0 1.51551)
(1.51686 -0.000276172 0 1.45684 0 1.51818)
(1.51896 0.000441134 0 1.44116 0 1.5206)
(1.52083 0.00116244 0 1.42519 0 1.52274)
(1.52244 0.00182336 0 1.40916 0 1.52457)
(1.52379 0.00240046 0 1.39325 0 1.52611)
(1.52488 0.00289232 0 1.3776 0 1.52736)
(1.52573 0.00330783 0 1.36231 0 1.52833)
(1.52635 0.00365944 0 1.34745 0 1.52906)
(1.52676 0.00395948 0 1.33305 0 1.52957)
(1.52698 0.00421808 0 1.31915 0 1.52988)
(1.52701 0.00444254 0 1.30578 0 1.53002)
(1.52686 0.00463656 0 1.29296 0 1.53001)
(1.5265 0.00480097 0 1.28072 0 1.52987)
(1.52589 0.00493323 0 1.26913 0 1.52962)
(1.52494 0.00500663 0 1.25827 0 1.52926)
(1.50903 -0.000448916 0 1.50069 0 1.5092)
(1.51167 -0.000762953 0 1.48755 0 1.51225)
(1.51394 -0.000587278 0 1.47426 0 1.51494)
(1.51599 -0.000125206 0 1.46056 0 1.51739)
(1.51784 0.000471804 0 1.44646 0 1.51962)
(1.5195 0.00109985 0 1.4321 0 1.52162)
(1.52097 0.00170189 0 1.41762 0 1.52339)
(1.52224 0.00225216 0 1.40317 0 1.52493)
(1.52331 0.00274321 0 1.38886 0 1.52623)
(1.52419 0.00317712 0 1.3748 0 1.52731)
(1.52488 0.00356001 0 1.36105 0 1.52818)
(1.5254 0.00389871 0 1.34766 0 1.52885)
(1.52575 0.00419912 0 1.33468 0 1.52936)
(1.52593 0.00446523 0 1.32214 0 1.52971)
(1.52594 0.00469941 0 1.31007 0 1.52992)
(1.52577 0.00490372 0 1.29851 0 1.53001)
(1.52538 0.00507989 0 1.2875 0 1.52999)
(1.52472 0.00525518 0 1.27711 0 1.52987)
(1.50889 -0.000180605 0 1.50104 0 1.50905)
(1.51133 -0.000257614 0 1.48859 0 1.51191)
(1.5134 -5.2114e-05 0 1.47619 0 1.51442)
(1.51524 0.000340447 0 1.46355 0 1.51669)
(1.51689 0.000837943 0 1.45064 0 1.51876)
(1.51839 0.00137804 0 1.4375 0 1.52064)
(1.51973 0.00192274 0 1.42421 0 1.52233)
(1.52092 0.00245212 0 1.4109 0 1.52383)
(1.52195 0.00295755 0 1.39765 0 1.52514)
(1.52282 0.0034369 0 1.38456 0 1.52627)
(1.52354 0.00389112 0 1.3717 0 1.52722)
(1.52411 0.00432221 0 1.35913 0 1.528)
(1.52454 0.00473183 0 1.34688 0 1.52862)
(1.52481 0.00512087 0 1.33502 0 1.5291)
(1.52493 0.00548845 0 1.32356 0 1.52946)
(1.52489 0.00583126 0 1.31254 0 1.52969)
(1.52466 0.00614336 0 1.30201 0 1.52981)
(1.52422 0.00639768 0 1.29201 0 1.52984)
(1.50877 -1.77909e-05 0 1.50131 0 1.50894)
(1.51109 8.09297e-05 0 1.48931 0 1.51166)
(1.51305 0.000279122 0 1.47738 0 1.51407)
(1.51479 0.00054865 0 1.46532 0 1.51624)
(1.51635 0.000865479 0 1.45305 0 1.51822)
(1.51776 0.00120908 0 1.44058 0 1.52003)
(1.51904 0.00156515 0 1.42797 0 1.52168)
(1.52018 0.00192447 0 1.4153 0 1.52315)
(1.52119 0.00228131 0 1.40268 0 1.52445)
(1.52207 0.00263228 0 1.39017 0 1.52559)
(1.5228 0.00297533 0 1.37785 0 1.52657)
(1.52341 0.00330919 0 1.36577 0 1.52739)
(1.52389 0.00363309 0 1.35398 0 1.52808)
(1.52423 0.003947 0 1.34251 0 1.52863)
(1.52445 0.00425163 0 1.3314 0 1.52905)
(1.52452 0.0045507 0 1.32069 0 1.52937)
(1.52444 0.00484836 0 1.31039 0 1.52957)
(1.52418 0.00516962 0 1.30055 0 1.52968)
(1.50879 0.000330397 0 1.50125 0 1.50896)
(1.51113 0.000816411 0 1.48914 0 1.5117)
(1.51313 0.00117099 0 1.4771 0 1.51413)
(1.51489 0.00145684 0 1.4649 0 1.51632)
(1.51647 0.00172428 0 1.45248 0 1.51832)
(1.5179 0.00200599 0 1.43985 0 1.52013)
(1.51917 0.00232 0 1.4271 0 1.52177)
(1.52031 0.00267352 0 1.4143 0 1.52323)
(1.5213 0.00306679 0 1.40156 0 1.52451)
(1.52214 0.00349601 0 1.38894 0 1.52562)
(1.52284 0.00395533 0 1.37652 0 1.52656)
(1.52341 0.0044378 0 1.36435 0 1.52734)
(1.52384 0.00493593 0 1.35247 0 1.52798)
(1.52416 0.00544176 0 1.34092 0 1.52848)
(1.52435 0.00594646 0 1.32971 0 1.52887)
(1.52444 0.00643942 0 1.31887 0 1.52915)
(1.52444 0.00690773 0 1.3084 0 1.52933)
(1.52435 0.00732602 0 1.29832 0 1.52945)
(1.50903 0.000513419 0 1.50077 0 1.50917)
(1.5117 0.00114891 0 1.48779 0 1.5122)
(1.514 0.00143636 0 1.47472 0 1.51487)
(1.51606 0.00153331 0 1.4613 0 1.51729)
(1.51793 0.00155678 0 1.44754 0 1.51949)
(1.51962 0.00158137 0 1.43353 0 1.52147)
(1.52113 0.00164799 0 1.41941 0 1.52323)
(1.52245 0.00177326 0 1.40532 0 1.52476)
(1.52358 0.00195896 0 1.39136 0 1.52607)
(1.52453 0.00219886 0 1.37762 0 1.52716)
(1.5253 0.00248276 0 1.36417 0 1.52805)
(1.52591 0.00279879 0 1.35106 0 1.52876)
(1.52635 0.00313497 0 1.33834 0 1.52929)
(1.52665 0.00348005 0 1.32602 0 1.52966)
(1.52681 0.00382556 0 1.31413 0 1.52989)
(1.52682 0.00416699 0 1.3027 0 1.52999)
(1.52669 0.00450886 0 1.29172 0 1.52995)
(1.52639 0.00487823 0 1.28123 0 1.52979)
(1.50921 0.000880622 0 1.50031 0 1.50935)
(1.5122 0.00180505 0 1.48618 0 1.51268)
(1.51488 0.0021201 0 1.47148 0 1.51567)
(1.51735 0.00215501 0 1.45608 0 1.51841)
(1.51958 0.00211273 0 1.44016 0 1.52087)
(1.52157 0.00210406 0 1.42398 0 1.52303)
(1.52328 0.00218186 0 1.40775 0 1.52488)
(1.52473 0.00236152 0 1.39165 0 1.52642)
(1.5259 0.00263827 0 1.37583 0 1.52766)
(1.52682 0.00299895 0 1.36037 0 1.52862)
(1.5275 0.00342822 0 1.34536 0 1.52932)
(1.52796 0.00391162 0 1.33082 0 1.52979)
(1.52822 0.0044372 0 1.3168 0 1.53005)
(1.5283 0.00499668 0 1.30331 0 1.53013)
(1.52822 0.00558508 0 1.29035 0 1.53004)
(1.52801 0.00620071 0 1.27791 0 1.52982)
(1.52769 0.00683914 0 1.26599 0 1.52948)
(1.52734 0.00747619 0 1.25454 0 1.52909)
(1.50941 0.0011483 0 1.49989 0 1.50952)
(1.51279 0.00218606 0 1.48441 0 1.51317)
(1.51598 0.00241441 0 1.46748 0 1.51657)
(1.519 0.0023478 0 1.44927 0 1.5197)
(1.52172 0.00223858 0 1.43036 0 1.52245)
(1.52406 0.00220425 0 1.41125 0 1.52476)
(1.52599 0.00229637 0 1.39227 0 1.5266)
(1.52752 0.00252431 0 1.37367 0 1.52801)
(1.52866 0.00287554 0 1.35559 0 1.52901)
(1.52946 0.00333017 0 1.33812 0 1.52965)
(1.52996 0.00386711 0 1.3213 0 1.52997)
(1.53019 0.00446592 0 1.30515 0 1.53002)
(1.53019 0.00510737 0 1.28967 0 1.52983)
(1.53 0.00577263 0 1.27486 0 1.52944)
(1.52965 0.00644308 0 1.2607 0 1.5289)
(1.52916 0.00709855 0 1.24718 0 1.52821)
(1.52853 0.00772401 0 1.23429 0 1.5274)
(1.52769 0.00833378 0 1.22205 0 1.52643)
(1.50954 0.00171786 0 1.4995 0 1.50965)
(1.51348 0.00296837 0 1.48187 0 1.51377)
(1.51749 0.00320622 0 1.46121 0 1.51782)
(1.5213 0.00325193 0 1.43853 0 1.52149)
(1.5246 0.00338231 0 1.41504 0 1.52453)
(1.52729 0.00367623 0 1.39152 0 1.52688)
(1.52934 0.00415333 0 1.36844 0 1.52855)
(1.5308 0.00479545 0 1.34608 0 1.5296)
(1.53172 0.0055677 0 1.3246 0 1.53011)
(1.53217 0.00643622 0 1.30406 0 1.53016)
(1.53223 0.00737293 0 1.28449 0 1.52981)
(1.53194 0.00835493 0 1.26588 0 1.52913)
(1.53137 0.00936428 0 1.24821 0 1.52818)
(1.53056 0.0103889 0 1.23145 0 1.527)
(1.52953 0.0114234 0 1.21558 0 1.52564)
(1.52832 0.0124745 0 1.20056 0 1.52412)
(1.52696 0.0135585 0 1.18635 0 1.52248)
(1.52563 0.014683 0 1.17286 0 1.52083)
(1.50958 0.00208927 0 1.49946 0 1.50966)
(1.51414 0.00344733 0 1.4793 0 1.51425)
(1.51921 0.00384184 0 1.45348 0 1.519)
(1.52394 0.00424286 0 1.42484 0 1.5231)
(1.52775 0.00483006 0 1.39564 0 1.52612)
(1.53053 0.00561076 0 1.367 0 1.52804)
(1.53234 0.00659009 0 1.33946 0 1.52897)
(1.53331 0.00774464 0 1.31327 0 1.52907)
(1.53356 0.00903077 0 1.28849 0 1.52848)
(1.53322 0.0104091 0 1.26512 0 1.52734)
(1.53242 0.0118495 0 1.24311 0 1.52577)
(1.53125 0.013328 0 1.22238 0 1.52386)
(1.52978 0.0148257 0 1.20286 0 1.5217)
(1.52811 0.0163272 0 1.18448 0 1.51934)
(1.52629 0.0178176 0 1.16715 0 1.51687)
(1.52438 0.0192712 0 1.15079 0 1.51431)
(1.52247 0.0206457 0 1.13533 0 1.51174)
(1.52039 0.0218908 0 1.12078 0 1.50909)
(1.50975 0.00299201 0 1.49899 0 1.5098)
(1.51561 0.0046646 0 1.4738 0 1.51542)
(1.52241 0.00577386 0 1.43884 0 1.52123)
(1.5283 0.0073456 0 1.40044 0 1.52561)
(1.53249 0.00924954 0 1.36215 0 1.52813)
(1.53503 0.0113109 0 1.32538 0 1.52899)
(1.53615 0.0134868 0 1.29067 0 1.52849)
(1.5361 0.0157431 0 1.25822 0 1.52691)
(1.53514 0.0180278 0 1.22803 0 1.5245)
(1.53347 0.020305 0 1.19998 0 1.52148)
(1.53127 0.0225549 0 1.17394 0 1.51802)
(1.52868 0.0247635 0 1.14975 0 1.51424)
(1.5258 0.0269192 0 1.12727 0 1.51025)
(1.52272 0.029012 0 1.10635 0 1.50613)
(1.51947 0.0310317 0 1.08686 0 1.50192)
(1.5161 0.0329772 0 1.06871 0 1.49767)
(1.51253 0.0348639 0 1.05183 0 1.49334)
(1.50904 0.0367806 0 1.03613 0 1.48912)
(1.50955 0.003344 0 1.4994 0 1.50953)
(1.51696 0.00624973 0 1.46778 0 1.51607)
(1.52587 0.0094109 0 1.41963 0 1.52244)
(1.5325 0.0131241 0 1.36899 0 1.52577)
(1.53607 0.0169339 0 1.32084 0 1.52603)
(1.53706 0.0206491 0 1.27634 0 1.52393)
(1.53611 0.0243206 0 1.23557 0 1.52015)
(1.53375 0.0279818 0 1.1983 0 1.51519)
(1.53039 0.0315832 0 1.16425 0 1.50946)
(1.52635 0.03509 0 1.13311 0 1.50325)
(1.52186 0.0384885 0 1.10456 0 1.49677)
(1.51711 0.041771 0 1.07833 0 1.49017)
(1.51221 0.0449336 0 1.05418 0 1.48354)
(1.50726 0.0479787 0 1.03189 0 1.47698)
(1.50234 0.0509115 0 1.01128 0 1.47054)
(1.49753 0.0537412 0 0.992182 0 1.46426)
(1.49306 0.0564592 0 0.974393 0 1.45827)
(1.48882 0.0589006 0 0.9579 0 1.45258)
(1.51072 0.00497544 0 1.49654 0 1.51053)
(1.52207 0.0113421 0 1.44806 0 1.51931)
(1.53418 0.0199234 0 1.37297 0 1.5252)
(1.54096 0.028561 0 1.29835 0 1.52507)
(1.54241 0.0362366 0 1.23091 0 1.52024)
(1.53998 0.0428518 0 1.17121 0 1.51232)
(1.53501 0.0487436 0 1.11858 0 1.50254)
(1.52854 0.0541957 0 1.07217 0 1.49178)
(1.52119 0.059247 0 1.03118 0 1.48061)
(1.51338 0.0639453 0 0.994797 0 1.46938)
(1.5054 0.0683411 0 0.962338 0 1.4583)
(1.49746 0.0724675 0 0.933237 0 1.44752)
(1.48966 0.0763453 0 0.907021 0 1.43711)
(1.48211 0.0799979 0 0.883307 0 1.42714)
(1.47479 0.0834294 0 0.861754 0 1.41757)
(1.46781 0.0866534 0 0.842123 0 1.40848)
(1.46072 0.0896175 0 0.82411 0 1.39959)
(1.45379 0.0924055 0 0.807907 0 1.39118)
(1.50985 0.00579201 0 1.49843 0 1.50915)
(1.52695 0.0254772 0 1.42428 0 1.5175)
(1.54204 0.0456204 0 1.31349 0 1.51585)
(1.54567 0.0605846 0 1.21739 0 1.50428)
(1.54103 0.0721923 0 1.13757 0 1.48739)
(1.53132 0.0816029 0 1.07066 0 1.46795)
(1.51918 0.0898271 0 1.01364 0 1.44775)
(1.50649 0.0974069 0 0.964642 0 1.42809)
(1.49374 0.104324 0 0.922228 0 1.40931)
(1.4813 0.110645 0 0.885183 0 1.39156)
(1.46938 0.116449 0 0.852572 0 1.37489)
(1.45814 0.121803 0 0.823663 0 1.35933)
(1.44752 0.126745 0 0.797851 0 1.34476)
(1.43764 0.13133 0 0.774704 0 1.33123)
(1.42841 0.135602 0 0.753764 0 1.31855)
(1.41982 0.139567 0 0.734895 0 1.30681)
(1.41205 0.143424 0 0.717491 0 1.29576)
(1.40572 0.146741 0 0.702342 0 1.28624)
(1.5189 0.0284578 0 1.47294 0 1.51483)
(1.5634 0.112012 0 1.26339 0 1.5187)
(1.58322 0.161034 0 1.03773 0 1.48715)
(1.57566 0.181968 0 0.887075 0 1.44363)
(1.55682 0.192574 0 0.784414 0 1.39973)
(1.53312 0.198864 0 0.71151 0 1.35826)
(1.5104 0.204093 0 0.657354 0 1.32169)
(1.49089 0.209172 0 0.615979 0 1.29073)
(1.47352 0.213965 0 0.583094 0 1.26373)
(1.45807 0.218424 0 0.556241 0 1.23994)
(1.4442 0.222522 0 0.533889 0 1.21871)
(1.43203 0.226319 0 0.515003 0 1.19987)
(1.42106 0.229808 0 0.498783 0 1.18281)
(1.41162 0.233043 0 0.484771 0 1.16767)
(1.40294 0.23604 0 0.472481 0 1.15371)
(1.39572 0.238802 0 0.461701 0 1.14141)
(1.38869 0.241429 0 0.45213 0 1.12977)
(1.38182 0.243638 0 0.443384 0 1.11897)
(1.59274 0.291964 0 1.39581 0 1.52093)
(1.91623 0.578695 0 0.968062 0 1.53309)
(2.06904 0.585628 0 0.732307 0 1.489)
(2.10354 0.552957 0 0.62817 0 1.4353)
(2.09257 0.525595 0 0.573913 0 1.38572)
(2.06471 0.505459 0 0.540745 0 1.34258)
(2.03087 0.489969 0 0.517687 0 1.3053)
(1.99599 0.477438 0 0.50011 0 1.27298)
(1.96241 0.466924 0 0.485831 0 1.24469)
(1.93096 0.457837 0 0.473782 0 1.21967)
(1.90183 0.449829 0 0.463378 0 1.19735)
(1.87492 0.442676 0 0.454247 0 1.1773)
(1.85022 0.43624 0 0.44615 0 1.1592)
(1.82736 0.430402 0 0.438897 0 1.14273)
(1.80648 0.425077 0 0.432361 0 1.12778)
(1.78693 0.420229 0 0.426452 0 1.114)
(1.76928 0.415686 0 0.421017 0 1.10152)
(1.75226 0.411477 0 0.416165 0 1.08976)
(0.00819405 0.00289952 0 0.0295786 0 0.0240241)
(0.0215115 -9.41465e-06 0 0.0444333 0 0.0515779)
(0.0371012 -0.00165216 0 0.057651 0 0.0743297)
(0.0494504 -0.00582992 0 0.0642547 0 0.0869954)
(0.0606681 -0.00984997 0 0.0681044 0 0.0961794)
(0.070866 -0.0123419 0 0.0682758 0 0.102598)
(0.0799361 -0.0139745 0 0.0673923 0 0.1073)
(0.0877839 -0.0152447 0 0.0660001 0 0.110656)
(0.0947249 -0.0163305 0 0.0645319 0 0.113175)
(0.100943 -0.0173605 0 0.063027 0 0.115091)
(0.106644 -0.0183712 0 0.0615437 0 0.116612)
(0.111947 -0.0193716 0 0.0600674 0 0.117849)
(0.116951 -0.020347 0 0.0586143 0 0.118892)
(0.121705 -0.0212867 0 0.0571916 0 0.119788)
(0.126233 -0.0221853 0 0.0558166 0 0.120568)
(0.13055 -0.0230512 0 0.0545001 0 0.121249)
(0.134644 -0.0238951 0 0.0532454 0 0.121828)
(0.138573 -0.0247448 0 0.0520558 0 0.122323)
(0.142243 -0.0255936 0 0.0509152 0 0.122703)
(0.145987 -0.0265089 0 0.0498027 0 0.123016)
(0.148821 -0.0269687 0 0.0487537 0 0.123176)
(0.151585 -0.0270282 0 0.0468847 0 0.122377)
(0.152499 -0.0270091 0 0.0458839 0 0.12176)
(0.153073 -0.0267873 0 0.044499 0 0.120605)
(0.152705 -0.0262302 0 0.0428347 0 0.118703)
(0.151092 -0.0254267 0 0.0409942 0 0.11601)
(0.148191 -0.0243551 0 0.0389658 0 0.112492)
(0.143877 -0.0229746 0 0.0367459 0 0.108102)
(0.138151 -0.0213616 0 0.0343061 0 0.102762)
(0.131004 -0.0194907 0 0.0316815 0 0.0965192)
(0.122045 -0.0173673 0 0.0288581 0 0.0891587)
(0.110831 -0.0150743 0 0.0258055 0 0.0804233)
(0.0976183 -0.0127475 0 0.0225761 0 0.0705216)
(0.0821051 -0.0105606 0 0.0191179 0 0.0592603)
(0.0711209 -0.00822732 0 0.0159548 0 0.0508362)
(0.0664221 -0.00580573 0 0.0135857 0 0.0464363)
(0.0666353 -0.00348936 0 0.0121374 0 0.0453205)
(0.0683263 -0.00257437 0 0.0117661 0 0.0459295)
(0.0699941 -0.00195174 0 0.0118268 0 0.0470843)
(0.0703972 -0.00210603 0 0.0119851 0 0.0476018)
(0.0694551 -0.00245467 0 0.0119238 0 0.0470365)
(0.065914 -0.00259093 0 0.0115188 0 0.0447929)
(0.0585383 -0.00207653 0 0.0105487 0 0.0402624)
(0.0511743 -0.00100239 0 0.00961272 0 0.0361139)
(0.0493338 0.000276091 0 0.00985745 0 0.036155)
(0.0562106 0.00205346 0 0.011727 0 0.0419104)
(0.0678944 0.00419112 0 0.0148011 0 0.0509465)
(0.0824649 0.00648489 0 0.0186007 0 0.0619736)
(0.0996933 0.00887374 0 0.0229006 0 0.0748173)
(0.120045 0.0113536 0 0.0275985 0 0.0897786)
(0.145123 0.0139977 0 0.0325693 0 0.107858)
(0.167268 0.0168339 0 0.0370976 0 0.123763)
(0.187337 0.0196714 0 0.0413983 0 0.138268)
(0.205719 0.0224328 0 0.0454833 0 0.15161)
(0.222768 0.0250743 0 0.0493801 0 0.164011)
(0.238681 0.0275857 0 0.0530898 0 0.175591)
(0.253625 0.0299615 0 0.0566234 0 0.186459)
(0.267729 0.0322081 0 0.0599926 0 0.196706)
(0.281106 0.0343344 0 0.0632113 0 0.206414)
(0.293863 0.0363523 0 0.0662959 0 0.215661)
(0.306122 0.0382712 0 0.0692638 0 0.224541)
(0.317956 0.0400988 0 0.0721268 0 0.233109)
(0.329396 0.0418439 0 0.0748936 0 0.241389)
(0.340471 0.0435155 0 0.0775732 0 0.249405)
(0.351205 0.0451215 0 0.080174 0 0.257177)
(0.361626 0.0466691 0 0.0827041 0 0.264724)
(0.371756 0.0481643 0 0.0851709 0 0.272064)
(0.381618 0.0496125 0 0.0875807 0 0.279215)
(0.391232 0.051018 0 0.0899389 0 0.286191)
(0.400615 0.0523843 0 0.0922502 0 0.293004)
(0.40978 0.0537144 0 0.0945181 0 0.299665)
(0.418738 0.0550106 0 0.0967454 0 0.30618)
(0.427496 0.0562745 0 0.0989342 0 0.312556)
(0.436056 0.0575079 0 0.101086 0 0.318793)
(0.44442 0.0587121 0 0.103201 0 0.324895)
(0.452587 0.0598886 0 0.105282 0 0.33086)
(0.460563 0.0610388 0 0.10733 0 0.336694)
(0.468366 0.0621624 0 0.109347 0 0.342411)
(0.476013 0.0632578 0 0.111336 0 0.348026)
(0.483502 0.0643226 0 0.113295 0 0.353538)
(0.49083 0.0653549 0 0.115224 0 0.358946)
(0.497986 0.0663521 0 0.117119 0 0.364247)
(0.504954 0.0673107 0 0.118976 0 0.369431)
(0.511709 0.068226 0 0.120792 0 0.374488)
(0.518213 0.0690921 0 0.122559 0 0.379399)
(0.524408 0.0698987 0 0.124269 0 0.38414)
(0.530211 0.0706207 0 0.125912 0 0.38868)
(0.535503 0.0711842 0 0.127478 0 0.39298)
(0.540165 0.0714047 0 0.128959 0 0.39702)
(0.545001 0.0716917 0 0.130497 0 0.401143)
(0.549645 0.0719094 0 0.132021 0 0.405174)
(0.554303 0.0721179 0 0.133578 0 0.409215)
(0.558923 0.0723212 0 0.135158 0 0.413227)
(0.563544 0.0725447 0 0.136777 0 0.417232)
(0.568095 0.0727595 0 0.138424 0 0.421213)
(0.57255 0.0729385 0 0.140089 0 0.425167)
(0.576923 0.0730762 0 0.141774 0 0.429102)
(0.581193 0.0731667 0 0.143473 0 0.433008)
(0.585354 0.0732078 0 0.145188 0 0.436883)
(0.589399 0.0731959 0 0.146922 0 0.440724)
(0.593315 0.0731234 0 0.148673 0 0.444519)
(0.597064 0.0729765 0 0.150424 0 0.448241)
(0.600628 0.0727514 0 0.152168 0 0.451877)
(0.60398 0.0724449 0 0.153896 0 0.455405)
(0.607097 0.0720576 0 0.155603 0 0.458805)
(0.609948 0.0715913 0 0.157281 0 0.462053)
(0.6125 0.0710504 0 0.158925 0 0.465122)
(0.614724 0.0704388 0 0.160528 0 0.467993)
(0.616664 0.069746 0 0.1621 0 0.470707)
(0.618353 0.0689619 0 0.163642 0 0.473287)
(0.619796 0.0680853 0 0.165154 0 0.475734)
(0.620991 0.067115 0 0.166634 0 0.478045)
(0.621938 0.0660504 0 0.168082 0 0.480219)
(0.622637 0.0648909 0 0.169496 0 0.482256)
(0.623095 0.0636348 0 0.170878 0 0.484158)
(0.62332 0.0622801 0 0.17223 0 0.485932)
(0.623315 0.0608244 0 0.173551 0 0.48758)
(0.623081 0.0592644 0 0.174845 0 0.489106)
(0.622606 0.0575916 0 0.176115 0 0.490514)
(0.621874 0.0557754 0 0.177382 0 0.491824)
(0.620937 0.0538279 0 0.178632 0 0.493016)
(0.619961 0.0518003 0 0.179829 0 0.494069)
(0.618953 0.0497986 0 0.18093 0 0.494969)
(0.617807 0.0477485 0 0.181992 0 0.495771)
(0.616499 0.0455678 0 0.183056 0 0.496503)
(0.615187 0.0434838 0 0.184004 0 0.497079)
(0.612599 0.040497 0 0.185231 0 0.497653)
(0.610889 0.0379575 0 0.186232 0 0.498083)
(0.608752 0.0352166 0 0.187201 0 0.498359)
(0.606608 0.0323925 0 0.188148 0 0.498564)
(0.604332 0.029453 0 0.189054 0 0.498656)
(0.601992 0.0264096 0 0.189928 0 0.498658)
(0.599585 0.0232573 0 0.190767 0 0.498568)
(0.59714 0.0199983 0 0.191569 0 0.498391)
(0.594651 0.0166501 0 0.192303 0 0.498095)
(0.592139 0.0132201 0 0.192963 0 0.497691)
(0.589648 0.009693 0 0.193575 0 0.49722)
(0.58719 0.00605642 0 0.194157 0 0.496697)
(0.584768 0.00235415 0 0.194658 0 0.496072)
(0.582448 -0.00143054 0 0.195108 0 0.4954)
(0.580233 -0.00527748 0 0.195474 0 0.494654)
(0.578136 -0.00917053 0 0.195753 0 0.493839)
(0.57618 -0.0130983 0 0.195946 0 0.492964)
(0.574386 -0.0170498 0 0.19605 0 0.492033)
(0.572774 -0.0210118 0 0.196063 0 0.491055)
(0.571356 -0.024969 0 0.195985 0 0.490032)
(0.57015 -0.0289075 0 0.195815 0 0.488974)
(0.569167 -0.032814 0 0.195559 0 0.487885)
(0.568413 -0.0366825 0 0.195223 0 0.486771)
(0.567894 -0.0405127 0 0.19481 0 0.485642)
(0.56766 -0.0442846 0 0.194331 0 0.484537)
(0.567725 -0.047977 0 0.193805 0 0.483449)
(0.568089 -0.0519254 0 0.193344 0 0.482419)
(0.569357 -0.056308 0 0.192759 0 0.481923)
(0.571613 -0.0602677 0 0.191922 0 0.482055)
(0.57429 -0.0636785 0 0.191025 0 0.48234)
(0.577102 -0.0667839 0 0.190141 0 0.482599)
(0.579935 -0.0696703 0 0.189312 0 0.482845)
(0.582474 -0.0718785 0 0.187935 0 0.482804)
(0.58364 -0.0727697 0 0.185984 0 0.482178)
(0.584591 -0.0736694 0 0.18411 0 0.481352)
(0.585587 -0.0746393 0 0.182693 0 0.480763)