/*--------------------------------*- C++ -*----------------------------------*\
| =========                 |                                                 |
| \\      /  F ield         | OpenFOAM: The Open Source CFD Toolbox           |
|  \\    /   O peration     | Version:  v1906                                 |
|   \\  /    A nd           | Web:      www.OpenFOAM.com                      |
|    \\/     M anipulation  |                                                 |
\*---------------------------------------------------------------------------*/
FoamFile
{
    version     2.0;
    format      ascii;
    class       volVectorField;
    location    "1500";
    object      U;
}
// * * * * * * * * * * * * * * * * * * * * * * * * * * * * * * * * * * * * * //

dimensions      [0 1 -1 0 0 0 0];


internalField   nonuniform List<vector> 
12225
(
(9.79726 -0.108747 0)
(9.50667 -0.356749 0)
(9.26431 -0.488257 0)
(9.06582 -0.540799 0)
(8.90277 -0.559417 0)
(8.76155 -0.565079 0)
(8.63524 -0.565498 0)
(8.52177 -0.563455 0)
(8.41977 -0.560026 0)
(8.32781 -0.555789 0)
(8.24485 -0.550834 0)
(8.16876 -0.545169 0)
(8.09922 -0.539274 0)
(8.03595 -0.533406 0)
(7.97954 -0.527757 0)
(7.93102 -0.523686 0)
(7.89149 -0.515987 0)
(7.86747 -0.536185 0)
(10.0492 0.150445 0)
(10.0911 0.259755 0)
(10.0684 0.319258 0)
(10.0256 0.363338 0)
(9.98273 0.392952 0)
(9.93992 0.411595 0)
(9.89708 0.423542 0)
(9.85551 0.431342 0)
(9.81582 0.436187 0)
(9.77779 0.43894 0)
(9.74163 0.440196 0)
(9.70738 0.440405 0)
(9.67516 0.439625 0)
(9.64469 0.438124 0)
(9.61611 0.43542 0)
(9.58838 0.43277 0)
(9.56415 0.425278 0)
(9.53801 0.421548 0)
(10.0166 0.00776041 0)
(10.0499 -0.0105699 0)
(10.0414 -0.0528488 0)
(10.0181 -0.0930166 0)
(9.99659 -0.127409 0)
(9.97687 -0.155759 0)
(9.95795 -0.17805 0)
(9.94013 -0.195399 0)
(9.92341 -0.209144 0)
(9.9076 -0.220285 0)
(9.89251 -0.229334 0)
(9.87838 -0.236756 0)
(9.86505 -0.242938 0)
(9.85293 -0.248521 0)
(9.8414 -0.2536 0)
(9.83121 -0.259537 0)
(9.82173 -0.265388 0)
(9.80525 -0.27989 0)
(10.0096 0.058297 0)
(10.039 0.0976491 0)
(10.0507 0.115041 0)
(10.0511 0.13412 0)
(10.0491 0.153004 0)
(10.0451 0.169442 0)
(10.0392 0.183441 0)
(10.0323 0.195235 0)
(10.0251 0.205009 0)
(10.0179 0.213066 0)
(10.0107 0.219763 0)
(10.0037 0.225348 0)
(9.99713 0.229912 0)
(9.99115 0.233458 0)
(9.98562 0.236016 0)
(9.98071 0.23726 0)
(9.97621 0.237258 0)
(9.9733 0.234553 0)
(10.0094 0.0199314 0)
(10.0406 0.0291428 0)
(10.0562 0.0220248 0)
(10.0605 0.0109958 0)
(10.0617 -0.00217844 0)
(10.0613 -0.0165683 0)
(10.0596 -0.0305066 0)
(10.0574 -0.0432283 0)
(10.0551 -0.0547097 0)
(10.0527 -0.065063 0)
(10.0503 -0.0743882 0)
(10.048 -0.0828386 0)
(10.0459 -0.090638 0)
(10.0439 -0.0980896 0)
(10.0423 -0.105406 0)
(10.0403 -0.113205 0)
(10.0389 -0.121108 0)
(10.0315 -0.131654 0)
(10.0058 0.0332927 0)
(10.0286 0.0620269 0)
(10.045 0.07314 0)
(10.0548 0.0812298 0)
(10.0624 0.0887934 0)
(10.0682 0.0958552 0)
(10.0723 0.102744 0)
(10.0753 0.109412 0)
(10.0776 0.115628 0)
(10.0795 0.121288 0)
(10.0809 0.126391 0)
(10.0822 0.130943 0)
(10.0835 0.134908 0)
(10.0847 0.138184 0)
(10.0859 0.140754 0)
(10.0871 0.142365 0)
(10.0879 0.14319 0)
(10.0905 0.14322 0)
(10.0046 0.0160088 0)
(10.0242 0.0297844 0)
(10.04 0.0320844 0)
(10.0497 0.0302723 0)
(10.0569 0.0260019 0)
(10.0622 0.0198747 0)
(10.066 0.0129096 0)
(10.069 0.00573053 0)
(10.0716 -0.00142054 0)
(10.0739 -0.00841848 0)
(10.076 -0.0151895 0)
(10.078 -0.02174 0)
(10.0799 -0.0281409 0)
(10.0817 -0.0345391 0)
(10.0835 -0.0409972 0)
(10.0847 -0.0478168 0)
(10.0855 -0.0545921 0)
(10.0828 -0.062686 0)
(10.0032 0.0203368 0)
(10.0185 0.0433809 0)
(10.0327 0.0543386 0)
(10.0435 0.0608341 0)
(10.0528 0.0654214 0)
(10.0607 0.0690075 0)
(10.0674 0.0723106 0)
(10.0733 0.0755769 0)
(10.0785 0.0787763 0)
(10.0833 0.0818486 0)
(10.0877 0.0847508 0)
(10.0918 0.0874276 0)
(10.0957 0.0898157 0)
(10.0995 0.0918213 0)
(10.103 0.0934117 0)
(10.1063 0.0944899 0)
(10.1093 0.0951063 0)
(10.1136 0.0958641 0)
(10.0019 0.0115471 0)
(10.0136 0.024813 0)
(10.0263 0.0301479 0)
(10.0364 0.03169 0)
(10.045 0.0308629 0)
(10.0521 0.0283453 0)
(10.058 0.0248468 0)
(10.0632 0.020795 0)
(10.0677 0.0164026 0)
(10.0719 0.0118016 0)
(10.0757 0.0070776 0)
(10.0793 0.00226002 0)
(10.0827 -0.00265631 0)
(10.0859 -0.00772483 0)
(10.0888 -0.0129394 0)
(10.0911 -0.0184074 0)
(10.0929 -0.0238532 0)
(10.0923 -0.0301329 0)
(10.0017 0.0127412 0)
(10.0116 0.0307495 0)
(10.023 0.0410527 0)
(10.0329 0.0473258 0)
(10.042 0.0513058 0)
(10.0503 0.0539623 0)
(10.0576 0.0560155 0)
(10.0644 0.0578194 0)
(10.0706 0.0595003 0)
(10.0763 0.061097 0)
(10.0817 0.0626118 0)
(10.0868 0.0640179 0)
(10.0917 0.06528 0)
(10.0963 0.0663468 0)
(10.1006 0.067209 0)
(10.1047 0.0678568 0)
(10.1085 0.0683158 0)
(10.1133 0.069276 0)
(10.0007 0.00804424 0)
(10.0075 0.0192143 0)
(10.0171 0.0250621 0)
(10.026 0.0278112 0)
(10.0344 0.0284289 0)
(10.0419 0.0275518 0)
(10.0485 0.0257193 0)
(10.0545 0.023259 0)
(10.0599 0.0203572 0)
(10.0649 0.0171309 0)
(10.0695 0.013655 0)
(10.0738 0.00996677 0)
(10.0778 0.00608521 0)
(10.0815 0.00200445 0)
(10.0849 -0.00225016 0)
(10.0876 -0.00671678 0)
(10.09 -0.0112233 0)
(10.0909 -0.0163783 0)
(10.0008 0.00819705 0)
(10.0074 0.0215369 0)
(10.0162 0.0301457 0)
(10.0247 0.0357442 0)
(10.0331 0.0392695 0)
(10.0409 0.041477 0)
(10.0482 0.0429318 0)
(10.0549 0.0439682 0)
(10.0612 0.0447652 0)
(10.0671 0.0454158 0)
(10.0727 0.0459657 0)
(10.078 0.0464272 0)
(10.083 0.0468032 0)
(10.0877 0.047083 0)
(10.0921 0.047287 0)
(10.0963 0.0474413 0)
(10.1001 0.0475795 0)
(10.1045 0.0483215 0)
(10.0002 0.00574814 0)
(10.0046 0.0146587 0)
(10.0118 0.0199367 0)
(10.0194 0.0228854 0)
(10.0271 0.0240282 0)
(10.0343 0.0239005 0)
(10.041 0.0228995 0)
(10.0472 0.0212857 0)
(10.0529 0.0192224 0)
(10.0582 0.0168129 0)
(10.0632 0.0141234 0)
(10.0678 0.0111937 0)
(10.0721 0.00804936 0)
(10.0761 0.00470741 0)
(10.0797 0.0011851 0)
(10.0828 -0.00251585 0)
(10.0856 -0.00633568 0)
(10.0876 -0.0107712 0)
(10.0005 0.00540115 0)
(10.005 0.0152134 0)
(10.0118 0.0222935 0)
(10.019 0.02739 0)
(10.0264 0.0308856 0)
(10.0337 0.0332959 0)
(10.0406 0.0350153 0)
(10.0473 0.0363136 0)
(10.0535 0.0373645 0)
(10.0595 0.0382734 0)
(10.0651 0.0391042 0)
(10.0705 0.0398912 0)
(10.0755 0.0406594 0)
(10.0802 0.0414225 0)
(10.0847 0.0422138 0)
(10.0889 0.0430805 0)
(10.0928 0.0440199 0)
(10.0966 0.0456291 0)
(10.0001 0.00342277 0)
(10.0028 0.00903755 0)
(10.008 0.0124889 0)
(10.0141 0.014395 0)
(10.0207 0.0149834 0)
(10.0273 0.0145798 0)
(10.0337 0.0134312 0)
(10.0398 0.0117111 0)
(10.0456 0.00953955 0)
(10.0511 0.00699679 0)
(10.0562 0.00413627 0)
(10.061 0.000995598 0)
(10.0655 -0.00240225 0)
(10.0696 -0.00603413 0)
(10.0735 -0.00989509 0)
(10.077 -0.0139796 0)
(10.0802 -0.0182277 0)
(10.0832 -0.0230799 0)
(10.0002 0.00304706 0)
(10.0031 0.00899599 0)
(10.008 0.0138484 0)
(10.0137 0.0177825 0)
(10.0199 0.0208867 0)
(10.0262 0.0233827 0)
(10.0324 0.0254744 0)
(10.0385 0.0273205 0)
(10.0442 0.0290406 0)
(10.0497 0.030718 0)
(10.0549 0.0324107 0)
(10.0598 0.0341568 0)
(10.0643 0.0359862 0)
(10.0685 0.0379178 0)
(10.0724 0.039974 0)
(10.076 0.0421881 0)
(10.0792 0.0444786 0)
(10.082 0.0473678 0)
(10.0001 0.00102813 0)
(10.0022 0.00255124 0)
(10.0063 0.00308292 0)
(10.0115 0.00281759 0)
(10.0174 0.00182474 0)
(10.0235 0.000216168 0)
(10.0298 -0.00191104 0)
(10.036 -0.00448735 0)
(10.0421 -0.00746094 0)
(10.0479 -0.0107934 0)
(10.0536 -0.0144567 0)
(10.059 -0.0184256 0)
(10.0641 -0.022681 0)
(10.0691 -0.0271964 0)
(10.0737 -0.031952 0)
(10.0782 -0.0369215 0)
(10.0824 -0.0419833 0)
(10.0867 -0.0475123 0)
(10 0.00098904 0)
(10.0016 0.00313482 0)
(10.0049 0.00535804 0)
(10.0091 0.00765665 0)
(10.0139 0.010011 0)
(10.0188 0.0124467 0)
(10.0237 0.0149979 0)
(10.0284 0.0176953 0)
(10.0328 0.0205663 0)
(10.0369 0.023631 0)
(10.0407 0.0269023 0)
(10.0441 0.0303864 0)
(10.0471 0.0340821 0)
(10.0497 0.0379841 0)
(10.052 0.0420676 0)
(10.0539 0.0463378 0)
(10.0556 0.050623 0)
(10.0567 0.0553695 0)
(10.0003 -0.0018947 0)
(10.0031 -0.00582807 0)
(10.008 -0.00972651 0)
(10.0139 -0.0135674 0)
(10.0206 -0.0174107 0)
(10.0278 -0.0213303 0)
(10.0352 -0.0254005 0)
(10.0427 -0.0296828 0)
(10.0503 -0.03422 0)
(10.0578 -0.0390379 0)
(10.0652 -0.0441488 0)
(10.0726 -0.0495539 0)
(10.0797 -0.055247 0)
(10.0867 -0.0612138 0)
(10.0934 -0.0674322 0)
(10.0999 -0.0738806 0)
(10.106 -0.0804651 0)
(10.1119 -0.0873557 0)
(9.99985 -0.00209024 0)
(10.0009 -0.0053202 0)
(10.0038 -0.0071615 0)
(10.0075 -0.00790172 0)
(10.0116 -0.0077371 0)
(10.0157 -0.00682083 0)
(10.0194 -0.00529176 0)
(10.0228 -0.00325963 0)
(10.0257 -0.000806591 0)
(10.0282 0.00200651 0)
(10.0301 0.00513747 0)
(10.0316 0.0085605 0)
(10.0327 0.0122699 0)
(10.0334 0.0162718 0)
(10.0337 0.0206004 0)
(10.0336 0.0252896 0)
(10.0336 0.0303651 0)
(10.0331 0.0360888 0)
(10.0006 -0.00469076 0)
(10.005 -0.0136267 0)
(10.0115 -0.0208433 0)
(10.0188 -0.0266528 0)
(10.0264 -0.0314649 0)
(10.0342 -0.0356357 0)
(10.042 -0.0394683 0)
(10.0497 -0.0431719 0)
(10.0573 -0.0468669 0)
(10.0647 -0.0506156 0)
(10.0719 -0.0544468 0)
(10.079 -0.0583729 0)
(10.0859 -0.0624056 0)
(10.0928 -0.0665647 0)
(10.0997 -0.0709012 0)
(10.1066 -0.07549 0)
(10.1134 -0.0804409 0)
(10.1206 -0.0861124 0)
(9.99993 -0.00473381 0)
(10.0025 -0.0119205 0)
(10.0076 -0.0159532 0)
(10.0131 -0.0177489 0)
(10.0182 -0.0178511 0)
(10.0228 -0.0166121 0)
(10.0267 -0.0143733 0)
(10.0299 -0.0114188 0)
(10.0326 -0.00795887 0)
(10.0347 -0.00415307 0)
(10.0363 -0.000125196 0)
(10.0375 0.00403382 0)
(10.0382 0.00826664 0)
(10.0384 0.0125491 0)
(10.0381 0.0169113 0)
(10.037 0.0214417 0)
(10.0356 0.0263199 0)
(10.0325 0.0320975 0)
(10.0012 -0.00956418 0)
(10.0087 -0.0254107 0)
(10.0184 -0.0361571 0)
(10.0277 -0.043887 0)
(10.0368 -0.0500069 0)
(10.0455 -0.05527 0)
(10.0537 -0.0601858 0)
(10.0615 -0.0650242 0)
(10.0688 -0.0698604 0)
(10.0757 -0.0746828 0)
(10.0822 -0.079454 0)
(10.0885 -0.0841308 0)
(10.0945 -0.0886718 0)
(10.1005 -0.0930495 0)
(10.1066 -0.0972699 0)
(10.1132 -0.101402 0)
(10.1202 -0.105644 0)
(10.1294 -0.110671 0)
(10.0009 -0.00809324 0)
(10.0084 -0.0182225 0)
(10.0179 -0.021972 0)
(10.0253 -0.0220011 0)
(10.031 -0.0195066 0)
(10.0354 -0.0150584 0)
(10.0386 -0.00934472 0)
(10.041 -0.00295182 0)
(10.0428 0.0037479 0)
(10.0443 0.0105069 0)
(10.0453 0.0171457 0)
(10.0461 0.0235396 0)
(10.0466 0.0296034 0)
(10.0467 0.0352763 0)
(10.0464 0.0405229 0)
(10.045 0.0453568 0)
(10.0427 0.0499358 0)
(10.0365 0.0550598 0)
(10.0027 -0.0199594 0)
(10.0162 -0.0448761 0)
(10.0301 -0.0584383 0)
(10.0411 -0.0682881 0)
(10.0508 -0.0772423 0)
(10.0595 -0.0858346 0)
(10.0669 -0.0943263 0)
(10.0732 -0.102748 0)
(10.0787 -0.110923 0)
(10.0836 -0.118688 0)
(10.0879 -0.125956 0)
(10.0918 -0.132689 0)
(10.0954 -0.138861 0)
(10.0988 -0.144451 0)
(10.1021 -0.149418 0)
(10.1061 -0.153725 0)
(10.1107 -0.157366 0)
(10.1203 -0.160903 0)
(10.0045 -0.0117345 0)
(10.0233 -0.02099 0)
(10.037 -0.0181036 0)
(10.043 -0.00985315 0)
(10.0457 0.00150872 0)
(10.0468 0.0148398 0)
(10.0468 0.0286159 0)
(10.0462 0.0418374 0)
(10.0454 0.0541246 0)
(10.0445 0.0653686 0)
(10.0436 0.0755478 0)
(10.0425 0.0846893 0)
(10.0414 0.0928442 0)
(10.04 0.100061 0)
(10.0386 0.106351 0)
(10.0364 0.111676 0)
(10.0335 0.115964 0)
(10.0245 0.119694 0)
(10.0057 -0.0438999 0)
(10.0279 -0.0818055 0)
(10.0435 -0.101267 0)
(10.051 -0.120644 0)
(10.0558 -0.140506 0)
(10.0585 -0.158846 0)
(10.0592 -0.17524 0)
(10.0583 -0.189703 0)
(10.0568 -0.202208 0)
(10.0547 -0.212875 0)
(10.0524 -0.221933 0)
(10.0498 -0.229607 0)
(10.047 -0.236081 0)
(10.0443 -0.241512 0)
(10.0415 -0.245987 0)
(10.0393 -0.249534 0)
(10.0373 -0.251974 0)
(10.0423 -0.253046 0)
(10.0127 -0.00409932 0)
(10.0433 0.00727826 0)
(10.0436 0.0413231 0)
(10.029 0.0774803 0)
(10.0139 0.110712 0)
(10.0004 0.139498 0)
(9.98774 0.163155 0)
(9.97581 0.182117 0)
(9.96476 0.197332 0)
(9.95439 0.209631 0)
(9.9445 0.2196 0)
(9.935 0.227666 0)
(9.92587 0.234158 0)
(9.91703 0.23933 0)
(9.90857 0.243344 0)
(9.90003 0.246301 0)
(9.89201 0.248084 0)
(9.87702 0.248922 0)
(10.0321 -0.126623 0)
(10.0676 -0.22559 0)
(10.0594 -0.280254 0)
(10.0339 -0.322891 0)
(10.008 -0.353499 0)
(9.98312 -0.374018 0)
(9.95838 -0.387978 0)
(9.9345 -0.397623 0)
(9.91193 -0.404147 0)
(9.89054 -0.408313 0)
(9.87011 -0.410683 0)
(9.85054 -0.411672 0)
(9.83178 -0.411571 0)
(9.8138 -0.410611 0)
(9.79651 -0.408946 0)
(9.78025 -0.406825 0)
(9.76465 -0.40419 0)
(9.75833 -0.400578 0)
(9.86117 0.0769231 0)
(9.66244 0.274098 0)
(9.48813 0.39316 0)
(9.34025 0.447749 0)
(9.21745 0.470375 0)
(9.10955 0.479076 0)
(9.01058 0.481345 0)
(8.91908 0.480358 0)
(8.83453 0.477629 0)
(8.75624 0.473877 0)
(8.68359 0.469441 0)
(8.61612 0.464499 0)
(8.55345 0.459157 0)
(8.49516 0.453497 0)
(8.44083 0.447508 0)
(8.38988 0.441357 0)
(8.34197 0.434127 0)
(8.29108 0.426556 0)
(-0.0310258 -0.113806 -2.84427e-19)
(0.10431 -0.183109 1.55102e-19)
(0.206083 -0.219819 0)
(0.296396 -0.217339 0)
(0.380506 -0.206175 0)
(0.454933 -0.193846 -6.77693e-20)
(0.520665 -0.183041 0)
(0.58027 -0.173173 0)
(0.635234 -0.164476 0)
(0.686535 -0.156636 0)
(0.734719 -0.149569 5.0891e-20)
(0.780174 -0.143082 0)
(0.823098 -0.137116 0)
(0.863612 -0.131578 0)
(0.90178 -0.126415 0)
(0.937674 -0.121549 4.42229e-20)
(0.971264 -0.116902 0)
(1.00255 -0.112383 0)
(1.0312 -0.107839 0)
(1.05706 -0.103225 0)
(1.07947 -0.0986125 0)
(1.09786 -0.0933202 0)
(1.111 -0.0868593 0)
(1.11806 -0.0786351 4.09364e-20)
(1.11548 -0.067184 -4.10843e-20)
(1.10183 -0.0522634 4.14608e-20)
(1.07624 -0.0346808 4.21434e-20)
(1.03789 -0.0154709 0)
(0.986178 0.00427067 0)
(0.921177 0.0224522 -4.66164e-20)
(0.84436 0.036732 -4.92919e-20)
(0.758102 0.0453037 0)
(0.667249 0.0475386 0)
(0.576588 0.0439381 -6.23947e-20)
(0.490027 0.0349735 0)
(0.414202 0.0207393 0)
(0.354526 0.00300475 8.22076e-20)
(0.312772 -0.0157013 0)
(0.285092 -0.0317371 9.20387e-20)
(0.265733 -0.0405017 1.89801e-19)
(0.245764 -0.0403947 0)
(0.216812 -0.0302585 0)
(0.169659 -0.00721898 0)
(0.0983412 0.0233059 0)
(-0.000597224 0.0395639 0)
(-0.104092 0.0393065 2.26421e-19)
(-0.206661 0.0386904 1.84332e-19)
(-0.313332 0.0369467 1.55398e-19)
(-0.420889 0.032781 0)
(-0.527483 0.0270003 -1.19859e-19)
(-0.629099 0.0211069 0)
(-0.726701 0.0156745 9.9791e-20)
(-0.821231 0.00976183 9.27875e-20)
(-0.910896 0.0028827 0)
(-0.995527 -0.00489243 0)
(-1.07474 -0.0133844 0)
(-1.1485 -0.0223525 7.52019e-20)
(-1.21695 -0.0315788 0)
(-1.28034 -0.0408873 0)
(-1.33906 -0.0501513 0)
(-1.3935 -0.0592856 0)
(-1.44407 -0.0682435 0)
(-1.49118 -0.0770086 0)
(-1.5352 -0.0855849 0)
(-1.57648 -0.0939859 0)
(-1.61532 -0.10223 -5.91921e-20)
(-1.65197 -0.110335 0)
(-1.68665 -0.118319 0)
(-1.71956 -0.126194 5.61965e-20)
(-1.75085 -0.133972 5.53129e-20)
(-1.78064 -0.141662 0)
(-1.80903 -0.149269 -5.36751e-20)
(-1.83612 -0.156798 5.29104e-20)
(-1.86196 -0.164253 0)
(-1.8866 -0.171636 -5.147e-20)
(-1.91008 -0.17895 0)
(-1.93243 -0.186192 0)
(-1.95365 -0.193359 4.94975e-20)
(-1.97375 -0.200439 0)
(-1.99272 -0.207419 -4.82766e-20)
(-2.01057 -0.214281 0)
(-2.02727 -0.221007 4.71067e-20)
(-2.04282 -0.227572 4.65368e-20)
(-2.05721 -0.233951 4.59751e-20)
(-2.07042 -0.240113 9.08411e-20)
(-2.08244 -0.246032 -8.97438e-20)
(-2.09326 -0.251694 0)
(-2.10284 -0.257119 0)
(-2.11119 -0.26234 0)
(-2.11817 -0.267269 -8.54507e-20)
(-2.12368 -0.271747 -8.44028e-20)
(-2.1277 -0.275647 8.33626e-20)
(-2.13016 -0.278819 0)
(-2.13123 -0.281281 -8.12411e-20)
(-2.13146 -0.283326 -8.01521e-20)
(-2.13077 -0.285062 -7.90405e-20)
(-2.12921 -0.286525 0)
(-2.12677 -0.287742 0)
(-2.12342 -0.288739 0)
(-2.11909 -0.289553 -7.42872e-20)
(-2.11372 -0.290263 0)
(-2.10734 -0.290987 0)
(-2.09997 -0.291789 7.03316e-20)
(-2.09159 -0.292695 0)
(-2.0822 -0.293722 0)
(-2.07177 -0.294875 6.59862e-20)
(-2.06026 -0.296157 0)
(-2.04765 -0.297566 0)
(-2.03391 -0.299094 -6.12369e-20)
(-2.01898 -0.300733 -5.95507e-20)
(-2.00284 -0.302476 0)
(-1.98546 -0.304322 5.59921e-20)
(-1.9668 -0.306267 0)
(-1.94683 -0.308311 -5.21666e-20)
(-1.92553 -0.310451 0)
(-1.90288 -0.312685 -4.80501e-20)
(-1.87884 -0.315013 -4.5874e-20)
(-1.85341 -0.317435 0)
(-1.82656 -0.319952 0)
(-1.79827 -0.322577 0)
(-1.76852 -0.325324 0)
(-1.73729 -0.328175 0)
(-1.70452 -0.331121 0)
(-1.6702 -0.33417 0)
(-1.63431 -0.337308 -2.50713e-20)
(-1.59672 -0.340505 2.19644e-20)
(-1.55763 -0.343984 0)
(-1.51707 -0.34757 0)
(-1.47467 -0.351221 0)
(-1.43075 -0.355034 0)
(-1.3851 -0.358988 8.43194e-21)
(-1.33779 -0.363089 0)
(-1.28877 -0.367335 8.24907e-21)
(-1.23803 -0.371717 -1.72335e-20)
(-1.18558 -0.376238 0)
(-1.13146 -0.380953 0)
(-1.07564 -0.385916 0)
(-1.01816 -0.391098 5.83311e-20)
(-0.959103 -0.396417 7.01275e-20)
(-0.898431 -0.401956 0)
(-0.836302 -0.407727 9.59448e-20)
(-0.772847 -0.413726 1.10101e-19)
(-0.708177 -0.419962 -1.25189e-19)
(-0.642417 -0.426443 0)
(-0.575723 -0.433186 0)
(-0.508275 -0.440206 -1.76958e-19)
(-0.440277 -0.447511 0)
(-0.371952 -0.455101 0)
(-0.303563 -0.462925 0)
(-0.235431 -0.470794 0)
(-0.167759 -0.478413 2.91543e-19)
(-0.100829 -0.485964 3.19838e-19)
(-0.0356857 -0.493547 0)
(0.0278732 -0.494602 3.64783e-19)
(0.0910129 -0.488283 0)
(0.15284 -0.481615 0)
(0.212323 -0.47564 3.51848e-19)
(0.268395 -0.47054 0)
(0.321375 -0.466147 3.47243e-19)
(0.369767 -0.461454 0)
(0.413803 -0.456648 0)
(0.454148 -0.452479 3.47152e-19)
(0.491469 -0.44911 0)
(0.526592 -0.446245 3.50179e-19)
(0.56046 -0.443636 0)
(0.594126 -0.441261 0)
(0.628751 -0.439217 0)
(0.665326 -0.437558 -3.58541e-19)
(0.704933 -0.436246 0)
(0.748216 -0.435159 3.61428e-19)
(0.796129 -0.434162 0)
(0.848589 -0.43307 0)
(0.906631 -0.431831 0)
(0.968704 -0.430199 0)
(1.03682 -0.4284 0)
(1.1055 -0.426006 0)
(1.18137 -0.423327 0)
(1.24451 -0.42036 -7.08878e-19)
(1.32758 -0.415639 0)
(1.32422 -0.419054 0)
(-0.0517663 -0.248572 4.59973e-19)
(0.162222 -0.270602 -2.28076e-19)
(0.194468 -0.261932 0)
(0.240146 -0.208672 7.58926e-20)
(0.279237 -0.175191 0)
(0.319518 -0.142566 2.93259e-20)
(0.358429 -0.121876 -5.55083e-20)
(0.39879 -0.10496 -5.2736e-20)
(0.438673 -0.093405 0)
(0.478496 -0.0837685 -4.89398e-20)
(0.51756 -0.0760437 -2.35205e-20)
(0.555582 -0.0688632 0)
(0.592081 -0.0622203 0)
(0.626875 -0.0557366 0)
(0.659878 -0.0494848 0)
(0.691149 -0.0432988 -2.13849e-20)
(0.720758 -0.0370797 0)
(0.748723 -0.0305203 4.21491e-20)
(0.775001 -0.0233105 0)
(0.799365 -0.0150662 0)
(0.821689 -0.00526733 -4.14156e-20)
(0.841435 0.00649127 0)
(0.858992 0.0207158 4.13906e-20)
(0.873301 0.0381122 -2.06512e-20)
(0.886579 0.0587903 2.07919e-20)
(0.898636 0.0813064 -2.09212e-20)
(0.90816 0.104734 -2.10084e-20)
(0.912869 0.129199 0)
(0.909847 0.154674 0)
(0.894957 0.180608 2.08729e-20)
(0.862937 0.205079 -2.11998e-20)
(0.810343 0.223969 0)
(0.737728 0.232776 0)
(0.649971 0.22893 2.00394e-20)
(0.554221 0.212438 0)
(0.456954 0.185362 0)
(0.362985 0.152461 -2.0319e-20)
(0.274965 0.12217 0)
(0.192555 0.101335 2.10527e-20)
(0.108586 0.0942619 -4.25946e-20)
(0.0178476 0.106977 0)
(-0.0830964 0.137158 0)
(-0.190977 0.173969 -7.70785e-20)
(-0.298976 0.205909 -7.28468e-20)
(-0.408085 0.226711 -6.94585e-20)
(-0.518989 0.239296 3.37366e-20)
(-0.629782 0.247024 -3.19782e-20)
(-0.735689 0.249641 -9.42109e-20)
(-0.833703 0.247078 6.19326e-20)
(-0.921957 0.240398 3.02961e-20)
(-0.999273 0.231469 0)
(-1.06489 0.221374 -3.00781e-20)
(-1.11852 0.210539 3.05899e-20)
(-1.16087 0.199434 0)
(-1.19325 0.188661 0)
(-1.21714 0.178674 0)
(-1.23404 0.169809 -2.94942e-20)
(-1.24536 0.162251 0)
(-1.25231 0.156067 5.87174e-20)
(-1.2559 0.151232 0)
(-1.25696 0.147668 5.80347e-20)
(-1.25613 0.145268 0)
(-1.25393 0.143907 -5.72634e-20)
(-1.25075 0.143457 0)
(-1.24689 0.14379 5.64226e-20)
(-1.24256 0.144789 -2.81684e-20)
(-1.23794 0.146346 0)
(-1.23314 0.148367 -5.51753e-20)
(-1.22828 0.150769 -2.72149e-20)
(-1.22341 0.153479 -2.70165e-20)
(-1.21861 0.156435 0)
(-1.21393 0.159581 -2.69929e-20)
(-1.20942 0.162873 -2.64363e-20)
(-1.20514 0.166268 0)
(-1.20115 0.169732 2.60562e-20)
(-1.19749 0.173234 -5.2135e-20)
(-1.19422 0.176745 0)
(-1.19139 0.18024 -2.54993e-20)
(-1.18905 0.183699 0)
(-1.18727 0.187102 7.57904e-20)
(-1.18608 0.190431 0)
(-1.18555 0.193663 -7.45786e-20)
(-1.18571 0.196778 -2.44894e-20)
(-1.18661 0.199747 2.47367e-20)
(-1.1883 0.202547 4.90192e-20)
(-1.19082 0.205152 -4.85463e-20)
(-1.19422 0.207537 0)
(-1.19852 0.209651 0)
(-1.20379 0.21142 0)
(-1.21008 0.21277 1.37347e-19)
(-1.21748 0.213644 4.48539e-20)
(-1.22597 0.214054 -4.42731e-20)
(-1.23554 0.214052 0)
(-1.24583 0.213759 -4.42493e-20)
(-1.2562 0.213241 4.24332e-20)
(-1.26653 0.212399 4.17822e-20)
(-1.27664 0.211224 0)
(-1.28645 0.209721 0)
(-1.29589 0.207887 0)
(-1.30493 0.205686 3.89199e-20)
(-1.31354 0.203146 0)
(-1.32133 0.20055 -7.60551e-20)
(-1.32817 0.197984 -1.10835e-19)
(-1.33394 0.195467 7.26737e-20)
(-1.33857 0.193012 0)
(-1.34202 0.19062 3.53627e-20)
(-1.34425 0.188287 0)
(-1.34524 0.186003 6.54595e-20)
(-1.34495 0.183764 -3.26512e-20)
(-1.34337 0.181569 -3.17088e-20)
(-1.34047 0.17942 0)
(-1.33623 0.177316 -8.55272e-20)
(-1.33063 0.175255 5.55317e-20)
(-1.32365 0.173238 2.57208e-20)
(-1.31525 0.171263 0)
(-1.30543 0.169328 2.34236e-20)
(-1.29417 0.167433 6.87392e-20)
(-1.28143 0.16558 0)
(-1.26719 0.163772 4.16113e-20)
(-1.25144 0.162001 3.90587e-20)
(-1.23415 0.160242 3.64375e-20)
(-1.21528 0.158483 0)
(-1.19482 0.156778 0)
(-1.17284 0.155122 0)
(-1.14924 0.153439 -1.38396e-20)
(-1.12394 0.151818 -9.9077e-21)
(-1.09724 0.150398 0)
(-1.06864 0.148851 -1.61158e-20)
(-1.03843 0.14733 -1.29215e-20)
(-1.00645 0.145873 0)
(-0.972742 0.144429 -3.60704e-21)
(-0.937267 0.143023 -5.77131e-21)
(-0.900014 0.141638 -3.40675e-21)
(-0.860952 0.140268 -1.35085e-21)
(-0.820028 0.138921 0)
(-0.777208 0.137658 0)
(-0.732541 0.136539 0)
(-0.686178 0.135527 -2.22991e-20)
(-0.638053 0.13452 2.01879e-20)
(-0.588111 0.133595 5.4579e-20)
(-0.536519 0.132894 -3.4545e-20)
(-0.483333 0.132379 3.24095e-20)
(-0.42867 0.132026 4.30544e-20)
(-0.37265 0.131855 0)
(-0.315419 0.131893 0)
(-0.257141 0.13216 -4.964e-20)
(-0.198007 0.132677 0)
(-0.138227 0.133444 0)
(-0.0780071 0.134427 1.329e-19)
(-0.017496 0.135578 0)
(0.0430016 0.136814 7.09495e-20)
(0.102813 0.138257 -8.02276e-20)
(0.162163 0.140044 0)
(0.220752 0.142807 7.88012e-20)
(0.276991 0.146715 0)
(0.330532 0.151217 0)
(0.381647 0.156121 -9.12365e-20)
(0.430292 0.161202 1.80766e-19)
(0.476241 0.166329 -9.52304e-20)
(0.520211 0.170969 0)
(0.562091 0.174871 0)
(0.602031 0.178033 9.57002e-20)
(0.640127 0.180483 0)
(0.676772 0.181946 9.98302e-20)
(0.712589 0.182151 0)
(0.748314 0.18115 0)
(0.784837 0.179141 0)
(0.822995 0.176412 1.13899e-19)
(0.86371 0.173079 0)
(0.907639 0.169408 -1.18641e-19)
(0.955638 0.165365 0)
(1.00786 0.161444 0)
(1.06516 0.157334 2.46201e-19)
(1.1265 0.154166 -2.50781e-19)
(1.1935 0.150835 0)
(1.26226 0.150051 0)
(1.33801 0.148765 0)
(1.40712 0.153969 8.08966e-19)
(1.49079 0.162453 0)
(1.54782 0.192747 -5.67307e-19)
(-0.162719 -0.44343 9.93143e-22)
(0.146648 -0.373656 2.65354e-19)
(0.0587175 -0.359836 0)
(0.130736 -0.303151 -1.17676e-19)
(0.132469 -0.300975 0)
(0.176436 -0.282169 0)
(0.205156 -0.279177 -2.23462e-22)
(0.246285 -0.267167 3.50936e-20)
(0.284534 -0.260379 3.33174e-20)
(0.326593 -0.250292 3.16603e-20)
(0.366746 -0.241119 0)
(0.406205 -0.229906 0)
(0.442881 -0.218699 -2.86941e-20)
(0.477259 -0.20701 -5.5851e-20)
(0.509117 -0.195882 5.44955e-20)
(0.539065 -0.185099 0)
(0.567365 -0.174753 5.22778e-20)
(0.59432 -0.164313 -2.5601e-20)
(0.61976 -0.153355 0)
(0.643268 -0.141372 4.98216e-20)
(0.664276 -0.127941 2.44909e-20)
(0.682079 -0.1126 -4.8518e-20)
(0.69548 -0.0948744 -2.38855e-20)
(0.702883 -0.0748283 0)
(0.702597 -0.0532555 4.7209e-20)
(0.693851 -0.027334 4.68498e-20)
(0.67844 0.00491256 0)
(0.658033 0.0452913 4.62499e-20)
(0.633998 0.095323 0)
(0.606394 0.155408 4.54617e-20)
(0.572321 0.221919 2.22733e-20)
(0.526784 0.285929 0)
(0.465672 0.335511 0)
(0.389281 0.361328 0)
(0.302411 0.361063 0)
(0.211126 0.338827 0)
(0.11963 0.301668 0)
(0.0279656 0.261236 4.67849e-20)
(-0.0673675 0.23821 -6.89835e-20)
(-0.171836 0.24311 0)
(-0.283033 0.269773 0)
(-0.395648 0.306959 0)
(-0.503959 0.344027 -3.87226e-22)
(-0.604422 0.372746 3.76855e-20)
(-0.696586 0.387985 7.3441e-20)
(-0.780552 0.389367 -7.15571e-20)
(-0.854916 0.379133 -3.53331e-20)
(-0.918683 0.35893 3.42792e-20)
(-0.972079 0.330959 4.95503e-22)
(-1.01642 0.297964 3.4201e-20)
(-1.05315 0.262587 0)
(-1.08349 0.226839 3.38815e-20)
(-1.1091 0.192215 3.07072e-22)
(-1.13153 0.159866 0)
(-1.15212 0.130519 0)
(-1.17184 0.104471 -3.30697e-20)
(-1.19134 0.0817026 0)
(-1.21101 0.0619691 0)
(-1.23102 0.044911 3.2324e-20)
(-1.25142 0.0301254 6.37367e-20)
(-1.27217 0.0172208 -3.14261e-20)
(-1.29318 0.00584545 0)
(-1.31435 -0.00430257 3.08188e-20)
(-1.33556 -0.0134773 0)
(-1.35673 -0.0218856 3.0506e-20)
(-1.37775 -0.0296931 2.99656e-20)
(-1.39857 -0.0370276 -5.96852e-20)
(-1.41912 -0.0439862 -2.97384e-20)
(-1.43935 -0.0506389 0)
(-1.45923 -0.0570355 5.82576e-20)
(-1.47872 -0.063208 0)
(-1.49779 -0.0691764 8.59261e-20)
(-1.51644 -0.0749509 5.69772e-20)
(-1.53462 -0.0805362 5.65728e-20)
(-1.55234 -0.085934 -5.61766e-20)
(-1.56957 -0.0911458 8.3502e-20)
(-1.58631 -0.0961737 0)
(-1.60254 -0.101023 0)
(-1.61828 -0.105697 -5.46351e-20)
(-1.63351 -0.1102 -8.1176e-20)
(-1.64825 -0.114531 0)
(-1.66252 -0.118686 2.6524e-20)
(-1.67632 -0.122656 0)
(-1.68968 -0.126428 -7.8741e-20)
(-1.7026 -0.129979 4.33947e-22)
(-1.71509 -0.133287 -4.42812e-22)
(-1.72711 -0.136324 5.13521e-20)
(-1.73865 -0.139068 0)
(-1.74966 -0.141493 -5.04784e-20)
(-1.76011 -0.143566 4.79779e-22)
(-1.76995 -0.14529 0)
(-1.77908 -0.146757 0)
(-1.78741 -0.148096 0)
(-1.79486 -0.149363 4.75841e-20)
(-1.80132 -0.150513 0)
(-1.80674 -0.151504 0)
(-1.81104 -0.152307 0)
(-1.81415 -0.152903 0)
(-1.81603 -0.15326 0)
(-1.81656 -0.15335 4.44395e-20)
(-1.81587 -0.153391 0)
(-1.81418 -0.153608 4.22776e-20)
(-1.81153 -0.153982 4.14416e-20)
(-1.80791 -0.154501 -4.05717e-20)
(-1.80331 -0.155143 0)
(-1.7977 -0.155892 -3.87351e-20)
(-1.79103 -0.156737 0)
(-1.78328 -0.157668 -3.67747e-20)
(-1.77442 -0.158686 3.57458e-20)
(-1.7644 -0.159784 1.05454e-19)
(-1.7532 -0.160956 0)
(-1.74079 -0.162195 9.87811e-20)
(-1.72715 -0.163493 3.2746e-20)
(-1.71223 -0.164845 0)
(-1.69603 -0.166245 5.91522e-20)
(-1.6785 -0.167687 5.66062e-20)
(-1.65963 -0.169166 -8.01858e-20)
(-1.63938 -0.170677 0)
(-1.61772 -0.172218 -2.34349e-20)
(-1.59464 -0.17379 -2.19883e-20)
(-1.57012 -0.175388 -6.31635e-20)
(-1.54415 -0.176993 0)
(-1.51671 -0.178605 0)
(-1.48773 -0.180271 0)
(-1.45723 -0.181963 -1.5909e-20)
(-1.42523 -0.183576 0)
(-1.39159 -0.185265 0)
(-1.35632 -0.187022 8.99554e-21)
(-1.31949 -0.188754 7.19957e-21)
(-1.28101 -0.190504 0)
(-1.24088 -0.192262 0)
(-1.1991 -0.194027 3.19477e-21)
(-1.15565 -0.195797 0)
(-1.11052 -0.197577 4.6146e-21)
(-1.06371 -0.199373 6.64271e-21)
(-1.01527 -0.201148 0)
(-0.96522 -0.202845 0)
(-0.913541 -0.204484 -1.89173e-20)
(-0.860178 -0.206127 -2.04933e-21)
(-0.805408 -0.207654 -2.0669e-21)
(-0.749341 -0.209038 0)
(-0.691974 -0.210294 -7.38877e-20)
(-0.633419 -0.211396 0)
(-0.573818 -0.212322 0)
(-0.513337 -0.213049 0)
(-0.452163 -0.213556 5.53187e-20)
(-0.390489 -0.213813 0)
(-0.328527 -0.213797 -1.23437e-19)
(-0.266528 -0.213493 -6.81487e-20)
(-0.204814 -0.212915 0)
(-0.143582 -0.212105 -7.648e-20)
(-0.0830099 -0.21099 0)
(-0.0234449 -0.209438 0)
(0.0346078 -0.207849 -2.59337e-19)
(0.0907423 -0.206161 1.77019e-19)
(0.144971 -0.203866 0)
(0.197303 -0.200978 1.87732e-19)
(0.247637 -0.197693 -9.85167e-20)
(0.296007 -0.194203 0)
(0.342584 -0.190404 0)
(0.387455 -0.186487 0)
(0.43074 -0.182818 -3.21149e-19)
(0.472921 -0.179695 0)
(0.514561 -0.177072 -1.13356e-19)
(0.556146 -0.174987 0)
(0.598187 -0.173669 0)
(0.641441 -0.173383 0)
(0.686711 -0.174195 0)
(0.734951 -0.176109 0)
(0.786749 -0.178882 0)
(0.842916 -0.182449 -2.61745e-19)
(0.903371 -0.186313 0)
(0.968942 -0.190607 -1.38786e-19)
(1.03827 -0.194364 4.2179e-19)
(1.11311 -0.19833 0)
(1.18905 -0.2003 0)
(1.27181 -0.202546 -2.98087e-19)
(1.34806 -0.199859 -3.07973e-19)
(1.43778 -0.195815 3.11753e-19)
(1.50988 -0.182127 3.28423e-19)
(-0.249515 -0.5179 -6.56184e-19)
(0.149597 -0.376861 -3.65193e-19)
(-0.0331029 -0.388907 -1.40501e-19)
(0.0888472 -0.329857 -5.1738e-20)
(0.038692 -0.323147 0)
(0.0938915 -0.298661 7.06119e-20)
(0.0842918 -0.296911 -3.15178e-20)
(0.117616 -0.2861 0)
(0.129261 -0.283429 -2.67492e-20)
(0.157926 -0.271583 0)
(0.178486 -0.260192 4.8527e-20)
(0.203947 -0.242962 0)
(0.224312 -0.225952 2.23768e-20)
(0.245112 -0.208022 4.33528e-20)
(0.263257 -0.192303 -4.21268e-20)
(0.281381 -0.177803 0)
(0.298537 -0.164962 -4.01125e-20)
(0.315425 -0.1519 0)
(0.330837 -0.137454 0)
(0.344383 -0.120275 -3.78559e-20)
(0.35574 -0.099719 0)
(0.365024 -0.0742375 -1.40234e-22)
(0.371245 -0.0420843 0)
(0.373303 -0.00189153 0)
(0.368302 0.0447269 2.01825e-22)
(0.353233 0.0906598 -3.49932e-20)
(0.328002 0.133322 -3.50263e-20)
(0.294907 0.172784 -3.46859e-20)
(0.256796 0.21239 0)
(0.215804 0.259019 -6.99299e-20)
(0.172397 0.318331 0)
(0.125644 0.386426 -3.53564e-20)
(0.0745265 0.448044 0)
(0.0192671 0.486002 0)
(-0.0388053 0.492025 3.52555e-20)
(-0.0992181 0.470099 0)
(-0.164604 0.435236 -3.42468e-20)
(-0.241633 0.409142 4.60984e-22)
(-0.33242 0.405485 6.51435e-20)
(-0.430666 0.420306 -6.37294e-20)
(-0.527591 0.443654 0)
(-0.616591 0.467222 0)
(-0.693477 0.484714 -2.94607e-20)
(-0.756868 0.492235 0)
(-0.807354 0.487709 -2.71352e-20)
(-0.846695 0.471643 2.6505e-20)
(-0.876908 0.446372 2.59839e-20)
(-0.900298 0.414772 0)
(-0.919542 0.380125 -2.52359e-20)
(-0.936992 0.345299 -2.49687e-20)
(-0.954422 0.312249 5.00597e-20)
(-0.972955 0.282332 -2.45357e-20)
(-0.993185 0.256232 -2.43434e-20)
(-1.0152 0.23406 0)
(-1.03872 0.215576 0)
(-1.06326 0.200359 2.37727e-20)
(-1.0883 0.187937 0)
(-1.11335 0.177856 0)
(-1.13801 0.169717 -4.63934e-20)
(-1.16199 0.163191 -4.60236e-20)
(-1.1851 0.158008 0)
(-1.20724 0.153953 0)
(-1.22838 0.150848 0)
(-1.24851 0.148547 0)
(-1.26768 0.146927 -4.43816e-20)
(-1.28596 0.145881 4.43796e-20)
(-1.30341 0.145321 4.3832e-20)
(-1.32012 0.145168 8.74382e-20)
(-1.33616 0.145354 0)
(-1.35161 0.145822 2.88198e-22)
(-1.36653 0.146518 0)
(-1.38098 0.147396 -4.26567e-20)