# vtk DataFile Version 2.0
track0
ASCII
DATASET POLYDATA
POINTS 11626 double
-0.0205 0.001 1e-05
-0.0204991 0.00100536 1e-05
-0.0204976 0.00101063 1e-05
-0.0204947 0.00101518 1e-05
-0.0204905 0.00101864 1e-05
-0.0204746 0.00102682 1e-05
-0.0201831 0.00105563 1e-05
-0.0203616 0.00128794 1e-05
-0.0204488 0.00141936 1e-05
-0.0201625 0.0014444 1e-05
-0.0201519 0.00173163 1e-05
-0.0202219 0.00184007 1e-05
-0.0200495 0.00193025 1e-05
-0.0200808 0.00212222 1e-05
-0.0201294 0.00229098 1e-05
-0.0200087 0.00238763 1e-05
-0.0199911 0.00254123 1e-05
-0.0200041 0.00269529 1e-05
-0.0199827 0.00277425 1e-05
-0.019869 0.00287784 1e-05
-0.0198179 0.00302292 1e-05
-0.0198054 0.00317624 1e-05
-0.0197599 0.00329221 1e-05
-0.0196347 0.00340323 1e-05
-0.0195485 0.00354672 1e-05
-0.0194776 0.0036983 1e-05
-0.019391 0.0038415 1e-05
-0.0193841 0.00384734 1e-05
-0.0193107 0.00390806 1e-05
-0.0192438 0.00397589 1e-05
-0.019179 0.00404569 1e-05
-0.0191112 0.00411261 1e-05
-0.0190172 0.00419776 1e-05
-0.0189564 0.00424667 1e-05
-0.0188939 0.00429329 1e-05
-0.0188296 0.0043376 1e-05
-0.0187639 0.00437959 1e-05
-0.0186583 0.00444232 1e-05
-0.0184262 0.0045652 1e-05
-0.0181851 0.0046694 1e-05
-0.0179369 0.00475556 1e-05
-0.0176828 0.00482187 1e-05
-0.0174976 0.0048534 1e-05
-0.0172058 0.0048841 1e-05
-0.0169124 0.00488581 1e-05
-0.0166199 0.00486341 1e-05
-0.0163297 0.00482016 1e-05
-0.0160387 0.00475602 1e-05
-0.0158296 0.00469328 1e-05
-0.0156241 0.00461949 1e-05
-0.0154229 0.00453501 1e-05
-0.0152244 0.00444407 1e-05
-0.0152209 0.00444232 1e-05
-0.0151043 0.00438394 1e-05
-0.0149906 0.00432029 1e-05
-0.01488 0.00425128 1e-05
-0.0147717 0.00417866 1e-05
-0.0146381 0.00408314 1e-05
-0.0145774 0.00403598 1e-05
-0.0145176 0.00398773 1e-05
-0.0144588 0.00393838 1e-05
-0.0144008 0.00388792 1e-05
-0.014355 0.00384734 1e-05
-0.014231 0.00373631 1e-05
-0.0141134 0.00361838 1e-05
-0.0140034 0.0034934 1e-05
-0.0138994 0.00336342 1e-05
-0.0138449 0.00329221 1e-05
-0.0137678 0.00318862 1e-05
-0.0136981 0.00307984 1e-05
-0.0136349 0.00296725 1e-05
-0.0135754 0.0028526 1e-05
-0.0135382 0.00277425 1e-05
-0.0134952 0.0026776 1e-05
-0.0134593 0.00257806 1e-05
-0.0134274 0.00247718 1e-05
-0.0134001 0.00237496 1e-05
-0.0133821 0.00229098 1e-05
-0.0133671 0.0022008 1e-05
-0.013358 0.00210982 1e-05
-0.0133543 0.00201846 1e-05
-0.0133566 0.00192706 1e-05
-0.0133652 0.00184007 1e-05
-0.0133799 0.00175593 1e-05
-0.0134024 0.00167351 1e-05
-0.0134318 0.00159329 1e-05
-0.0134682 0.00151599 1e-05
-0.0135248 0.00141936 1e-05
-0.0135822 0.00134085 1e-05
-0.0136505 0.00127163 1e-05
-0.0137247 0.00120865 1e-05
-0.0138033 0.00115142 1e-05
-0.013997 0.00102682 1e-05
-0.0141252 0.000957584 1e-05
-0.0142602 0.000902604 1e-05
-0.0143984 0.000856417 1e-05
-0.0145372 0.000812271 1e-05
-0.0146381 0.000781892 1e-05
-0.014722 0.000757627 1e-05
-0.0148062 0.000734707 1e-05
-0.0148908 0.000712925 1e-05
-0.0149759 0.000693157 1e-05
-0.0151495 0.000660566 1e-05
-0.0153273 0.000637985 1e-05
-0.0155056 0.000618824 1e-05
-0.0156841 0.000602324 1e-05
-0.0158628 0.000587819 1e-05
-0.0160387 0.000568119 1e-05
-0.0162829 0.000518263 1e-05
-0.016531 0.000493525 1e-05
-0.01678 0.000482472 1e-05
-0.0170292 0.000475661 1e-05
-0.0174976 0.000406311 1e-05
-0.0174976 0.000406311 1e-05
-0.0174976 0.000406311 1e-05
-0.0174976 0.000406311 1e-05
-0.0174976 0.000406311 1e-05
-0.0174976 0.000406311 1e-05
-0.0174951 0.000388817 1e-05
-0.0174898 0.000372001 1e-05
-0.0174821 0.000356103 1e-05
-0.0174727 0.000341152 1e-05
-0.0174557 0.000318841 1e-05
-0.0173838 0.000255072 1e-05
-0.0172967 0.000214401 1e-05
-0.0172047 0.000186608 1e-05
-0.0171106 0.000167069 1e-05
-0.0160387 4.48577e-06 1e-05
-0.0160287 3.58861e-06 1e-05
-0.0160187 3.13018e-06 1e-05
-0.0160086 2.71386e-06 1e-05
-0.0159986 2.29754e-06 1e-05
-0.0159433 0 1e-05
-0.0205 0.00367778 1e-05
-0.0203955 0.00371169 1e-05
-0.0203045 0.0037732 1e-05
-0.0202171 0.00383976 1e-05
-0.0201979 0.00384734 1e-05
-0.0199618 0.0039343 1e-05
-0.019766 0.00409241 1e-05
-0.0196201 0.00429747 1e-05
-0.0194752 0.00444232 1e-05
-0.0193836 0.00449614 1e-05
-0.0192963 0.00455662 1e-05
-0.0192132 0.00462284 1e-05
-0.0191277 0.00468594 1e-05
-0.0190172 0.00476141 1e-05
-0.018914 0.00482513 1e-05
-0.0188082 0.00488432 1e-05
-0.0187001 0.00493904 1e-05
-0.0185898 0.00498943 1e-05
-0.0183684 0.00508 1e-05
-0.0181942 0.00513498 1e-05
-0.018018 0.005183 1e-05
-0.0178401 0.00522421 1e-05
-0.0176607 0.00525849 1e-05
-0.0174976 0.00528147 1e-05
-0.0172058 0.00530935 1e-05
-0.0169127 0.00531417 1e-05
-0.0166201 0.00529714 1e-05
-0.0163294 0.00525992 1e-05
-0.0160387 0.0052049 1e-05
-0.0159407 0.00517992 1e-05
-0.0158432 0.00515296 1e-05
-0.0157463 0.00512411 1e-05
-0.0156497 0.00509404 1e-05
-0.0156066 0.00508 1e-05
-0.0154129 0.00501574 1e-05
-0.0152226 0.00494201 1e-05
-0.0150364 0.00485847 1e-05
-0.0148545 0.00476587 1e-05
-0.0146381 0.00464589 1e-05
-0.0145721 0.00460518 1e-05
-0.0145066 0.00456358 1e-05
-0.0144417 0.0045211 1e-05
-0.0143773 0.00447784 1e-05
-0.014325 0.00444232 1e-05
-0.0141516 0.00432332 1e-05
-0.0139846 0.00419532 1e-05
-0.0138254 0.00405779 1e-05
-0.0136708 0.00391505 1e-05
-0.0136004 0.00384734 1e-05
-0.013539 0.00378713 1e-05
-0.0134798 0.00372483 1e-05
-0.013422 0.00366112 1e-05
-0.0133651 0.00359662 1e-05
-0.0132934 0.00351289 1e-05
-0.0132571 0.00346875 1e-05
-0.0132213 0.00342425 1e-05
-0.0131859 0.00337939 1e-05
-0.0131509 0.00333415 1e-05
-0.0131191 0.00329221 1e-05
-0.0130411 0.00318862 1e-05
-0.012965 0.0030836 1e-05
-0.0128917 0.00297658 1e-05
-0.0128216 0.00286743 1e-05
-0.0127644 0.00277425 1e-05
-0.0127067 0.0026776 1e-05
-0.0126505 0.00258012 1e-05
-0.0125958 0.00248176 1e-05
-0.0125426 0.0023826 1e-05
-0.0124958 0.00229098 1e-05
-0.0124523 0.0022008 1e-05
-0.012409 0.00211048 1e-05
-0.012366 0.00202004 1e-05
-0.0123233 0.00192947 1e-05
-0.0122824 0.00184007 1e-05
-0.0122475 0.00175593 1e-05
-0.0122112 0.00167242 1e-05
-0.0121735 0.00158948 1e-05
-0.0121344 0.00150722 1e-05
-0.0120903 0.00141936 1e-05
-0.0120727 0.00138535 1e-05
-0.0120538 0.00135211 1e-05
-0.0120336 0.00131959 1e-05
-0.0120122 0.00128788 1e-05
-0.0120025 0.00127474 1e-05
-0.0119646 0.00122516 1e-05
-0.0119236 0.00117812 1e-05
-0.0118795 0.00113395 1e-05
-0.0118325 0.00109297 1e-05
-0.0117447 0.00102682 1e-05
-0.0116298 0.000953567 1e-05
-0.011507 0.000894548 1e-05
-0.0113795 0.000846285 1e-05
-0.0112492 0.00080646 1e-05
-0.0107632 0.000719312 1e-05
-0.0105252 0.000728437 1e-05
-0.0102871 0.000724963 1e-05
-0.010049 0.000723127 1e-05
-0.00981084 0.000722292 1e-05
-0.00957337 0.000722093 1e-05
-0.00934491 0.000731625 1e-05
-0.00911628 0.000728205 1e-05
-0.00888763 0.000725866 1e-05
-0.00865898 0.000724268 1e-05
-0.00843108 0.00072319 1e-05
-0.00821175 0.000732256 1e-05
-0.00799227 0.000728239 1e-05
-0.00777277 0.00072523 1e-05
-0.00755327 0.000722947 1e-05
-0.00733443 0.000721196 1e-05
-0.00712387 0.000729617 1e-05
-0.00691317 0.000725472 1e-05
-0.00670246 0.000722244 1e-05
-0.00649174 0.000719695 1e-05
-0.0062816 0.000717659 1e-05
-0.00607944 0.00072537 1e-05
-0.00587718 0.000721481 1e-05
-0.0056749 0.00071838 1e-05
-0.00547262 0.000715877 1e-05
-0.00527083 0.000713836 1e-05
-0.00507675 0.000720846 1e-05
-0.00488258 0.000717355 1e-05
-0.0046884 0.000714523 1e-05
-0.00449421 0.0007122 1e-05
-0.00430044 0.000710278 1e-05
-0.00411412 0.000716633 1e-05
-0.00392771 0.000713562 1e-05
-0.0037413 0.000711031 1e-05
-0.00355488 0.000708925 1e-05
-0.00336883 0.000707158 1e-05
-0.00318995 0.000712913 1e-05
-0.003011 0.000710212 1e-05
-0.00283204 0.000707963 1e-05
-0.00265308 0.000706077 1e-05
-0.00247443 0.000704484 1e-05
-0.0023027 0.000709729 1e-05
-0.0021309 0.000707382 1e-05
-0.0019591 0.00070539 1e-05
-0.0017873 0.000703687 1e-05
-0.00161577 0.000702221 1e-05
-0.0014509 0.000706956 1e-05
-0.00128598 0.000704867 1e-05
-0.00112105 0.000703165 1e-05
-0.000956113 0.00070178 1e-05
-0.000791418 0.000700656 1e-05
-0.000633135 0.000705265 1e-05
-0.00047479 0.000703883 1e-05
-0.000316441 0.000703044 1e-05
-0.000158091 0.000702653 1e-05
0 0.000702634 1e-05
0.000105677 0.000706575 1e-05
0.000211428 0.00070687 1e-05
0.000317178 0.00070731 1e-05
0.000422927 0.00070788 1e-05
0.000528387 0.000708565 1e-05
0.000634886 0.000712945 1e-05
0.000741473 0.00071367 1e-05
0.00084806 0.000714305 1e-05
0.000954648 0.000714859 1e-05
0.00106088 0.000715338 1e-05
0.00116821 0.000719325 1e-05
0.00127561 0.000719889 1e-05
0.00138301 0.000720409 1e-05
0.00149041 0.000720887 1e-05
0.00159752 0.000721326 1e-05
0.00170568 0.000725101 1e-05
0.00181391 0.000725706 1e-05
0.00192213 0.000726365 1e-05
0.00203036 0.000727076 1e-05
0.00213833 0.000727833 1e-05
0.00224733 0.000731888 1e-05
0.0023564 0.000732922 1e-05
0.00246547 0.000734107 1e-05
0.00257454 0.000735434 1e-05
0.00268334 0.000736889 1e-05
0.00279319 0.000741792 1e-05
0.00290313 0.000743631 1e-05
0.00301307 0.000745691 1e-05
0.00312301 0.00074796 1e-05
0.00323259 0.000750417 1e-05
0.00334329 0.000756688 1e-05
0.00345413 0.000759802 1e-05
0.00356496 0.000763218 1e-05
0.00367578 0.000766917 1e-05
0.00378611 0.000770976 1e-05
0.00389767 0.000779208 1e-05
0.0040094 0.00078484 1e-05
0.00412113 0.0007903 1e-05
0.00423285 0.000796102 1e-05
0.00434393 0.000803243 1e-05
0.00445636 0.000813938 1e-05
0.00456894 0.000823017 1e-05
0.00468158 0.000831215 1e-05
0.00479419 0.00083976 1e-05
0.00490609 0.000850358 1e-05
0.0050194 0.000863689 1e-05
0.00513279 0.000876248 1e-05
0.00524627 0.000888043 1e-05
0.00535969 0.000900302 1e-05
0.00547262 0.000914214 1e-05
0.00558681 0.000930013 1e-05
0.00570103 0.000945572 1e-05
0.00581527 0.000960964 1e-05
0.00592945 0.000976855 1e-05
0.00604356 0.000993561 1e-05
0.00615863 0.00101144 1e-05
0.00627371 0.00102931 1e-05
0.00638874 0.00104748 1e-05
0.00650371 0.00106599 1e-05
0.00661893 0.00108487 1e-05
0.00664174 0.00108868 1e-05
0.00666455 0.0010925 1e-05
0.00668735 0.00109632 1e-05
0.00671016 0.00110015 1e-05
0.00673273 0.00110394 1e-05
0.00682594 0.00111964 1e-05
0.00691913 0.00113545 1e-05
0.0070123 0.00115137 1e-05
[...]
POINT_DATA 11626
 FIELD attributes 2
p 1 11626 float
99.0326 114.27 118.617 121.218 121.932 119.795 108.982 746.64 725.257 562.33 631.619 271.168 256.927 233.217 -74.0796 -13.3442 79.2218 -61.1941 -172.433 -81.4758 90.9079 -54.5192 -195.499 -129.099 -70.1896 -95.793 -237.278 -243.919 -225.796 -220.859 -236.757 -254.408 -280.228 -297.754 -316.424 -336.193 -335.803 -309.456 -355.136 -402.602 -415.58 -417.483 -423.559 -427.13 -430.486 -434.573 -417.215 -395.183 -378.642 -364.032 -342.863 -323.005 -322.674 -310.023 -298.373 -283.878 -268.793 -250.53 -242.736 -235.158 -227.805 -227.168 -227.702 -193.722 -161.967 -152.412 -160.722 -165.664 -130.728 -106.74 -98.4864 -97.5576 -107.347 -78.1306 -70.8022 -63.7386 -56.9849 -60.2996 -45.4164 -39.8055 -34.5866 -29.8272 -33.063 -22.0681 -19.6629 -17.8234 -16.5925 -40.5985 -18.0619 -18.7141 -22.1044 -35.1178 -113.936 -110.691 -122.271 -162.713 -203.254 -232.628 -254.799 -277.01 -303.243 -337.747 -405.591 -461.219 -517.396 -573.984 -637.671 -707.302 -820.332 -932.373 -1045.72 -1187.8 -1457.31 -1457.31 -1457.31 -1457.31 -1457.31 -1457.31 -1455.78 -1452.53 -1447.97 -1442.43 -1435.89 -1386.94 -1335.13 -1283.25 -1231.87 -729.307 -724.713 -720.706 -717.227 -713.749 -694.552
82.8603 82.7556 58.062 -20.0206 -31.3085 -39.591 6.37193 -61.2803 -160.823 -157.023 -150.54 -164.397 -179.271 -199.257 -217.035 -236.035 -256.176 -252.655 -245.441 -264.898 -285.07 -303.712 -310.101 -317.643 -324.128 -335.544 -331.928 -322.091 -313.933 -310.186 -306.38 -299.29 -292.363 -289.329 -276.832 -265.808 -254.142 -236.491 -216.099 -209.88 -203.79 -198.732 -197.516 -196.578 -166.448 -136.068 -124.579 -127.323 -129.002 -111.345 -100.296 -95.355 -90.4652 -84.2675 -81.2714 -78.2996 -75.3531 -73.4623 -73.7521 -59.5713 -50.8752 -42.3297 -40.8095 -42.1298 -26.6704 -11.1651 -4.82315 -7.13829 -9.38367 6.073 17.3915 21.5086 23.4548 20.2987 34.2774 36.8912 39.4869 42.0603 41.7098 45.4101 45.5518 45.6814 45.7981 45.8421 46.3337 46.8168 47.2886 47.7467 44.1763 45.1324 45.492 45.3496 39.8392 20.6583 16.422 10.3514 4.36712 -1.5643 -8.67275 -11.7823 -16.1497 -20.4698 -24.7572 -29.8329 -30.741 -33.4069 -36.0239 -38.6056 -42.4112 -42.1556 -43.8817 -45.5617 -47.2077 -50.2603 -49.5009 -50.65 -51.7608 -52.8426 -55.2955 -54.2193 -54.9303 -55.6105 -56.2669 -58.2344 -56.9483 -57.3552 -57.7377 -58.1009 -59.7361 -58.3539 -58.5274 -58.6813 -58.8195 -60.1574 -58.6718 -58.6652 -58.6436 -58.6099 -59.7485 -58.1521 -57.7579 -57.3495 -56.9295 -57.5632 -55.6607 -55.0352 -54.3899 -53.7281 -54.3569 -52.5798 -52.5356 -52.4851 -52.429 -54.018 -52.8603 -53.0656 -53.274 -53.4851 -54.9677 -53.9397 -53.9474 -53.9562 -53.9662 -54.9824 -54.0195 -53.8833 -53.7459 -53.6074 -54.2875 -53.2109 -52.7763 -52.339 -51.8993 -52.2429 -51.0641 -50.3791 -49.6916 -49.0018 -49.1255 -48.0612 -47.3415 -46.6207 -45.9207 -45.986 -45.3248 -44.761 -44.22 -43.849 -43.8372 -43.6797 -43.4917 -43.2725 -43.238 -43.2845 -43.5989 -43.9027 -44.1554 -44.4069 -44.6833 -45.4606 -46.2209 -46.8442 -47.4429 -48.0359 -49.2561 -50.1764 -51.0716 -51.9701 -52.8714 -53.1796 -53.3947 -53.6099 -53.8251 -54.0381 -54.8651 -55.6922 -56.5194 -57.3467 -57.809 -58.8722 -60.0166 -61.1744 -62.0745 -62.8344 -63.8218 -64.8083 -65.7333 -66.6538 -67.5817 -68.4281 -69.2169 -69.9233 -70.6833 -71.7249 -72.4068 -73.0701 -73.7438 -74.4279 -75.1504 -75.197 -75.2476 -75.2983 -75.3492 -75.402 -75.9627 -76.5346 -77.1176 -77.7119 -78.3481 -78.6444 -79.1838 -79.7409 -80.3181 -81.0278 -81.1296 -81.5158 -81.9888 -82.5427 -83.2162 -83.2216 -83.4214 -83.8042 -84.3315 -84.9765 -84.9085 -85.0031 -85.2914 -85.7466 -86.3465 -86.2159 -86.2669 -86.4587 -86.7657 -87.3059 -87.1084 -87.1617 -87.2697 -87.4034 -87.8334 -87.6855 -87.7086 -87.7554 -87.8262 -87.9286 -87.9249 -87.9243 -87.9238 -87.9233 -87.9228 -87.9359 -87.9717 -88.0305 -88.1128 -88.3809 -88.0311 -87.9737 -88.0233 -88.2185 -88.4875 -88.1781 -87.8902 -87.7289 -87.9138 -88.1383 -87.9178 -87.7722 -87.6581 -87.5587 -87.4917 -87.4807 -87.4707 -87.4616 -87.4554 -87.4532 -87.1601 -87.0377 -86.9338 -86.8668 -86.8267 -86.4927 -86.1803 -85.8987 -85.6366 -85.48 -85.451 -85.4228 -85.3956 -85.3685 -85.3421 -85.0726 -84.8162 -84.5734 -84.3511 -84.1409 -83.7876 -83.4499 -83.1396 -82.842 -82.5995 -82.5382 -82.4774 -82.4171 -82.3653 -82.3138 -81.8221 -81.3853 -81.0426 -80.7562 -80.4769 -80.374 -80.2721 -80.1827 -80.096 -80.0139 -79.6531 -79.2993 -78.962 -78.7035 -78.4467 -78.179 -77.9159 -77.701 -77.5015 -77.3234 -77.0832 -76.8455 -76.621 -76.4546 -76.2882 -75.8484 -75.4179 -75.0774 -74.7685 -74.5054 -74.3959 -74.2869 -74.1847 -74.1076 -74.0303 -73.4589 -72.9011 -72.4431 -72.0456 -71.6603 -71.655 -71.6498 -71.6457 -71.6423 -71.6388 -71.0999 -70.5709 -70.1105 -69.8241 -69.5345 -69.4696 -69.405 -69.3604 -69.3303 -69.3014 -68.9378 -68.5844 -68.3146 -68.1997 -68.091 -68.0352 -67.9804 -67.9428 -67.9244 -67.9083 -67.7009 -67.5096 -67.3783 -67.3133 -67.2601 -67.2351 -67.2111 -67.1869 -67.1607 -67.1365 -66.89 -66.6776 -66.3491 -65.9919 -65.7334 -65.6919 -65.6508 -65.5759 -65.4958 -65.4137 -64.9014 -64.4069 -63.9028 -63.1674 -62.4918 -61.9385 -61.3851 -60.6649 -59.9167 -59.1901 -58.6121 -58.0331 -57.4189 -56.6406 -55.8413 -54.4991 -53.1472 -51.5782 -49.8842 -48.4616 -47.7461 -47.0293 -46.2422 -45.388 -44.4836 -42.8491 -41.211 -39.5359 -37.774 -36.2398 -34.7881 -33.3362 -31.7781 -30.1994 -28.417 -27.6099 -26.8029 -25.9962 -25.2223 -24.4858 -22.1541 -19.8254 -17.6113 -15.4931 -13.6942 -12.7427 -11.812 -10.9297 -10.049 -9.06956 -8.04275 -7.01879 -5.99784 -5.12303 -4.35999 -2.46161 -0.572837 0.996771 2.27308 3.39428 4.59734 5.61354 6.48516 7.34881 8.46414 8.68019 8.89556 9.11022 9.30183 9.4181 10.4447 11.3468 12.2244 12.879 13.1904 14.018 14.8208 15.2762 15.3795 15.4553 16.0175 16.5478 16.6991 16.5217 16.3382 16.6823 16.9965 16.8946 16.4211 15.9354 16.0697 16.1808 15.8667 15.1115 14.3115 14.1868 13.9108 13.2707 12.5352 11.4107 11.1651 10.7137 10.1996 9.67804 9.33953 8.87546 8.40705 7.93453 7.39731 6.72519 5.79859 4.85301 3.6118 2.09748 0.322804 -0.160608 -0.658851 -1.33443 -2.0115 -2.63714 -3.59647 -4.55788 -5.52114 -6.59311 -7.77462 -9.18559 -10.6002 -12.0947 -13.5982 -14.9674 -15.3054 -15.6436 -15.9919 -16.3651 -16.745 -18.4427 -20.1433 -22.1085 -24.2014 -26.1856 -26.3013 -26.417 -26.5343 -26.653 -26.7722 -28.8545 -30.9372 -32.9734 -34.9594 -36.8883 -37.0575 -37.2266 -37.3889 -37.5476 -37.7071 -39.3086 -40.9101 -42.5006 -44.0678 -45.6087 -46.0228 -46.4369 -46.86 -47.2851 -47.7142 -48.7788 -49.8432 -50.9184 -52.0463 -53.1621 -54.0081 -54.8538 -55.7235 -56.5945 -57.4774 -57.9528 -58.4282 -58.9041 -59.3962 -59.8869 -61.0516 -62.216 -63.3837 -64.577 -65.7723 -65.9844 -66.1963 -66.4066 -66.6169 -66.8274 -67.6291 -68.4309 -69.2328 -70.0392 -70.8484 -71.6573 -72.4683 -73.2858 -74.104 -74.916 -74.9229 -74.9298 -74.9367 -74.9437 -74.9507 -75.6608 -76.3728 -77.0857 -77.8136 -78.5572 -79.0949 -79.6422 -80.2061 -80.7715 -81.3266 -81.3414 -81.3562 -81.3709 -81.3861 -81.4015 -81.8886 -82.38 -82.8731 -83.3825 -83.9137 -84.3202 -84.7284 -85.1388 -85.552 -85.9795 -85.9908 -86.0021 -86.0134 -86.0247 -86.0359 -86.4042 -86.776 -87.1512 -87.5181 -87.8969 -88.1618 -88.4269 -88.6825 -88.9425 -89.1967 -89.2582 -89.3199 -89.3817 -89.4366 -89.491 -89.7858 -90.0898 -90.3919 -90.6643 -90.9623 -91.066 -91.1711 -91.2594 -91.3487 -91.4375 -91.6191 -91.805 -91.9919 -92.1349 -92.2905 -92.4792 -92.675 -92.8259 -92.9738 -93.1221 -93.2071 -93.2935 -93.3729 -93.4284 -93.4874 -93.6918 -93.9107 -94.0743 -94.2179 -94.3672 -94.4133 -94.46 -94.4951 -94.5156 -94.5374 -94.7044 -94.8901 -95.031 -95.1199 -95.222 -95.2722 -95.324 -95.3483 -95.3591 -95.3723 -95.4762 -95.5952 -95.6986 -95.7194 -95.7547 -95.8202 -95.8941 -95.8861 -95.8745 -95.8716 -95.911 -95.955 -96.0038 -95.996 -95.9905 -96.0182 -96.0725 -96.023 -95.9387 -95.8799 -95.8782 -95.8639 -95.8151 -95.7688 -95.721 -95.6855 -95.661 -95.6476 -95.6139 -95.5707 -95.4434 -95.3392 -95.2117 -95.0704 -94.9588 -94.8006 -94.6199 -94.4434 -94.2867 -94.0901 -94.0865 -94.0828 -94.0792 -94.0754 -94.0694 -93.8154 -93.584 -93.3773 -93.1904 -92.9798 -92.7253 -92.4808 -92.2367 -91.9794 -91.7466 -91.4695 -91.2191 -90.9467 -90.6584 -90.3977 -90.0935 -89.8153 -89.5149 -89.1828 -88.8749 -88.5263 -88.202 -87.8384 -87.4526 -87.0869 -86.6918 -86.3036 -85.8402 -85.394 -84.9617 -84.5059 -83.973 -83.4489 -82.9436 -82.4538 -82.4005 -82.3364 -82.2714 -82.2066 -82.1452 -81.6206 -81.1099 -80.6134 -80.1226 -79.5624 -78.8824 -78.2205 -77.6055 -76.941 -76.2764 -75.6225 -74.9424 -74.2459 -73.5627 -73.0655 -72.991 -72.9166 -72.8425 -72.7639 -72.6822 -71.908 -71.1778 -70.462 -69.724 -68.9681 -68.3902 -67.8171 -67.2373 -66.6658 -66.1968 -65.988 -65.7804 -65.5741 -65.3688 -65.1619 -64.3635 -63.5815 -62.8326 -62.1368 -61.4201 -61.314 -61.2082 -61.106 -61.0048 -60.907 -60.2662 -59.6368 -59.0298 -58.4657 -57.8802 -57.6802 -57.4818 -57.2948 -57.1155 -56.9495 -56.4459 -55.9521 -55.4959 -55.0775 -54.6391 -54.4971 -54.3565 -54.2229 -54.1005 -53.9862 -53.4874 -53.0032 -52.5873 -52.2059 -51.7955 -51.788 -51.7805 -51.7731 -51.7668 -51.7605 -51.3931 -51.0511 -50.7344 -50.4939 -50.3115 -50.1283 -49.9582 -49.8248 -49.6968 -49.5596 -49.4897 -49.422 -49.3566 -49.3063 -49.2661 -49.0512 -48.8662 -48.7486 -48.6899 -48.6502 -48.495 -48.3812 -48.2967 -48.222 -48.1685 -48.161 -48.1561 -48.1519 -48.1478 -48.1436 -48.0802 -48.0233 -47.9729 -47.9371 -47.938 -47.8312 -47.7317 -47.7093 -47.7257 -47.7423 -47.6009 -47.4735 -47.3865 -47.3178 -47.3029 -47.1776 -47.0746 -46.9732 -46.8709 -46.7704 -46.7184 -46.6663 -46.614 -46.562 -46.5136 -46.2449 -46.0119 -45.7758 -45.5533 -45.3352 -44.9411 -44.5431 -44.1715 -43.8458 -43.5125 -43.1874 -42.8774 -42.5767 -42.2743 -41.9898 -41.7981 -41.6057 -41.4126 -41.2229 -41.0346 -40.3864 -39.7509 -39.1273 -38.514 -37.8678 -37.2338 -36.6054 -35.9911 -35.3748 -34.7995 -34.5958 -34.3919 -34.1878 -33.9885 -33.788 -32.8221 -31.8607 -30.9165 -29.9913 -29.0135 -28.5255 -28.0374 -27.5656 -27.0933 -26.6359 -25.9985 -25.3602 -24.721 -24.0973 -23.4502 -22.4124 -21.3735 -20.3722 -19.3759 -18.4442 -18.1923 -17.9404 -17.69 -17.4467 -17.1994 -15.8603 -14.5209 -13.2464 -11.9991 -10.8566 -10.7994 -10.7421 -10.6863 -10.6331 -10.5796 -9.29873 -8.02171 -6.81072 -5.67772 -4.44928 -4.37178 -4.29429 -4.22235 -4.15465 -4.08729 -2.98513 -1.88443 -0.845364 0.110995 1.15902 1.2501 1.34117 1.42585 1.50316 1.57991 2.54594 3.50954 4.39629 5.21527 6.12987 6.1413 6.15272 6.16354 6.17318 6.18282 6.99527 7.80037 8.5518 9.21694 9.82664 9.94703 10.0673 10.1708 10.2694 10.3705 10.8763 11.3791 11.8587 12.2539 12.6229 12.892 13.16 13.3774 13.5884 13.8189 14.0196 14.2194 14.4177 14.5719 14.7204 15.0943 15.4645 15.7539 16.0296 16.2699 16.3146 16.3567 16.3888 16.4209 16.454 16.6517 16.8465 17.0384 17.1774 17.2929 17.4774 17.6502 17.7652 17.8772 17.9676 17.998 18.0218 18.0396 18.0572 18.0759 18.1396 18.2014 18.2615 18.3054 18.3268 18.388 18.4467 18.4775 18.4769 18.474 18.502 18.5067 18.4915 18.4745 18.4461 18.4446 18.4273 18.4098 18.392 18.3706 18.3493 18.3274 18.305 18.2821 18.2429 18.1921 18.1314 18.0692 17.9978 17.9051 17.8385 17.7679 17.6881 17.5839 17.4777 17.3973 17.316 17.2179 17.1025 16.9868 16.8971 16.8068 16.6974 16.5761 16.4547 16.3592 16.2598 16.1455 16.0249 15.9019 15.8044 15.7002 15.586 15.4677 15.3462 15.2484 15.1439 15.0325 14.9184 14.8016 14.7065 14.6058 14.4992 14.3906 14.28 14.1895 14.095 13.9946 13.892 13.7883 13.7035 13.6168 13.5229 13.4265 13.3293 13.2502 13.171 13.0843 12.9948 12.9049 12.832 12.759 12.6812 12.599 12.5165 12.4496 12.3825 12.3138 12.239 12.1641 12.1032 12.0418 11.9796 11.9152 11.8476 11.7928 11.7374 11.6818 11.6261 11.5672 11.5238 11.48 11.4363 11.3924 11.3551 11.3483 11.3415 11.3348 11.328 11.3212 11.278 11.2344 11.1907 11.1469 11.1027 11.0683 11.0307 10.9928 10.9545 10.9157 10.8862 10.8567 10.824 10.7903 10.7564 10.7313 10.706 10.6796 10.651 10.6213 10.5997 10.5768 10.5538 10.5307 10.5065 10.5021 10.4975 10.4928 10.4881 10.4835 10.4674 10.4513 10.4351 10.4189 10.4021 10.3866 10.3685 10.3498 10.3306 10.3109 10.297 10.283 10.2681 10.2508 10.2335 10.221 10.2083 10.1954 10.1824 10.1686 10.1664 10.1643 10.1621 10.16 10.1579 10.1486 10.1393 10.13 10.1207 10.1124 10.1038 10.0948 10.0851 10.0766 10.068 10.0607 10.0537 10.0475 10.0412 10.0342 10.0314 10.029 10.0268 10.0245 10.0222 10.0192 10.0162 10.0132 10.0103 10.0076 10.004 9.99978 9.99523 9.99105 9.98687 9.98349 9.98008 9.97658 9.97308 9.96885 9.96767 9.96634 9.96495 9.96356 9.96218 9.95958 9.95698 9.95438 9.95168 9.94877 9.9445 9.94017 9.93483 9.92879 9.92275 9.91651 9.90951 9.90197 9.89442 9.88672 9.88624 9.8857 9.88513 9.88456 9.884 9.87529 9.86658 9.85788 9.84887 9.83931 9.8281 9.81688 9.80513 9.79245 9.77978 9.76956 9.75936 9.74917 9.73898 9.72859 9.72511 9.72163 9.71815 9.71471 9.71134 9.69704 9.68234 9.66763 9.65363 9.63992 9.62479 9.60975 9.59615 9.58247 9.56862 9.56163 9.55518 9.54899 9.5428 9.53636 9.52919 9.52202 9.51485 9.50797 9.5018 9.4887 9.47566 9.46265 9.45156 9.44053 9.428 9.41594 9.40559 9.39523 9.38519 9.37984 9.37538 9.37112 9.36686 9.36229 9.35727 9.35225 9.34722 9.34233 9.33832 9.32974 9.32166 9.31359 9.30691 9.30077 9.29378 9.28674 9.28105 9.27637 9.27166 9.26625 9.26216 9.25835 9.25449 9.25089 9.25004 9.24953 9.24902 9.24851 9.24797 9.24604 9.24408 9.2421 9.24009 9.23932 9.23745 9.23659 9.23582 9.23604 9.23692 9.2369 9.23683 9.23822 9.24101 9.24377 9.24571 9.2479 9.25095 9.25447 9.25863 9.26204 9.26644 9.27081 9.27516 9.27993 9.28187 9.28401 9.28615 9.28829 9.29054 9.29372 9.29689 9.30005 9.30321 9.30651 9.31211 9.31818 9.32424 9.3303 9.33658 9.34237 9.34858 9.35514 9.36176 9.36839 9.37447 9.38053 9.38701 9.3936 9.40018 9.40622 9.41225 9.41786 9.4238 9.42978 9.43519 9.44032 9.44525 9.4502 9.4554 9.45989 9.46381 9.46773 9.47165 9.47557 9.47686 9.47798 9.47909 9.4802 9.48132 9.48291 9.4845 9.48609 9.48768 9.48919 9.49037 9.49164 9.49291 9.49417 9.49517 9.49463 9.49429 9.49399 9.49359 9.49307 9.49096 9.4889 9.48729 9.48581 9.48432 9.48123 9.47814 9.47501 9.47186 9.46871 9.46394 9.4592 9.45595 9.45401 9.45228 9.44875 9.44474 9.43965 9.43366 9.42734 9.4193 9.41123 9.40305 9.39521 9.38743 9.37782 9.36819 9.3591 9.35067 9.34223 9.33203 9.32181 9.3128 9.30494 9.29707 9.2876 9.27811 9.2703 9.26421 9.2581 9.25053 9.24392 9.23845 9.23321 9.22905 9.22384 9.21972 9.21559 9.21145 9.20763 9.20756 9.20749 9.20742 9.20735 9.2073 9.20387 9.20043 9.19699 9.19354 9.19136 9.18906 9.18654 9.18339 9.17987 9.17634 9.17282 9.16959 9.16711 9.16463 9.16202 9.16128 9.16023 9.159 9.15777 9.15658 9.15452 9.15247 9.15043 9.14791 9.14474 9.13988 9.13503 9.13248 9.13214 9.1318 9.13151 9.13043 9.12809 9.12574 9.12344 9.12298 9.12253 9.12208 9.1206 9.11851 9.11383 9.10915 9.09773 9.08019 9.06265 9.05388 9.0439 9.02966 9.01541 9.00082 8.99053 8.98023 8.96992 8.95541 8.93962 8.90741 8.87517 8.83541 8.78959 8.74309 8.73034 8.71712 8.70119 8.68525 8.66878 8.63181 8.59477 8.55766 8.51326 8.46736 8.40511 8.3412 8.26483 8.18846 8.09968 8.09941 8.09914 8.09887 8.09856 8.09824 8.00712 7.91556 7.82373 7.71402 7.60099 7.51569 7.42775 7.32525 7.22279 7.10216 7.07211 7.04204 7.01196 6.97782 6.94226 6.79049 6.6327 6.46343 6.26608 6.0687 5.93948 5.80619 5.66082 5.5155 5.34283 5.2693 5.19573 5.12212 5.04302 4.96079 4.71355 4.459 4.17792 3.84985 3.52173 3.27294 3.03634 2.82139 2.60619 2.34776 2.27044 2.19314 2.11586 2.04416 1.97739 1.68698 1.33982 0.991584 0.501675 0