# vtk DataFile Version 2.0
track0
ASCII
DATASET POLYDATA
POINTS 11626 double
-0.0205 0.001 1e-05
-0.0204991 0.00100536 1e-05
-0.0204976 0.00101063 1e-05
-0.0204947 0.00101518 1e-05
-0.0204905 0.00101864 1e-05
-0.0204746 0.00102682 1e-05
-0.0201831 0.00105563 1e-05
-0.0203616 0.00128794 1e-05
-0.0204488 0.00141936 1e-05
-0.0201625 0.0014444 1e-05
-0.0201519 0.00173163 1e-05
-0.0202219 0.00184007 1e-05
-0.0200495 0.00193025 1e-05
-0.0200808 0.00212222 1e-05
-0.0201294 0.00229098 1e-05
-0.0200087 0.00238763 1e-05
-0.0199911 0.00254123 1e-05
-0.0200041 0.00269529 1e-05
-0.0199827 0.00277425 1e-05
-0.019869 0.00287784 1e-05
-0.0198179 0.00302292 1e-05
-0.0198054 0.00317624 1e-05
-0.0197599 0.00329221 1e-05
-0.0196347 0.00340323 1e-05
-0.0195485 0.00354672 1e-05
-0.0194776 0.0036983 1e-05
-0.019391 0.0038415 1e-05
-0.0193841 0.00384734 1e-05
-0.0193107 0.00390806 1e-05
-0.0192438 0.00397589 1e-05
-0.019179 0.00404569 1e-05
-0.0191112 0.00411261 1e-05
-0.0190172 0.00419776 1e-05
-0.0189564 0.00424667 1e-05
-0.0188939 0.00429329 1e-05
-0.0188296 0.0043376 1e-05
-0.0187639 0.00437959 1e-05
-0.0186583 0.00444232 1e-05
-0.0184262 0.0045652 1e-05
-0.0181851 0.0046694 1e-05
-0.0179369 0.00475556 1e-05
-0.0176828 0.00482187 1e-05
-0.0174976 0.0048534 1e-05
-0.0172058 0.0048841 1e-05
-0.0169124 0.00488581 1e-05
-0.0166199 0.00486341 1e-05
-0.0163297 0.00482016 1e-05
-0.0160387 0.00475602 1e-05
-0.0158296 0.00469328 1e-05
-0.0156241 0.00461949 1e-05
-0.0154229 0.00453501 1e-05
-0.0152244 0.00444407 1e-05
-0.0152209 0.00444232 1e-05
-0.0151043 0.00438394 1e-05
-0.0149906 0.00432029 1e-05
-0.01488 0.00425128 1e-05
-0.0147717 0.00417866 1e-05
-0.0146381 0.00408314 1e-05
-0.0145774 0.00403598 1e-05
-0.0145176 0.00398773 1e-05
-0.0144588 0.00393838 1e-05
-0.0144008 0.00388792 1e-05
-0.014355 0.00384734 1e-05
-0.014231 0.00373631 1e-05
-0.0141134 0.00361838 1e-05
-0.0140034 0.0034934 1e-05
-0.0138994 0.00336342 1e-05
-0.0138449 0.00329221 1e-05
-0.0137678 0.00318862 1e-05
-0.0136981 0.00307984 1e-05
-0.0136349 0.00296725 1e-05
-0.0135754 0.0028526 1e-05
-0.0135382 0.00277425 1e-05
-0.0134952 0.0026776 1e-05
-0.0134593 0.00257806 1e-05
-0.0134274 0.00247718 1e-05
-0.0134001 0.00237496 1e-05
-0.0133821 0.00229098 1e-05
-0.0133671 0.0022008 1e-05
-0.013358 0.00210982 1e-05
-0.0133543 0.00201846 1e-05
-0.0133566 0.00192706 1e-05
-0.0133652 0.00184007 1e-05
-0.0133799 0.00175593 1e-05
-0.0134024 0.00167351 1e-05
-0.0134318 0.00159329 1e-05
-0.0134682 0.00151599 1e-05
-0.0135248 0.00141936 1e-05
-0.0135822 0.00134085 1e-05
-0.0136505 0.00127163 1e-05
-0.0137247 0.00120865 1e-05
-0.0138033 0.00115142 1e-05
-0.013997 0.00102682 1e-05
-0.0141252 0.000957584 1e-05
-0.0142602 0.000902604 1e-05
-0.0143984 0.000856417 1e-05
-0.0145372 0.000812271 1e-05
-0.0146381 0.000781892 1e-05
-0.014722 0.000757627 1e-05
-0.0148062 0.000734707 1e-05
-0.0148908 0.000712925 1e-05
-0.0149759 0.000693157 1e-05
-0.0151495 0.000660566 1e-05
-0.0153273 0.000637985 1e-05
-0.0155056 0.000618824 1e-05
-0.0156841 0.000602324 1e-05
-0.0158628 0.000587819 1e-05
-0.0160387 0.000568119 1e-05
-0.0162829 0.000518263 1e-05
-0.016531 0.000493525 1e-05
-0.01678 0.000482472 1e-05
-0.0170292 0.000475661 1e-05
-0.0174976 0.000406311 1e-05
-0.0174976 0.000406311 1e-05
-0.0174976 0.000406311 1e-05
-0.0174976 0.000406311 1e-05
-0.0174976 0.000406311 1e-05
-0.0174976 0.000406311 1e-05
-0.0174951 0.000388817 1e-05
-0.0174898 0.000372001 1e-05
-0.0174821 0.000356103 1e-05
-0.0174727 0.000341152 1e-05
-0.0174557 0.000318841 1e-05
-0.0173838 0.000255072 1e-05
-0.0172967 0.000214401 1e-05
-0.0172047 0.000186608 1e-05
-0.0171106 0.000167069 1e-05
-0.0160387 4.48577e-06 1e-05
-0.0160287 3.58861e-06 1e-05
-0.0160187 3.13018e-06 1e-05
-0.0160086 2.71386e-06 1e-05
-0.0159986 2.29754e-06 1e-05
-0.0159433 0 1e-05
-0.0205 0.00367778 1e-05
-0.0203955 0.00371169 1e-05
-0.0203045 0.0037732 1e-05
-0.0202171 0.00383976 1e-05
-0.0201979 0.00384734 1e-05
-0.0199618 0.0039343 1e-05
-0.019766 0.00409241 1e-05
-0.0196201 0.00429747 1e-05
-0.0194752 0.00444232 1e-05
-0.0193836 0.00449614 1e-05
-0.0192963 0.00455662 1e-05
-0.0192132 0.00462284 1e-05
-0.0191277 0.00468594 1e-05
-0.0190172 0.00476141 1e-05
-0.018914 0.00482513 1e-05
-0.0188082 0.00488432 1e-05
-0.0187001 0.00493904 1e-05
-0.0185898 0.00498943 1e-05
-0.0183684 0.00508 1e-05
-0.0181942 0.00513498 1e-05
-0.018018 0.005183 1e-05
-0.0178401 0.00522421 1e-05
-0.0176607 0.00525849 1e-05
-0.0174976 0.00528147 1e-05
-0.0172058 0.00530935 1e-05
-0.0169127 0.00531417 1e-05
-0.0166201 0.00529714 1e-05
-0.0163294 0.00525992 1e-05
-0.0160387 0.0052049 1e-05
-0.0159407 0.00517992 1e-05
-0.0158432 0.00515296 1e-05
-0.0157463 0.00512411 1e-05
-0.0156497 0.00509404 1e-05
-0.0156066 0.00508 1e-05
-0.0154129 0.00501574 1e-05
-0.0152226 0.00494201 1e-05
-0.0150364 0.00485847 1e-05
-0.0148545 0.00476587 1e-05
-0.0146381 0.00464589 1e-05
-0.0145721 0.00460518 1e-05
-0.0145066 0.00456358 1e-05
-0.0144417 0.0045211 1e-05
-0.0143773 0.00447784 1e-05
-0.014325 0.00444232 1e-05
-0.0141516 0.00432332 1e-05
-0.0139846 0.00419532 1e-05
-0.0138254 0.00405779 1e-05
-0.0136708 0.00391505 1e-05
-0.0136004 0.00384734 1e-05
-0.013539 0.00378713 1e-05
-0.0134798 0.00372483 1e-05
-0.013422 0.00366112 1e-05
-0.0133651 0.00359662 1e-05
-0.0132934 0.00351289 1e-05
-0.0132571 0.00346875 1e-05
-0.0132213 0.00342425 1e-05
-0.0131859 0.00337939 1e-05
-0.0131509 0.00333415 1e-05
-0.0131191 0.00329221 1e-05
-0.0130411 0.00318862 1e-05
-0.012965 0.0030836 1e-05
-0.0128917 0.00297658 1e-05
-0.0128216 0.00286743 1e-05
-0.0127644 0.00277425 1e-05
-0.0127067 0.0026776 1e-05
-0.0126505 0.00258012 1e-05
-0.0125958 0.00248176 1e-05
-0.0125426 0.0023826 1e-05
-0.0124958 0.00229098 1e-05
-0.0124523 0.0022008 1e-05
-0.012409 0.00211048 1e-05
-0.012366 0.00202004 1e-05
-0.0123233 0.00192947 1e-05
-0.0122824 0.00184007 1e-05
-0.0122475 0.00175593 1e-05
-0.0122112 0.00167242 1e-05
-0.0121735 0.00158948 1e-05
-0.0121344 0.00150722 1e-05
-0.0120903 0.00141936 1e-05
-0.0120727 0.00138535 1e-05
-0.0120538 0.00135211 1e-05
-0.0120336 0.00131959 1e-05
-0.0120122 0.00128788 1e-05
-0.0120025 0.00127474 1e-05
-0.0119646 0.00122516 1e-05
-0.0119236 0.00117812 1e-05
-0.0118795 0.00113395 1e-05
-0.0118325 0.00109297 1e-05
-0.0117447 0.00102682 1e-05
-0.0116298 0.000953567 1e-05
-0.011507 0.000894548 1e-05
-0.0113795 0.000846285 1e-05
-0.0112492 0.00080646 1e-05
-0.0107632 0.000719312 1e-05
-0.0105252 0.000728437 1e-05
-0.0102871 0.000724963 1e-05
-0.010049 0.000723127 1e-05
-0.00981084 0.000722292 1e-05
-0.00957337 0.000722093 1e-05
-0.00934491 0.000731625 1e-05
-0.00911628 0.000728205 1e-05
-0.00888763 0.000725866 1e-05
-0.00865898 0.000724268 1e-05
-0.00843108 0.00072319 1e-05
-0.00821175 0.000732256 1e-05
-0.00799227 0.000728239 1e-05
-0.00777277 0.00072523 1e-05
-0.00755327 0.000722947 1e-05
-0.00733443 0.000721196 1e-05
-0.00712387 0.000729617 1e-05
-0.00691317 0.000725472 1e-05
-0.00670246 0.000722244 1e-05
-0.00649174 0.000719695 1e-05
-0.0062816 0.000717659 1e-05
-0.00607944 0.00072537 1e-05
-0.00587718 0.000721481 1e-05
-0.0056749 0.00071838 1e-05
-0.00547262 0.000715877 1e-05
-0.00527083 0.000713836 1e-05
-0.00507675 0.000720846 1e-05
-0.00488258 0.000717355 1e-05
-0.0046884 0.000714523 1e-05
-0.00449421 0.0007122 1e-05
-0.00430044 0.000710278 1e-05
-0.00411412 0.000716633 1e-05
-0.00392771 0.000713562 1e-05
-0.0037413 0.000711031 1e-05
-0.00355488 0.000708925 1e-05
-0.00336883 0.000707158 1e-05
-0.00318995 0.000712913 1e-05
-0.003011 0.000710212 1e-05
-0.00283204 0.000707963 1e-05
-0.00265308 0.000706077 1e-05
-0.00247443 0.000704484 1e-05
-0.0023027 0.000709729 1e-05
-0.0021309 0.000707382 1e-05
-0.0019591 0.00070539 1e-05
-0.0017873 0.000703687 1e-05
-0.00161577 0.000702221 1e-05
-0.0014509 0.000706956 1e-05
-0.00128598 0.000704867 1e-05
-0.00112105 0.000703165 1e-05
-0.000956113 0.00070178 1e-05
-0.000791418 0.000700656 1e-05
-0.000633135 0.000705265 1e-05
-0.00047479 0.000703883 1e-05
-0.000316441 0.000703044 1e-05
-0.000158091 0.000702653 1e-05
0 0.000702634 1e-05
0.000105677 0.000706575 1e-05
0.000211428 0.00070687 1e-05
0.000317178 0.00070731 1e-05
0.000422927 0.00070788 1e-05
0.000528387 0.000708565 1e-05
0.000634886 0.000712945 1e-05
0.000741473 0.00071367 1e-05
0.00084806 0.000714305 1e-05
0.000954648 0.000714859 1e-05
0.00106088 0.000715338 1e-05
0.00116821 0.000719325 1e-05
0.00127561 0.000719889 1e-05
0.00138301 0.000720409 1e-05
0.00149041 0.000720887 1e-05
0.00159752 0.000721326 1e-05
0.00170568 0.000725101 1e-05
0.00181391 0.000725706 1e-05
0.00192213 0.000726365 1e-05
0.00203036 0.000727076 1e-05
0.00213833 0.000727833 1e-05
0.00224733 0.000731888 1e-05
0.0023564 0.000732922 1e-05
0.00246547 0.000734107 1e-05
0.00257454 0.000735434 1e-05
0.00268334 0.000736889 1e-05
0.00279319 0.000741792 1e-05
0.00290313 0.000743631 1e-05
0.00301307 0.000745691 1e-05
0.00312301 0.00074796 1e-05
0.00323259 0.000750417 1e-05
0.00334329 0.000756688 1e-05
0.00345413 0.000759802 1e-05
0.00356496 0.000763218 1e-05
0.00367578 0.000766917 1e-05
0.00378611 0.000770976 1e-05
0.00389767 0.000779208 1e-05
0.0040094 0.00078484 1e-05
0.00412113 0.0007903 1e-05
0.00423285 0.000796102 1e-05
0.00434393 0.000803243 1e-05
0.00445636 0.000813938 1e-05
0.00456894 0.000823017 1e-05
0.00468158 0.000831215 1e-05
0.00479419 0.00083976 1e-05
0.00490609 0.000850358 1e-05
0.0050194 0.000863689 1e-05
0.00513279 0.000876248 1e-05
0.00524627 0.000888043 1e-05
0.00535969 0.000900302 1e-05
0.00547262 0.000914214 1e-05
0.00558681 0.000930013 1e-05
0.00570103 0.000945572 1e-05
0.00581527 0.000960964 1e-05
0.00592945 0.000976855 1e-05
0.00604356 0.000993561 1e-05
0.00615863 0.00101144 1e-05
0.00627371 0.00102931 1e-05
0.00638874 0.00104748 1e-05
0.00650371 0.00106599 1e-05
0.00661893 0.00108487 1e-05
0.00664174 0.00108868 1e-05
0.00666455 0.0010925 1e-05
0.00668735 0.00109632 1e-05
0.00671016 0.00110015 1e-05
0.00673273 0.00110394 1e-05
0.00682594 0.00111964 1e-05
0.00691913 0.00113545 1e-05
0.0070123 0.00115137 1e-05
[...]
POINT_DATA 11626
 FIELD attributes 1
U 3 11626 float
1.13293 	6.39882 	0 1.59182 	5.97923 	0 3.06063 	4.65987 	0 4.29071 	3.52872 	0 5.18159 	2.68002 	0 7.15412 	0.707074 	0 -4.22493 	5.50134 	0 -5.18634 	7.81064 	0 7.56558 	0.66169 	0 0.172337 	4.66551 	0 -9.05061 	14.026 	0 5.93244 	3.10454 	0 -2.52865 	15.5161 	0 -6.42132 	22.2979 	0 7.16735 	5.7408 	0 1.97808 	17.2206 	0 -2.24946 	26.6777 	0 4.29359 	15.8487 	0 9.07753 	8.26953 	0 6.22466 	17.6649 	0 2.39078 	29.3745 	0 7.48985 	19.1127 	0 11.952 	10.596 	0 10.9784 	18.2843 	0 10.8649 	23.2116 	0 12.8647 	21.2641 	0 16.0838 	13.7024 	0 16.2322 	13.4305 	0 16.3926 	16.6278 	0 16.8098 	18.0994 	0 17.5792 	17.3594 	0 18.3612 	16.6176 	0 19.4179 	15.6289 	0 20.1841 	15.0451 	0 20.9588 	14.4639 	0 21.7409 	13.886 	0 22.0865 	13.1221 	0 22.0706 	11.6824 	0 24.2722 	10.4893 	0 26.3539 	9.15043 	0 27.0757 	7.06412 	0 27.2301 	4.63709 	0 27.3569 	2.87782 	0 28.0762 	0.163872 	0 28.3345 	-2.16972 	0 28.2622 	-4.21196 	0 27.2035 	-5.99638 	0 25.8091 	-7.74443 	0 25.2005 	-9.05106 	0 24.5615 	-10.3088 	0 23.355 	-10.7014 	0 22.1384 	-11.0702 	0 22.1163 	-11.0763 	0 21.4875 	-12.0227 	0 20.8619 	-13.015 	0 20.022 	-13.4303 	0 19.111 	-13.662 	0 17.9616 	-13.967 	0 17.5262 	-14.1438 	0 17.0894 	-14.3237 	0 16.6515 	-14.5069 	0 16.3203 	-14.4563 	0 16.0721 	-14.3819 	0 14.8171 	-14.8682 	0 13.5197 	-15.3585 	0 12.3293 	-15.4021 	0 11.4574 	-14.9798 	0 10.9837 	-14.7523 	0 9.65707 	-15.088 	0 8.54423 	-15.2032 	0 7.77093 	-14.9818 	0 6.95776 	-14.6619 	0 6.36597 	-14.296 	0 5.15376 	-14.293 	0 4.40948 	-13.9562 	0 3.6432 	-13.6297 	0 2.85375 	-13.3151 	0 2.16434 	-12.9741 	0 1.25273 	-12.6157 	0 0.492551 	-12.2054 	0 -0.29817 	-11.8093 	0 -1.11982 	-11.4306 	0 -1.94056 	-11.0466 	0 -2.87999 	-10.5495 	0 -3.69306 	-10.0863 	0 -4.54108 	-9.65229 	0 -5.41931 	-9.25239 	0 -6.42871 	-8.78987 	0 -8.01367 	-8.11877 	0 -8.9928 	-7.63997 	0 -9.94325 	-7.23506 	0 -10.7289 	-6.90086 	0 -11.6363 	-6.28351 	0 -13.1477 	-5.35703 	0 -14.0341 	-4.69032 	0 -13.1771 	-4.18921 	0 -12.3623 	-3.724 	0 -11.805 	-3.41461 	0 -12.4055 	-3.3742 	0 -13.0386 	-3.35823 	0 -13.8551 	-3.21994 	0 -15.0412 	-2.82341 	0 -17.5328 	-2.22617 	0 -18.2398 	-1.96088 	0 -19.2785 	-1.78199 	0 -20.5748 	-1.6703 	0 -19.9132 	-2.22974 	0 -16.3483 	-3.33713 	0 -24.5087 	-2.44432 	0 -37.1272 	-1.64787 	0 -49.531 	-1.35386 	0 -35.3662 	-5.2364 	0 1.80735 	-13.0829 	0 1.80735 	-13.0829 	0 1.80735 	-13.0829 	0 1.80735 	-13.0829 	0 1.80735 	-13.0829 	0 1.80735 	-13.0829 	0 4.2096 	-13.1205 	0 6.34099 	-13.1071 	0 8.20614 	-13.0528 	0 9.8349 	-12.9668 	0 14.828 	-13.1446 	0 23.0791 	-10.7765 	0 30.0056 	-9.06205 	0 38.0145 	-7.8917 	0 46.6108 	-7.06997 	0 0.356557 	-0.0320146 	0 1.19712 	-0.0547617 	0 1.50367 	-0.0624542 	0 1.30368 	-0.0541477 	0 1.10369 	-0.0458412 	0 0 	0 	0
9.83289 	3.19099 	0 9.65826 	6.52559 	0 10.0779 	7.67516 	0 11.8159 	4.68068 	0 12.0608 	4.44117 	0 12.9623 	10.4675 	0 13.4041 	18.8444 	0 15.34 	15.3337 	0 17.3396 	10.1863 	0 17.8522 	12.3609 	0 18.3292 	14.6065 	0 18.9072 	13.9575 	0 19.5027 	13.3183 	0 20.2736 	12.5265 	0 21.1492 	11.8325 	0 22.0484 	11.1557 	0 22.9688 	10.4964 	0 23.0565 	9.42879 	0 23.1844 	7.31939 	0 24.2104 	6.59752 	0 25.2166 	5.84069 	0 26.0669 	4.98103 	0 26.0987 	3.67652 	0 26.1682 	2.50058 	0 26.7787 	0.440224 	0 27.5065 	-1.60011 	0 27.2061 	-3.48293 	0 26.266 	-4.97136 	0 25.3057 	-6.45084 	0 25.1423 	-6.95438 	0 24.9598 	-7.43003 	0 24.5407 	-7.64113 	0 24.1233 	-7.8494 	0 23.9367 	-7.94158 	0 23.296 	-9.02551 	0 22.7001 	-10.185 	0 22.0119 	-11.2081 	0 20.8954 	-11.5828 	0 19.5633 	-12.0642 	0 19.2565 	-12.2332 	0 18.9518 	-12.4053 	0 18.6604 	-12.541 	0 18.4169 	-12.5162 	0 18.2195 	-12.4965 	0 17.0611 	-13.0813 	0 15.8951 	-13.7297 	0 14.9625 	-13.8197 	0 14.1101 	-13.5661 	0 13.7147 	-13.4494 	0 13.0525 	-13.7204 	0 12.5207 	-13.8127 	0 12.1114 	-13.7369 	0 11.7 	-13.665 	0 11.17 	-13.5781 	0 10.9273 	-13.558 	0 10.6834 	-13.5395 	0 10.4381 	-13.5227 	0 10.2235 	-13.4804 	0 10.0876 	-13.3892 	0 9.60518 	-13.253 	0 8.93253 	-13.0439 	0 8.24361 	-12.8417 	0 7.69653 	-12.5235 	0 7.28393 	-12.2144 	0 6.89835 	-11.9565 	0 6.50669 	-11.7022 	0 6.08497 	-11.3413 	0 5.54753 	-10.8719 	0 5.04307 	-10.4451 	0 4.8193 	-10.0592 	0 4.59777 	-9.67234 	0 4.3812 	-9.28369 	0 4.05474 	-8.86485 	0 3.47504 	-8.38386 	0 3.47008 	-7.96611 	0 3.39161 	-7.47487 	0 3.32072 	-6.98282 	0 3.25885 	-6.48996 	0 3.0402 	-5.8903 	0 3.22047 	-5.65103 	0 3.37428 	-5.44128 	0 3.53482 	-5.23342 	0 3.70217 	-5.02784 	0 3.77641 	-4.94138 	0 3.9969 	-4.58481 	0 4.22814 	-4.23448 	0 4.46965 	-3.89226 	0 4.72058 	-3.56003 	0 5.28861 	-3.37088 	0 6.45041 	-3.09911 	0 7.53157 	-2.85207 	0 8.55576 	-2.61431 	0 10.1884 	-1.82692 	0 15.3096 	0.587057 	0 15.3829 	-0.224416 	0 16.1765 	-0.124727 	0 16.9303 	-0.0593136 	0 17.6597 	-0.0148679 	0 18.8787 	0.787746 	0 18.7492 	-0.280461 	0 19.2793 	-0.19727 	0 19.7855 	-0.138271 	0 20.2753 	-0.095877 	0 21.1838 	0.875578 	0 20.9542 	-0.383455 	0 21.3474 	-0.292645 	0 21.7197 	-0.225938 	0 22.077 	-0.176593 	0 22.7884 	0.911374 	0 22.526 	-0.443167 	0 22.8401 	-0.349945 	0 23.1357 	-0.279856 	0 23.4177 	-0.226914 	0 24.0044 	0.915689 	0 23.7295 	-0.456327 	0 23.9888 	-0.36773 	0 24.2325 	-0.299789 	0 24.4643 	-0.247513 	0 24.9724 	0.901999 	0 24.6883 	-0.443892 	0 24.9063 	-0.363262 	0 25.111 	-0.300324 	0 25.3056 	-0.251072 	0 25.7629 	0.878692 	0 25.4704 	-0.419528 	0 25.6554 	-0.348302 	0 25.8294 	-0.291793 	0 25.9948 	-0.24687 	0 26.4185 	0.849884 	0 26.1216 	-0.394333 	0 26.2871 	-0.330261 	0 26.4431 	-0.278684 	0 26.5916 	-0.237097 	0 26.9973 	0.824462 	0 26.6937 	-0.364673 	0 26.8424 	-0.311174 	0 26.9836 	-0.26751 	0 27.1185 	-0.231829 	0 27.5114 	0.790227 	0 27.2012 	-0.34451 	0 27.3815 	-0.282564 	0 27.553 	-0.231444 	0 27.7171 	-0.189183 	0 28.1537 	0.819738 	0 27.8045 	-0.242627 	-3.77046e-21 28.0296 	-0.148468 	-1.36301e-20 28.2404 	-0.0696785 	-2.34182e-20 28.4393 	-0.00357158 	-3.31473e-20 28.988 	1.08122 	-2.76028e-20 28.5925 	0.0796422 	-1.41692e-19 28.7647 	0.119744 	-1.20549e-19 28.9328 	0.156012 	-9.97696e-20 29.097 	0.188858 	-7.93162e-20 29.693 	1.22137 	4.35734e-20 29.2549 	0.198904 	2.73707e-20 29.3578 	0.174951 	2.39168e-20 29.4633 	0.153164 	2.05004e-20 29.5711 	0.133341 	1.71178e-20 30.1375 	1.11933 	1.18658e-20 29.7004 	0.156181 	1.316e-20 29.7461 	0.14393 	-2.08198e-20 29.7931 	0.132647 	-5.48123e-20 29.8412 	0.122256 	-8.88164e-20 30.3253 	1.05851 	-1.18474e-19 29.9137 	0.167055 	-9.14962e-20 29.9241 	0.182363 	-6.84002e-20 29.9331 	0.1966 	-4.52812e-20 29.9408 	0.209842 	-2.21407e-20 30.3512 	1.12924 	-6.90553e-20 29.9592 	0.283956 	-1.67633e-19 29.9624 	0.325532 	-1.53814e-19 29.962 	0.364394 	-1.4045e-19 29.9582 	0.400717 	-1.2751e-19 30.3449 	1.3545 	2.18489e-20 29.937 	0.500607 	4.01375e-20 29.9501 	0.561355 	6.26543e-20 29.958 	0.618343 	8.50415e-20 29.9611 	0.671804 	1.07307e-19 30.3848 	1.72102 	1.5858e-19 29.9321 	0.841074 	4.12672e-19 29.959 	0.923262 	4.09201e-19 29.9789 	1.00075 	4.06835e-19 30.0059 	1.10381 	3.96845e-19 30.4988 	2.25035 	8.49742e-20 30.1185 	1.5184 	-2.15035e-19 30.0684 	1.4692 	-3.12784e-19 30.0813 	1.56231 	-3.68253e-19 30.2204 	1.94279 	-3.24089e-19 30.6079 	2.91156 	-7.48768e-20 30.4521 	2.45597 	-4.68821e-20 30.3566 	2.20918 	-2.48917e-20 30.3309 	2.30154 	-1.26504e-20 30.4635 	2.8853 	-7.57025e-20 30.61 	3.60128 	-1.61691e-19 30.7419 	3.40488 	-1.58842e-19 30.8858 	3.21042 	-1.55333e-19 30.8537 	3.33463 	-1.47275e-19 30.6902 	3.78084 	-1.26769e-19 30.5061 	4.22093 	-1.07133e-19 30.9083 	4.21026 	-7.43056e-20 31.2793 	4.21419 	-4.15742e-20 31.3114 	4.35806 	-1.09212e-20 31.0014 	4.53856 	1.58707e-21 30.4977 	4.73837 	4.03072e-21 31.1072 	4.83124 	3.17012e-22 31.1434 	4.92003 	0 31.1215 	5.00788 	0 31.0946 	5.09511 	0 30.857 	5.16323 	6.95638e-22 30.995 	5.18739 	-2.15654e-22 30.9859 	5.1936 	-3.68598e-21 30.9767 	5.19979 	-7.1572e-21 30.9674 	5.20597 	-1.06293e-20 30.9582 	5.21208 	-1.4067e-20 30.9425 	5.24925 	-2.30741e-20 30.9255 	5.2863 	-3.20587e-20 30.9073 	5.32324 	-4.10207e-20 30.888 	5.36007 	-4.996e-20 30.7601 	5.26443 	-7.90855e-20 31.0811 	5.40682 	-1.76734e-19 31.1043 	5.42384 	-2.11013e-19 31.0785 	5.42025 	-2.34866e-19 30.8447 	5.30303 	-1.96055e-19 30.4965 	5.12242 	-1.21911e-19 30.9429 	5.22088 	-5.21744e-21 31.3883 	5.31913 	1.11435e-19 31.3814 	5.26368 	1.3124e-19 30.8997 	5.04873 	5.47894e-20 30.4215 	4.83454 	-2.14551e-20 30.9642 	4.88327 	1.2412e-19 31.2705 	4.87015 	2.02603e-19 31.2362 	4.76792 	1.84396e-19 31.1285 	4.64722 	1.4874e-19 30.5696 	4.41393 	7.80606e-21 31.038 	4.38538 	-8.00949e-21 30.9962 	4.25423 	-5.9853e-21 30.96 	4.1242 	-3.94603e-21 30.9295 	3.99529 	-1.89169e-21 30.8579 	3.85866 	0 30.8945 	3.85184 	1.1357e-22 30.8903 	3.83824 	4.5915e-22 30.8862 	3.82466 	8.0457e-22 30.8821 	3.81108 	1.14983e-21 30.8779 	3.79701 	1.50754e-21 30.848 	3.6608 	4.1815e-21 30.8225 	3.52526 	6.87462e-21 30.8016 	3.39038 	9.5869e-21 30.7853 	3.25617 	1.23183e-20 30.7005 	3.15329 	3.974e-20 30.7617 	2.96075 	2.60468e-19 30.7271 	2.79072 	3.39829e-19 30.6984 	2.62152 	4.17276e-19 30.6729 	2.45466 	4.85461e-19 30.4999 	2.36982 	1.56957e-19 30.5996 	2.12704 	1.42219e-19 30.5826 	1.92899 	9.43223e-20 30.5412 	1.7427 	3.84677e-20 30.4492 	1.5963 	-2.66557e-20 30.2607 	1.52081 	-1.08414e-19 30.3313 	1.25678 	-4.23506e-19 30.3327 	1.02707 	-6.07483e-19 30.267 	0.830208 	-6.66113e-19 30.1306 	0.697705 	-5.03706e-19 29.9326 	0.620822 	-1.52292e-19 29.9625 	0.362194 	-1.13511e-19 29.9388 	0.130277 	-7.07346e-20 29.8436 	-0.0677934 	-2.2678e-20 29.6935 	-0.210435 	0 29.4931 	-0.303344 	0 29.4787 	-0.539324 	0 29.4004 	-0.750423 	-5.06257e-20 29.2755 	-0.942945 	-1.39303e-19 29.1325 	-1.11237 	-2.28793e-19 28.9357 	-1.22711 	-3.19248e-19 28.8808 	-1.43402 	-2.41946e-19 28.7362 	-1.61824 	-2.46008e-19 28.5862 	-1.80026 	-2.62001e-19 28.4433 	-1.98315 	-2.79498e-19 28.263 	-2.12513 	-4.42784e-19 28.1422 	-2.29777 	-3.75046e-19 27.9672 	-2.46438 	-5.51193e-19 27.7991 	-2.63225 	-7.29909e-19 27.6381 	-2.80141 	-9.11225e-19 27.4828 	-2.97218 	-1.09924e-18 27.4801 	-2.97521 	-1.10879e-18 27.4763 	-2.97824 	-1.10456e-18 27.4724 	-2.98126 	-1.10032e-18 27.4685 	-2.98428 	-1.09609e-18 27.4647 	-2.98727 	-1.0919e-18 27.2906 	-3.13963 	-1.06894e-18 27.1235 	-3.29384 	-1.04946e-18 26.9635 	-3.44992 	-1.03354e-18 26.8107 	-3.6079 	-1.02122e-18 26.5174 	-3.77367 	-5.12514e-19 26.4111 	-3.92572 	3.9247e-19 26.2575 	-4.07055 	9.74121e-19 26.0934 	-4.21454 	1.45732e-18 25.8335 	-4.36087 	1.11611e-18 25.5392 	-4.51108 	4.59218e-19 25.4017 	-4.64084 	9.91699e-19 25.2697 	-4.77261 	1.52168e-18 25.0575 	-4.90455 	1.4321e-18 24.7981 	-5.0333 	7.20067e-19 24.5406 	-5.16571 	-2.49583e-20 24.4143 	-5.25736 	-1.05781e-19 24.2366 	-5.34813 	-1.05097e-19 24.0471 	-5.43978 	-8.18623e-20 23.8612 	-5.53299 	-5.8936e-20 23.7163 	-5.60842 	-4.09481e-20 23.6763 	-5.63429 	-2.96505e-20 23.6364 	-5.66029 	-1.8338e-20 23.5968 	-5.6864 	-7.01056e-21 23.5489 	-5.7107 	0 23.4872 	-5.73208 	0 23.2889 	-5.83781 	0 23.0821 	-5.94285 	0 22.8804 	-6.05054 	0 22.6255 	-6.14803 	2.62625e-20 22.3459 	-6.24422 	6.46585e-20 22.1554 	-6.33099 	4.99647e-20 21.9548 	-6.41715 	4.43093e-20 21.7095 	-6.49557 	6.87784e-20 21.4685 	-6.57651 	9.3764e-20 21.2259 	-6.66203 	1.26342e-19 21.2077 	-6.66917 	1.25022e-19 21.188 	-6.67603 	1.27502e-19 21.1651 	-6.68233 	1.373e-19 21.1423 	-6.68866 	1.47106e-19 21.1199 	-6.6949 	1.5675e-19 20.9115 	-6.76568 	1.51904e-19 20.7066 	-6.83881 	1.46099e-19 20.5052 	-6.91434 	1.39312e-19 20.2711 	-6.97574 	1.17297e-19 20.0232 	-7.03494 	8.87556e-20 19.8366 	-7.09265 	-2.84771e-19 19.6469 	-7.14955 	-5.73243e-19 19.4311 	-7.19464 	-4.45675e-19 19.2181 	-7.24173 	-3.16165e-19 19.0389 	-7.28362 	-2.04044e-19 19.0004 	-7.2953 	-1.95687e-19 18.9621 	-7.30707 	-1.87304e-19 18.9238 	-7.31892 	-1.78895e-19 18.8801 	-7.32865 	-1.80962e-19 18.8363 	-7.3385 	-1.83097e-19 18.5947 	-7.38792 	-1.14799e-19 18.3577 	-7.442 	-4.6031e-20 18.1198 	-7.499 	-1.11829e-20 17.8724 	-7.55373 	-4.5719e-20 17.6218 	-7.61319 	-8.14406e-20 17.5637 	-7.62498 	-1.23794e-19 17.5058 	-7.63698 	-1.66134e-19 17.4458 	-7.64848 	-1.59492e-19 17.3858 	-7.66008 	-1.45551e-19 17.3285 	-7.67141 	-1.32093e-19 17.1405 	-7.70109 	-1.14707e-19 16.9543 	-7.73247 	-9.68571e-20 16.7695 	-7.76557 	-7.50168e-20 16.584 	-7.80027 	-2.52282e-20 16.3957 	-7.83776 	2.64816e-20 16.2601 	-7.85443 	-3.85262e-20 16.1255 	-7.87213 	-1.02992e-19 15.9957 	-7.89373 	-1.54583e-20 15.8677 	-7.9171 	1.09203e-19 15.7516 	-7.9395 	2.2434e-19 15.6388 	-7.95252 	3.75629e-19 15.5266 	-7.96618 	5.27992e-19 15.4141 	-7.98056 	6.22431e-19 15.2979 	-7.99596 	4.09035e-19 15.1802 	-8.01237 	1.92032e-19 14.9828 	-8.02598 	1.20494e-19 14.7873 	-8.04182 	4.8996e-20 14.5958 	-8.06621 	3.10955e-20 14.407 	-8.09471 	2.75181e-20 14.2421 	-8.12217 	2.46292e-20 14.1926 	-8.12631 	1.58305e-20 14.1433 	-8.13059 	7.02484e-21 14.0925 	-8.13492 	0 14.0358 	-8.13905 	0 13.9786 	-8.14338 	0 13.7468 	-8.15309 	0 13.5172 	-8.16614 	0 13.2754 	-8.18783 	-8.45946e-20 13.0287 	-8.21613 	-2.13265e-19 12.7718 	-8.25167 	-3.49779e-19 12.7694 	-8.25191 	-3.4941e-19 12.7671 	-8.25216 	-3.49041e-19 12.7648 	-8.25253 	-3.49872e-19 12.7624 	-8.25297 	-3.51392e-19 12.7599 	-8.25341 	-3.52909e-19 12.5177 	-8.26371 	-7.028e-19 12.2776 	-8.27736 	-1.05771e-18 12.0227 	-8.2963 	-1.12304e-18 11.7222 	-8.32418 	-3.714e-19 11.4042 	-8.35918 	4.29863e-19 11.3701 	-8.36395 	5.16404e-19 11.336 	-8.36883 	6.02939e-19 11.2966 	-8.37565 	6.35577e-19 11.2536 	-8.38392 	6.29646e-19 11.2117 	-8.39211 	6.23797e-19 10.9685 	-8.40683 	8.73761e-19 10.7266 	-8.42489 	1.12628e-18 10.4588 	-8.44752 	1.18582e-18 10.1389 	-8.47631 	8.65408e-19 9.78896 	-8.51342 	5.14764e-19 9.73074 	-8.52532 	5.4068e-19 9.67255 	-8.53752 	5.66349e-19 9.60481 	-8.55145 	5.44195e-19 9.52643 	-8.56734 	4.68779e-19 9.4516 	-8.5829 	3.96367e-19 9.15727 	-8.60773 	3.68858e-19 8.86316 	-8.6369 	3.41025e-19 8.55921 	-8.67184 	3.93828e-19 8.24436 	-8.71305 	5.36811e-19 7.87221 	-8.76812 	7.05847e-19 7.81897 	-8.78088 	7.44459e-19 7.76571 	-8.79384 	7.83012e-19 7.71062 	-8.80677 	8.1146e-19 7.65051 	-8.81927 	8.12157e-19 7.59266 	-8.83151 	8.12767e-19 7.21055 	-8.86529 	1.74005e-18 6.82786 	-8.90607 	2.68689e-18 6.53796 	-8.96119 	2.33605e-18 6.30376 	-9.03094 	1.25668e-18 6.11959 	-9.10262 	1.98221e-19 6.09271 	-9.10634 	6.6108e-20 6.06585 	-9.11012 	-6.61678e-20 6.06545 	-9.11972 	-6.22538e-20 6.06914 	-9.13023 	-3.72548e-20 6.07293 	-9.14101 	-1.16505e-20 5.89406 	-9.17751 	-1.30579e-19 5.72099 	-9.21921 	-2.56553e-19 5.57913 	-9.26955 	-4.09835e-19 5.67034 	-9.35555 	-7.51513e-19 5.75281 	-9.43321 	-1.06262e-18 5.76803 	-9.45477 	-1.46341e-18 5.78322 	-9.47631 	-1.86415e-18 5.90187 	-9.51983 	-1.21877e-18 6.03368 	-9.56513 	-4.26035e-19 6.1597 	-9.60746 	3.43327e-19 6.19182 	-9.61539 	5.16146e-19 6.22341 	-9.62288 	6.88532e-19 6.27519 	-9.63353 	8.83942e-19 6.42442 	-9.66054 	1.18998e-18 6.57444 	-9.68604 	1.50047e-18 6.74715 	-9.6849 	1.99461e-18 6.91582 	-9.67998 	2.48502e-18 7.09282 	-9.6709 	2.02603e-18 7.27247 	-9.65769 	1.03818e-18 7.41889 	-9.64339 	2.0597e-19 7.50508 	-9.62029 	-3.70538e-19 7.59011 	-9.59601 	-9.50066e-19 7.68363 	-9.57284 	-1.18916e-18 7.78511 	-9.5506 	-1.10404e-18 7.891 	-9.52571 	-1.01632e-18 8.03214 	-9.45567 	-1.59316e-18 8.1698 	-9.38203 	-2.16861e-18 8.27468 	-9.29876 	-2.36774e-18 8.30298 	-9.19715 	-1.62552e-18 8.32567 	-9.10695 	-9.77266e-19 8.4767 	-9.01484 	-1.23274e-18 8.62566 	-8.91902 	-1.49726e-18 8.69963 	-8.81327 	-1.12419e-18 8.75785 	-8.70364 	-6.31562e-19 8.82177 	-8.57699 	-8.07812e-20 8.84134 	-8.51278 	-7.48974e-20 8.86055 	-8.44797 	-6.90503e-20 8.87938 	-8.38256 	-6.32403e-20 8.83747 	-8.30108 	-7.3253e-20 8.79138 	-8.2214 	-8.43723e-20 8.92126 	-8.02835 	9.5566e-19 9.05105 	-7.82925 	2.01413e-18 9.04447 	-7.60538 	1.97862e-18 8.91641 	-7.35925 	9.53302e-19 8.80558 	-7.14728 	7.50719e-20 8.86431 	-7.04993 	-7.41661e-21 8.8991 	-6.94865 	-6.50114e-20 8.87418 	-6.83951 	-6.04878e-20 8.84918 	-6.72959 	-5.58818e-20 8.82123 	-6.60623 	-5.06558e-20 8.79197 	-6.48274 	-3.53813e-20 8.76261 	-6.35826 	-2.01033e-20 8.73316 	-6.23278 	-4.82273e-21 8.65816 	-6.10076 	0 8.56728 	-5.97269 	0 8.55568 	-5.7381 	0 8.54582 	-5.49945 	0 8.45168 	-5.24967 	-7.64054e-20 8.27925 	-4.99027 	-2.32382e-19 8.12611 	-4.7573 	-3.70999e-19 8.11694 	-4.57556 	-1.08023e-18 8.06131 	-4.38776 	-1.25323e-18 7.9703 	-4.19503 	-1.01659e-18 7.88037 	-4.00028 	-7.86203e-19 7.76458 	-3.74354 	-4.94381e-19 7.74425 	-3.69586 	-4.67229e-19 7.724 	-3.64805 	-4.40307e-19 7.70382 	-3.60011 	-4.13617e-19 7.68267 	-3.55318 	-4.0715e-19 7.65868 	-3.51071 	-4.64541e-19 7.54545 	-3.24978 	-3.78582e-19 7.43061 	-2.9894 	-3.34556e-19 7.31817 	-2.72487 	-2.94564e-19 7.20123 	-2.47258 	-3.1089e-19 7.08895 	-2.26287 	-3.96859e-19 6.97824 	-1.97424 	-2.50911e-19 6.87133 	-1.67995 	-1.06626e-19 6.77022 	-1.44219 	-2.21036e-20 6.66728 	-1.26429 	-7.69419e-20 6.57581 	-1.09897 	-1.27024e-19 6.47352 	-0.823293 	-7.87311e-20 6.37639 	-0.542691 	-2.95772e-20 6.28351 	-0.353702 	-1.77942e-21 6.20532 	-0.250045 	4.03808e-20 6.13275 	-0.149155 	8.1834e-20 6.05759 	0.0675876 	-2.61383e-19 5.98813 	0.28756 	-6.02425e-19 5.91589 	0.425062 	-5.79215e-19 5.84955 	0.491174 	-2.42037e-19 5.78499 	0.558888 	9.69773e-20 5.73691 	0.714582 	5.83749e-20 5.69385 	0.872711 	2.00924e-20 5.64088 	1.0173 	8.92089e-20 5.57572 	1.14755 	2.66388e-19 5.51318 	1.28484 	4.49725e-19 5.48554 	1.45722 	2.75896e-19 5.4613 	1.63455 	1.38773e-19 5.43595 	1.82145 	9.70545e-20 5.41492 	2.01665 	7.48998e-20 5.38973 	2.25967 	1.25605e-19 5.40353 	2.38065 	-1.63844e-19 5.41194 	2.50784 	-1.69418e-19 5.42047 	2.63673 	-9.34189e-20 5.43118 	2.76555 	-1.35165e-20 5.43939 	2.84798 	4.00644e-20 5.44969 	2.96058 	9.9224e-20 5.46157 	3.07283 	1.607e-19 5.47495 	3.18472 	2.24406e-19 5.48056 	3.29994 	1.90481e-19 5.47536 	3.42964 	1.63364e-20 5.53926 	3.65652 	3.99443e-21 5.60715 	3.88221 	-6.63393e-21 5.65489 	4.12519 	6.33755e-20 5.68046 	4.37532 	2.22005e-19 5.71636 	4.6639 	4.05755e-19 5.75587 	4.76036 	8.12493e-19 5.79483 	4.85649 	1.17237e-18 5.82099 	4.9519 	9.40034e-19 5.84765 	5.04696 	7.05703e-19 5.87269 	5.1343 	4.87857e-19 5.91022 	5.28106 	2.84978e-19 5.94883 	5.42699 	7.9646e-20 5.98846 	5.57213 	-1.28003e-19 6.02482 	5.70363 	4.09124e-20 6.06528 	5.846 	2.47349e-19 6.13924 	6.04151 	1.11337e-19 6.2145 	6.23573 	-2.47922e-20 6.282 	6.40646 	-7.55331e-21 6.34976 	6.57432 	2.22904e-20 6.41225 	6.7261 	4.91722e-20 6.4296 	6.76741 	7.99678e-20 6.44701 	6.80867 	1.10786e-19 6.4631 	6.84873 	1.30044e-19 6.4759 	6.88595 	1.21007e-19 6.48898 	6.92379 	1.11841e-19 6.58975 	7.12161 	7.40518e-20 6.69132 	7.31848 	3.68344e-20 6.77901 	7.4991 	2.12067e-20 6.86042 	7.67154 	1.61566e-20 6.93816 	7.83409 	1.18065e-20 6.94348 	7.84516 	6.53788e-21 6.94881 	7.85622 	1.26948e-21 6.95357 	7.86663 	-1.04276e-23 6.95778 	7.87639 	2.64169e-21 6.96201 	7.88617 	5.30327e-21 7.06352 	8.0592 	1.84207e-19 7.16539 	8.23172 	3.62545e-19 7.25446 	8.39029 	3.88713e-19 7.32975 	8.53392 	2.51263e-19 7.40318 	8.67294 	1.17431e-19 7.4109 	8.68771 	1.13309e-19 7.41862 	8.70248 	1.09187e-19 7.42478 	8.71568 	1.03822e-19 7.43018 	8.7281 	9.78377e-20 7.4356 	8.74057 	9.18289e-20 7.51245 	8.86758 	-6.92705e-20 7.58943 	8.99437 	-2.30185e-19 7.65779 	9.11319 	-3.18296e-19 7.70759 	9.21524 	-2.51312e-19 7.75672 	9.31535 	-1.85299e-19 7.77416 	9.35133 	-1.96573e-19 7.79162 	9.38729 	-2.07853e-19 7.80592 	9.41855 	-1.8906e-19 7.81949 	9.44869 	-1.63247e-19 7.83321 	9.4791 	-1.37201e-19 7.87533 	9.5569 	-1.18683e-19 7.91752 	9.6346 	-1.00118e-19 7.95823 	9.70981 	-7.45675e-20 7.9916 	9.7733 	-1.55147e-20 8.02466 	9.83605 	4.2947e-20 8.05912 	9.90378 	7.62773e-20 8.09364 	9.97147 	1.09624e-19 8.12468 	10.0268 	5.41841e-20 8.15555 	10.0813 	-6.65148e-21 8.18688 	10.1365 	-6.83166e-20 8.20513 	10.167 	-9.74992e-20 8.2234 	10.1975 	-1.2668e-19 8.24162 	10.2277 	-1.54715e-19 8.25842 	10.2511 	-1.53952e-19 8.27518 	10.2745 	-1.53191e-19 8.3284 	10.3587 	-3.07969e-