/*--------------------------------*- C++ -*----------------------------------*\
| =========                 |                                                 |
| \\      /  F ield         | OpenFOAM: The Open Source CFD Toolbox           |
|  \\    /   O peration     | Version:  v1906                                 |
|   \\  /    A nd           | Web:      www.OpenFOAM.com                      |
|    \\/     M anipulation  |                                                 |
\*---------------------------------------------------------------------------*/
FoamFile
{
    version     2.0;
    format      ascii;
    class       volScalarField;
    location    "1566";
    object      epsilon;
}
// * * * * * * * * * * * * * * * * * * * * * * * * * * * * * * * * * * * * * //

dimensions      [0 2 -3 0 0 0 0];


internalField   nonuniform List<scalar> 
12225
(
8534.02
8352.95
7991.37
7605.1
7244.26
6922.35
6638.94
6393.32
6174.67
5988.42
5814.96
5675.94
5564.44
5474.79
5392.89
5334.41
5264.22
5237.73
612.84
1496.62
1698.54
1689.07
1643.06
1565.02
1507.07
1461.08
1422.83
1390.34
1362.95
1338.87
1320.42
1304.18
1290.87
1279.82
1265.98
1257.37
136.092
458.855
618.699
686.924
717.306
720.679
717.581
710.244
700.294
689.747
679.741
669.751
660.716
652.219
644.256
637.657
629.496
625.746
58.494
196.182
292.43
349.171
383.81
402.64
412.98
418.177
419.621
419.078
417.547
414.798
411.624
408.216
404.606
401.397
397.045
395.41
35.983
104.797
162.955
203.264
231.269
250.093
262.83
271.466
277.092
280.632
282.81
283.894
284.108
283.891
283.292
282.49
280.967
280.934
26.8377
65.6338
102.217
130.425
151.688
167.446
179.142
187.874
194.356
199.143
202.69
205.272
207.077
208.323
209.131
209.626
209.746
210.311
22.3044
46.1292
70.0867
90.0245
105.968
118.524
128.395
136.184
142.336
147.198
151.055
154.114
156.524
158.419
159.902
161.062
161.899
162.951
19.7657
35.3025
51.5624
65.8847
77.8832
87.756
95.8426
102.474
107.922
112.405
116.108
119.173
121.71
123.814
125.559
127.01
128.199
129.459
18.2251
28.7917
40.1558
50.6107
59.7076
67.4554
74.0059
79.5381
84.2146
88.1747
91.5373
94.4001
96.8419
98.9287
100.716
102.251
103.577
104.878
17.2355
24.6379
32.7698
40.5143
47.4717
53.57
58.8624
63.4407
67.4002
70.8281
73.8014
76.3862
78.6379
80.6035
82.3234
83.8331
85.1718
86.4402
16.5719
21.8685
27.796
33.606
38.9719
43.794
48.074
51.8534
55.1853
58.1227
60.7153
63.0071
65.0366
66.8371
68.438
69.8662
71.1526
72.3533
16.1501
20.1181
24.6285
29.1497
33.4186
37.3331
40.8716
44.0484
46.8923
49.4358
51.7113
53.749
55.5759
57.2164
58.6924
60.0243
61.2356
62.3605
15.8383
18.8309
22.2848
25.8211
29.2311
32.419
35.3512
38.0255
40.4542
42.6555
44.6494
46.4557
48.0933
49.5793
50.9299
52.1605
53.2883
54.3349
15.58
17.7731
20.3483
23.0457
25.7069
28.2477
30.6295
32.8392
34.8771
36.7504
38.4693
40.0453
41.4902
42.8154
44.0318
45.1504
46.183
47.1428
15.3747
16.9401
18.8142
20.8272
22.8635
24.8533
26.7577
28.5575
30.2452
31.8198
33.2844
34.6439
35.9045
37.0728
38.1558
39.1605
40.0944
40.9656
15.2203
16.3203
17.6663
19.1524
20.6975
22.2459
23.7616
25.223
26.6175
27.939
29.1852
30.3565
31.455
32.4835
33.4458
34.3458
35.1879
35.9764
15.1154
15.9034
16.8899
18.0102
19.2078
20.4386
21.6708
22.8821
24.0578
25.1884
26.2686
27.2955
28.2684
29.1878
30.0549
30.8718
31.6406
32.3632
15.0629
15.6954
16.5006
17.4331
18.4494
19.5124
20.593
21.6695
22.7262
23.7526
24.7417
25.689
26.5925
27.4513
28.2657
29.0364
29.7651
30.4539
15.079
15.7585
16.6172
17.6041
18.672
19.7823
20.9057
22.0205
23.1115
24.1686
25.1851
26.1573
27.0832
27.9622
28.7947
29.5814
30.3233
31.0214
15.1988
16.233
17.5007
18.9059
20.3738
21.8524
23.3072
24.7167
26.0682
27.3547
28.5733
29.7235
30.8064
31.8241
32.7791
33.674
34.5109
35.2907
15.4072
17.0666
19.0413
21.1513
23.2772
25.3487
27.3279
29.1964
30.9478
32.582
34.1028
35.5158
36.8275
38.0448
39.1743
40.2216
41.1911
42.0832
15.7671
18.5249
21.7122
24.9933
28.1791
31.1793
33.9598
36.5147
38.8519
40.9857
42.9324
44.7087
46.3307
47.8131
49.1698
50.4121
51.5486
52.578
16.3867
21.0659
26.3182
31.5135
36.3619
40.7671
44.7213
48.2517
51.3977
54.2013
56.7022
58.9366
60.9368
62.7312
64.3454
65.8009
67.1153
68.2805
17.4988
25.6602
34.5308
42.8941
50.3475
56.8495
62.4803
67.3434
71.5447
75.1811
78.3358
81.0799
83.4735
85.5672
87.4062
89.0273
90.4685
91.7078
19.6474
34.5755
50.1051
63.8329
75.3835
84.9726
92.9185
99.4898
104.937
109.468
113.247
116.408
119.059
121.285
123.167
124.759
126.147
127.276
24.2998
53.9036
82.4116
105.38
123.266
137.149
147.962
156.309
162.791
167.843
171.774
174.829
177.191
178.997
180.396
181.435
182.294
182.837
36.4922
103.325
158.512
197.273
224.157
242.904
255.96
264.56
270.35
274.155
276.469
277.737
278.217
278.117
277.766
277.019
276.268
275.226
81.6126
262.528
372.083
433.121
466.543
484.625
492.86
493.494
492.264
489.336
485.117
480.464
475.71
470.813
466.222
461.459
457.5
453.141
390.158
975.275
1160.18
1205.52
1197.66
1174.08
1134.76
1094.94
1063.52
1037.63
1015.6
996.496
979.866
965.066
952.21
940.454
930.564
921.126
6457.22
6260.43
5992.31
5735.77
5500.36
5289.6
5101.41
4933.98
4785.17
4652.56
4533.91
4427.2
4331.08
4243.73
4164.81
4092.12
4026.61
3964.96
7.58964
10.181
17.728
22.9624
27.2594
30.3559
32.7959
34.6964
36.267
37.5706
38.6907
39.6627
40.5285
41.3115
42.0343
42.7053
43.3415
43.9271
44.5126
44.8988
45.0481
45.0237
44.8517
44.4379
43.7448
42.7968
41.5421
39.9544
38.0543
35.8445
33.3704
30.5352
27.2591
23.5295
19.5188
15.1243
11.9646
10.0087
8.99748
8.67178
8.7422
8.90444
8.72299
8.05115
7.14624
7.12854
8.82616
11.8428
16.0172
21.4642
28.4676
37.7013
46.564
55.2038
63.5456
71.641
79.4926
87.1111
94.5129
101.717
108.752
115.661
122.459
129.149
135.737
142.227
148.624
154.937
161.171
167.332
173.425
179.456
185.431
191.359
197.259
203.139
209.005
214.861
220.706
226.543
232.368
238.179
243.97
249.732
255.451
261.107
266.67
272.096
277.324
282.27
287.169
292.075
296.955
301.83
306.697
311.569
316.458
321.395
326.332
331.238
336.13
340.987
345.809
350.585
355.307
359.953
364.485
368.881
373.109
377.137
380.925
384.437
387.682
390.717
393.539
396.146
398.532
400.694
402.635
404.358
405.876
407.166
408.353
409.361
410.24
410.932
411.148
411.547
411.626
411.634
411.484
411.227
410.862
410.415
409.846
409.136
408.364
407.609
406.85
406.058
405.243
404.421
403.604
402.808
402.043
401.318
400.645
400.037
399.497
399.034
398.65
398.352
398.169
398.208
398.646
400.099
402.476
405.095
407.607
410.287
410.412
410.002
409.686
409.443
409.227
408.987
408.705
408.339
407.915
407.36
406.777
405.984
405.279
404.158
403.434
401.807
400.924
398.53
394.71
364.611
23.615
17.0759
15.8488
15.8187
16.102
16.5305
16.9451
17.3386
17.6989
18.0454
18.3717
18.6774
18.9566
19.2084
19.4309
19.6241
19.7876
19.921
20.024
20.0916
20.1214
20.1204
20.103
20.079
20.087
20.151
20.2439
20.3176
20.3446
20.3388
20.4109
20.6927
21.2392
21.9536
22.6332
23.3553
24.3875
25.7704
27.501
29.5406
31.7994
34.0915
36.134
37.6852
38.7969
39.7703
40.7715
41.7491
42.6809
43.6365
44.7021
45.9254
47.2365
48.6244
50.1041
51.6869
53.3734
55.1594
57.0403
59.0164
61.0952
63.1851
65.2176
67.1849
69.0966
70.9657
72.8043
74.6228
76.4302
78.2345
80.0438
81.8672
83.7169
85.6098
87.5298
89.4607
91.3967
93.3357
95.2768
97.2197
99.1637
101.108
103.052
104.993
106.93
108.859
110.778
112.682
114.574
116.459
118.352
120.26
122.183
124.119
126.069
128.035
130.027
132.054
134.076
136.086
138.083
140.067
142.036
143.984
145.901
147.77
149.594
151.381
153.139
154.882
156.639
158.473
160.432
162.389
164.31
166.186
168.015
169.794
171.522
173.195
174.81
176.364
177.858
179.283
180.634
181.903
183.096
184.235
185.285
186.265
187.167
187.995
188.747
189.42
190.006
190.506
190.943
191.328
191.65
191.906
192.098
192.231
192.306
192.328
192.3
192.227
192.108
191.945
191.742
191.505
191.241
190.96
190.668
190.397
190.2
190.031
189.828
189.627
189.399
189.097
188.471
187.64
186.736
185.767
184.742
183.665
182.541
181.37
180.156
178.899
177.605
176.277
174.921
173.544
172.146
170.744
169.288
167.825
165.743
165.972
49.6905
26.5472
21.5708
19.0887
18.0837
17.4506
17.1652
17.0571
17.0675
17.1544
17.2801
17.4258
17.5736
17.7181
17.8529
17.9761
18.0855
18.1807
18.2623
18.3341
18.4047
18.4905
18.6192
18.8349
19.1746
19.639
20.2186
20.9053
21.7153
22.6975
23.938
25.5527
27.6405
30.2661
33.4631
37.1034
40.9765
44.9344
48.8065
52.3806
55.3742
57.4263
58.2466
57.9013
56.6474
54.8821
52.9561
51.1293
49.586
48.4398
47.7665
47.5365
47.6864
48.1889
48.9618
49.9463
51.0873
52.3372
53.6573
55.0176
56.3947
57.77
59.1322
60.4779
61.8087
63.1284
64.4422
65.7549
67.0714
68.3954
69.7305
71.0794
72.4437
73.8237
75.218
76.625
78.0434
79.4726
80.9118
82.3607
83.8189
85.286
86.7619
88.2465
89.74
91.2436
92.7587
94.2887
95.8387
97.4162
99.0315
100.698
102.423
104.178
105.952
107.741
109.541
111.348
113.158
114.968
116.775
118.576
120.369
122.149
123.91
125.651
127.374
129.085
130.791
132.495
134.206
135.925
137.645
139.348
141.029
142.687
144.323
145.937
147.526
149.078
150.586
152.042
153.442
154.782
156.059
157.272
158.416
159.492
160.495
161.426
162.282
163.061
163.763
164.384
164.922
165.381
165.765
166.075
166.31
166.47
166.556
166.57
166.515
166.391
166.199
165.943
165.624
165.245
164.807
164.314
163.766
163.172
162.544
161.894
161.23
160.544
159.818
159.061
158.262
157.389
156.412
155.361
154.261
153.113
151.919
150.681
149.401
148.082
146.727
145.341
143.925
142.489
141.03
139.569
138.087
136.633
135.127
133.709
132.411
132.845
65.3115
34.4337
26.7749
23.3452
21.4534
20.3686
19.6678
19.3103
19.0994
19.0251
19.0137
19.0535
19.1182
19.2037
19.3001
19.4069
19.5216
19.6469
19.788
19.9572
20.1742
20.4666
20.8688
21.4189
22.1683
23.1695
24.4085
25.8635
27.5188
29.375
31.443
33.7254
36.2168
38.8989
41.7409
44.6957
47.6902
50.6113
53.2931
55.5065
56.9964
57.6043
57.3898
56.4454
55.0136
53.3764
51.7796
50.4099
49.3785
48.7467
48.5041
48.5883
48.9689
49.5928
50.4127
51.3735
52.4308
53.5513
54.7121
55.8971
57.096
58.3034
59.5175
60.7389
61.9696
63.212
64.4687
65.7418
67.0335
68.3452
69.6778
71.0317
72.4066
73.8019
75.2166
76.6497
78.1
79.5669
81.0497
82.5478
84.0609
85.589
87.1321
88.6905
90.2649
91.8562
93.4656
95.0946
96.7449
98.4182
100.115
101.836
103.577
105.333
107.101
108.88
110.668
112.462
114.26
116.058
117.855
119.648
121.432
123.208
124.972
126.725
128.467
130.201
131.927
133.646
135.357
137.057
138.744
140.413
142.066
143.705
145.338
146.983
148.625
150.235
151.798
153.308
154.759
156.148
157.471
158.725
159.907
161.016
162.048
163.001
163.872
164.661
165.364
165.98
166.509
166.95
167.305
167.572
167.755
167.848
167.861
167.79
167.635
167.4
167.085
166.693
166.226
165.687
165.08
164.406
163.671
162.881
162.039
161.149
160.206
159.211
158.173
157.104
156.007
154.87
153.683
152.448
151.165
149.832
148.449
147.019
145.545
144.031
142.479
140.896
139.284
137.654
136.002
134.352
132.687
131.054
129.408
127.912
126.745
126.803
90.1984
42.6909
32.3412
27.6644
25.107
23.526
22.5098
21.8661
21.4522
21.2465
21.1387
21.1219
21.1499
21.2222
21.3225
21.4528
21.6096
21.7996
22.0314
22.3235
22.7017
23.2024
23.8702
24.7182
25.7596
27.0068
28.4587
30.1044
31.9253
33.8884
35.9393
38.01
40.0509
42.0537
44.0532
46.0728
48.0882
50.0165
51.6817
52.8753
53.4395
53.4204
52.8932
52.069
51.1574
50.3247
49.6834
49.2957
49.1687
49.2883
49.6379
50.1825
50.8871
51.7191
52.651
53.6603
54.7294
55.8449
56.9973
58.1805
59.3913
60.6279
61.889
63.1743
64.4837
65.8177
67.1766
68.5609
69.971
71.4068
72.8685
74.3561
75.8692
77.4076
78.9709
80.5589
82.1709
83.8067
85.4658
87.1477
88.852
90.5782
92.326
94.0946
95.8836
97.6926
99.5213
101.369
103.237
105.123
107.028
108.95
110.887
112.839
114.802
116.777
118.763
120.757
122.759
124.767
126.779
128.791
130.802
132.809
134.81
136.803
138.788
140.762
142.725
144.675
146.609
148.523
150.416
152.287
154.132
155.954
157.75
159.517
161.243
162.92
164.538
166.094
167.583
169
170.343
171.606
172.789
173.887
174.898
175.819
176.646
177.378
178.012
178.547
178.982
179.317
179.551
179.678
179.706
179.634
179.46
179.185
178.811
178.34
177.774
177.115
176.367
175.532
174.615
173.618
172.547
171.406
170.198
168.925
167.588
166.198
164.768
163.309
161.845
160.371
158.872
157.336
155.757
154.131
152.457
150.737
148.975
147.174
145.34
143.478
141.593
139.695
137.786
135.885
133.985
132.13
130.31
128.701
127.499
127.051
110.797
51.5432
37.9833
31.96
28.7186
26.6821
25.3901
24.5191
23.9594
23.5933
23.3847
23.2984
23.2901
23.3467
23.4526
23.6068
23.8086
24.0646
24.3835
24.7805
25.2756
25.8977
26.6854
27.621
28.6803
29.8494
31.1294
32.5214
34.0083
35.5483
37.0872
38.5916
40.0617
41.5239
42.9687
44.3531
45.6054
46.6325
47.378
47.8345
48.0369
48.0518
47.9505
47.822
47.7503
47.7891
47.9795
48.3339
48.8477
49.5047
50.2901
51.187
52.1793
53.2532
54.3966
55.599
56.8517
58.147
59.4791
60.8435
62.2374
63.6589
65.1074
66.5828
68.0856
69.6165
71.1763
72.7658
74.3856
76.0363
77.7183
79.4317
81.1769
82.9537
84.7622
86.602
88.4727
90.3736
92.3036
94.2615
96.2462
98.2564
100.291
102.35
104.433
106.54
108.67
110.824
113.001
115.201
117.422
119.661
121.918
124.19
126.476
128.775
131.086
133.406
135.735
138.069
140.407
142.746
145.084
147.418
149.746
152.065
154.373
156.667
158.945
161.201
163.435
165.641
167.817
169.959
172.065
174.131
176.152
178.12
180.031
181.876
183.65
185.348
186.966
188.499
189.942
191.292
192.544
193.696
194.743
195.682
196.51
197.225
197.823
198.304
198.667
198.909
199.022
199.018
198.891
198.641
198.269
197.777
197.167
196.442
195.604
194.658
193.606
192.453
191.203
189.861
188.433
186.923
185.337
183.676
181.947
180.158
178.319
176.442
174.537
172.627
170.716
168.769
166.778
164.739
162.656
160.532
158.374
156.187
153.975
151.748
149.512
147.275
145.046
142.839
140.66
138.546
136.517
134.705
133.197
132.188
133.435
60.5707
43.6144
36.1035
32.2654
29.8064
28.3183
27.2846
26.6116
26.1453
25.8454
25.6533
25.5533
25.5256
25.57
25.6839
25.8691
26.1261
26.4585
26.8713
27.3725
27.9701
28.6692
29.4659
30.3451
31.2896
32.2897
33.3373
34.4179
35.5146
36.6121
37.6862
38.7284
39.7247
40.6671
41.5369
42.3053
42.9553
43.491
43.9353
44.3252
44.7057
45.109
45.5376
46.0144
46.5736
47.2558
48.0579
48.9658
49.9721
51.0697
52.2499
53.5048
54.8271
56.2096
57.6457
59.1291
60.6548
62.219
63.8189
65.4528
67.12
68.8204
70.5543
72.3226
74.126
75.9655
77.8418
79.7556
81.7075
83.698
85.7271
87.7948
89.901
92.0452
94.2267
96.4444
98.6974
100.984
103.305
105.657
108.042
110.459
112.907
115.387
117.897
120.435
122.999
125.587
128.196
130.825
133.473
136.139
138.822
141.521
144.236
146.963
149.703
152.452
155.209
157.971
160.734
163.496
166.254
169.001
171.736
174.453
177.149
179.821
182.464
185.074
187.647
190.178
192.663
195.095
197.471
199.784
202.027
204.194
206.28
208.277
210.182
211.988
213.69
215.284
216.764
218.126
219.366
220.479
221.462
222.312
223.024
223.599
224.032
224.322
224.461
224.456
224.303
224.002
223.555
222.964
222.23
221.356
220.348
219.208
217.941
216.551
215.044
213.426
211.702
209.879
207.961
205.954
203.863
201.694
199.456
197.158
194.809
192.417
189.991
187.528
185.02
182.466
179.872
177.242
174.586
171.91
169.222
166.531
163.844
161.172
158.52
155.904
153.329
150.825
148.395
146.117
143.991
142.178
140.523
149.252
67.9641
48.3861
39.7369
35.459
32.7119
31.0281
29.8539
29.0746
28.5293
28.1697
27.9335
27.799
27.7431
27.7564
27.8355
27.9798
28.1867
28.4555
28.7847
29.1734
29.62
30.123
30.6805
31.2888
31.9416
32.6334
33.3595
34.1139
34.8857
35.6636
36.448
37.2282
37.9916
38.7276
39.433
40.1144
40.7909
41.4766
42.1501
42.8054
43.4496
44.0991
44.7766
45.508
46.3194
47.236
48.2626
49.3952
50.6285
51.9529
53.3617
54.8487
56.4076
58.0323
59.717
61.4564
63.2466
65.0841
66.9668
68.8932
70.8626
72.8748
74.9299
77.0284
79.1706
81.357
83.5882
85.8644
88.1858
90.5525
92.9643
95.421
97.9219
100.466
103.053
105.682
108.351
111.061
113.81
116.598
119.425
122.289
125.189
128.122
131.086
134.078
137.095
140.139
143.208
146.303
149.424
152.568
155.734
158.918
162.118
165.333
168.559
171.793
175.034
178.277
181.519
184.756
187.983
191.198
194.396
197.572
200.72
203.836
206.912
209.944
212.927
215.854
218.719
221.517
224.24
226.882
229.437
231.896
234.255
236.506
238.644
240.661
242.553
244.313
245.936
247.417
248.75
249.93
250.955
251.82
252.524
253.063
253.434
253.629
253.653
253.501
253.175
252.675
252.003
251.163
250.157
248.991
247.668
246.195
244.575
242.816
240.925
238.907
236.769
234.518
232.161
229.702
227.148
224.505
221.78
218.981
216.116
213.19
210.209
207.176
204.089
200.956
197.783
194.58
191.355
188.119
184.88
181.65
178.435
175.25
172.099
169.001
165.962
163.015
160.158
157.471
154.904
152.615
150.311
163.232
74.0143
52.1576
42.5843
37.9898
35.0348
33.2062
31.9284
31.0718
30.4697
30.0681
29.8025
29.6458
29.5704
29.5587
29.6006
29.6918
29.8281
30.0076
30.2284
30.4892
30.7888
31.1258
31.4989
31.9078
32.3526
32.8338
33.3522
33.9045
34.4905
35.1077
35.7524
36.4201
37.1092
37.8257
38.5845
39.3634
40.1463
40.9237
41.6915
42.4538
43.2214
44.0105
44.8388
45.7274
46.7003
47.7783
48.9807
50.2988
51.7224
53.2459
54.8639
56.5709
58.3614
60.2299
62.1717
64.1823
66.2584
68.3969
70.5958
72.8533
75.1683
77.54
79.9679
82.4515
84.9907
87.5852
90.2347
92.9389
95.6974
98.5098
101.375
104.293
107.263
110.283
113.353
116.472
119.638
122.851
126.11
129.414
132.762
136.151
139.579
143.044
146.545
150.08
153.65
157.252
160.886
164.549
168.237
171.947
175.676
179.422
183.184
186.959
190.745
194.538
198.334
202.13
205.921
209.701
213.465
217.205
220.917
224.594
228.232
231.823
235.362
238.842
242.257
245.599
248.862
252.038
255.121
258.101
260.973
263.728
266.359
268.86
271.222
273.44
275.506
277.415
279.158
280.732
282.129
283.345
284.377
285.222
285.878
286.34
286.601
286.662
286.519
286.171
285.621
284.871
283.924
282.785
281.457
279.947
278.26
276.402
274.382
272.205
269.879
267.413
264.813
262.087
259.242
256.283
253.217
250.05
246.79
243.442
240.014
236.512
232.941
229.306
225.611
221.866
218.079
214.261
210.423
206.576
202.731
198.9
195.093
191.322
187.598
183.938
180.349
176.868
173.488
170.278
167.171
164.299
161.342
170.174
78.0382
54.6462
44.5043
39.6921
36.5946
34.6687
33.3221
32.4164
31.7802
31.3559
31.0766
30.9125
30.8331
30.8169
30.8485
30.92
31.0238
31.1557
31.3129
31.4943
31.6995
31.9299
32.188
32.4772
32.8018
33.1662
33.5747
34.0326
34.5403
35.0979
35.7076
36.3758
37.0988
37.8618
38.6524
39.4586
40.2722
41.0905
41.9165
42.7587
43.6296
44.5447
45.5212
46.5748
47.7157
48.9534
50.2967
51.7551
53.3387
55.0409
56.856
58.7785
60.8032
62.9251
65.14
67.4438
69.8331
72.3048
74.8564
77.4853
80.1897
82.9678
85.8181
88.7392
91.7301
94.7896
97.9166
101.11
104.369
107.691
111.077
114.524
118.031
121.596
125.219
128.898
132.632
136.419
140.259
144.149
148.087
152.071
156.098
160.166
164.274
168.419
172.601
176.815
181.06
185.332
189.628
193.946
198.284
202.64
207.008
211.387
215.771
220.155
224.536
228.907
233.262
237.598
241.909
246.189
250.431
254.626
258.768
262.849
266.861
270.797
274.648
278.407
282.066
285.617
289.05
292.358
295.533
298.565
301.448
304.173
306.732
309.118
311.324
313.342
315.165
316.788
318.203
319.406
320.394
321.166
321.717
322.044
322.142
322.006
321.636
321.033
320.202
319.145
317.867
316.373
314.669
312.763
310.662
308.372
305.904
303.264
300.463
297.507
294.406
291.168
287.798
284.305
280.693
276.968
273.139
269.21
265.188
261.08
256.891
252.629
248.299
243.913
239.479
235.01
230.517
226.015
221.514
217.028
212.569
208.153
203.791
199.503
195.297
191.209
187.23
183.425
179.708
176.211
172.593
176.729
80.4289
56.0103
45.5496
40.5849
37.4052
35.4282
34.0521
33.1295
32.4867
32.063
31.7905
31.638
31.5729
31.5715
31.6194
31.7054
31.82
31.9576
32.1141
32.2876
32.4775
32.685
32.9133
33.167
33.4519
33.7739
34.139
34.5544
35.0272
35.5652
36.1774
36.8618
37.6034
38.389
39.2073
40.0511
40.918
41.8099
42.733
43.695
44.7052
45.7733
46.9089
48.1201
49.4172
50.8107
52.3119
53.9332
55.6892
57.5864
59.6188
61.7807
64.0673
66.4739
68.9965
71.6312
74.3745
77.2232
80.1743
83.2249
86.3724
89.6141
92.9478
96.3709
99.8814
103.477
107.155
110.915
114.753
118.668
122.657
126.719
130.85
135.05
139.316
143.646
148.038
152.489
156.998
161.562
166.178
170.842
175.553
180.308
185.105
189.941
194.815
199.723
204.662
209.626
214.613
219.617
224.636
229.663
234.697
239.731
244.762
249.784
254.793
259.782
264.742
269.666
274.546
279.375
284.145
288.849
293.479
298.027
302.484
306.843
311.094
315.228
319.237
323.111
326.842
330.42
333.835
337.08
340.145
343.021
345.701
348.177
350.44
352.483
354.3
355.882
357.225
358.324
359.176
359.78
360.132
360.229
360.066
359.639
358.947
357.997
356.793
355.34
353.644
351.712
349.552
347.172
344.581
341.788
338.804
335.637
332.298
328.796
325.14
321.338
317.397
313.324
309.125
304.806
300.374
295.835
291.195
286.459
281.635
276.728
271.747
266.702
261.602
256.461
251.291
246.105
240.916
235.741
230.592
225.488
220.441
215.476
210.601
205.851
201.218
196.76
192.387
188.23
183.95
175.934
80.4145
56.1375
45.6741
40.7279
37.5577
35.5981
34.24
33.3406
32.7242
32.3317
32.0953
31.9845
31.9617
32.0083
32.107
32.2452
32.4121
32.6006
32.8052
33.0233
33.2542
33.4994
33.7622
34.0471
34.3597
34.7067
35.0952
35.5329
36.0278
36.5885
37.2245
37.9362
38.7098
39.5351
40.4052
41.3166
42.2692
43.265
44.3079
45.4036
46.5589
47.7812
49.0784
50.4592
51.9333
53.5117
55.2068
57.0326
59.0047
61.1405
63.4357
65.8846
68.4823
71.2246
74.1079
77.1287
80.2836
83.5692
86.9824
90.5198
94.1783
97.9544
101.845
105.846
109.955
114.167
118.481
122.891
127.395
131.99
136.671
141.437
146.283
151.207
156.205
161.273
166.41
171.612
176.874
182.195
187.569
192.994
198.465
203.981
209.536
215.127
220.751
226.401
232.075
237.766
243.469
249.181
254.895
260.608
266.314
272.007
277.68
283.326
288.939
294.513
300.041
305.516
310.93
316.274
321.539
326.714
331.793
336.764
341.618
346.346
350.939
355.386
359.677
363.804
367.756
371.523
375.096
378.465
381.62
384.553
387.256
389.72
391.937
393.9
395.602
397.035
398.195
399.079
399.686
400.012
400.054
399.812
399.274
398.444
397.326
395.926
394.249
392.303
390.096
387.635
384.932
381.995
378.837
375.467
371.898
368.14
364.203
360.099
355.837
351.426
346.873
342.185
337.368
332.429
327.374
322.207
316.936
311.565
306.1
300.547
294.914
289.21
283.445
277.63
271.778
265.903
260.019
254.142
248.288
242.477
236.726
231.058
225.487
220.048
214.731
209.595
204.549
199.728
194.793
175.283
79.1654
55.4559
45.1763
40.2796
37.1591
35.2544
33.9524
33.1136
32.5615
32.2388
32.0798
32.0474
32.1089
32.2461
32.4399
32.6775
32.9469
33.24
33.5501
33.8732
34.2073
34.5533
34.9129
35.2904
35.6911
36.1212
36.5878
37.0984
37.6609
38.2825
38.9698
39.7285
40.5625
41.4611
42.419
43.4339
44.5054
45.6352
46.8265
48.084
49.4135
50.8218
52.3171
53.9089
55.6082
57.4279
59.3826
61.4897
63.7688
66.2322
68.8751
71.6938
74.6852
77.8468
81.176
84.67
88.3261
92.141
96.1116
100.234
104.504
108.919
113.472
118.161
122.98
127.924
132.988
138.167
143.455
148.849
154.343
159.932
165.611
171.376
177.221
183.142
189.134
195.193
201.313
207.49
213.717
219.992
226.308
232.66
239.044
245.455
251.888
258.337
264.798
271.263
277.725
284.176
290.613
297.027
303.414
309.769
316.084
322.349
328.556
334.696
340.758
346.736
352.62
358.402
364.072
369.623
375.043
380.324
385.456
390.429
395.233
399.858
404.294
408.531
412.558
416.365
419.943
423.281
426.37
429.202
431.767
434.059
436.068
437.789
439.213
440.335
441.152
441.663
441.868
441.762
441.343
440.599
439.539
438.164
436.481
434.494
432.214
429.649
426.809
423.704
420.348
416.751
412.928
408.889
404.649
400.219
395.613
390.84
385.912
380.839
375.627
370.284
364.817
359.232
353.535
347.73
341.823
335.818
329.72
323.535
317.267
310.925
304.517
298.053
291.545
285.004
278.445
271.884
265.339
258.83
252.377
246.007
239.735
233.598
227.588
221.764
216.04
210.555
204.98
170.75
76.7016
53.9465
44.0716
39.2972
36.289
34.496
33.3019
32.5734
32.135
31.9336
31.8936
31.9869
32.1812
32.4578
32.7972
33.1866
33.6134
34.0686
34.5444
35.0355
35.5384
36.0521
36.5775
37.1175
37.6762
38.2593
38.8737
39.5267
40.225
40.9749
41.7827
42.6539
43.5931
44.605
45.6963
46.8612
48.0981
49.4088
50.797
52.2679
53.8279
55.4847
57.2478
59.1288
61.1411
63.2999
65.6228
68.1315
70.8378
73.7428
76.8465
80.149
83.65
87.3489
91.2448
95.3358
99.6197
104.093
108.753
113.595
118.613
123.803
129.159
134.674
140.341
146.154
152.106
158.189
164.396
170.721
177.154
183.691
190.323
197.043
203.845
210.723
217.669
224.676
231.738
238.848
246
253.186
260.4
267.636
274.887
282.145
289.402
296.654
303.891
311.107
318.293
325.442
332.549
339.601
346.591
353.511
360.356
367.12
373.794
380.37
386.839
393.19
399.416
405.505
411.448
417.234
422.854
428.298
433.554
438.614
443.467
448.103
452.512
456.683
460.607
464.272
467.67
470.791
473.626
476.167
478.407
480.338
481.952
483.243
484.204
484.832
485.128
485.088
484.722
484.005
482.946
481.545
479.807
477.735
475.339
472.626
469.607
466.294
462.699
458.835
454.717
450.359
445.774
440.979
435.987
430.812
425.469
419.969
414.323
408.541
402.633
396.605
390.465
384.219
377.871
371.427
364.89
358.264
351.553
344.76
337.89
330.948
323.94
316.873
309.756
302.599
295.415
288.218
281.026
273.861
266.744
259.704
252.759
245.947
239.265
232.774
226.395
220.273
214.086
163.994
73.1172
51.6924
42.428
37.8876
35.0707
33.4505
32.4179
31.8511
31.5796
31.5425
31.6754
31.9522
32.3377
32.815
33.3656
33.9767
34.6351
35.3308
36.0545
36.7996
37.561
38.3356
39.1227
39.9238
40.742
41.5818
42.4482
43.3472
44.285
45.2683
46.3037
47.3975
48.5565
49.787
51.0945
52.4835
53.9597
55.5302
57.2041
58.9872
60.8853
62.9079
65.0683
67.3837
69.8689
72.5361
75.3981
78.4663
81.749
85.2519
88.9793
92.9343
97.1188
101.534
106.179
111.053
116.154
121.477
127.019
132.774
138.734
144.893
151.243
157.774
164.477
171.343
178.362
185.525
192.819
200.237
207.767
215.399
223.124
230.932
238.814
246.76
254.761
262.808
270.891
279.001
287.13
295.268
303.406
311.535
319.648
327.735
335.787
343.796
351.753
359.648
367.473
375.224
382.895
390.477
397.959
405.332
412.585
419.709
426.696
433.535
440.219
446.738
453.083
459.246
465.217
470.988
476.548
481.89
487.003
491.877
496.505
500.875
504.98
508.808
512.35
515.598
518.541
521.172
523.482
525.466
527.118
528.43
529.394
530.011
530.267
530.167
529.719
528.902
527.733
526.2
524.308
522.058
519.459
516.517
513.242
509.646
505.741
501.541
497.061
492.316
487.323
482.099
476.658
471.019
465.197
459.208
453.066
446.785
440.376
433.85
427.216
420.483
413.656
406.743
399.747
392.673
385.524
378.302
371.009
363.648
356.221
348.732
341.182
333.577
325.92
318.22
310.484
302.726
294.961
287.209
279.493
271.843
264.278
256.84
249.531
242.414
235.42
228.698
221.942
154.266
68.653
48.8416
40.3722
36.1552
33.6048
32.2239
31.419
31.082
31.0316
31.23
31.6099
32.1444
32.8034
33.5732
34.4342
35.3753
36.3818
37.4429
38.5476
39.6876
40.856
42.0489
43.2642
44.5013
45.7605
47.0434
48.3521
49.6892
51.0596
52.4704
53.9285
55.443
57.024
58.6805
60.4208
62.2532
64.1871
66.2333
68.4031
70.708
73.1601
75.7727
78.5601
81.5367
84.7162
88.1115
91.7344
95.5955
99.7033
104.065
108.685
113.569
118.717
124.132
129.813
135.756
141.959
148.415
155.118
162.06
169.231
176.62
184.216
192.006
199.978
208.118
216.412
224.847
233.408
242.082
250.855
259.713
268.644
277.633
286.669
295.739
304.832
313.933
323.033
332.119
341.181
350.207
359.187
368.113
376.975
385.762
394.468
403.08
411.585
419.967
428.218
436.332
444.303
452.123
459.788
467.292
474.624
481.777
488.743
495.513
502.077
508.429
514.559
520.458
526.117
531.53
536.686
541.579
546.199
550.538
554.589
558.343
561.793
564.929
567.744
570.23
572.38
574.187
575.644
576.749
577.499
577.883
577.892
577.553
576.815
575.71
574.24
572.399
570.187
567.604
564.656
561.348
557.69
553.691
549.363
544.72
539.776
534.548
529.052
523.308
517.332
511.142
504.758
498.196
491.476
484.613
477.623
470.52
463.316
456.022
448.647
441.2
433.688
426.115
418.486
410.801
403.065
395.278
387.442
379.558
371.626
363.645
355.617
347.543
339.422
331.259
323.057
314.826
306.578
298.331
290.105
281.93
273.828
265.842
257.978
250.305
242.761
235.504
228.241
143.907
63.6303
45.7048
38.1487
34.3584
32.1617
31.0847
30.5756
30.5298
30.7848
31.304
32.0179
32.9198
33.9791
35.1841
36.5155
37.9608
39.5044
41.1352
42.8413
44.6146
46.4481
48.3375
50.2784
52.2659
54.2957
56.3641
58.4682
60.6074
62.7824
64.994
67.2481
69.5596
71.9451
74.4116
76.9663
79.6205
82.3898
85.2893
88.3348
91.5416
94.9253
98.5016
102.286
106.294
110.541
115.038
119.8
124.835
130.151
135.756
141.652
147.843
154.329
161.108
168.177
175.532
183.163
191.064
199.222
207.625
216.26
225.112
234.164
243.4
252.802
262.353
272.034
281.827
291.715
301.679
311.702
321.767
331.857
341.956
352.049
362.121
372.157
382.142
392.063
401.907
411.66
421.311
430.847
440.257
449.526
458.647
467.612
476.411
485.037
493.481
501.737
509.798
517.652
525.291
532.71
539.901
546.857
553.571
560.037
566.248
572.196
577.877
583.283
588.408
593.249
597.797
602.049
605.997
609.635
612.959
615.963
618.641
620.986
622.992
624.651
625.963
626.921
627.514
627.743
627.615
627.122
626.235
624.98
623.355
621.354
618.985
616.246
613.137
609.661
605.825
601.634
597.098
592.226
587.031
581.526
575.726
569.648
563.311
556.734
549.934
542.931
535.743
528.392
520.896
513.274
505.543
497.72
489.818
481.849
473.825
465.754
457.644
449.503
441.334
433.136
424.911
416.663
408.39
400.092
391.769
383.418
375.037
366.624
358.177
349.692
341.171
332.612
324.021
315.406
306.781
298.163
289.582
281.058
272.635
264.325
256.196
248.202
240.498
232.821
132.384
58.6103
42.6762
36.1053
32.8248
31.0782
30.3444
30.1791
30.5044
31.1371
32.0744
33.2578
34.6795
36.307
38.1342
40.141
42.318
44.6504
47.1303
49.7475
52.4974
55.3743
58.3725
61.4828
64.6947
67.9969
71.3788
74.8302
78.3422
81.9062
85.519
89.1837
92.9083
96.7027
100.566
104.508
108.548
112.704
116.999
121.451
126.079
130.899
135.93
141.189
146.692
152.455
158.491
164.81
171.421
178.329
185.537
193.046
200.854
208.958
217.352
226.03
234.98
244.191
253.65
263.342
273.249
283.354
293.637
304.078
314.655
325.348
336.135
346.994
357.904
368.844
379.793
390.731
401.638
412.497
423.289
433.998
444.607
455.101
465.465
475.686
485.752
495.649
505.369
514.9
524.23
533.349
542.246
550.911
559.335
567.509