/*--------------------------------*- C++ -*----------------------------------*\
| =========                 |                                                 |
| \\      /  F ield         | OpenFOAM: The Open Source CFD Toolbox           |
|  \\    /   O peration     | Version:  v1906                                 |
|   \\  /    A nd           | Web:      www.OpenFOAM.com                      |
|    \\/     M anipulation  |                                                 |
\*---------------------------------------------------------------------------*/
FoamFile
{
    version     2.0;
    format      ascii;
    class       volScalarField;
    location    "1566";
    object      k;
}
// * * * * * * * * * * * * * * * * * * * * * * * * * * * * * * * * * * * * * //

dimensions      [0 2 -2 0 0 0 0];


internalField   nonuniform List<scalar> 
12225
(
2.25874
2.22668
2.16194
2.0917
2.02501
1.96456
1.91057
1.86315
1.82043
1.78363
1.74902
1.72103
1.69842
1.68013
1.66333
1.65128
1.63677
1.63127
2.25029
2.13779
1.98564
1.87243
1.78123
1.71368
1.66065
1.61696
1.5811
1.55029
1.52531
1.50224
1.48545
1.46763
1.45714
1.44241
1.43611
1.422
2.25785
2.21888
2.1436
2.07155
2.00394
1.94414
1.89182
1.84558
1.80504
1.76891
1.73731
1.70849
1.68375
1.66044
1.64119
1.62184
1.60731
1.59134
2.25839
2.23538
2.18791
2.13577
2.08419
2.03588
1.99182
1.95173
1.9155
1.8826
1.85294
1.82578
1.80141
1.77887
1.75879
1.7398
1.72353
1.70649
2.25891
2.24457
2.21501
2.18006
2.14382
2.10823
2.07435
2.04243
2.01263
1.98489
1.95921
1.93531
1.91325
1.89271
1.87381
1.8561
1.84019
1.82437
2.25905
2.24839
2.22761
2.20199
2.17442
2.14647
2.1191
2.09276
2.06769
2.04397
2.02165
2.00064
1.98096
1.96249
1.94522
1.92901
1.91394
1.89918
2.25918
2.25077
2.23561
2.21657
2.1956
2.17389
2.15219
2.13092
2.11033
2.09054
2.07166
2.05367
2.03661
2.02044
2.00516
1.99071
1.97715
1.964
2.25922
2.25211
2.24034
2.22547
2.20883
2.19132
2.17352
2.15582
2.13846
2.12159
2.10531
2.08966
2.07468
2.06037
2.04674
2.03376
2.0214
2.00947
2.25927
2.2531
2.24365
2.23178
2.2184
2.20416
2.18953
2.17482
2.16025
2.14595
2.13202
2.11853
2.10551
2.09298
2.08096
2.06945
2.05845
2.04783
2.25929
2.25376
2.24586
2.23607
2.22499
2.21312
2.20081
2.18832
2.17583
2.16349
2.15137
2.13955
2.12807
2.11696
2.10624
2.09591
2.08595
2.07635
2.25932
2.2543
2.24753
2.23929
2.22998
2.21996
2.20951
2.19884
2.1881
2.17742
2.16687
2.15652
2.14641
2.13657
2.12703
2.1178
2.10889
2.10025
2.25934
2.25466
2.24864
2.24143
2.23332
2.22458
2.21543
2.20605
2.19655
2.18706
2.17764
2.16835
2.15924
2.15034
2.14167
2.13325
2.12508
2.11716
2.25937
2.25498
2.24954
2.24315
2.23601
2.22831
2.22024
2.21192
2.20348
2.195
2.18655
2.17819
2.16996
2.16189
2.154
2.14632
2.13885
2.13157
2.25939
2.25525
2.25032
2.24464
2.23834
2.23156
2.22443
2.21707
2.20957
2.20201
2.19444
2.18693
2.1795
2.17219
2.16502
2.15802
2.15118
2.14452
2.25943
2.25552
2.25102
2.24594
2.24036
2.23438
2.22808
2.22157
2.21492
2.20818
2.20143
2.19469
2.188
2.1814
2.17491
2.16854
2.16231
2.15622
2.25946
2.25574
2.25157
2.24697
2.24196
2.23661
2.23099
2.22517
2.2192
2.21315
2.20705
2.20096
2.19489
2.18889
2.18296
2.17714
2.17143
2.16584
2.25949
2.25592
2.252
2.24774
2.24314
2.23826
2.23314
2.22782
2.22237
2.21682
2.21123
2.20562
2.20002
2.19446
2.18897
2.18355
2.17823
2.17303
2.25951
2.25603
2.25225
2.24818
2.24381
2.23919
2.23434
2.22932
2.22416
2.21891
2.21361
2.20828
2.20297
2.19768
2.19245
2.18728
2.1822
2.1772
2.2595
2.25599
2.25218
2.24805
2.24363
2.23894
2.23402
2.22892
2.22368
2.21835
2.21296
2.20755
2.20215
2.19678
2.19146
2.18623
2.18108
2.17605
2.25949
2.25585
2.25179
2.24732
2.24248
2.23731
2.23188
2.22626
2.2205
2.21465
2.20876
2.20286
2.19699
2.19117
2.18542
2.17975
2.17418
2.1687
2.25943
2.25553
2.25102
2.24592
2.24031
2.23429
2.22796
2.2214
2.21469
2.2079
2.20109
2.19429
2.18754
2.18087
2.1743
2.16787
2.16158
2.15548
2.25941
2.25519
2.25002
2.24399
2.23727
2.23003
2.22243
2.2146
2.20663
2.19862
2.19061
2.18268
2.17485
2.16715
2.15962
2.15227
2.14511
2.13809
2.25935
2.25456
2.24826
2.24066
2.23209
2.22284
2.21316
2.20324
2.19322
2.1832
2.17326
2.16348
2.15388
2.14451
2.13538
2.12651
2.1179
2.10966
2.25935
2.25385
2.24584
2.23594
2.22475
2.21278
2.20039
2.18782
2.17527
2.16284
2.15065
2.13874
2.12717
2.11597
2.10515
2.09474
2.08477
2.07513
2.25927
2.25242
2.24124
2.22717
2.21139
2.1947
2.17766
2.16062
2.14384
2.12747
2.11162
2.09634
2.08166
2.0676
2.05413
2.04124
2.02886
2.01715
2.25924
2.25041
2.23397
2.21363
2.19147
2.16867
2.14591
2.12362
2.10205
2.08135
2.0616
2.0428
2.02497
2.00806
1.99208
1.97698
1.96286
1.94965
2.25889
2.24472
2.21618
2.18219
2.14678
2.11176
2.07806
2.04624
2.01648
1.98877
1.96302
1.93911
1.91689
1.89627
1.87705
1.8592
1.8422
1.82643
2.25872
2.23436
2.18569
2.13367
2.08299
2.03496
1.99029
1.94961
1.91263
1.87901
1.84841
1.82055
1.79505
1.77177
1.75034
1.73074
1.71263
1.69712
2.25333
2.17275
2.05404
1.95318
1.87048
1.80144
1.74472
1.69879
1.66017
1.62711
1.59839
1.57344
1.55131
1.53201
1.51455
1.4994
1.48528
1.47207
2.25474
2.20869
2.14517
2.0835
2.02609
1.974
1.9269
1.8845
1.84642
1.81214
1.7812
1.75315
1.72768
1.70437
1.68317
1.66353
1.64573
1.62889
0.0292153
0.0589861
0.085364
0.101407
0.113665
0.122084
0.128502
0.133378
0.137329
0.140553
0.143285
0.145624
0.147683
0.149525
0.151209
0.152758
0.154215
0.155544
0.156865
0.157714
0.158009
0.1579
0.157447
0.156432
0.154761
0.152479
0.149455
0.145597
0.140924
0.135399
0.129084
0.121666
0.112811
0.102287
0.0903156
0.076218
0.0650703
0.0576574
0.0536188
0.0522606
0.0525212
0.0531828
0.0524649
0.0497471
0.0459135
0.0457448
0.0526571
0.0640326
0.0782933
0.0951439
0.114819
0.138414
0.159333
0.178443
0.19594
0.212177
0.227327
0.241536
0.254928
0.267611
0.279692
0.291286
0.302453
0.313228
0.32364
0.333718
0.343489
0.352976
0.362205
0.371194
0.379962
0.388525
0.3969
0.405107
0.413177
0.421129
0.428973
0.436717
0.444366
0.451923
0.459388
0.466761
0.474035
0.481202
0.488247
0.495148
0.50187
0.508363
0.514555
0.520349
0.526042
0.531701
0.537283
0.542817
0.5483
0.553745
0.559169
0.564613
0.570018
0.575347
0.580623
0.585821
0.590942
0.595976
0.600915
0.605737
0.6104
0.614884
0.619153
0.623178
0.626916
0.630331
0.633427
0.636277
0.638879
0.641234
0.643335
0.645184
0.646782
0.648135
0.649252
0.650173
0.650867
0.65145
0.651854
0.652059
0.651756
0.651637
0.651175
0.650633
0.649917
0.649084
0.648131
0.647087
0.645909
0.644577
0.643177
0.641788
0.640392
0.638956
0.637492
0.636015
0.634539
0.633081
0.631651
0.630259
0.628919
0.627641
0.626432
0.625298
0.624244
0.623275
0.622418
0.621786
0.621546
0.622338
0.624097
0.626119
0.628008
0.6301
0.629556
0.628419
0.627367
0.626384
0.625427
0.624441
0.62341
0.622291
0.621107
0.619789
0.618436
0.616866
0.615378
0.613463
0.611936
0.609493
0.607774
0.604547
0.599879
0.568166
0.062254
0.122514
0.172215
0.199647
0.220453
0.236077
0.248687
0.258734
0.267032
0.273865
0.279624
0.284523
0.288789
0.292568
0.295991
0.299147
0.302111
0.304934
0.307647
0.310232
0.312637
0.314755
0.316465
0.317616
0.318063
0.31783
0.316995
0.315716
0.314461
0.313873
0.314579
0.31743
0.323681
0.333857
0.347682
0.36403
0.381571
0.400098
0.419516
0.439694
0.460395
0.480961
0.500074
0.516326
0.529672
0.541539
0.552733
0.562737
0.571232
0.578494
0.585055
0.591256
0.598451
0.607562
0.618976
0.632634
0.648223
0.665334
0.683555
0.702523
0.721944
0.741584
0.761245
0.780766
0.800029
0.818954
0.837492
0.855619
0.873328
0.890623
0.90752
0.924039
0.940204
0.956043
0.971589
0.986873
1.00192
1.01677
1.03142
1.04591
1.06023
1.07442
1.08847
1.10239
1.11618
1.12983
1.14335
1.15671
1.16993
1.183
1.19594
1.20874
1.22136
1.2338
1.246
1.25793
1.26953
1.28072
1.29152
1.30209
1.31249
1.32277
1.33294
1.34299
1.3529
1.36262
1.37213
1.38145
1.39054
1.39941
1.40802
1.41636
1.42441
1.43217
1.43964
1.44683
1.45371
1.46028
1.46654
1.47249
1.47816
1.48355
1.48867
1.49351
1.49805
1.50225
1.50609
1.50964
1.51284
1.51571
1.51823
1.5204
1.5222
1.52364
1.5247
1.52534
1.5256
1.5255
1.52507
1.52426
1.52306
1.52146
1.51948
1.51712
1.51438
1.51127
1.50779
1.50394
1.49971
1.49511
1.49011
1.4847
1.47891
1.47277
1.46647
1.46086
1.45601
1.4508
1.44485
1.4379
1.43002
1.42181
1.4135
1.40517
1.39683
1.3885
1.38019
1.3719
1.36369
1.35554
1.34754
1.33959
1.33191
1.32419
1.31699
1.30936
1.30259
1.29409
1.28211
1.25325
0.1023
0.174227
0.235201
0.267829
0.293599
0.312202
0.327517
0.339842
0.350418
0.359471
0.367534
0.37479
0.381509
0.387821
0.393878
0.399782
0.405647
0.411576
0.417673
0.424033
0.430741
0.437878
0.445531
0.453809
0.462848
0.472786
0.483825
0.496286
0.510664
0.527619
0.547876
0.572051
0.60032
0.632247
0.666903
0.703138
0.739795
0.77587
0.810471
0.842598
0.87083
0.8932
0.907899
0.914479
0.914615
0.910269
0.90362
0.896573
0.890786
0.887792
0.888006
0.892092
0.900152
0.912013
0.927244
0.945236
0.965309
0.986803
1.00914
1.03184
1.05455
1.077
1.09903
1.12053
1.14145
1.1618
1.18158
1.20084
1.2196
1.23791
1.25582
1.27337
1.2906
1.30753
1.3242
1.34063
1.35684
1.37286
1.38869
1.40435
1.41984
1.43519
1.45039
1.46545
1.48037
1.49516
1.50983
1.52436
1.53878
1.55308
1.56727
1.58136
1.59532
1.60917
1.62288
1.63644
1.64986
1.66314
1.67629
1.68934
1.70229
1.71516
1.72793
1.74062
1.75321
1.76571
1.77808
1.79027
1.80227
1.81406
1.82561
1.83691
1.84796
1.85871
1.86916
1.87927
1.88904
1.89843
1.90746
1.91612
1.92441
1.93234
1.93989
1.94705
1.95378
1.96008
1.96594
1.97137
1.97634
1.98083
1.98483
1.98833
1.99133
1.99381
1.99576
1.99717
1.99804
1.9984
1.99827
1.99759
1.99636
1.99459
1.99229
1.98946
1.98612
1.98228
1.97793
1.97309
1.96776
1.96195
1.95569
1.94897
1.9418
1.93422
1.92633
1.91823
1.90982
1.90083
1.89116
1.88086
1.86993
1.85857
1.84694
1.83518
1.82337
1.81156
1.79981
1.78813
1.77657
1.76514
1.75389
1.74277
1.7319
1.72111
1.7107
1.70009
1.68986
1.67791
1.66339
1.63963
0.122745
0.215108
0.286176
0.322787
0.352838
0.374984
0.393951
0.409282
0.422748
0.434396
0.445052
0.45485
0.464181
0.473155
0.481985
0.490797
0.499769
0.509064
0.518863
0.529342
0.540685
0.553099
0.566855
0.582314
0.599854
0.619646
0.641545
0.665245
0.690504
0.717241
0.745475
0.775165
0.806098
0.837939
0.870357
0.903035
0.935582
0.967385
0.997354
1.02382
1.04496
1.05955
1.06746
1.07004
1.06934
1.06735
1.06592
1.06622
1.06917
1.07528
1.08467
1.09727
1.11278
1.13079
1.15081
1.17231
1.19483
1.21793
1.24128
1.26463
1.28781
1.3107
1.33323
1.35536
1.3771
1.39843
1.41939
1.44
1.46027
1.48023
1.49992
1.51935
1.53854
1.55751
1.57627
1.59484
1.61323
1.63144
1.64948
1.66737
1.68511
1.70271
1.72017
1.73751
1.75472
1.77183
1.78883
1.80573
1.82254
1.83926
1.85588
1.87242
1.88886
1.90521
1.92147
1.93763
1.95371
1.96971
1.98561
2.00143
2.01713
2.03272
2.04816
2.06346
2.07858
2.09351
2.10823
2.12272
2.13698
2.15098
2.1647
2.17813
2.19125
2.20403
2.21645
2.22849
2.24014
2.25137
2.26217
2.27252
2.28242
2.29184
2.30078
2.30921
2.31709
2.32443
2.33121
2.3374
2.343
2.34799
2.35234
2.35604
2.35909
2.36147
2.36318
2.36417
2.36452
2.36422
2.36321
2.36151
2.35911
2.35602
2.35227
2.34784
2.34277
2.33705
2.3307
2.32374
2.31618
2.30804
2.29935
2.29012
2.28038
2.27018
2.25957
2.24857
2.23707
2.22496
2.21222
2.19891
2.18511
2.17096
2.15659
2.14212
2.12763
2.11318
2.09882
2.08458
2.07048
2.05653
2.04278
2.02919
2.01584
2.0026
1.98965
1.97655
1.9636
1.94913
1.93273
1.9098
0.152222
0.263834
0.341215
0.381208
0.41444
0.439475
0.461575
0.480053
0.49669
0.511243
0.52469
0.537084
0.54899
0.560515
0.571975
0.583512
0.59537
0.607724
0.620779
0.634694
0.649616
0.665658
0.682943
0.701625
0.721881
0.743829
0.767414
0.79247
0.818769
0.845967
0.87354
0.900876
0.927599
0.953796
0.979861
1.00608
1.03226
1.05763
1.08103
1.10125
1.11757
1.13005
1.13947
1.1471
1.15429
1.16226
1.17187
1.18363
1.19771
1.21407
1.23247
1.25263
1.27422
1.29693
1.32045
1.34455
1.369
1.39363
1.41831
1.44291
1.46735
1.49159
1.51556
1.53926
1.56267
1.58579
1.60863
1.63119
1.6535
1.67558
1.69742
1.71906
1.74051
1.76178
1.78288
1.80383
1.82463
1.84531
1.86585
1.88629
1.90662
1.92684
1.94697
1.967
1.98694
2.00678
2.02654
2.0462
2.06578
2.08528
2.1047
2.12405
2.14332
2.16253
2.18166
2.20072
2.21971
2.23862
2.25746
2.27621
2.29485
2.31337
2.33174
2.34994
2.36795
2.38574
2.40329
2.42057
2.43756
2.45424
2.47059
2.48657
2.50217
2.51736
2.53212
2.54643
2.56026
2.57361
2.58644
2.59873
2.61046
2.62159
2.63211
2.64199
2.6512
2.65972
2.66755
2.67465
2.68101
2.6866
2.69141
2.69541
2.69861
2.70099
2.70252
2.70321
2.70313
2.70218
2.70037
2.69771
2.6942
2.68987
2.68472
2.67876
2.67201
2.66449
2.65621
2.64721
2.63749
2.6271
2.61606
2.6044
2.59215
2.57932
2.56593
2.55202
2.53759
2.5226
2.50707
2.49107
2.47466
2.45794
2.44101
2.42397
2.4069
2.38987
2.37293
2.35611
2.33944
2.32292
2.30658
2.29039
2.27442
2.25855
2.24293
2.22714
2.21136
2.19419
2.17542
2.15131
0.174607
0.304444
0.390755
0.435419
0.471999
0.500087
0.524946
0.546341
0.565849
0.583414
0.599661
0.614694
0.62897
0.642709
0.656235
0.669737
0.683431
0.697484
0.712079
0.727372
0.743512
0.760598
0.778658
0.797584
0.817156
0.837281
0.858049
0.879558
0.90172
0.924193
0.946531
0.968464
0.99008
1.01172
1.03363
1.05575
1.07759
1.09849
1.11789
1.13558
1.15169
1.16674
1.18141
1.19643
1.21241
1.22979
1.24879
1.26942
1.29157
1.31504
1.33961
1.36506
1.3912
1.41787
1.44491
1.4722
1.49959
1.527
1.55433
1.5815
1.60847
1.63518
1.66163
1.6878
1.7137
1.73933
1.7647
1.78983
1.81475
1.83946
1.86398
1.88833
1.91253
1.93659
1.96053
1.98436
2.00808
2.03171
2.05525
2.0787
2.10206
2.12534
2.14852
2.17162
2.19465
2.2176
2.2405
2.26334
2.28615
2.3089
2.33161
2.35427
2.37687
2.3994
2.42186
2.44425
2.46655
2.48876
2.51086
2.53284
2.55468
2.57635
2.59783
2.61909
2.64012
2.66088
2.68134
2.70149
2.72128
2.74069
2.7597
2.77826
2.79637
2.81398
2.83108
2.84763
2.86361
2.879
2.89375
2.90785
2.92126
2.93395
2.94589
2.95707
2.96744
2.97698
2.98568
2.9935
3.00044
3.00645
3.01153
3.01566
3.01882
3.02101
3.02219
3.02242
3.02166
3.01986
3.01706
3.01326
3.00847
3.0027
2.99596
2.98829
2.97969
2.97019
2.95982
2.94861
2.93658
2.92378
2.91024
2.89599
2.88107
2.86551
2.84931
2.83253
2.81518
2.79729
2.7789
2.76008
2.7409
2.72144
2.70178
2.68202
2.66222
2.64244
2.62273
2.60312
2.58364
2.56429
2.54511
2.52604
2.50717
2.48837
2.46976
2.45096
2.43207
2.41179
2.39016
2.36342
0.197673
0.341466
0.436693
0.48528
0.524727
0.555263
0.582334
0.605927
0.627614
0.647413
0.665894
0.68312
0.699402
0.714903
0.729907
0.744601
0.759172
0.773742
0.788425
0.80332
0.818535
0.83417
0.850299
0.866918
0.883903
0.901125
0.918569
0.93627
0.954202
0.972279
0.990447
1.00877
1.02737
1.04633
1.06556
1.08483
1.10391
1.12269
1.14122
1.15972
1.17851
1.19797
1.21841
1.24004
1.26298
1.28722
1.31266
1.33917
1.3666
1.3948
1.42365
1.45301
1.48279
1.51288
1.54316
1.57355
1.60395
1.63429
1.66449
1.69452
1.72433
1.7539
1.78324
1.81233
1.84119
1.86983
1.89825
1.92648
1.95454
1.98243
2.01018
2.03781
2.06532
2.09272
2.12004
2.14727
2.17443
2.20151
2.22851
2.25544
2.28232
2.30913
2.33589
2.36262
2.38932
2.41599
2.44263
2.46922
2.49575
2.52222
2.54862
2.57494
2.60118
2.62734
2.65343
2.67942
2.70532
2.7311
2.75676
2.78227
2.80761
2.83275
2.85765
2.8823
2.90665
2.93065
2.9543
2.97754
3.00036
3.02271
3.04457
3.06591
3.08669
3.10687
3.12644
3.14535
3.16357
3.18106
3.1978
3.21375
3.22888
3.24315
3.25654
3.269
3.28052
3.29106
3.30061
3.30912
3.31659
3.32298
3.32827
3.33246
3.33552
3.33744
3.33821
3.33786
3.33632
3.3336
3.32971
3.32467
3.31849
3.31118
3.30276
3.29326
3.28271
3.27112
3.25855
3.24501
3.23055
3.21521
3.19903
3.18205
3.16431
3.14583
3.12666
3.10685
3.08644
3.06547
3.04402
3.02216
2.99995
2.97747
2.95478
2.93197
2.90912
2.88627
2.86348
2.84078
2.8182
2.79575
2.77345
2.75128
2.72928
2.70735
2.68558
2.66358
2.64141
2.61784
2.59285
2.56313
0.21303
0.36907
0.473027
0.525498
0.567669
0.60039
0.629325
0.654602
0.677824
0.699093
0.718987
0.737583
0.755148
0.771799
0.787732
0.803082
0.818007
0.83261
0.846986
0.861194
0.87529
0.889316
0.903322
0.917363
0.931484
0.945715
0.960112
0.974752
0.98971
1.00506
1.02086
1.03716
1.05397
1.07122
1.08883
1.10678
1.12517
1.14417
1.16402
1.18495
1.20713
1.23065
1.25552
1.28166
1.30895
1.33726
1.36645
1.39642
1.42708
1.45836
1.49018
1.52247
1.55514
1.5881
1.62127
1.65456
1.68787
1.72116
1.75435
1.78742
1.82033
1.85306
1.88561
1.91797
1.95014
1.98215
2.01399
2.04568
2.07722
2.10865
2.13996
2.17117
2.2023
2.23334
2.26431
2.29522
2.32606
2.35685
2.38759
2.41829
2.44896
2.4796
2.51022
2.54082
2.57139
2.60191
2.63237
2.66277
2.6931
2.72337
2.75359
2.78377
2.81389
2.84393
2.87388
2.90373
2.93344
2.96301
2.99241
3.02161
3.05058
3.0793
3.10773
3.13583
3.16359
3.19095
3.21788
3.24435
3.2703
3.2957
3.32052
3.34471
3.36823
3.39106
3.41314
3.43444
3.45493
3.47456
3.4933
3.51112
3.52796
3.54381
3.55862
3.57236
3.585
3.59651
3.60685
3.61601
3.62395
3.63066
3.63611
3.6403
3.6432
3.64479
3.6451
3.64407
3.64169
3.63798
3.63295
3.6266
3.61897
3.61006
3.59991
3.58854
3.57598
3.56226
3.54743
3.53152
3.51458
3.49664
3.47777
3.45799
3.43736
3.4159
3.39367
3.37073
3.34712
3.32291
3.29818
3.27299
3.24743
3.22156
3.19546
3.16922
3.14291
3.1166
3.09033
3.06415
3.03809
3.01217
2.98642
2.96082
2.93541
2.91009
2.88492
2.85951
2.83388
2.80679
2.77841
2.74553
0.226172
0.389998
0.500733
0.556109
0.600245
0.634533
0.664766
0.691188
0.715421
0.737625
0.758393
0.777832
0.796195
0.813563
0.830076
0.845815
0.860883
0.87536
0.889337
0.902889
0.916089
0.929005
0.941702
0.954252
0.966745
0.979287
0.992
1.00501
1.01845
1.03242
1.04698
1.06216
1.07797
1.09443
1.11163
1.12973
1.14892
1.16939
1.19128
1.21468
1.23957
1.26587
1.29346
1.32219
1.35192
1.38253
1.41395
1.4461
1.47895
1.51244
1.54653
1.58113
1.61616
1.65156
1.68723
1.72309
1.75908
1.79514
1.83122
1.86728
1.90328
1.93921
1.97505
2.01079
2.04644
2.08198
2.11742
2.15278
2.18805
2.22324
2.25837
2.29343
2.32845
2.36341
2.39833
2.43322
2.46808
2.50291
2.53772
2.57252
2.60732
2.6421
2.67688
2.71163
2.74636
2.78105
2.81571
2.85034
2.88493
2.91949
2.95399
2.98841
3.02274
3.05694
3.09101
3.12493
3.15869
3.19225
3.22561
3.25872
3.29155
3.32406
3.35622
3.38797
3.41928
3.45008
3.48036
3.51006
3.53915
3.56758
3.59531
3.62231
3.64851
3.67389
3.6984
3.722
3.74465
3.7663
3.78691
3.80645
3.82486
3.84213
3.85821
3.87306
3.88665
3.89895
3.90992
3.91954
3.92778
3.93463
3.94007
3.94408
3.94665
3.94776
3.9474
3.94553
3.94216
3.9373
3.93098
3.9232
3.91398
3.90336
3.89135
3.87799
3.86331
3.84736
3.83017
3.81178
3.79225
3.77162
3.74993
3.72724
3.70358
3.67901
3.65358
3.62735
3.60039
3.57276
3.54454
3.51581
3.48665
3.45713
3.42735
3.39739
3.36733
3.33725
3.30722
3.27727
3.24746
3.21782
3.18838
3.15913
3.13011
3.10121
3.07247
3.04349
3.01426
2.98359
2.95171
2.91582
0.232585
0.401164
0.517697
0.575494
0.621129
0.65652
0.687628
0.71479
0.739674
0.762482
0.783831
0.80385
0.822797
0.840748
0.857819
0.874058
0.889535
0.904306
0.918434
0.931977
0.945006
0.957603
0.969864
0.981899
0.993837
1.00582
1.01799
1.0305
1.04347
1.05702
1.07123
1.08618
1.10197
1.1187
1.13655
1.15567
1.17621
1.19826
1.22184
1.24691
1.27341
1.30121
1.33019
1.36025
1.39128
1.42323
1.45604
1.48967
1.52408
1.55921
1.59503
1.63145
1.66843
1.70588
1.74374
1.78193
1.8204
1.85908
1.89792
1.93689
1.97594
2.01504
2.05418
2.09332
2.13247
2.1716
2.21073
2.24983
2.28892
2.328
2.36706
2.40611
2.44516
2.4842
2.52324
2.56229
2.60133
2.64039
2.67946
2.71854
2.75764
2.79674
2.83585
2.87494
2.91402
2.95307
2.99209
3.03107
3.07
3.10885
3.14762
3.18627
3.22481
3.2632
3.30144
3.33949
3.37732
3.41491
3.45221
3.48919
3.52581
3.56202
3.59779
3.63309
3.66786
3.70206
3.73564
3.76854
3.80071
3.83212
3.8627
3.89242
3.92122
3.94905
3.97588
4.00165
4.02633
4.04985
4.07219
4.09329
4.11312
4.13164
4.14881
4.16459
4.17895
4.19185
4.20325
4.21314
4.22149
4.22829
4.23352
4.23717
4.23922
4.23966
4.23845
4.23558
4.23106
4.22492
4.21717
4.20783
4.19692
4.18448
4.17053
4.15511
4.13825
4.12
4.1004
4.0795
4.05734
4.03397
4.00943
3.98379
3.95708
3.92935
3.90067
3.8711
3.8407
3.80955
3.77772
3.74531
3.7124
3.67907
3.64541
3.61152
3.5775
3.54343
3.50939
3.47544
3.44166
3.40807
3.37474
3.34165
3.30885
3.27623
3.24381
3.21117
3.17831
3.14407
3.10882
3.06986
0.23851
0.408381
0.527211
0.585984
0.632197
0.668056
0.699541
0.727061
0.752284
0.775447
0.797171
0.817603
0.837006
0.855464
0.873091
0.889932
0.906045
0.921471
0.936259
0.95046
0.964128
0.977333
0.990162
1.00273
1.01515
1.02759
1.04018
1.05307
1.06642
1.08036
1.09501
1.1105
1.12698
1.1446
1.16349
1.18375
1.20547
1.22865
1.25327
1.27929
1.30663
1.3352
1.36494
1.39578
1.42767
1.46056
1.49442
1.5292
1.56485
1.60134
1.63862
1.67663
1.71533
1.75464
1.79451
1.83487
1.87567
1.91686
1.95837
2.00016
2.0422
2.08444
2.12685
2.16941
2.21209
2.25487
2.29775
2.3407
2.38373
2.42683
2.46999
2.5132
2.55648
2.5998
2.64317
2.68659
2.73006
2.77358
2.81713
2.86072
2.90435
2.94799
2.99164
3.03528
3.07891
3.12251
3.16608
3.2096
3.25306
3.29644
3.3397
3.38282
3.42577
3.46853
3.51105
3.55332
3.5953
3.63696
3.67826
3.71916
3.75961
3.79956
3.83895
3.87774
3.91586
3.95328
3.98994
4.0258
4.0608
4.0949
4.12803
4.16016
4.19123
4.2212
4.25
4.2776
4.30394
4.32898
4.35267
4.37496
4.39583
4.41521
4.43308
4.44941
4.46415
4.47727
4.48873
4.49852
4.50661
4.513
4.51767
4.52061
4.5218
4.52123
4.51886
4.51468
4.50874
4.50104
4.49161
4.48048
4.46766
4.4532
4.43712
4.41946
4.40028
4.37959
4.35746
4.33393
4.30904
4.28285
4.2554
4.22674
4.19692
4.166
4.13403
4.10108
4.06722
4.03253
3.99708
3.96097
3.92427
3.88709
3.84952
3.81166
3.77362
3.7355
3.69739
3.65937
3.62153
3.58393
3.54662
3.50964
3.473
3.43662
3.40049
3.36421
3.32775
3.29002
3.25146
3.20945
0.237797
0.409064
0.528168
0.58719
0.633802
0.66997
0.701784
0.729611
0.755168
0.778687
0.800814
0.821703
0.841633
0.860693
0.879006
0.896618
0.913584
0.929934
0.945706
0.960937
0.975677
0.989988
1.00395
1.01766
1.03123
1.0448
1.0585
1.07248
1.08689
1.10188
1.11758
1.13416
1.15175
1.17048
1.19044
1.21171
1.23433
1.25829
1.28359
1.31019
1.33806
1.36716
1.39745
1.4289
1.46148
1.49515
1.52989
1.56564
1.60238
1.64006
1.67866
1.71812
1.75842
1.79948
1.84128
1.88373
1.9268
1.97043
2.01456
2.05914
2.10413
2.14948
2.19516
2.24113
2.28736
2.33383
2.38051
2.42738
2.47442
2.52162
2.56897
2.61645
2.66406
2.71178
2.7596
2.80753
2.85554
2.90363
2.95178
3
3.04826
3.09654
3.14484
3.19312
3.24139
3.28962
3.33778
3.38586
3.43382
3.48165
3.5293
3.57675
3.62396
3.67091
3.71755
3.76386
3.80978
3.85528
3.9003
3.9448
3.98875
4.03208
4.07476
4.11673
4.15792
4.1983
4.23778
4.27633
4.31388
4.35038
4.38577
4.42
4.45302
4.48477
4.5152
4.54426
4.57191
4.59809
4.62275
4.64585
4.66735
4.68722
4.7054
4.72187
4.73659
4.74953
4.76066
4.76997
4.77743
4.78304
4.78678
4.78866
4.78864
4.78672
4.78285
4.77707
4.76941
4.75988
4.74852
4.73536
4.72042
4.70374
4.68536
4.66532
4.64366
4.62043
4.59567
4.56943
4.54176
4.5127
4.48231
4.45063
4.41772
4.38362
4.34841
4.31213
4.27488
4.23671
4.19772
4.15798
4.11759
4.07665
4.03524
3.99349
3.95151
3.9094
3.86727
3.82523
3.78338
3.7418
3.70057
3.65972
3.6193
3.57922
3.53946
3.49965
3.45976
3.41875
3.37711
3.33229
0.23723
0.407562
0.523969
0.582039
0.628314
0.664327
0.696156
0.724102
0.749895
0.773749
0.79632
0.817758
0.838347
0.858173
0.877362
0.895962
0.91403
0.931591
0.948672
0.965295
0.981493
0.997315
1.01283
1.02811
1.04327
1.0584
1.07365
1.08915
1.10504
1.12146
1.13856
1.15648
1.17532
1.19521
1.21622
1.23841
1.26183
1.28649
1.3124
1.33956
1.36798
1.39764
1.42852
1.46062
1.49391
1.52838
1.564
1.60074
1.63857
1.67747
1.71742
1.75838
1.80033
1.84321
1.88699
1.9316
1.97701
2.02315
2.06997
2.11742
2.16545
2.21401
2.26307
2.31257
2.36248
2.41277
2.46339
2.51434
2.56556
2.61704
2.66876
2.7207
2.77283
2.82514
2.8776
2.93021
2.98293
3.03576
3.08868
3.14166
3.19468
3.24772
3.30075
3.35375
3.40669
3.45956
3.51231
3.56492
3.61737
3.66962
3.72163
3.77336
3.82475
3.87577
3.92639
3.97657
4.02626
4.07542
4.12398
4.1719
4.2191
4.26553
4.31114
4.35587
4.39966
4.44247
4.48424
4.52491
4.56442
4.60272
4.63975
4.67547
4.70981
4.74272
4.77415
4.80405
4.83236
4.85905
4.88406
4.90734
4.92887
4.94859
4.96648
4.9825
4.99661
5.00879
5.01902
5.02728
5.03357
5.03788
5.0402
5.04051
5.03882
5.03505
5.02925
5.02145
5.01167
4.99995
4.98632
4.9708
4.95344
4.93428
4.91335
4.8907
4.86638
4.84043
4.8129
4.78383
4.75329
4.7213
4.68793
4.65323
4.61723
4.58001
4.54161
4.50211
4.46158
4.42009
4.37773
4.33456
4.29069
4.2462
4.2012
4.15581
4.11013
4.06428
4.01839
3.97256
3.92692
3.88156
3.8366
3.79207
3.74803
3.70442
3.66122
3.61807
3.57498
3.53093
3.48647
3.43913
0.23314
0.400055
0.513155
0.570057
0.615885
0.651684
0.683536
0.711656
0.73779
0.76212
0.785311
0.807496
0.828958
0.849777
0.870079
0.889904
0.909301
0.928288
0.946887
0.96512
0.983018
1.00061
1.01792
1.03504
1.05204
1.06902
1.08609
1.10337
1.121
1.13911
1.15781
1.17722
1.19746
1.21861
1.24076
1.26397
1.2883
1.3138
1.34049
1.3684
1.39755
1.42794
1.4596
1.49251
1.52668
1.56209
1.59874
1.63661
1.6757
1.71599
1.75746
1.8001
1.84388
1.88875
1.93468
1.98163
2.02954
2.07836
2.12804
2.17853
2.22977
2.28172
2.33431
2.3875
2.44125
2.4955
2.55023
2.60537
2.66091
2.7168
2.77301
2.8295
2.88624
2.94321
3.00037
3.0577
3.11517
3.17275
3.23041
3.28812
3.34585
3.40357
3.46124
3.51883
3.57631
3.63364
3.69078
3.7477
3.80434
3.86069
3.91668
3.97227
4.02741
4.08207
4.13617
4.18967
4.24252
4.29468
4.3461
4.39673
4.44652
4.4954
4.54332
4.59022
4.63603
4.6807
4.72416
4.76637
4.80725
4.84675
4.88482
4.92141
4.95645
4.98989
5.02169
5.05179
5.08014
5.10669
5.13141
5.15425
5.17517
5.19414
5.21113
5.2261
5.23903
5.24988
5.25864
5.26532
5.26992
5.27241
5.2728
5.2711
5.2672
5.26116
5.25303
5.24282
5.23056
5.21631
5.20008
5.18192
5.16187
5.13998
5.11629
5.09085
5.0637
5.0349
5.0045
4.97254
4.93907
4.90414
4.8678
4.83011
4.7911
4.75084
4.7094
4.66683
4.6232
4.5786
4.53309
4.48676
4.43969
4.39198
4.34373
4.29505
4.24604
4.19684
4.14756
4.09832
4.04925
4.00048
3.95212
3.90424
3.85691
3.81007
3.76374
3.71759
3.67162
3.6249
3.578
3.52852
0.226971
0.388511
0.497479
0.552976
0.598174
0.633678
0.665526
0.693843
0.720383
0.745286
0.769224
0.792304
0.814815
0.836821
0.858447
0.879724
0.900701
0.921383
0.941787
0.961908
0.98175
1.00133
1.0207
1.03988
1.05896
1.07801
1.09714
1.11644
1.13604
1.15604
1.17654
1.19766
1.21949
1.24213
1.26567
1.29018
1.31573
1.34238
1.37017
1.39916
1.42937
1.46085
1.49361
1.52767
1.56305
1.59975
1.63779
1.67716
1.71788
1.75992
1.8033
1.84799
1.89396
1.94119
1.98964
2.03927
2.09004
2.14189
2.19477
2.24862
2.30339
2.35902
2.41544
2.4726
2.53045
2.58893
2.64798
2.70755
2.7676
2.82807
2.88892
2.9501
3.01157
3.07328
3.1352
3.19729
3.2595
3.3218
3.38414
3.44648
3.50878
3.571
3.6331
3.69502
3.75673
3.81818
3.87933
3.94012
4.00051
4.06045
4.11989
4.17879
4.2371
4.29479
4.3518
4.40807
4.46354
4.51813
4.5718
4.62448
4.67612
4.72667
4.77605
4.82423
4.87113
4.91671
4.96091
5.00367
5.04494
5.08467
5.12279
5.15927
5.19404
5.22706
5.25828
5.28765
5.31512
5.34066
5.36421
5.38574
5.40523
5.42263
5.43793
5.45109
5.46208
5.4709
5.47753
5.48198
5.48425
5.48432
5.48226
5.47788
5.47128
5.46251
5.45159
5.43855
5.42344
5.40628
5.38713
5.36603
5.34303
5.31817
5.29151
5.26311
5.233
5.20125
5.1679
5.133
5.0966
5.05875
5.0195
4.9789
4.937
4.89386
4.84954
4.80411
4.75763
4.71018
4.66183
4.61267
4.56277
4.51224
4.46116
4.40964
4.35779
4.30572
4.25356
4.20143
4.14946
4.09777
4.0465
3.99574
3.94556
3.89595
3.84691
3.79817
3.74974
3.70078
3.65184
3.60066
0.217919
0.372098
0.476777
0.530824
0.575371
0.610603
0.642518
0.671133
0.698223
0.723866
0.748748
0.772943
0.796746
0.820201
0.843433
0.866458
0.889319
0.91201
0.934533
0.95687
0.979016
1.00097
1.02274
1.04439
1.06596
1.08752
1.10916
1.13095
1.15297
1.17531
1.19807
1.22135
1.24525
1.26988
1.29532
1.32168
1.34901
1.37739
1.40688
1.43754
1.46942
1.50259
1.53707
1.57291
1.61013
1.64877
1.68884
1.73036
1.77334
1.81778
1.86369
1.91104
1.95982
2.01001
2.06157
2.11445
2.16862
2.22402
2.28059
2.33827
2.39699
2.4567
2.51732
2.57878
2.64102
2.70396
2.76755
2.83171
2.89638
2.96151
3.02702
3.09286
3.15898
3.22532
3.29182
3.35843
3.4251
3.49179
3.55842
3.62496
3.69135
3.75753
3.82346
3.8891
3.95438
4.01927
4.08372
4.14767
4.21107
4.27383
4.3359
4.3972
4.4577
4.51736
4.57613
4.63397
4.69083
4.74664
4.80136
4.85491
4.90726
4.95833
5.00807
5.05643
5.10335
5.14876
5.19263
5.23488
5.27548
5.31437
5.35151
5.38683
5.42031
5.45189
5.48152
5.50917
5.5348
5.55835
5.57981
5.59913
5.61629
5.63128
5.64405
5.6546
5.66289
5.66894
5.67272
5.67428
5.6736
5.67066
5.66539
5.65784
5.64807
5.63609
5.62195
5.60568
5.58733
5.56694
5.54456
5.52025
5.49406
5.46604
5.43625
5.40475
5.37159
5.33682
5.3005
5.26267
5.22338
5.18268
5.14062
5.09725
5.05262
5.00679
4.95982
4.91177
4.86272
4.81272
4.76185
4.7102
4.65785
4.60489
4.55141
4.49751
4.4433
4.38888
4.33437
4.2799
4.22559
4.17157
4.11797
4.0649
4.01244
3.96059
3.90939
3.85859
3.80824
3.75755
3.70708
3.65471
0.208077
0.3541
0.453492
0.505817
0.549646
0.584638
0.616713
0.645751
0.673554
0.700121
0.726165
0.75171
0.777065
0.802251
0.827403
0.852522
0.877647
0.902746
0.927809
0.9528
0.977711
1.00252
1.02726
1.05198
1.07672
1.10152
1.12643
1.15147
1.17672
1.20224
1.22809
1.25434
1.28115
1.30865
1.33694
1.36606
1.3961
1.42714
1.45926
1.49255
1.52707
1.56289
1.60006
1.63863
1.67865
1.72015
1.76316
1.80772
1.85383
1.9015
1.95073
2.00151
2.05382
2.10763
2.1629
2.21958
2.27764
2.337
2.39761
2.4594
2.52229
2.58621
2.65109
2.71684
2.78338
2.85064
2.91853
2.98698
3.05592
3.12526
3.19494
3.26489
3.33504
3.40531
3.47565
3.546
3.61629
3.68645
3.75643
3.82617
3.89561
3.96468
4.03332
4.10149
4.16911
4.23613
4.30249
4.36815
4.43305
4.49713
4.56036
4.62267
4.68401
4.74433
4.80356
4.86166
4.91856
4.97421
5.02856
5.08156
5.13314
5.18326
5.23187
5.27892
5.32436
5.36814
5.41022
5.45054
5.48907
5.52577
5.56058
5.59347
5.6244
5.65334
5.68024
5.70506
5.72777
5.74833
5.76672
5.78291
5.79689
5.80862
5.81809
5.82529
5.83021
5.83285
5.83321
5.83139
5.82716
5.82064
5.81185
5.80081
5.78755
5.77212
5.75455
5.73489
5.71318
5.68948
5.66383
5.6363
5.60696
5.57585
5.54305
5.5086
5.47257
5.435
5.39595
5.35546
5.3136
5.27039
5.22589
5.18015
5.13322
5.08515
5.03599
4.98582
4.93469
4.88267
4.82982
4.77623
4.72198
4.66716
4.61186
4.55619
4.50022
4.44409
4.3879
4.33177
4.27582
4.22019
4.165
4.11035
4.05635
4.003
3.95036
3.89822
3.84663
3.7949
3.74356
3.69064
0.196838
0.335453
0.429909
0.480807
0.52415
0.559135
0.591623