/*--------------------------------*- C++ -*----------------------------------*\
| =========                 |                                                 |
| \\      /  F ield         | OpenFOAM: The Open Source CFD Toolbox           |
|  \\    /   O peration     | Version:  v1906                                 |
|   \\  /    A nd           | Web:      www.OpenFOAM.com                      |
|    \\/     M anipulation  |                                                 |
\*---------------------------------------------------------------------------*/
FoamFile
{
    version     2.0;
    format      ascii;
    class       volScalarField;
    location    "1566";
    object      nut;
}
// * * * * * * * * * * * * * * * * * * * * * * * * * * * * * * * * * * * * * //

dimensions      [0 2 -1 0 0 0 0];


internalField   nonuniform List<scalar> 
12225
(
5.38048e-05
5.34216e-05
5.26393e-05
5.17772e-05
5.0945e-05
5.01789e-05
4.94846e-05
4.88666e-05
4.83031e-05
4.78125e-05
4.73463e-05
4.6966e-05
4.66564e-05
4.64045e-05
4.6172e-05
4.60045e-05
4.58018e-05
4.57249e-05
0.000743659
0.000274827
0.000208915
0.000186812
0.000173791
0.000168882
0.000164691
0.000161053
0.000158129
0.000155578
0.000153631
0.000151699
0.000150399
0.000148641
0.000148034
0.000146309
0.000146619
0.000144736
0.00337131
0.000965687
0.000668424
0.000562245
0.000503859
0.000472015
0.000448879
0.000431618
0.000418731
0.000408288
0.000399628
0.000392243
0.000386173
0.000380448
0.000376271
0.000371252
0.00036936
0.000364224
0.00784748
0.00229238
0.00147326
0.00117575
0.00101859
0.000926468
0.000864599
0.000819827
0.000786958
0.000761141
0.00074005
0.000723278
0.000709528
0.000697653
0.000688078
0.000678685
0.000673352
0.000662831
0.0127627
0.00432672
0.00270974
0.00210436
0.00178856
0.00159948
0.00147343
0.001383
0.00131568
0.00126351
0.00122154
0.00118737
0.00115959
0.00113569
0.00111547
0.00109759
0.00108471
0.00106626
0.0171139
0.00693198
0.00436916
0.00334589
0.00280528
0.00247637
0.00225605
0.00209805
0.00197978
0.0018881
0.00181476
0.0017549
0.00170554
0.00166387
0.0016284
0.0015976
0.00157184
0.00154352
0.0205947
0.00988393
0.00641797
0.00491186
0.00409425
0.0035885
0.00324681
0.00300089
0.00281596
0.00267214
0.00255707
0.00246299
0.00238495
0.00231914
0.002263
0.00221444
0.00217309
0.00213043
0.0232406
0.0129305
0.00876064
0.00676555
0.005638
0.00492466
0.0044362
0.00408182
0.00381361
0.00360396
0.00343569
0.00329776
0.00318287
0.00308578
0.00300274
0.00293091
0.00286854
0.0028072
0.0252063
0.0158686
0.0112824
0.00885736
0.00741809
0.00648204
0.00583013
0.00535199
0.00498726
0.00470042
0.00446918
0.00427896
0.00411995
0.0039852
0.00386964
0.00376951
0.00368179
0.00359869
0.0266541
0.0185548
0.0138527
0.0111072
0.00938566
0.00822867
0.00740574
0.00679352
0.00632169
0.00594767
0.0056443
0.00539355
0.00518303
0.00500397
0.00484991
0.00471597
0.00459787
0.00448877
0.0277221
0.0209145
0.0163558
0.013429
0.011484
0.0101278
0.0091395
0.00839172
0.00780827
0.00734142
0.00696001
0.00664291
0.00637541
0.00614694
0.00594966
0.00577757
0.00562545
0.00548688
0.0284467
0.0227415
0.0184775
0.0155117
0.0134325
0.0119301
0.0108078
0.00994354
0.0092603
0.00870808
0.00825332
0.00787284
0.00755019
0.00727337
0.00703343
0.00682339
0.00663729
0.00646907
0.0290074
0.0243028
0.0204371
0.0175382
0.0153938
0.0137847
0.0125498
0.0115799
0.0108018
0.0101657
0.00963711
0.00919169
0.00881173
0.00848415
0.00819902
0.00794857
0.00772626
0.00752601
0.0294888
0.0257555
0.0223977
0.0196764
0.0175406
0.0158663
0.0145392
0.0134713
0.0125985
0.0118746
0.0112662
0.0107488
0.0103041
0.00991834
0.0095808
0.00928305
0.00901809
0.00877989
0.0298837
0.0270284
0.024239
0.0217976
0.0197576
0.0180789
0.0166977
0.015554
0.0145983
0.0137916
0.0131042
0.012513
0.0120002
0.011552
0.0111574
0.0108076
0.0104953
0.0102144
0.0301876
0.0280602
0.0258267
0.0237253
0.0218564
0.0202383
0.0188522
0.0176673
0.0166521
0.015778
0.0150212
0.014362
0.0137841
0.0132747
0.0128231
0.0124206
0.0120598
0.0117349
0.0303978
0.0288004
0.0270242
0.0252473
0.0235765
0.0220603
0.0207108
0.0195212
0.0184765
0.0175592
0.0167522
0.0160402
0.0154097
0.014849
0.0143485
0.0138998
0.0134961
0.0131317
0.0305044
0.0291848
0.0276679
0.0260932
0.0245603
0.0231266
0.0218183
0.0206414
0.0195906
0.0186557
0.0178244
0.0170846
0.0164247
0.0158346
0.0153053
0.0148289
0.0143987
0.0140086
0.0304715
0.0290671
0.0274719
0.0258371
0.0242636
0.022806
0.0214858
0.020305
0.0192557
0.0183253
0.0175003
0.0167676
0.0161152
0.0155325
0.0150106
0.0145417
0.0141192
0.0137379
0.0302311
0.028214
0.0260762
0.0240424
0.022214
0.0206156
0.0192352
0.018047
0.0170229
0.016137
0.0153667
0.0146932
0.0141013
0.0135781
0.0131133
0.0126988
0.0123276
0.0119945
0.0298207
0.0268281
0.0239498
0.0214632
0.0194056
0.0177241
0.0163474
0.0152113
0.014264
0.0134656
0.0127858
0.0122014
0.0116945
0.0112514
0.0108613
0.010516
0.010209
0.00993626
0.0291396
0.0247089
0.020985
0.0181326
0.0159864
0.0143548
0.0130898
0.0120883
0.0112795
0.0106147
0.0100598
0.00959024
0.00918823
0.00884046
0.0085369
0.00826993
0.00803384
0.00782508
0.028036
0.0217164
0.0172854
0.0143383
0.0123316
0.0109081
0.00985723
0.00905428
0.00842289
0.0079144
0.00749664
0.00714762
0.00685183
0.00659804
0.00637785
0.00618505
0.00601495
0.00586639
0.0262544
0.0178168
0.0131461
0.0104897
0.00884765
0.00775163
0.00697427
0.00639695
0.00595237
0.00559995
0.00531399
0.00507746
0.00487864
0.00470926
0.00456318
0.0044359
0.00432377
0.00422597
0.0233815
0.013206
0.0090227
0.00699367
0.00583843
0.00510168
0.00459324
0.004223
0.00394183
0.0037212
0.00354362
0.00339769
0.00327568
0.00317225
0.00308322
0.00300581
0.00293676
0.00287721
0.0189046
0.00845564
0.00545015
0.00418497
0.00350646
0.00308627
0.00280102
0.00259663
0.00244286
0.00232291
0.00222686
0.00214824
0.00208274
0.00202746
0.00197984
0.00193878
0.00190217
0.00187107
0.0125845
0.00438897
0.00278862
0.0021725
0.0018504
0.00165232
0.0015184
0.0014244
0.00135365
0.00129843
0.00125443
0.00121846
0.00118865
0.00116363
0.0011416
0.00112301
0.00110556
0.00109083
0.00562612
0.00171149
0.00115553
0.000945992
0.000836999
0.000769039
0.000723353
0.000693195
0.000668815
0.000649374
0.000633859
0.000620849
0.000609612
0.00060008
0.000591417
0.000584216
0.000577001
0.00057205
0.00117126
0.000435646
0.000327293
0.00028481
0.000262915
0.000248762
0.000241428
0.00023721
0.00023324
0.000229634
0.000226404
0.000223598
0.000221042
0.000218882
0.000216809
0.000215149
0.00021336
0.000211729
7.08579e-05
7.01306e-05
6.91148e-05
6.81141e-05
6.71692e-05
6.63e-05
6.55043e-05
6.47797e-05
6.41217e-05
6.35238e-05
6.29792e-05
6.24811e-05
6.20256e-05
6.16058e-05
6.12215e-05
6.08632e-05
6.05366e-05
6.02261e-05
1.01215e-05
3.07575e-05
3.6994e-05
4.03049e-05
4.26561e-05
4.41889e-05
4.5315e-05
4.61451e-05
4.68008e-05
4.73235e-05
4.77567e-05
4.81198e-05
4.8433e-05
4.87079e-05
4.89547e-05
4.91778e-05
4.93845e-05
4.95695e-05
4.97519e-05
4.98594e-05
4.98804e-05
4.98384e-05
4.97433e-05
4.95607e-05
4.92761e-05
4.88933e-05
4.8392e-05
4.77511e-05
4.69687e-05
4.60309e-05
4.49392e-05
4.36294e-05
4.2018e-05
4.00192e-05
3.76109e-05
3.45686e-05
3.18499e-05
2.98933e-05
2.87578e-05
2.83455e-05
2.83983e-05
2.85876e-05
2.83997e-05
2.76643e-05
2.65489e-05
2.64195e-05
2.82739e-05
3.11595e-05
3.44435e-05
3.79568e-05
4.16791e-05
4.57351e-05
4.90687e-05
5.19127e-05
5.43757e-05
5.65559e-05
5.85085e-05
6.02744e-05
6.18853e-05
6.33663e-05
6.47387e-05
6.60229e-05
6.72311e-05
6.83711e-05
6.94497e-05
7.04728e-05
7.14458e-05
7.23734e-05
7.32596e-05
7.41082e-05
7.49222e-05
7.57045e-05
7.64578e-05
7.71849e-05
7.78896e-05
7.85742e-05
7.92402e-05
7.98889e-05
8.0521e-05
8.11374e-05
8.17384e-05
8.23241e-05
8.28946e-05
8.34494e-05
8.39875e-05
8.45073e-05
8.50063e-05
8.54807e-05
8.59248e-05
8.63312e-05
8.67255e-05
8.7113e-05
8.74901e-05
8.78594e-05
8.82204e-05
8.85741e-05
8.89226e-05
8.92699e-05
8.96105e-05
8.99419e-05
9.02658e-05
9.05804e-05
9.08859e-05
9.11815e-05
9.14669e-05
9.17413e-05
9.20009e-05
9.22448e-05
9.24705e-05
9.26759e-05
9.28585e-05
9.30153e-05
9.31452e-05
9.32552e-05
9.33453e-05
9.34157e-05
9.34662e-05
9.34969e-05
9.35078e-05
9.34991e-05
9.34709e-05
9.34392e-05
9.33667e-05
9.33033e-05
9.32193e-05
9.31206e-05
9.29854e-05
9.28614e-05
9.2712e-05
9.25557e-05
9.23859e-05
9.22066e-05
9.20178e-05
9.18214e-05
9.16145e-05
9.13955e-05
9.11708e-05
9.09458e-05
9.07194e-05
9.04891e-05
9.02559e-05
9.00209e-05
8.9785e-05
8.95495e-05
8.93151e-05
8.90825e-05
8.88529e-05
8.86269e-05
8.84049e-05
8.81874e-05
8.79749e-05
8.77676e-05
8.75668e-05
8.73804e-05
8.72172e-05
8.71222e-05
8.70978e-05
8.70962e-05
8.70826e-05
8.70912e-05
8.69144e-05
8.66872e-05
8.64637e-05
8.62444e-05
8.60263e-05
8.58057e-05
8.55816e-05
8.53508e-05
8.51151e-05
8.48694e-05
8.46205e-05
8.43559e-05
8.40953e-05
8.38046e-05
8.35374e-05
8.32076e-05
8.29208e-05
8.25357e-05
8.20525e-05
7.96824e-05
1.47703e-05
7.91102e-05
0.000168418
0.000226776
0.000271641
0.000303435
0.000328477
0.000347484
0.000362596
0.000374067
0.000383038
0.000390087
0.000395952
0.000401057
0.000405793
0.000410413
0.000415128
0.000420092
0.000425399
0.000431123
0.000437185
0.00044315
0.000448365
0.000452174
0.000453269
0.000451164
0.000446738
0.000441532
0.000437449
0.000435938
0.000436356
0.00043825
0.000443955
0.000456938
0.000480686
0.000510659
0.000537311
0.000559056
0.000575957
0.000589011
0.000599909
0.000610683
0.000622866
0.000636678
0.000650817
0.000663656
0.000674399
0.000682663
0.000688072
0.000690225
0.000689141
0.000685079
0.000682374
0.000683234
0.000688204
0.000696895
0.000708544
0.000722275
0.000737236
0.000752646
0.00076779
0.000783338
0.0007997
0.000816606
0.000833675
0.000850575
0.000867056
0.000882941
0.000898115
0.000912499
0.000926035
0.00093867
0.000950328
0.00096089
0.000970625
0.00097979
0.000988511
0.000996866
0.00100491
0.00101268
0.00102022
0.00102755
0.00103471
0.00104172
0.0010486
0.00105537
0.00106205
0.00106865
0.00107516
0.00108153
0.00108764
0.00109342
0.00109881
0.0011038
0.00110834
0.00111232
0.00111557
0.00111788
0.00111969
0.00112128
0.00112279
0.00112428
0.0011258
0.00112739
0.00112906
0.00113085
0.00113272
0.00113459
0.00113639
0.00113797
0.0011391
0.00113929
0.0011382
0.00113677
0.00113524
0.00113365
0.00113201
0.00113029
0.00112852
0.00112672
0.00112492
0.00112315
0.00112141
0.00111975
0.00111813
0.00111657
0.00111498
0.00111331
0.00111171
0.00111006
0.00110838
0.00110665
0.00110485
0.00110302
0.00110114
0.00109917
0.00109704
0.00109468
0.00109223
0.00108961
0.0010868
0.00108378
0.00108053
0.00107705
0.00107333
0.00106933
0.00106507
0.00106053
0.0010557
0.00105053
0.00104496
0.00103891
0.0010324
0.00102531
0.0010176
0.00101073
0.0010051
0.000998981
0.000991993
0.00098405
0.000976523
0.000969622
0.000962956
0.000956599
0.00095053
0.000944723
0.000939198
0.000933948
0.000929029
0.000924403
0.000920176
0.000916205
0.000912749
0.000909362
0.000906802
0.000903678
0.000902051
0.000898073
0.000892603
0.000851697
1.89549e-05
0.000102909
0.00023081
0.000338205
0.000429007
0.000502695
0.000562419
0.000609385
0.000647506
0.000677944
0.000703547
0.000725478
0.0007454
0.000763993
0.000782092
0.000800192
0.000818859
0.000838557
0.000859725
0.000882633
0.00090729
0.000933256
0.000959484
0.000984067
0.00100553
0.00102436
0.001042
0.00106035
0.0010808
0.00110384
0.00112855
0.00115259
0.00117345
0.00118866
0.00119619
0.00119925
0.00120207
0.00120571
0.00121127
0.00121987
0.00123254
0.00125034
0.00127364
0.00129988
0.00132904
0.00135879
0.00138771
0.00141496
0.00144023
0.00146441
0.00148577
0.00150673
0.00152926
0.00155345
0.00158042
0.00160998
0.00164158
0.00167453
0.0017081
0.00174166
0.00177474
0.00180706
0.00183838
0.00186849
0.00189719
0.00192433
0.00194985
0.0019737
0.0019959
0.00201649
0.00203553
0.0020531
0.0020693
0.00208425
0.0020981
0.00211101
0.00212308
0.0021344
0.00214506
0.00215512
0.00216462
0.00217362
0.00218215
0.00219022
0.00219786
0.00220505
0.00221178
0.00221798
0.00222358
0.00222843
0.00223233
0.00223501
0.00223637
0.00223701
0.00223719
0.00223698
0.00223645
0.0022357
0.00223488
0.00223409
0.00223338
0.00223281
0.00223244
0.00223234
0.00223258
0.00223314
0.00223389
0.00223462
0.00223516
0.00223535
0.00223505
0.00223419
0.00223288
0.00223134
0.00222958
0.00222759
0.0022253
0.00222263
0.00221964
0.00221652
0.00221337
0.00221028
0.00220727
0.00220434
0.00220144
0.00219857
0.00219576
0.00219301
0.0021903
0.00218757
0.00218484
0.00218207
0.00217928
0.00217646
0.0021736
0.00217064
0.00216749
0.00216424
0.00216088
0.00215734
0.00215357
0.00214957
0.00214532
0.00214085
0.00213612
0.00213114
0.00212588
0.00212035
0.00211451
0.00210837
0.00210192
0.00209511
0.00208776
0.00207981
0.00207137
0.00206277
0.00205399
0.0020444
0.00203388
0.00202292
0.00201197
0.00200104
0.00199018
0.00197965
0.00196961
0.00196015
0.00195138
0.00194329
0.00193597
0.00192936
0.00192358
0.00191841
0.00191416
0.00191017
0.00190738
0.00190383
0.00190197
0.00189504
0.00188064
0.00182133
2.07615e-05
0.000120941
0.000275285
0.000401676
0.000522273
0.000621309
0.000710182
0.000780728
0.000842143
0.000892663
0.000937557
0.000977248
0.00101431
0.00104922
0.00108331
0.0011171
0.0011515
0.00118712
0.00122446
0.00126362
0.00130417
0.00134525
0.00138576
0.00142482
0.00146083
0.00149147
0.0015176
0.00153999
0.00155936
0.00157614
0.00159069
0.00160352
0.00161476
0.00162454
0.00163334
0.00164205
0.00165187
0.00166415
0.00167985
0.0016996
0.00172423
0.00175399
0.00178695
0.00182563
0.0018707
0.00192092
0.00197484
0.00202963
0.00208353
0.00213471
0.00218305
0.00223017
0.00227583
0.00232053
0.00236432
0.00240763
0.00245056
0.00249295
0.00253454
0.00257503
0.00261422
0.0026519
0.00268787
0.002722
0.00275418
0.00278437
0.00281254
0.00283872
0.00286296
0.00288533
0.00290592
0.00292486
0.00294226
0.00295825
0.00297297
0.00298653
0.00299904
0.00301059
0.00302125
0.00303111
0.00304022
0.00304863
0.00305638
0.0030635
0.00307002
0.00307594
0.00308127
0.00308599
0.00309008
0.00309352
0.0030963
0.00309848
0.00310014
0.00310146
0.00310251
0.00310339
0.00310414
0.00310485
0.00310555
0.00310631
0.00310714
0.00310808
0.00310912
0.00311025
0.00311146
0.00311265
0.00311376
0.00311469
0.00311537
0.00311572
0.00311572
0.00311536
0.00311467
0.00311364
0.00311221
0.00311024
0.00310752
0.00310362
0.00309884
0.00309376
0.00308863
0.00308352
0.00307848
0.00307349
0.00306853
0.0030636
0.00305869
0.0030538
0.00304892
0.003044
0.00303904
0.00303402
0.00302894
0.00302379
0.00301856
0.00301311
0.00300759
0.00300203
0.00299622
0.00299023
0.00298393
0.0029774
0.00297063
0.00296364
0.0029564
0.00294891
0.00294115
0.00293312
0.00292479
0.00291617
0.00290722
0.00289793
0.00288827
0.00287829
0.00286823
0.00285812
0.00284753
0.00283596
0.00282329
0.0028099
0.00279618
0.00278243
0.00276901
0.00275629
0.00274447
0.00273365
0.00272394
0.00271533
0.0027079
0.00270156
0.00269641
0.00269216
0.00268911
0.00268648
0.00268515
0.00268292
0.00268156
0.0026731
0.00265248
0.00258874
2.31205e-05
0.000146747
0.000323998
0.000472763
0.000615702
0.000738862
0.000851834
0.000948526
0.001035
0.00110716
0.00117212
0.00122912
0.00128252
0.00133237
0.00138089
0.00142843
0.00147628
0.00152478
0.00157425
0.00162408
0.00167301
0.00171874
0.00175856
0.00179241
0.00182068
0.0018438
0.00186246
0.00187749
0.00188986
0.00190063
0.0019109
0.00192165
0.00193353
0.00194692
0.00196152
0.00197725
0.00199425
0.00201279
0.00203506
0.00206423
0.00210345
0.00215145
0.00220928
0.00227437
0.00234403
0.00241583
0.00248766
0.00255779
0.00262579
0.00269144
0.00275413
0.00281409
0.00287162
0.002927
0.00298044
0.00303208
0.00308197
0.00313008
0.00317635
0.00322064
0.00326279
0.00330269
0.00334024
0.00337541
0.00340821
0.00343867
0.00346685
0.00349282
0.0035167
0.0035386
0.00355863
0.00357693
0.00359361
0.00360879
0.0036226
0.00363513
0.00364649
0.00365679
0.00366611
0.00367454
0.00368216
0.00368902
0.00369519
0.00370073
0.00370567
0.00371006
0.00371394
0.00371734
0.00372028
0.00372282
0.003725
0.00372688
0.00372852
0.00372999
0.00373134
0.0037326
0.00373381
0.003735
0.00373618
0.00373737
0.00373858
0.0037398
0.00374102
0.00374223
0.00374339
0.00374449
0.00374545
0.00374621
0.00374674
0.00374701
0.003747
0.00374671
0.00374611
0.00374517
0.00374383
0.00374204
0.00373974
0.00373698
0.00373393
0.00373072
0.00372742
0.00372407
0.00372067
0.00371721
0.00371368
0.00371007
0.00370639
0.00370261
0.00369873
0.00369473
0.0036906
0.00368633
0.00368192
0.00367735
0.00367257
0.00366759
0.00366258
0.00365742
0.00365195
0.00364622
0.00364029
0.00363415
0.00362781
0.00362126
0.00361451
0.00360756
0.0036004
0.00359303
0.00358546
0.00357768
0.0035697
0.0035615
0.0035531
0.00354453
0.00353582
0.00352684
0.00351732
0.00350695
0.00349525
0.00348248
0.00346919
0.00345587
0.00344297
0.00343089
0.0034199
0.00341014
0.00340174
0.00339471
0.00338908
0.00338473
0.00338172
0.00337971
0.00337892
0.00337854
0.00337921
0.00337859
0.00337741
0.00336673
0.0033406
0.00327848
2.4765e-05
0.00016184
0.000361792
0.00053389
0.00069817
0.000843558
0.000976804
0.00109563
0.00120273
0.0012984
0.00138396
0.0014596
0.00152873
0.00159238
0.00165261
0.00171007
0.00176562
0.00181942
0.00187155
0.00192152
0.00196842
0.00201044
0.00204486
0.00207279
0.00209541
0.00211373
0.0021286
0.00214093
0.00215179
0.00216246
0.00217414
0.00218734
0.00220219
0.00221851
0.00223781
0.00226173
0.00229155
0.00232886
0.00237392
0.00242624
0.00248508
0.00254965
0.00261969
0.00269393
0.00277054
0.00284824
0.00292527
0.00300057
0.00307353
0.00314395
0.00321156
0.00327632
0.0033383
0.00339759
0.00345426
0.00350838
0.00355998
0.00360907
0.00365565
0.00369972
0.00374124
0.00378021
0.00381664
0.00385056
0.003882
0.00391104
0.00393775
0.00396224
0.00398461
0.00400499
0.00402348
0.00404023
0.00405535
0.00406896
0.0040812
0.00409217
0.00410199
0.00411078
0.00411863
0.00412565
0.00413191
0.00413749
0.00414246
0.00414689
0.00415082
0.00415431
0.00415741
0.00416016
0.00416262
0.00416483
0.00416685
0.00416872
0.00417048
0.00417216
0.0041738
0.00417541
0.00417701
0.00417861
0.0041802
0.00418179
0.00418337
0.00418492
0.00418643
0.00418788
0.00418924
0.00419048
0.00419156
0.00419247
0.00419318
0.00419367
0.00419393
0.00419394
0.00419369
0.00419315
0.0041923
0.00419116
0.00418972
0.00418805
0.00418619
0.00418419
0.00418207
0.00417983
0.00417748
0.00417499
0.00417238
0.00416964
0.00416676
0.00416373
0.00416054
0.00415719
0.00415367
0.00414998
0.0041461
0.00414203
0.0041377
0.00413331
0.00412886
0.00412405
0.00411903
0.00411383
0.00410845
0.00410288
0.00409714
0.00409122
0.00408513
0.00407887
0.00407244
0.00406586
0.00405912
0.00405224
0.00404522
0.00403807
0.00403079
0.00402339
0.00401586
0.0040081
0.00399997
0.00399131
0.00398198
0.00397171
0.00396056
0.00394954
0.00393917
0.00392979
0.00392158
0.00391462
0.003909
0.0039047
0.00390172
0.0038999
0.00389923
0.00389937
0.00390036
0.00390144
0.00390286
0.00390229
0.0038995
0.00388632
0.00386011
0.00380305
2.63553e-05
0.000173251
0.000393519
0.000587053
0.000768019
0.000930961
0.00107775
0.00121106
0.00133216
0.00144282
0.00154408
0.00163717
0.00172286
0.00180202
0.0018752
0.0019428
0.00200513
0.00206234
0.00211445
0.00216138
0.00220294
0.00223902
0.00226971
0.00229551
0.0023172
0.00233567
0.00235181
0.00236654
0.00238089
0.00239562
0.00241146
0.00243019
0.00245281
0.00248037
0.00251277
0.00254995
0.0025925
0.00264086
0.00269512
0.00275506
0.00282008
0.00288916
0.00296185
0.00303911
0.00311993
0.00320189
0.00328163
0.00335851
0.00343266
0.0035038
0.00357176
0.0036366
0.00369837
0.00375711
0.0038129
0.00386579
0.00391584
0.00396309
0.00400758
0.00404934
0.0040884
0.0041248
0.00415858
0.00418982
0.00421859
0.00424497
0.00426908
0.00429102
0.00431091
0.0043289
0.00434509
0.00435964
0.00437267
0.00438432
0.0043947
0.00440396
0.0044122
0.00441953
0.00442606
0.00443188
0.00443705
0.00444167
0.00444579
0.00444948
0.00445282
0.00445586
0.00445866
0.00446129
0.00446378
0.00446617
0.00446849
0.00447077
0.00447301
0.00447525
0.00447749
0.00447973
0.00448199
0.00448425
0.0044865
0.00448874
0.00449096
0.00449313
0.00449525
0.00449728
0.00449921
0.00450103
0.0045027
0.00450422
0.00450555
0.0045067
0.00450764
0.00450837
0.00450886
0.00450913
0.00450916
0.00450896
0.00450854
0.00450794
0.00450715
0.00450621
0.0045051
0.00450382
0.00450239
0.00450078
0.004499
0.00449705
0.00449492
0.00449261
0.00449011
0.00448742
0.00448454
0.00448145
0.00447817
0.00447464
0.00447094
0.00446725
0.00446321
0.00445897
0.00445455
0.00444995
0.00444518
0.00444023
0.00443511
0.00442982
0.00442436
0.00441874
0.00441296
0.00440703
0.00440096
0.00439477
0.00438845
0.00438203
0.00437552
0.00436893
0.00436226
0.00435547
0.00434852
0.00434139
0.00433405
0.00432657
0.00431922
0.00431239
0.00430636
0.0043013
0.00429732
0.00429445
0.0042927
0.00429201
0.00429231
0.00429347
0.0042953
0.00429761
0.00430011
0.00430237
0.00430373
0.00430284
0.00429748
0.00428346
0.00425565
0.0042076
2.73654e-05
0.000180376
0.000416192
0.000625446
0.000817913
0.000991753
0.00114878
0.00129181
0.00142221
0.00154178
0.00165159
0.00175283
0.0018462
0.00193239
0.00201204
0.00208527
0.00215234
0.00221351
0.00226897
0.0023189
0.00236352
0.00240309
0.00243798
0.00246866
0.00249577
0.00252004
0.00254228
0.00256337
0.00258421
0.00260602
0.00262996
0.00265621
0.00268551
0.00271838
0.00275512
0.00279581
0.00284039
0.00288843
0.00294011
0.0029981
0.00306374
0.00313708
0.00321704
0.00330168
0.00338846
0.00347464
0.0035576
0.00363633
0.00371069
0.00378073
0.00384689
0.00390939
0.00396839
0.00402405
0.00407648
0.0041258
0.0041721
0.00421548
0.00425601
0.00429375
0.00432878
0.00436119
0.00439104
0.00441845
0.0044435
0.00446633
0.00448705
0.00450579
0.00452269
0.00453787
0.00455149
0.00456368
0.00457457
0.0045843
0.00459299
0.00460076
0.00460771
0.00461396
0.00461958
0.00462466
0.00462929
0.00463352
0.00463745
0.00464114
0.00464465
0.00464805
0.00465137
0.00465464
0.00465788
0.0046611
0.00466432
0.00466754
0.0046708
0.00467409
0.00467744
0.00468082
0.00468424
0.00468768
0.00469113
0.00469458
0.004698
0.00470138
0.00470469
0.00470792
0.00471105
0.00471404
0.0047169
0.0047196
0.00472213
0.00472447
0.00472661
0.00472855
0.00473028
0.00473179
0.00473308
0.00473415
0.00473501
0.00473566
0.00473611
0.00473635
0.00473639
0.00473623
0.00473586
0.00473528
0.00473449
0.00473349
0.00473227
0.00473085
0.00472921
0.00472734
0.00472526
0.00472295
0.00472042
0.00471762
0.00471479
0.00471169
0.00470835
0.00470482
0.00470109
0.00469718
0.00469307
0.00468877
0.00468428
0.00467959
0.0046747
0.00466962
0.00466436
0.00465891
0.00465329
0.00464752
0.0046416
0.00463556
0.00462942
0.00462322
0.00461697
0.00461071
0.00460445
0.00459827
0.00459223
0.00458649
0.00458124
0.00457672
0.00457308
0.00457045
0.00456888
0.0045684
0.00456898
0.00457058
0.00457309
0.00457638
0.00458024
0.00458447
0.00458871
0.00459249
0.00459497
0.00459489
0.00458992
0.00457721
0.0045524
0.00451339
2.82044e-05
0.000184949
0.00043265
0.000653601
0.000853556
0.00103431
0.00119774
0.00134666
0.00148252
0.00160711
0.00172157
0.00182709
0.0019245
0.0020145
0.00209794
0.00217517
0.00224644
0.00231202
0.00237216
0.00242715
0.00247726
0.00252282
0.00256419
0.0026018
0.00263615
0.0026678
0.0026974
0.00272561
0.00275339
0.00278135
0.00281005
0.00283998
0.00287153
0.00290495
0.00294022
0.00297699
0.00301805
0.00306558
0.00312103
0.00318506
0.00325735
0.00333672
0.0034213
0.00350894
0.00359723
0.00368362
0.00376598
0.0038425
0.00391373
0.00398036
0.0040427
0.004101
0.00415547
0.00420635
0.0042538
0.004298
0.0043391
0.00437724
0.00441253
0.0044451
0.00447506
0.00450254
0.00452765
0.00455053
0.0045713
0.00459011
0.0046071
0.0046224
0.00463617
0.00464854
0.00465965
0.00466963
0.00467862
0.00468674
0.0046941
0.00470081
0.00470696
0.00471265
0.00471794
0.00472293
0.00472768
0.00473226
0.00473673
0.00474114
0.00474554
0.00474995
0.00475439
0.00475887
0.00476341
0.00476801
0.00477271
0.00477751
0.00478243
0.00478745
0.00479255
0.00479772
0.00480295
0.00480822
0.0048135
0.00481879
0.00482404
0.00482925
0.00483439
0.00483945
0.0048444
0.00484923
0.00485392
0.00485844
0.00486278
0.00486692
0.00487086
0.00487457
0.00487806
0.00488131
0.00488432
0.00488709
0.00488961
0.00489188
0.00489391
0.00489569
0.00489721
0.00489848
0.0048995
0.00490026
0.00490077
0.00490103
0.00490103
0.00490079
0.00490029
0.00489954
0.00489853
0.00489727
0.00489574
0.00489401
0.00489209
0.0048899
0.00488748
0.00488484
0.00488197
0.00487888
0.00487555
0.00487199
0.00486819
0.00486413
0.00485983
0.00485527
0.00485046
0.0048454
0.0048401
0.00483457
0.00482884
0.00482294
0.00481689
0.00481074
0.00480455
0.00479838
0.00479231
0.00478644
0.00478089
0.00477581
0.00477138
0.00476775
0.00476507
0.00476343
0.00476291
0.00476352
0.00476527
0.00476811
0.00477195
0.00477667
0.00478208
0.00478796
0.00479391
0.00479944
0.00480362
0.00480528
0.00480226
0.00479248
0.00477262
0.00474261
2.86097e-05
0.0001856
0.000441401
0.000669764
0.000874787
0.00106004
0.00122747
0.00137996
0.001519
0.00164644
0.00176347
0.00187136
0.00197103
0.00206328
0.00214905
0.00222889
0.00230319
0.00237235
0.00243669
0.00249648
0.002552
0.00260352
0.00265134
0.00269577
0.00273712
0.00277578
0.00281213
0.0028466
0.00287945
0.00291129
0.00294259
0.00297365
0.00300446
0.00303606
0.00307056
0.00310981
0.00315552
0.00320875
0.00326984
0.00333834
0.00341315
0.00349267
0.00357501
0.00365819
0.00374045
0.00382062
0.0038977
0.00397085
0.00403927
0.00410214
0.00415999
0.00421324
0.00426226
0.00430739
0.00434892
0.00438709
0.00442214
0.00445426
0.00448365
0.00451049
0.00453493
0.00455715
0.0045773
0.00459554
0.00461203
0.00462692
0.00464036
0.0046525
0.00466348
0.00467345
0.00468253
0.00469086
0.00469854
0.00470568
0.00471239
0.00471875
0.00472485
0.00473075
0.00473653
0.00474224
0.00474795
0.00475369
0.00475952
0.00476545
0.00477152
0.00477774
0.0047841
0.00479063
0.00479732
0.00480419
0.00481124
0.00481844
0.0048258
0.00483329
0.00484089
0.00484858
0.00485634
0.00486416
0.004872
0.00487984
0.00488766
0.00489543
0.00490311
0.00491069
0.00491813
0.00492542
0.00493253
0.00493944
0.00494615
0.00495262
0.00495885
0.00496483
0.00497054
0.00497596
0.00498111
0.00498596
0.00499052
0.00499477
0.00499872
0.00500237
0.00500571
0.00500874
0.00501147
0.00501389
0.005016
0.00501781
0.00501933
0.00502055
0.00502148
0.00502211
0.00502245
0.00502249
0.00502226
0.00502177
0.00502101
0.00501999
0.0050187
0.00501714
0.0050153
0.00501319
0.00501078
0.00500808
0.00500506
0.00500173
0.00499806
0.00499405
0.0049897
0.004985
0.00497997
0.00497462
0.00496896
0.00496303
0.00495687
0.00495055
0.00494414
0.00493773
0.00493141
0.00492532
0.00491959
0.00491439
0.00490985
0.00490616
0.00490344
0.00490181
0.00490136
0.00490215
0.00490421
0.00490752
0.00491204
0.00491767
0.00492424
0.00493151
0.0049391
0.00494648
0.00495273
0.00495672
0.00495654
0.00495061
0.00493629
0.00491424
2.897e-05
0.000186621
0.000446625
0.000678469
0.000886303
0.00107383
0.00124314
0.00139714
0.00153742
0.00166587
0.00178378
0.00189248
0.00199293
0.00208608
0.00217303
0.00225425
0.00233028
0.00240162
0.00246866
0.00253171
0.00259105
0.00264695
0.00269965
0.00274939
0.0027964
0.00284091
0.0028832
0.00292354
0.00296209
0.00299898
0.00303425
0.00306793
0.003101
0.00313562
0.00317364
0.0032166
0.00326541
0.00332034
0.00338107
0.00344681
0.00351652
0.00358904
0.00366317
0.00373785
0.00381216
0.00388512
0.00395578
0.00402317
0.00408633
0.00414419
0.00419641
0.00424361
0.0042863
0.00432495
0.00435995
0.00439164
0.00442034
0.00444629
0.00446976
0.00449096
0.0045101
0.00452737
0.00454297
0.00455707
0.00456983
0.00458143
0.00459201
0.00460173
0.00461071
0.0046191
0.004627
0.00463453
0.00464179
0.00464887
0.00465584
0.00466279
0.00466976
0.00467682
0.004684
0.00469137
0.00469894
0.00470674
0.00471481
0.00472313
0.00473173
0.00474058
0.0047497
0.00475907
0.00476869
0.00477855
0.00478863
0.00479893
0.00480942
0.00482008
0.00483087
0.00484178
0.00485276
0.0048638
0.00487485
0.00488589
0.00489688
0.00490779
0.0049186
0.00492928
0.0049398
0.00495014
0.00496026
0.00497015
0.00497978
0.00498914
0.00499819
0.00500693
0.00501535
0.00502343
0.00503116
0.00503854
0.00504556
0.00505221
0.00505849
0.0050644
0.00506993
0.0050751
0.0050799
0.00508433
0.00508839
0.00509211
0.00509546
0.00509848
0.00510114
0.00510347
0.00510545
0.0051071
0.00510842
0.00510943
0.00511015
0.00511054
0.00511061
0.00511036
0.00510978
0.00510886
0.00510758
0.00510592
0.00510387
0.00510141
0.00509853
0.0050952
0.00509142
0.00508719
0.00508249
0.00507736
0.00507179
0.00506583
0.00505954
0.00505297
0.00504621
0.00503937
0.00503255
0.0050259
0.00501957
0.00501371
0.0050085
0.0050041
0.00500068
0.00499838
0.00499732
0.00499762
0.00499933
0.00500252
0.00500716
0.00501321
0.00502053
0.00502891
0.00503795
0.00504714
0.00505558
0.00506222
0.00506533
0.00506365
0.00505488
0.0050397
2.89271e-05
0.00018728
0.000447233
0.000679406
0.000887682
0.00107561
0.00124515
0.00139924
0.00153942
0.00166763
0.00178516
0.00189335
0.00199319
0.00208598
0.00217252
0.0022535
0.00232956
0.00240126
0.00246905
0.00253332
0.00259438
0.0026525
0.00270786
0.00276066
0.00281108
0.00285928
0.00290543
0.00294968
0.00299215
0.00303298
0.00307226
0.00311002
0.00314706
0.00318527
0.00322607
0.00327042
0.00331877
0.00337117
0.00342735
0.00348684
0.003549
0.0036131
0.00367841
0.0037442
0.00380969
0.00387408
0.00393651
0.00399607
0.00405181
0.00410276
0.00414799
0.0041881
0.00422378
0.0042556
0.004284
0.0043094
0.00433213
0.00435249
0.00437074
0.00438715
0.00440192
0.00441528
0.00442742
0.00443852
0.00444875
0.00445828
0.00446725
0.00447579
0.00448404
0.0044921
0.00450008
0.00450806
0.00451613
0.00452435
0.00453278
0.00454147
0.00455046
0.00455978
0.00456946
0.00457952
0.00458997
0.00460081
0.00461206
0.0046237
0.00463571
0.00464809
0.00466082
0.00467388
0.00468726
0.00470094
0.00471489
0.00472907
0.00474347
0.00475804
0.00477275
0.00478757
0.00480245
0.00481737
0.00483228
0.00484716
0.00486196
0.00487664
0.00489116
0.0049055
0.00491963
0.0049335
0.00494711
0.00496041
0.0049734
0.00498604
0.00499831
0.00501021
0.0050217
0.00503279
0.00504346
0.0050537
0.00506351
0.00507288
0.0050818
0.00509028
0.00509832
0.00510592
0.00511308
0.00511981
0.00512611
0.005132
0.00513747
0.00514253
0.0051472
0.00515146
0.00515533
0.00515883