/*--------------------------------*- C++ -*----------------------------------*\
| =========                 |                                                 |
| \\      /  F ield         | OpenFOAM: The Open Source CFD Toolbox           |
|  \\    /   O peration     | Version:  v1906                                 |
|   \\  /    A nd           | Web:      www.OpenFOAM.com                      |
|    \\/     M anipulation  |                                                 |
\*---------------------------------------------------------------------------*/
FoamFile
{
    version     2.0;
    format      ascii;
    class       volScalarField;
    location    "1566";
    object      p;
}
// * * * * * * * * * * * * * * * * * * * * * * * * * * * * * * * * * * * * * //

dimensions      [0 2 -2 0 0 0 0];


internalField   nonuniform List<scalar> 
12225
(
-3.50534
-4.70775
-4.75789
-4.76298
-4.89853
-5.03637
-5.14198
-5.23563
-5.32573
-5.41058
-5.48915
-5.56569
-5.64384
-5.72502
-5.80921
-5.90139
-6.01054
-6.14565
-5.26586
-5.78073
-5.93846
-5.92418
-5.97944
-6.04409
-6.09209
-6.14052
-6.19429
-6.24958
-6.30452
-6.36078
-6.42155
-6.48624
-6.55605
-6.63298
-6.71613
-6.83928
-4.68083
-5.4613
-5.60074
-5.56903
-5.60185
-5.65097
-5.69179
-5.7343
-5.78143
-5.82991
-5.87857
-5.92833
-5.98173
-6.03794
-6.09879
-6.16194
-6.22901
-6.27894
-5.33601
-5.8026
-6.02031
-6.09436
-6.18676
-6.27028
-6.33169
-6.38554
-6.43866
-6.49064
-6.54173
-6.5935
-6.64783
-6.70495
-6.76501
-6.82781
-6.89112
-6.96379
-5.14509
-5.60373
-5.81894
-5.87956
-5.94175
-5.99654
-6.03784
-6.07677
-6.11726
-6.15832
-6.19964
-6.24201
-6.28628
-6.33288
-6.38011
-6.42925
-6.46844
-6.49945
-5.52245
-5.82438
-6.03048
-6.13326
-6.23676
-6.32889
-6.40389
-6.4705
-6.5331
-6.59245
-6.64939
-6.70538
-6.76146
-6.81825
-6.87469
-6.93157
-6.98512
-7.04467
-5.45703
-5.70456
-5.90452
-6.00284
-6.08953
-6.16036
-6.21589
-6.26474
-6.31087
-6.3551
-6.39802
-6.44048
-6.48285
-6.52542
-6.56641
-6.60609
-6.63527
-6.65316
-5.69786
-5.88151
-6.05633
-6.16391
-6.26806
-6.36015
-6.43955
-6.51159
-6.5789
-6.64241
-6.70296
-6.76152
-6.81864
-6.87469
-6.92893
-6.98158
-7.0323
-7.08531
-5.68512
-5.81187
-5.97257
-6.07443
-6.16798
-6.24645
-6.31197
-6.3698
-6.42269
-6.47197
-6.51851
-6.56307
-6.60585
-6.64696
-6.68507
-6.71992
-6.74546
-6.76114
-5.84662
-5.95627
-6.0957
-6.19546
-6.29422
-6.38286
-6.46243
-6.53582
-6.6045
-6.66932
-6.73094
-6.78994
-6.84663
-6.90113
-6.95331
-7.00305
-7.05208
-7.10061
-5.85653
-5.92124
-6.04142
-6.13251
-6.222
-6.30079
-6.37036
-6.43314
-6.49062
-6.54382
-6.59348
-6.64013
-6.68389
-6.72481
-6.76203
-6.79527
-6.82104
-6.83981
-5.95928
-6.0258
-6.13375
-6.22087
-6.31027
-6.39268
-6.46891
-6.54013
-6.60702
-6.67017
-6.72999
-6.78682
-6.84085
-6.8921
-6.94072
-6.9864
-7.03114
-7.07308
-5.97641
-6.01356
-6.10347
-6.18173
-6.26295
-6.33819
-6.40754
-6.47165
-6.53106
-6.58632
-6.63784
-6.68596
-6.73075
-6.77222
-6.80998
-6.84381
-6.87241
-6.89615
-6.06105
-6.10479
-6.18675
-6.26134
-6.34022
-6.41619
-6.4886
-6.55748
-6.62281
-6.68472
-6.74338
-6.79892
-6.85145
-6.90099
-6.94778
-6.99152
-7.0334
-7.07131
-6.08352
-6.10579
-6.16871
-6.2329
-6.30255
-6.37138
-6.43757
-6.50059
-6.5601
-6.61609
-6.66863
-6.71779
-6.76365
-6.80618
-6.84546
-6.88132
-6.91436
-6.94402
-6.15079
-6.17806
-6.23573
-6.2959
-6.36105
-6.42692
-6.49139
-6.55367
-6.61315
-6.66954
-6.72269
-6.77255
-6.81907
-6.86227
-6.90203
-6.93849
-6.97086
-7.00004
-6.17609
-6.1955
-6.24285
-6.2977
-6.35901
-6.42333
-6.488
-6.5518
-6.61391
-6.67383
-6.73131
-6.78621
-6.83856
-6.8882
-6.93562
-6.98009
-7.02384
-7.06301
-6.18651
-6.20088
-6.23915
-6.28455
-6.33439
-6.38602
-6.43681
-6.48545
-6.53107
-6.57315
-6.61138
-6.64571
-6.67599
-6.7026
-6.72504
-6.7448
-6.75935
-6.77478
-6.22688
-6.25497
-6.30946
-6.37197
-6.44133
-6.51547
-6.59179
-6.66901
-6.74629
-6.82299
-6.8987
-6.97306
-7.04592
-7.11672
-7.18564
-7.25104
-7.31466
-7.37072
-6.09184
-6.09889
-6.13378
-6.17519
-6.2185
-6.26103
-6.3001
-6.33465
-6.36428
-6.3888
-6.40822
-6.42274
-6.43243
-6.43794
-6.43906
-6.43795
-6.43263
-6.43125
-6.12016
-6.16584
-6.24141
-6.31747
-6.39727
-6.47897
-6.55999
-6.63968
-6.71776
-6.79406
-6.86865
-6.94171
-7.01374
-7.08492
-7.15637
-7.22717
-7.30051
-7.36883
-5.93536
-5.95441
-6.01919
-6.07867
-6.13341
-6.18204
-6.22262
-6.25587
-6.28286
-6.30426
-6.32054
-6.33202
-6.3386
-6.34028
-6.33579
-6.32574
-6.30526
-6.2823
-5.96325
-6.04507
-6.16002
-6.25749
-6.35309
-6.44654
-6.53451
-6.61735
-6.69589
-6.77049
-6.84161
-6.90989
-6.9763
-7.04184
-7.10889
-7.17878
-7.25907
-7.34601
-5.70014
-5.77473
-5.89801
-5.97807
-6.03989
-6.08951
-6.12632
-6.15419
-6.17659
-6.19496
-6.20986
-6.2217
-6.23042
-6.23571
-6.23566
-6.22871
-6.20507
-6.16432
-5.76418
-5.92298
-6.09366
-6.21078
-6.31892
-6.42132
-6.51079
-6.5896
-6.66129
-6.72711
-6.78782
-6.84444
-6.89803
-6.94954
-7.00112
-7.05518
-7.12334
-7.21343
-5.35047
-5.59283
-5.78017
-5.84994
-5.89373
-5.93006
-5.95445
-5.97281
-5.99045
-6.00771
-6.0239
-6.03895
-6.05279
-6.06524
-6.07525
-6.08148
-6.0732
-6.03782
-5.54229
-5.84351
-6.07421
-6.18954
-6.29422
-6.39018
-6.46247
-6.5198
-6.57079
-6.61739
-6.66007
-6.69979
-6.73739
-6.77327
-6.8082
-6.84308
-6.88731
-6.95759
-4.8059
-5.41088
-5.57538
-5.55535
-5.56114
-5.59041
-5.61437
-5.63667
-5.6628
-5.69045
-5.71738
-5.7433
-5.76821
-5.79198
-5.81433
-5.83545
-5.84925
-5.84049
-5.4308
-5.81734
-6.04114
-6.05371
-6.0939
-6.14255
-6.17548
-6.20485
-6.23797
-6.27295
-6.30746
-6.34123
-6.3743
-6.40649
-6.43752
-6.46747
-6.50098
-6.55266
-3.56009
-4.68082
-4.75126
-4.73118
-4.8304
-4.94899
-5.04073
-5.1182
-5.19165
-5.26036
-5.32302
-5.3804
-5.43346
-5.48251
-5.52764
-5.56856
-5.60374
-5.6316
-6.39692
-6.42165
-6.44703
-6.48127
-6.52427
-6.57136
-6.61925
-6.66783
-6.71667
-6.76567
-6.81463
-6.86346
-6.91195
-6.9598
-7.00666
-7.05215
-7.09583
-7.13728
-7.17592
-7.21114
-7.24248
-7.26901
-7.29008
-7.30519
-7.31324
-7.31465
-7.31065
-7.30137
-7.28656
-7.26636
-7.24112
-7.21131
-7.17769
-7.14181
-7.1056
-7.07176
-7.04475
-7.02708
-7.0178
-7.01454
-7.01433
-7.01401
-7.01054
-7.00158
-6.98847
-6.9791
-6.98051
-6.99384
-7.01771
-7.05237
-7.09791
-7.15138
-7.2076
-7.26421
-7.32045
-7.37521
-7.42764
-7.47694
-7.52258
-7.5642
-7.60164
-7.63489
-7.66398
-7.68901
-7.71012
-7.72749
-7.74127
-7.75163
-7.75874
-7.76271
-7.76367
-7.76171
-7.75691
-7.74934
-7.73905
-7.72608
-7.71045
-7.69214
-7.67115
-7.64745
-7.62102
-7.59181
-7.55976
-7.52483
-7.48692
-7.44596
-7.40185
-7.35446
-7.30357
-7.2491
-7.19106
-7.1294
-7.06397
-6.99463
-6.92133
-6.844
-6.76233
-6.67567
-6.58399
-6.48754
-6.38629
-6.28013
-6.16887
-6.05223
-5.92987
-5.80161
-5.66746
-5.52733
-5.38107
-5.22854
-5.06958
-4.90408
-4.73194
-4.5531
-4.36747
-4.17497
-3.97556
-3.76922
-3.55599
-3.33588
-3.10894
-2.87528
-2.63505
-2.38853
-2.13591
-1.87711
-1.61225
-1.34198
-1.0666
-0.786264
-0.501393
-0.212323
0.0805598
0.3769
0.676246
0.978047
1.28187
1.58748
1.89459
2.20271
2.51139
2.82026
3.12892
3.43702
3.74418
4.05005
4.35425
4.65642
4.95616
5.25311
5.54685
5.83691
6.12287
6.40431
6.68049
6.95226
7.22023
7.48311
7.73974
7.99022
8.23403
8.46955
8.69651
8.915
9.12495
9.32633
9.51923
9.70374
9.88019
10.0488
10.2105
10.3655
10.5154
10.6604
10.8041
10.9451
11.0937
11.2432
11.4385
11.6374
-6.47144
-6.54096
-6.58539
-6.64222
-6.69437
-6.74689
-6.79565
-6.84513
-6.89261
-6.93996
-6.98636
-7.03246
-7.07773
-7.12218
-7.16539
-7.2071
-7.24691
-7.28447
-7.31939
-7.35125
-7.37951
-7.40387
-7.42416
-7.44053
-7.45296
-7.45936
-7.45781
-7.44859
-7.43201
-7.4077
-7.37476
-7.33321
-7.28441
-7.23101
-7.1774
-7.12816
-7.08706
-7.05637
-7.03675
-7.02695
-7.02447
-7.02629
-7.02916
-7.03028
-7.02574
-7.02154
-7.03057
-7.05379
-7.09022
-7.13873
-7.19711
-7.26203
-7.33001
-7.39882
-7.46662
-7.5319
-7.59356
-7.65085
-7.70337
-7.75095
-7.79364
-7.83159
-7.86502
-7.89417
-7.91927
-7.94056
-7.95825
-7.97254
-7.9836
-7.99158
-7.99658
-7.9987
-7.99801
-7.99456
-7.98838
-7.97949
-7.9679
-7.9536
-7.93656
-7.91675
-7.89413
-7.86865
-7.84024
-7.80884
-7.77437
-7.73676
-7.69591
-7.65177
-7.60423
-7.55328
-7.49886
-7.44078
-7.37884
-7.31286
-7.2426
-7.16768
-7.08778
-7.0036
-6.91549
-6.82296
-6.72584
-6.62391
-6.51701
-6.40494
-6.28761
-6.16496
-6.03681
-5.90282
-5.76279
-5.61652
-5.46382
-5.30453
-5.13849
-4.96564
-4.7859
-4.5992
-4.40548
-4.20472
-3.99692
-3.78211
-3.56038
-3.33183
-3.09659
-2.8548
-2.60653
-2.35176
-2.09112
-1.82487
-1.5531
-1.27621
-0.994495
-0.70833
-0.418071
-0.124106
0.173145
0.473211
0.775709
1.08024
1.38644
1.69397
2.00237
2.31128
2.62033
2.92913
3.23735
3.54462
3.85059
4.1549
4.4572
4.75711
5.05424
5.34821
5.63846
5.92432
6.20544
6.47948
6.74585
7.00635
7.26093
7.50886
7.75087
7.98648
8.21449
8.4346
8.64661
8.85042
9.04607
9.23361
9.41337
9.58552
9.75087
9.90956
10.0634
10.2119
10.3595
10.5032
10.655
10.8033
10.9891
11.1689
-6.5048
-6.60736
-6.62966
-6.68989
-6.72179
-6.77172
-6.80785
-6.85042
-6.8884
-6.93051
-6.9712
-7.01397
-7.05608
-7.09849
-7.13981
-7.1801
-7.21854
-7.25481
-7.28824
-7.31827
-7.34429
-7.36568
-7.38201
-7.39302
-7.39828
-7.39744
-7.39149
-7.38181
-7.36959
-7.35576
-7.33987
-7.31982
-7.29258
-7.25641
-7.21366
-7.16953
-7.12905
-7.09571
-7.07163
-7.0566
-7.04957
-7.05059
-7.05694
-7.06649
-7.07792
-7.09144
-7.10974
-7.13443
-7.16656
-7.20539
-7.24929
-7.2968
-7.34648
-7.39667
-7.44624
-7.49427
-7.54015
-7.5834
-7.62373
-7.66095
-7.69498
-7.72577
-7.7533
-7.7776
-7.79871
-7.81671
-7.83166
-7.84363
-7.8527
-7.85894
-7.86241
-7.86317
-7.86125
-7.85669
-7.84952
-7.83975
-7.82738
-7.81241
-7.79483
-7.7746
-7.75169
-7.72606
-7.69765
-7.66639
-7.63222
-7.59504
-7.55476
-7.51126
-7.46443
-7.41418
-7.36043
-7.30308
-7.242
-7.17708
-7.10825
-7.03532
-6.95802
-6.87644
-6.79047
-6.69999
-6.60488
-6.50498
-6.40013
-6.29009
-6.17436
-6.05289
-5.92556
-5.79236
-5.65317
-5.50782
-5.35619
-5.19814
-5.03355
-4.86229
-4.68426
-4.49938
-4.30759
-4.10885
-3.90318
-3.69057
-3.4711
-3.24484
-3.01194
-2.77257
-2.52683
-2.27475
-2.01659
-1.75287
-1.4837
-1.20941
-0.93033
-0.646806
-0.3592
-0.0679174
0.226588
0.52391
0.823762
1.12572
1.42927
1.73411
2.0398
2.34599
2.6523
2.95836
3.26381
3.56828
3.87142
4.17287
4.47224
4.76918
5.06328
5.35411
5.64141
5.92483
6.20394
6.47827
6.74737
7.01093
7.26868
7.52013
7.76473
8.00221
8.23207
8.45415
8.66829
8.87438
9.07246
9.26254
9.44497
9.61984
9.78805
9.94956
10.1064
10.2578
10.4085
10.5544
10.7095
10.8566
11.0411
11.1895
-6.53041
-6.66425
-6.68377
-6.76439
-6.78706
-6.84829
-6.88075
-6.93368
-6.97127
-7.01809
-7.05874
-7.10425
-7.14659
-7.19027
-7.23178
-7.27269
-7.31146
-7.34833
-7.3823
-7.41297
-7.43958
-7.46191
-7.4801
-7.49439
-7.50498
-7.5087
-7.50437
-7.49436
-7.48169
-7.4685
-7.45414
-7.43554
-7.40895
-7.37294
-7.33011
-7.28568
-7.24431
-7.20871
-7.18138
-7.16388
-7.15569
-7.15576
-7.16227
-7.17372
-7.1888
-7.2081
-7.23279
-7.2626
-7.29739
-7.33687
-7.38018
-7.42643
-7.47491
-7.52483
-7.57546
-7.626
-7.67567
-7.72374
-7.7696
-7.81276
-7.85288
-7.88976
-7.92328
-7.95341
-7.98018
-8.00364
-8.02387
-8.04097
-8.05501
-8.06608
-8.07425
-8.07958
-8.08213
-8.08191
-8.07896
-8.07329
-8.06488
-8.05373
-8.03981
-8.02307
-8.00349
-7.98099
-7.95553
-7.92705
-7.89548
-7.86075
-7.82282
-7.7816
-7.73703
-7.68905
-7.63756
-7.58243
-7.52353
-7.46071
-7.39382
-7.32271
-7.24727
-7.16756
-7.08349
-6.99489
-6.90162
-6.80349
-6.70028
-6.59173
-6.47789
-6.35877
-6.23399
-6.10334
-5.96662
-5.82363
-5.67422
-5.51822
-5.35553
-5.18602
-5.00961
-4.82623
-4.63583
-4.43835
-4.2338
-4.0222
-3.80361
-3.57813
-3.34586
-3.10695
-2.86153
-2.60976
-2.35194
-2.08834
-1.81921
-1.54488
-1.26566
-0.981929
-0.694031
-0.402347
-0.10737
0.190428
0.490783
0.793403
1.09774
1.40333
1.70986
2.01696
2.32426
2.6314
2.93802
3.24377
3.54828
3.85121
4.15218
4.45081
4.74672
5.03952
5.32873
5.61389
5.89462
6.17009
6.43993
6.70421
6.96255
7.21458
7.46012
7.69894
7.93037
8.15407
8.36979
8.57734
8.77674
8.96794
9.15132
9.32687
9.49558
9.65717
9.81402
9.96458
10.1148
10.2584
10.4116
10.5532
10.7287
10.8668
-6.51175
-6.66898
-6.68796
-6.77873
-6.7923
-6.85704
-6.87948
-6.93223
-6.96216
-7.01109
-7.04669
-7.09187
-7.13047
-7.17341
-7.21243
-7.25252
-7.28982
-7.3261
-7.35923
-7.38938
-7.41513
-7.43645
-7.45313
-7.46619
-7.47615
-7.48052
-7.47806
-7.47098
-7.4622
-7.45391
-7.4461
-7.4368
-7.42259
-7.40142
-7.37426
-7.34419
-7.3146
-7.28837
-7.26774
-7.2539
-7.24724
-7.24756
-7.25385
-7.26507
-7.27984
-7.29738
-7.31782
-7.34092
-7.3666
-7.395
-7.42591
-7.45924
-7.49464
-7.53161
-7.56958
-7.60787
-7.64585
-7.68295
-7.71866
-7.75257
-7.7844
-7.81389
-7.8409
-7.86532
-7.88709
-7.90617
-7.92256
-7.93627
-7.9473
-7.95569
-7.96145
-7.96461
-7.96518
-7.96317
-7.9586
-7.95147
-7.94178
-7.92952
-7.91467
-7.89722
-7.87713
-7.85436
-7.82886
-7.80059
-7.76947
-7.73543
-7.69838
-7.65821
-7.61482
-7.56809
-7.51791
-7.46414
-7.40667
-7.34535
-7.28005
-7.21059
-7.13681
-7.05864
-6.97596
-6.88868
-6.79666
-6.69979
-6.5979
-6.49086
-6.3785
-6.26066
-6.13711
-6.00772
-5.87231
-5.73073
-5.58282
-5.42843
-5.26742
-5.09967
-4.92508
-4.74356
-4.55505
-4.35952
-4.15695
-3.94734
-3.73074
-3.50723
-3.27692
-3.03993
-2.79642
-2.54653
-2.29053
-2.02872
-1.76135
-1.48874
-1.21122
-0.929152
-0.642884
-0.352804
-0.0594422
0.236866
0.535735
0.836812
1.1396
1.44371
1.74876
2.05438
2.36021
2.66587
2.97103
3.27531
3.57838
3.87987
4.17943
4.4767
4.7713
5.06285
5.35108
5.63557
5.91606
6.19216
6.46343
6.72941
6.98967
7.24371
7.49114
7.73162
7.9647
8.19017
8.40784
8.61754
8.81931
9.01308
9.1992
9.3776
9.5493
9.71387
9.87381
10.0271
10.1802
10.3257
10.4809
10.6211
10.7937
10.9199
-6.46876
-6.65857
-6.68847
-6.79254
-6.80991
-6.8793
-6.90551
-6.95986
-6.99307
-7.04131
-7.08045
-7.12775
-7.16967
-7.21415
-7.25574
-7.29788
-7.33776
-7.37664
-7.41276
-7.44608
-7.47515
-7.49993
-7.51994
-7.53673
-7.55018
-7.55796
-7.5586
-7.55352
-7.5453
-7.53584
-7.52503
-7.51155
-7.49409
-7.47261
-7.44838
-7.4234
-7.39965
-7.37881
-7.36236
-7.35135
-7.34624
-7.347
-7.35304
-7.36365
-7.37805
-7.39579
-7.41675
-7.44078
-7.46796
-7.4983
-7.53167
-7.56781
-7.60631
-7.64663
-7.68817
-7.73028
-7.77235
-7.81378
-7.85406
-7.89275
-7.92951
-7.96405
-7.99618
-8.02575
-8.05266
-8.07685
-8.0983
-8.117
-8.13295
-8.14617
-8.15667
-8.16447
-8.16957
-8.17199
-8.17173
-8.16876
-8.1631
-8.1547
-8.14354
-8.12958
-8.11277
-8.09305
-8.07035
-8.04462
-8.01577
-7.98373
-7.94843
-7.9098
-7.86778
-7.82231
-7.77332
-7.72073
-7.66444
-7.60435
-7.54034
-7.4723
-7.4001
-7.32365
-7.24282
-7.15744
-7.06735
-6.97238
-6.87232
-6.76706
-6.65616
-6.53941
-6.41677
-6.2881
-6.15325
-6.01208
-5.86442
-5.71014
-5.5491
-5.38121
-5.20635
-5.02446
-4.83546
-4.63933
-4.43605
-4.22565
-4.00817
-3.78368
-3.5523
-3.31417
-3.06944
-2.81832
-2.56104
-2.29788
-2.0291
-1.75505
-1.47604
-1.19245
-0.904616
-0.61298
-0.318007
-0.0200843
0.280411
0.583101
0.887526
1.19328
1.50001
1.80732
2.11487
2.4223
2.72926
3.03539
3.34036
3.64381
3.94539
4.24473
4.54144
4.83511
5.12536
5.41175
5.6939
5.97128
6.24351
6.51031
6.77126
7.02599
7.27419
7.51552
7.74951
7.97582
8.19421
8.40447
8.60663
8.80056
8.98666
9.16478
9.33605
9.49982
9.65892
9.81078
9.96258
10.1054
10.2583
10.3928
10.5609
10.6768
-6.40205
-6.62555
-6.66224
-6.77745
-6.79439
-6.86659
-6.89184
-6.94572
-6.97736
-7.0241
-7.06066
-7.10505
-7.14514
-7.18897
-7.22958
-7.27069
-7.30967
-7.34784
-7.3834
-7.41647
-7.44565
-7.47063
-7.49058
-7.50662
-7.51934
-7.52816
-7.53261
-7.53329
-7.53126
-7.52737
-7.52177
-7.51419
-7.50423
-7.49187
-7.47769
-7.46268
-7.44804
-7.43505
-7.42492
-7.41855
-7.41639
-7.41847
-7.42448
-7.43398
-7.44648
-7.46167
-7.47943
-7.49968
-7.52237
-7.54742
-7.57468
-7.6039
-7.63477
-7.6669
-7.6999
-7.73332
-7.76676
-7.79981
-7.8321
-7.8633
-7.89313
-7.92133
-7.94771
-7.9721
-7.99437
-8.01443
-8.03221
-8.04765
-8.06071
-8.07137
-8.0796
-8.0854
-8.08875
-8.08963
-8.08803
-8.08394
-8.07735
-8.06824
-8.05658
-8.04236
-8.02552
-8.00604
-7.98386
-7.95893
-7.93119
-7.90057
-7.86697
-7.8303
-7.79044
-7.74726
-7.70062
-7.65039
-7.59639
-7.5385
-7.47655
-7.41041
-7.33994
-7.265
-7.18548
-7.10128
-7.01222
-6.91822
-6.81904
-6.71467
-6.60546
-6.49087
-6.37066
-6.24456
-6.11238
-5.97392
-5.82901
-5.6775
-5.51923
-5.35408
-5.18194
-5.00272
-4.81635
-4.62279
-4.42201
-4.21402
-3.99888
-3.77663
-3.5474
-3.3113
-3.06851
-2.81923
-2.5637
-2.30218
-2.03497
-1.76239
-1.48477
-1.2025
-0.915925
-0.625504
-0.331659
-0.0348118
0.264703
0.566368
0.869819
1.17465
1.48046
1.78691
2.09363
2.40025
2.70645
3.01189
3.31622
3.61911
3.92021
4.2192
4.51572
4.80941
5.09996
5.38695
5.67006
5.94884
6.22288
6.49173
6.75493
7.01205
7.26269
7.50648
7.74304
7.97206
8.19334
8.40666
8.61202
8.80925
8.99872
9.18017
9.35471
9.52152
9.68345
9.83759
9.99136
10.135
10.2885
10.4212
10.5867
10.6966
-6.33889
-6.58857
-6.63565
-6.76228
-6.78244
-6.85934
-6.88718
-6.94305
-6.9766
-7.02373
-7.06131
-7.10568
-7.14606
-7.18946
-7.2312
-7.27391
-7.31458
-7.35407
-7.39141
-7.42654
-7.4585
-7.48701
-7.51111
-7.53049
-7.54531
-7.5554
-7.56098
-7.56264
-7.56124
-7.55755
-7.55199
-7.5448
-7.53612
-7.52624
-7.51561
-7.50495
-7.49514
-7.48711
-7.48167
-7.47941
-7.48061
-7.48533
-7.49344
-7.50474
-7.51906
-7.53625
-7.55627
-7.57904
-7.60447
-7.63243
-7.66273
-7.6951
-7.72924
-7.76477
-7.80131
-7.83845
-7.87578
-7.91289
-7.94939
-7.98494
-8.0192
-8.05193
-8.08288
-8.11188
-8.13877
-8.16345
-8.18581
-8.2058
-8.22337
-8.23849
-8.25111
-8.26123
-8.26881
-8.27384
-8.27629
-8.27615
-8.27338
-8.26794
-8.2598
-8.2489
-8.23519
-8.2186
-8.19907
-8.17652
-8.1509
-8.1221
-8.09006
-8.05467
-8.01587
-7.97359
-7.92778
-7.87839
-7.82536
-7.7686
-7.70801
-7.64346
-7.57482
-7.50195
-7.42469
-7.34289
-7.25633
-7.1649
-7.06836
-6.96598
-6.8576
-6.74329
-6.62298
-6.49655
-6.36386
-6.22474
-6.07907
-5.92668
-5.76744
-5.60124
-5.42796
-5.24753
-5.05986
-4.86494
-4.66273
-4.45325
-4.23655
-4.01269
-3.78178
-3.54397
-3.29942
-3.04835
-2.791
-2.52763
-2.25854
-1.98405
-1.70452
-1.42031
-1.13182
-0.839454
-0.543674
-0.244894
0.0564709
0.360002
0.665296
0.971952
1.27959
1.58783
1.89633
2.20475
2.51273
2.81996
3.1261
3.43081
3.73376
4.03459
4.33295
4.62846
4.92074
5.20938
5.49398
5.77408
6.0493
6.31924
6.58346
6.84157
7.09321
7.33799
7.57551
7.80544
8.02756
8.2416
8.44758
8.64531
8.83518
9.01689
9.19161
9.35837
9.52022
9.67381
9.8271
9.96913
10.1214
10.2502
10.4144
10.5163
-6.28087
-6.54683
-6.60246
-6.73612
-6.75818
-6.83704
-6.86563
-6.92143
-6.95465
-7.00049
-7.03659
-7.07863
-7.11674
-7.15759
-7.19658
-7.23627
-7.27471
-7.31254
-7.3481
-7.38136
-7.41182
-7.43914
-7.46329
-7.484
-7.50124
-7.51497
-7.5253
-7.53255
-7.53715
-7.53952
-7.54002
-7.5389
-7.53642
-7.53289
-7.5288
-7.52476
-7.52146
-7.51952
-7.51949
-7.52173
-7.52646
-7.53378
-7.54367
-7.55607
-7.5709
-7.58808
-7.60751
-7.62909
-7.65269
-7.67815
-7.70527
-7.73385
-7.76364
-7.79436
-7.82575
-7.85749
-7.88929
-7.92085
-7.9519
-7.98216
-8.01139
-8.03937
-8.06592
-8.09087
-8.11408
-8.13543
-8.15482
-8.17217
-8.18742
-8.2005
-8.21137
-8.21998
-8.22629
-8.23028
-8.23191
-8.23114
-8.22795
-8.22229
-8.21412
-8.2034
-8.19008
-8.1741
-8.15543
-8.13402
-8.10982
-8.08277
-8.05278
-8.01976
-7.98359
-7.94411
-7.90118
-7.85463
-7.80428
-7.74997
-7.69155
-7.62888
-7.56181
-7.49021
-7.41395
-7.33294
-7.24694
-7.15587
-7.06005
-6.95951
-6.8538
-6.7426
-6.62562
-6.50263
-6.37342
-6.23778
-6.09553
-5.94651
-5.79055
-5.62753
-5.45733
-5.27986
-5.09503
-4.9028
-4.70315
-4.49609
-4.28165
-4.0599
-3.83096
-3.59496
-3.35207
-3.10253
-2.84657
-2.58447
-2.31653
-2.04306
-1.76445
-1.48107
-1.19334
-0.901657
-0.60646
-0.308197
-0.00730561
0.295793
0.600698
0.907006
1.21433
1.52232
1.83062
2.13889
2.4468
2.75402
3.06024
3.36514
3.66838
3.96966
4.26862
4.56493
4.85824
5.14815
5.4343
5.71624
5.99354
6.26578
6.53249
6.79325
7.04766
7.2953
7.53582
7.76885
7.99418
8.21152
8.42084
8.6219
8.81501
8.9998
9.17736
9.3466
9.51054
9.66558
9.81984
9.96185
10.1137
10.2404
10.4025
10.4987
-6.24148
-6.51306
-6.57787
-6.71686
-6.74139
-6.82253
-6.85245
-6.90926
-6.94312
-6.9891
-7.02515
-7.06664
-7.10403
-7.14382
-7.18189
-7.22074
-7.25832
-7.29536
-7.331
-7.36521
-7.39685
-7.42552
-7.45104
-7.47312
-7.49178
-7.50706
-7.51916
-7.52838
-7.53513
-7.5398
-7.54279
-7.54446
-7.54518
-7.54538
-7.54552
-7.54609
-7.54756
-7.55033
-7.55476
-7.56111
-7.56956
-7.58024
-7.59322
-7.60851
-7.62612
-7.64601
-7.66811
-7.69236
-7.71862
-7.74676
-7.77662
-7.808
-7.84068
-7.8744
-7.90889
-7.94387
-7.97902
-8.01406
-8.0487
-8.08266
-8.11569
-8.14757
-8.17808
-8.20706
-8.23435
-8.25981
-8.28334
-8.30483
-8.32422
-8.34144
-8.35642
-8.36911
-8.37946
-8.38743
-8.39297
-8.39603
-8.39658
-8.39455
-8.38989
-8.38254
-8.37244
-8.35951
-8.34369
-8.32491
-8.30307
-8.27809
-8.24987
-8.2183
-8.1833
-8.1448
-8.10276
-8.05713
-8.00788
-7.95492
-7.89815
-7.83745
-7.77267
-7.70364
-7.63022
-7.55221
-7.46943
-7.38121
-7.28718
-7.18732
-7.08159
-6.96992
-6.85218
-6.72825
-6.59796
-6.46114
-6.31765
-6.16732
-6.01
-5.84557
-5.67392
-5.49493
-5.30856
-5.11474
-4.91345
-4.70471
-4.48856
-4.26505
-4.03431
-3.79648
-3.55173
-3.3003
-3.04244
-2.77842
-2.50853
-2.23311
-1.95254
-1.66721
-1.37755
-1.08395
-0.786859
-0.486749
-0.184054
0.120822
0.427466
0.735479
1.04448
1.35411
1.66401
1.97386
2.28334
2.59212
2.8999
3.20637
3.5112
3.81406
4.11462
4.41252
4.70739
4.99882
5.28642
5.56976
5.84842
6.12199
6.39002
6.6521
6.90783
7.15681
7.39867
7.63305
7.85971
8.07837
8.28899
8.49131
8.68565
8.8716
9.05025
9.22042
9.38516
9.54064
9.69518
9.83663
9.98811
10.1123
10.2742
10.3642
-6.21353
-6.48696
-6.55578
-6.69628
-6.72198
-6.8032
-6.83349
-6.8898
-6.92324
-6.96816
-7.00302
-7.04281
-7.07829
-7.11577
-7.15129
-7.18735
-7.22217
-7.25656
-7.28946
-7.32129
-7.35147
-7.37961
-7.40538
-7.42891
-7.45
-7.46857
-7.48466
-7.49842
-7.51004
-7.51979
-7.52798
-7.53495
-7.54104
-7.54664
-7.55213
-7.55789
-7.56428
-7.5716
-7.58014
-7.59012
-7.60174
-7.61512
-7.63035
-7.64747
-7.66649
-7.68737
-7.71003
-7.73439
-7.76031
-7.78768
-7.81633
-7.8461
-7.87679
-7.90819
-7.94008
-7.97222
-8.00439
-8.03635
-8.06789
-8.09877
-8.12882
-8.15784
-8.18567
-8.21216
-8.23716
-8.26057
-8.28226
-8.30215
-8.32015
-8.33618
-8.35018
-8.36208
-8.37182
-8.37935
-8.38462
-8.38757
-8.38814
-8.38629
-8.38195
-8.37508
-8.36561
-8.35349
-8.33867
-8.3211
-8.3007
-8.27741
-8.25116
-8.22184
-8.18935
-8.15357
-8.11435
-8.07152
-8.02486
-7.97417
-7.9193
-7.86009
-7.79645
-7.72812
-7.65507
-7.57719
-7.49481
-7.40786
-7.31606
-7.2191
-7.1167
-7.00858
-6.89449
-6.77422
-6.64755
-6.51427
-6.37419
-6.22715
-6.07298
-5.91154
-5.74271
-5.56639
-5.38249
-5.19097
-4.99181
-4.78501
-4.5706
-4.34867
-4.11933
-3.88272
-3.63905
-3.38854
-3.13146
-2.8681
-2.59876
-2.32375
-2.04347
-1.75835
-1.46882
-1.17529
-0.878197
-0.578024
-0.275212
0.029813
0.336636
0.644859
0.954099
1.264
1.57422
1.88443
2.19432
2.50358
2.81192
3.11903
3.42461
3.72835
4.02993
4.32901
4.62522
4.91819
5.20752
5.49279
5.77356
6.0494
6.31987
6.58452
6.84294
7.09471
7.33946
7.57681
7.80651
8.02823
8.24188
8.44717
8.64434
8.83292
9.01392
9.18609
9.35238
9.50888
9.66392
9.80512
9.95594
10.0782
10.2386
10.3231
-6.20488
-6.48251
-6.54837
-6.69033
-6.71464
-6.79689
-6.82631
-6.88307
-6.91595
-6.96087
-6.99519
-7.03462
-7.06942
-7.10627
-7.141
-7.17632
-7.21034
-7.24402
-7.27644
-7.30778
-7.33735
-7.36539
-7.39152
-7.41534
-7.43682
-7.45623
-7.4736
-7.48901
-7.50265
-7.51479
-7.52567
-7.53562
-7.54494
-7.55397
-7.563
-7.57234
-7.58227
-7.59306
-7.60495
-7.61815
-7.63283
-7.64912
-7.66713
-7.68692
-7.7085
-7.73185
-7.75693
-7.78366
-7.81194
-7.84167
-7.87272
-7.90492
-7.93811
-7.97209
-8.00664
-8.04156
-8.07661
-8.11157
-8.14621
-8.18033
-8.21371
-8.24617
-8.27753
-8.30764
-8.33634
-8.3635
-8.38899
-8.41273
-8.4346
-8.45452
-8.4724
-8.48819
-8.50181
-8.51319
-8.52227
-8.52898
-8.53327
-8.53506
-8.53429
-8.53088
-8.52478
-8.51589
-8.50415
-8.48947
-8.47176
-8.45092
-8.42684
-8.39941
-8.36851
-8.33408
-8.2961
-8.25451
-8.20927
-8.16029
-8.10744
-8.05073
-7.98983
-7.92467
-7.85477
-7.77972
-7.69925
-7.61329
-7.52172
-7.42443
-7.3213
-7.2122
-7.09696
-6.97541
-6.84739
-6.71271
-6.5712
-6.42268
-6.26702
-6.10406
-5.93368
-5.75578
-5.57028
-5.37712
-5.1763
-4.9678
-4.75168
-4.528
-4.29688
-4.05846
-3.81294
-3.56058
-3.30163
-3.0364
-2.76516
-2.48826
-2.20608
-1.91908
-1.62773
-1.33238
-1.03349
-0.731575
-0.427067
-0.120392
0.188036
0.497817
0.808572
1.11995
1.4316
1.74322
2.0545
2.36514
2.67485
2.98334
3.29031
3.59546
3.89846
4.19896
4.49661
4.79102
5.08178
5.36849
5.65071
5.92802
6.19998
6.46616
6.72614
6.97953
7.22593
7.46499
7.69643
7.91993
8.13539
8.3425
8.54146
8.7318
8.91446
9.08814
9.25572
9.41322
9.5689
9.71019
9.86085
9.98159
10.1419
10.2217
-6.20657
-6.48583
-6.54429
-6.68456
-6.70621
-6.7878
-6.81556
-6.87171
-6.90329
-6.94744
-6.98051
-7.01892
-7.05236
-7.08793
-7.12116
-7.15503
-7.18758
-7.21997
-7.25125
-7.28177
-7.31101
-7.33891
-7.36522
-7.39017
-7.41361
-7.43515
-7.45486
-7.47308
-7.4897
-7.50502
-7.51924
-7.53262
-7.54541
-7.55787
-7.57028
-7.5829
-7.59598
-7.60977
-7.62449
-7.64032
-7.65744
-7.67597
-7.69598
-7.71755
-7.74066
-7.7653
-7.79143
-7.81896
-7.8478
-7.87784
-7.90896
-7.94101
-7.97383
-8.00725
-8.04108
-8.07513
-8.10921
-8.14312
-8.17667
-8.20968
-8.24199
-8.27341
-8.3038
-8.33302
-8.36093
-8.38742
-8.41235
-8.43564
-8.45718
-8.47688
-8.49466
-8.51044
-8.52415
-8.5357
-8.54504
-8.55209
-8.55678
-8.55905
-8.55883
-8.55605
-8.55064
-8.54255
-8.5317
-8.51803
-8.50148
-8.48195
-8.4594
-8.43371
-8.40478
-8.37252
-8.33677
-8.29737
-8.25412
-8.20664
-8.15495
-8.09879
-8.03822
-7.97335
-7.90408
-7.83033
-7.75181
-7.66832
-7.57962
-7.48546
-7.3856
-7.27981
-7.16787
-7.04954
-6.92461
-6.79289
-6.65417
-6.50829
-6.35508
-6.19439
-6.02609
-5.85008
-5.66628
-5.47463
-5.27513
-5.06777
-4.8526
-4.62971
-4.39921
-4.16125
-3.91605
-3.66386
-3.40497
-3.13968
-2.86828
-2.59111
-2.30858
-2.02121
-1.72939
-1.43351
-1.13407
-0.831578
-0.52647
-0.219181
0.0898705
0.400283
0.711679
1.02371
1.33603
1.64834
1.96035
2.27176
2.5823
2.89168
3.19962
3.50582
3.80997
4.11174
4.41077
4.70669
4.99909
5.28757
5.57169
5.85102
6.12512
6.39353
6.65585
6.91164
7.16053
7.40214
7.63616
7.86226
8.08028
8.28989
8.49123
8.68379
8.8684
9.04379
9.21266
9.37109
9.52712
9.66836
9.81838
9.93776
10.0969
10.1725
-6.22687
-6.50114
-6.55255
-6.69041
-6.70968
-6.79093
-6.81724
-6.87343
-6.90411
-6.94831
-6.98079
-7.01915
-7.05213
-7.08751
-7.12032
-7.15391
-7.18604
-7.21806
-7.2489
-7.27906
-7.30798
-7.3358
-7.3622
-7.38714
-7.41049
-7.4326
-7.45348
-7.47278
-7.49062
-7.50746
-7.52332
-7.53852
-7.55328
-7.56781
-7.58237
-7.59721
-7.61255
-7.62863
-7.64563
-7.66373
-7.68308
-7.7038
-7.72597
-7.74964
-7.77483
-7.80152
-7.82967
-7.85924
-7.89014
-7.92227
-7.95552
-7.98977
-8.02486
-8.06063
-8.09691
-8.1335
-8.17023
-8.2069
-8.24332
-8.27932
-8.31471
-8.34932
-8.38299
-8.41557
-8.44692
-8.4769
-8.5054
-8.53229
-8.55747
-8.58084
-8.6023
-8.62177
-8.63917
-8.65441
-8.66742
-8.67813
-8.68644
-8.6923
-8.69562
-8.69633
-8.69434
-8.68958
-8.68196
-8.6714
-8.65779
-8.64106
-8.62105
-8.59766
-8.57077
-8.54025
-8.50618
-8.46852
-8.42707
-8.38184
-8.33259
-8.27893
-8.2207
-8.15759
-8.08953
-8.01635
-7.93788
-7.85399
-7.76451
-7.66931
-7.5682
-7.46103
-7.3476
-7.22774
-7.10125
-6.96794
-6.82763
-6.68014
-6.52531
-6.36298
-6.19303
-6.01535
-5.82986
-5.63649
-5.43524
-5.2261
-5.00912
-4.78438
-4.55202
-4.31217
-4.06508
-3.81098
-3.55018
-3.28297
-3.00963
-2.73056
-2.44622
-2.15701
-1.86335
-1.56569
-1.26453
-0.960371
-0.653644
-0.344788
-0.0342249
0.277647
0.59045
0.903837
1.21748
1.53108
1.84434
2.15699
2.46876
2.77937
3.08854
3.39598
3.70139
4.00443
4.30474
4.60195
4.89568
5.18549
5.47099
5.75173
6.02727
6.29718
6.56104
6.81843
7.06899
7.31232
7.54814
7.77608
7.99599
8.2075
8.41074
8.60517
8.79155
8.9686
9.13885
9.29849
9.45523
9.59692
9.74676
9.86543
10.0241
10.0966
-6.25674
-6.51879
-6.5625
-6.69512
-6.71134
-6.79071
-6.81475
-6.87009
-6.89913
-6.94284
-6.97415
-7.01213
-7.04427
-7.0793
-7.11151
-7.1448
-7.17656
-7.20846
-7.23926
-7.26964
-7.2989
-7.32728
-7.35444
-7.38044
-7.40511
-7.42839
-7.45062
-7.47176
-7.49144
-7.50994
-7.52773
-7.545
-7.56179
-7.57834
-7.59495
-7.61178
-7.62911
-7.64713
-7.66603
-7.68598
-7.70711
-7.72953
-7.75333
-7.77854
-7.80519
-7.83326
-7.86271
-7.89349
-7.92551
-7.95868
-7.99288
-8.02799
-8.06387
-8.10035
-8.13726
-8.17444
-8.21171
-8.24888
-8.28578
-8.32223
-8.35808
-8.39314
-8.42728
-8.46034
-8.49219
-8.5227
-8.55173
-8.57919
-8.60496
-8.62893
-8.651
-8.6711
-8.68911
-8.70497
-8.71859
-8.72988
-8.73877
-8.74518
-8.74902
-8.75023
-8.74873
-8.74443
-8.73727
-8.72719
-8.71407
-8.69785
-8.6785
-8.65587
-8.62981
-8.60029
-8.56716
-8.53027
-8.48949
-8.44483
-8.39609
-8.34327
-8.28608
-8.2244
-8.15806
-8.08687
-8.01063
-7.92912
-7.84214
-7.74947
-7.65087
-7.54615
-7.43507
-7.31742
-7.19299
-7.06158
-6.92299
-6.77705
-6.62358
-6.46243
-6.29348
-6.11663
-5.93178
-5.73889
-5.53795
-5.32896
-5.11199
-4.88711
-4.65449
-4.41426
-4.16669
-3.91203
-3.65056
-3.38258
-3.10847
-2.82861
-2.5434
-2.25324
-1.95863
-1.66004
-1.35796
-1.05286
-0.745201
-0.435425
-0.123956
0.188803
0.50248
0.816728
1.13123
1.44568
1.75981
2.07333
2.386
2.69755
3.00769
3.31616
3.62265
3.92683
4.22835
4.52685
4.82193
5.11319
5.40021
5.68254
5.95976
6.23141
6.49708
6.75634
7.00881
7.25412
7.49192
7.72187
7.94377
8.15725
8.36236
8.55857
8.74655
8.92505
9.09641
9.25698
9.41407
9.55601
9.70527
9.82333
9.98069
10.0507
-6.29608
-6.54021
-6.57817
-6.70471
-6.7191
-6.79691
-6.81951
-6.87478
-6.9029
-6.94705
-6.97793
-7.01646
-7.04853
-7.08412
-7.11647
-7.15027
-7.18228
-7.21465
-7.24581
-7.27669
-7.30643
-7.33545
-7.36328
-7.38997
-7.41535
-7.43948
-7.46238
-7.48399
-7.50479
-7.52491
-7.54396
-7.56232
-7.5805
-7.59832
-7.61625
-7.63458
-7.65345
-7.67307
-7.6936
-7.71522
-7.73805
-7.7622
-7.78775
-7.81475
-7.84321
-7.87314
-7.9045
-7.93724
-7.97129
-8.00655
-8.04292
-8.08028
-8.11848
-8.15737
-8.19678
-8.23655
-8.27648
-8.31641
-8.35616
-8.39554
-8.43438
-8.47252
-8.50979
-8.54604
-8.58112
-8.6149
-8.64724
-8.67803
-8.70713
-8.73445
-8.75989
-8.78333
-8.8047
-8.8239
-8.84085
-8.85545
-8.86764
-8.87732
-8.88441
-8.88884
-8.89052
-8.88936
-8.8853
-8.87822
-8.86804
-8.85469
-8.83801
-8.8179
-8.79423
-8.76683
-8.73552
-8.70027
-8.66093
-8.61727
-8.56929
-8.51679
-8.45961