/*--------------------------------*- C++ -*----------------------------------*\
| =========                 |                                                 |
| \\      /  F ield         | OpenFOAM: The Open Source CFD Toolbox           |
|  \\    /   O peration     | Version:  v1906                                 |
|   \\  /    A nd           | Web:      www.OpenFOAM.com                      |
|    \\/     M anipulation  |                                                 |
\*---------------------------------------------------------------------------*/
FoamFile
{
    version     2.0;
    format      ascii;
    class       surfaceScalarField;
    location    "1566";
    object      phi;
}
// * * * * * * * * * * * * * * * * * * * * * * * * * * * * * * * * * * * * * //

dimensions      [0 3 -1 0 0 0 0];
oriented        oriented;


internalField   nonuniform List<scalar> 
24170
(
3.08282e-06
1.05584e-07
2.987e-06
9.58223e-08
2.92069e-06
6.63104e-08
2.86467e-06
5.60168e-08
2.81583e-06
4.88409e-08
2.77297e-06
4.28625e-08
2.73487e-06
3.81034e-08
2.70063e-06
3.42312e-08
2.66977e-06
3.08601e-08
2.64192e-06
2.78516e-08
2.61663e-06
2.52933e-08
2.59349e-06
2.31436e-08
2.57238e-06
2.11035e-08
2.55333e-06
1.90557e-08
2.53661e-06
1.67126e-08
2.52257e-06
1.40443e-08
2.51207e-06
1.05003e-08
-3.2968e-10
2.5124e-06
3.44276e-06
8.00745e-08
3.44404e-06
9.45372e-08
3.43233e-06
7.80244e-08
3.41873e-06
6.96191e-08
3.404e-06
6.35705e-08
3.3892e-06
5.7658e-08
3.37484e-06
5.24701e-08
3.36101e-06
4.80614e-08
3.34774e-06
4.41277e-08
3.33507e-06
4.05233e-08
3.32305e-06
3.73084e-08
3.31174e-06
3.44585e-08
3.30104e-06
3.17985e-08
3.29097e-06
2.91216e-08
3.28139e-06
2.62942e-08
3.27239e-06
2.30473e-08
3.26446e-06
1.8427e-08
9.07238e-09
3.25506e-06
3.67627e-06
6.63199e-08
3.67857e-06
9.22433e-08
3.67279e-06
8.38022e-08
3.66527e-06
7.71379e-08
3.65768e-06
7.11556e-08
3.65052e-06
6.48231e-08
3.64383e-06
5.91606e-08
3.63754e-06
5.43451e-08
3.6316e-06
5.0069e-08
3.62596e-06
4.61663e-08
3.62063e-06
4.26409e-08
3.61564e-06
3.94482e-08
3.611e-06
3.6441e-08
3.60671e-06
3.34074e-08
3.60275e-06
3.0255e-08
3.59928e-06
2.65202e-08
3.59512e-06
2.2579e-08
1.65939e-08
3.5876e-06
3.93546e-06
5.62437e-08
3.94302e-06
8.46879e-08
3.94511e-06
8.17148e-08
3.94512e-06
7.71224e-08
3.94394e-06
7.23369e-08
3.94193e-06
6.68384e-08
3.93944e-06
6.16508e-08
3.93672e-06
5.70636e-08
3.93391e-06
5.28809e-08
3.93108e-06
4.89917e-08
3.92832e-06
4.53999e-08
3.9257e-06
4.20678e-08
3.92327e-06
3.88741e-08
3.92104e-06
3.56327e-08
3.91904e-06
3.22588e-08
3.91719e-06
2.83667e-08
3.9158e-06
2.39754e-08
1.69989e-08
3.91539e-06
4.2181e-06
4.52689e-08
4.22758e-06
7.5207e-08
4.23152e-06
7.77803e-08
4.23288e-06
7.57628e-08
4.23306e-06
7.21563e-08
4.23258e-06
6.73196e-08
4.23178e-06
6.24501e-08
4.23085e-06
5.79861e-08
4.22988e-06
5.38501e-08
4.2289e-06
4.99766e-08
4.22794e-06
4.63636e-08
4.22704e-06
4.29658e-08
4.22623e-06
3.96838e-08
4.22551e-06
3.63503e-08
4.22483e-06
3.29359e-08
4.22413e-06
2.90735e-08
4.22269e-06
2.54091e-08
2.10291e-08
4.21866e-06
4.51709e-06
3.72617e-08
4.52582e-06
6.64817e-08
4.53155e-06
7.20534e-08
4.53559e-06
7.17204e-08
4.53862e-06
6.91214e-08
4.54084e-06
6.51062e-08
4.54245e-06
6.0834e-08
4.54368e-06
5.67636e-08
4.54463e-06
5.2897e-08
4.54539e-06
4.92118e-08
4.54604e-06
4.57126e-08
4.54665e-06
4.23642e-08
4.54724e-06
3.90903e-08
4.54783e-06
3.57647e-08
4.54842e-06
3.234e-08
4.5489e-06
2.85992e-08
4.54972e-06
2.45844e-08
1.97256e-08
4.55102e-06
4.83986e-06
3.01224e-08
4.84839e-06
5.7952e-08
4.8544e-06
6.60433e-08
4.85856e-06
6.75643e-08
4.86156e-06
6.61129e-08
4.86376e-06
6.29124e-08
4.86543e-06
5.91582e-08
4.86681e-06
5.53827e-08
4.86802e-06
5.16942e-08
4.8691e-06
4.81259e-08
4.87012e-06
4.46991e-08
4.87109e-06
4.13895e-08
4.87204e-06
3.81448e-08
4.87294e-06
3.48657e-08
4.87372e-06
3.15563e-08
4.87425e-06
2.80663e-08
4.874e-06
2.48323e-08
2.14969e-08
4.87223e-06
5.18533e-06
2.43696e-08
5.19297e-06
5.0314e-08
5.19934e-06
5.96754e-08
5.2046e-06
6.23041e-08
5.20907e-06
6.16404e-08
5.21287e-06
5.91182e-08
5.21614e-06
5.58893e-08
5.21903e-06
5.249e-08
5.22164e-06
4.9082e-08
5.22404e-06
4.57298e-08
5.22627e-06
4.24644e-08
5.22839e-06
3.92738e-08
5.23041e-06
3.61223e-08
5.23233e-06
3.29452e-08
5.23416e-06
2.97227e-08
5.23585e-06
2.6378e-08
5.23779e-06
2.28958e-08
1.92877e-08
5.24e-06
5.55573e-06
1.99804e-08
5.56255e-06
4.34907e-08
5.56879e-06
5.34332e-08
5.57402e-06
5.7074e-08
5.57838e-06
5.72806e-08
5.58201e-06
5.5494e-08
5.58508e-06
5.28109e-08
5.58779e-06
4.97847e-08
5.59023e-06
4.66392e-08
5.59248e-06
4.3481e-08
5.59458e-06
4.03637e-08
5.59656e-06
3.72934e-08
5.59842e-06
3.426e-08
5.60015e-06
3.12233e-08
5.60166e-06
2.82135e-08
5.60284e-06
2.51903e-08
5.60331e-06
2.24266e-08
1.97012e-08
5.6029e-06
5.95382e-06
1.59392e-08
5.9602e-06
3.71082e-08
5.96645e-06
4.71858e-08
5.97216e-06
5.13635e-08
5.97733e-06
5.21056e-08
5.98198e-06
5.08442e-08
5.98619e-06
4.86038e-08
5.99005e-06
4.59247e-08
5.99363e-06
4.30577e-08
5.99698e-06
4.01291e-08
6.00014e-06
3.72029e-08
6.00314e-06
3.42978e-08
6.00599e-06
3.14132e-08
6.00868e-06
2.85304e-08
6.01124e-06
2.565e-08
6.01367e-06
2.276e-08
6.01625e-06
1.98458e-08
1.70921e-08
6.01886e-06
6.37948e-06
1.32696e-08
6.3848e-06
3.17918e-08
6.39063e-06
4.13516e-08
6.39618e-06
4.58149e-08
6.40123e-06
4.70547e-08
6.40574e-06
4.63377e-08
6.40977e-06
4.45733e-08
6.41342e-06
4.22753e-08
6.41676e-06
3.97139e-08
6.41985e-06
3.70366e-08
6.42273e-06
3.43243e-08
6.42542e-06
3.16122e-08
6.42791e-06
2.89208e-08
6.43019e-06
2.6249e-08
6.43221e-06
2.36365e-08
6.43389e-06
2.10805e-08
6.43499e-06
1.87366e-08
1.65043e-08
6.43558e-06
5.74324e-06
1.0864e-08
5.74769e-06
2.73373e-08
5.75263e-06
3.64122e-08
5.75751e-06
4.09416e-08
5.76215e-06
4.24097e-08
5.76649e-06
4.20031e-08
5.77052e-06
4.0541e-08
5.77428e-06
3.85096e-08
5.77782e-06
3.61818e-08
5.78114e-06
3.37112e-08
5.78428e-06
3.11846e-08
5.78725e-06
2.86451e-08
5.79005e-06
2.61166e-08
5.79269e-06
2.36096e-08
5.79519e-06
2.11388e-08
5.79755e-06
1.87233e-08
5.79993e-06
1.63546e-08
1.42234e-08
5.80221e-06
6.99986e-06
9.15856e-09
7.00401e-06
2.31919e-08
7.00916e-06
3.12626e-08
7.01451e-06
3.55861e-08
7.01971e-06
3.7212e-08
7.02459e-06
3.71261e-08
7.02911e-06
3.60149e-08
7.03331e-06
3.43132e-08
7.03721e-06
3.22834e-08
7.04084e-06
3.00814e-08
7.04422e-06
2.78009e-08
7.04737e-06
2.5495e-08
7.05029e-06
2.31996e-08
7.05296e-06
2.09357e-08
7.05536e-06
1.87359e-08
7.05747e-06
1.66178e-08
7.05919e-06
1.46333e-08
1.26817e-08
7.06073e-06
8.53319e-06
6.8159e-09
8.53809e-06
1.82951e-08
8.54401e-06
2.53344e-08
8.55029e-06
2.93058e-08
8.55657e-06
3.09392e-08
8.56265e-06
3.1045e-08
8.56846e-06
3.01993e-08
8.574e-06
2.87826e-08
8.57924e-06
2.7037e-08
8.58421e-06
2.51115e-08
8.58891e-06
2.30977e-08
8.59336e-06
2.10508e-08
8.59755e-06
1.90057e-08
8.6015e-06
1.69868e-08
8.60522e-06
1.50147e-08
8.60872e-06
1.31165e-08
8.61205e-06
1.1305e-08
9.73786e-09
8.615e-06
1.04007e-05
5.35736e-09
1.04049e-05
1.4043e-08
1.04108e-05
1.94848e-08
1.04174e-05
2.26679e-08
1.04243e-05
2.40761e-08
1.04311e-05
2.42692e-08
1.04376e-05
2.36687e-08
1.04438e-05
2.25667e-08
1.04497e-05
2.11607e-08
1.04552e-05
1.95796e-08
1.04604e-05
1.79068e-08
1.04653e-05
1.61972e-08
1.04698e-05
1.44864e-08
1.0474e-05
1.28017e-08
1.04778e-05
1.11572e-08
1.04814e-05
9.5728e-09
1.04846e-05
8.03765e-09
6.53468e-09
1.04878e-05
1.26789e-05
3.24698e-09
1.26839e-05
8.99678e-09
1.26906e-05
1.27977e-08
1.26982e-05
1.50948e-08
1.27061e-05
1.61484e-08
1.27141e-05
1.63136e-08
1.27219e-05
1.58813e-08
1.27294e-05
1.50603e-08
1.27365e-05
1.39984e-08
1.27433e-05
1.27955e-08
1.27497e-05
1.15186e-08
1.27557e-05
1.02126e-08
1.27613e-05
8.91042e-09
1.27664e-05
7.63502e-09
1.27712e-05
6.41232e-09
1.27755e-05
5.25929e-09
1.27793e-05
4.20045e-09
3.26922e-09
1.27826e-05
1.5455e-05
1.46381e-09
1.54599e-05
4.03473e-09
1.54671e-05
5.65786e-09
1.54756e-05
6.55621e-09
1.54849e-05
6.84654e-09
1.54945e-05
6.69138e-09
1.55042e-05
6.22981e-09
1.55137e-05
5.56271e-09
1.55229e-05
4.76495e-09
1.55318e-05
3.89043e-09
1.55404e-05
2.97591e-09
1.55485e-05
2.0498e-09
1.55563e-05
1.12779e-09
1.55637e-05
2.30031e-10
1.55708e-05
-6.46029e-10
1.55775e-05
-1.47184e-09
1.5584e-05
-2.27904e-09
-2.9508e-09
1.55902e-05
1.88392e-05
-6.53046e-11
1.88439e-05
-7.48377e-10
1.8851e-05
-1.38637e-09
1.88594e-05
-1.86837e-09
1.88685e-05
-2.24263e-09
1.88777e-05
-2.54638e-09
1.88868e-05
-2.80792e-09
1.88954e-05
-3.0476e-09
1.89034e-05
-3.27619e-09
1.89108e-05
-3.49929e-09
1.89175e-05
-3.71881e-09
1.89235e-05
-3.93621e-09
1.89288e-05
-4.15069e-09
1.89334e-05
-4.3649e-09
1.89373e-05
-4.57902e-09
1.89406e-05
-4.79713e-09
1.89434e-05
-5.03759e-09
-5.36792e-09
1.89458e-05
2.29673e-05
-4.00093e-09
2.29763e-05
-9.76288e-09
2.29886e-05
-1.36913e-08
2.30031e-05
-1.63645e-08
2.3019e-05
-1.81434e-08
2.30357e-05
-1.92782e-08
2.30529e-05
-1.99701e-08
2.30702e-05
-2.03664e-08
2.30875e-05
-2.05658e-08
2.31046e-05
-2.06312e-08
2.31215e-05
-2.06011e-08
2.31381e-05
-2.04935e-08
2.31542e-05
-2.03135e-08
2.31699e-05
-2.00507e-08
2.3185e-05
-1.96908e-08
2.31994e-05
-1.91987e-08
2.3213e-05
-1.8568e-08
-1.74438e-08
2.3225e-05
1.68112e-05
-4.53887e-09
1.68148e-05
-1.32731e-08
1.68203e-05
-1.92375e-08
1.68269e-05
-2.29235e-08
1.68337e-05
-2.49376e-08
1.68402e-05
-2.58016e-08
1.68461e-05
-2.59326e-08
1.68514e-05
-2.56178e-08
1.68559e-05
-2.50387e-08
1.68595e-05
-2.43057e-08
1.68624e-05
-2.34837e-08
1.68645e-05
-2.26114e-08
1.68659e-05
-2.17076e-08
1.68667e-05
-2.07932e-08
1.68669e-05
-1.98741e-08
1.68667e-05
-1.89983e-08
1.68663e-05
-1.81633e-08
-1.7841e-08
1.68666e-05
1.46387e-05
-8.64632e-09
1.46468e-05
-2.14025e-08
1.46568e-05
-2.92239e-08
1.46677e-05
-3.38113e-08
1.4679e-05
-3.62429e-08
1.46904e-05
-3.72058e-08
1.47017e-05
-3.7244e-08
1.47128e-05
-3.67367e-08
1.47237e-05
-3.5919e-08
1.47343e-05
-3.49365e-08
1.47447e-05
-3.38833e-08
1.47549e-05
-3.28185e-08
1.4765e-05
-3.17834e-08
1.4775e-05
-3.07962e-08
1.4785e-05
-2.98819e-08
1.4795e-05
-2.9007e-08
1.48051e-05
-2.8205e-08
-2.68382e-08
1.48141e-05
1.27416e-05
-1.01217e-08
1.27468e-05
-2.65527e-08
1.27534e-05
-3.58441e-08
1.27601e-05
-4.05368e-08
1.27663e-05
-4.24169e-08
1.27716e-05
-4.25593e-08
1.27761e-05
-4.17364e-08
1.27798e-05
-4.04337e-08
1.27828e-05
-3.8904e-08
1.27851e-05
-3.72773e-08
1.27869e-05
-3.56216e-08
1.2788e-05
-3.39693e-08
1.27886e-05
-3.23206e-08
1.27884e-05
-3.0669e-08
1.27875e-05
-2.89671e-08
1.27857e-05
-2.72188e-08
1.27828e-05
-2.53094e-08
-2.39654e-08
1.278e-05
1.10966e-05
-1.5743e-08
1.11062e-05
-3.62114e-08
1.11166e-05
-4.61908e-08
1.11267e-05
-5.07307e-08
1.11366e-05
-5.22719e-08
1.1146e-05
-5.19245e-08
1.11548e-05
-5.05555e-08
1.11631e-05
-4.87309e-08
1.11709e-05
-4.67241e-08
1.11783e-05
-4.46716e-08
1.11853e-05
-4.26578e-08
1.11921e-05
-4.07335e-08
1.11987e-05
-3.89383e-08
1.12054e-05
-3.73019e-08
1.12123e-05
-3.58997e-08
1.12198e-05
-3.47696e-08
1.12287e-05
-3.41513e-08
-3.32805e-08
1.1238e-05
9.65974e-06
-2.02661e-08
9.66817e-06
-4.46394e-08
9.67607e-06
-5.40998e-08
9.68242e-06
-5.70756e-08
9.68729e-06
-5.71394e-08
9.6909e-06
-5.55392e-08
9.69356e-06
-5.32178e-08
9.69556e-06
-5.07307e-08
9.69709e-06
-4.82547e-08
9.69826e-06
-4.58402e-08
9.69912e-06
-4.35177e-08
9.69969e-06
-4.13022e-08
9.69993e-06
-3.91814e-08
9.69977e-06
-3.71337e-08
9.69893e-06
-3.50608e-08
9.69703e-06
-3.28725e-08
9.69299e-06
-3.0106e-08
-2.72591e-08
9.68696e-06
8.41352e-06
-2.84322e-08
8.42509e-06
-5.62108e-08
8.43527e-06
-6.42761e-08
8.44404e-06
-6.58454e-08
8.45175e-06
-6.48575e-08
8.45842e-06
-6.22049e-08
8.46414e-06
-5.89337e-08
8.46908e-06
-5.5679e-08
8.47341e-06
-5.25839e-08
8.47724e-06
-4.96625e-08
8.48065e-06
-4.69315e-08
8.48374e-06
-4.43968e-08
8.48662e-06
-4.20577e-08
8.4894e-06
-3.9911e-08
8.49236e-06
-3.80231e-08
8.49596e-06
-3.64702e-08
8.50169e-06
-3.58399e-08
-3.58835e-08
8.51032e-06
7.32785e-06
-3.90011e-08
7.33967e-06
-6.80298e-08
7.34639e-06
-7.09892e-08
7.34966e-06
-6.91186e-08
7.35109e-06
-6.62906e-08
7.35142e-06
-6.2536e-08
7.35117e-06
-5.868e-08
7.35066e-06
-5.51737e-08
7.35004e-06
-5.19618e-08
7.34934e-06
-4.89594e-08
7.34856e-06
-4.61538e-08
7.34771e-06
-4.35447e-08
7.34677e-06
-4.11156e-08
7.34572e-06
-3.88596e-08
7.34439e-06
-3.67005e-08
7.3425e-06
-3.45812e-08
7.33839e-06
-3.17299e-08
-2.76322e-08
7.33014e-06
6.38127e-06
-5.0203e-08
6.39312e-06
-7.98774e-08
6.39988e-06
-7.77576e-08
6.40408e-06
-7.33112e-08
6.40651e-06
-6.87277e-08
6.40745e-06
-6.34763e-08
6.40736e-06
-5.85871e-08
6.40661e-06
-5.44209e-08
6.40544e-06
-5.07887e-08
6.40399e-06
-4.75143e-08
6.40237e-06
-4.45347e-08
6.40064e-06
-4.18187e-08
6.39887e-06
-3.93361e-08
6.39706e-06
-3.70555e-08
6.39536e-06
-3.50001e-08
6.39393e-06
-3.31535e-08
6.39447e-06
-3.22626e-08
-3.29118e-08
6.39975e-06
5.563e-06
-6.7737e-08
5.56909e-06
-8.59679e-08
5.56468e-06
-7.33506e-08
5.55725e-06
-6.58769e-08
5.54947e-06
-6.09457e-08
5.54204e-06
-5.60546e-08
5.53519e-06
-5.17306e-08
5.52885e-06
-4.80789e-08
5.52289e-06
-4.48341e-08
5.51724e-06
-4.18639e-08
5.51184e-06
-3.91331e-08
5.50665e-06
-3.66282e-08
5.50164e-06
-3.43268e-08
5.49681e-06
-3.22271e-08
5.49211e-06
-3.02966e-08
5.48755e-06
-2.85974e-08
5.48168e-06
-2.63958e-08
-2.22289e-08
5.471e-06
4.85296e-06
-9.30935e-08
4.85866e-06
-9.16676e-08
4.84879e-06
-6.34787e-08
4.83769e-06
-5.47799e-08
4.82549e-06
-4.87365e-08
4.81328e-06
-4.38499e-08
4.80156e-06
-4.00127e-08
4.7904e-06
-3.69195e-08
4.77979e-06
-3.4222e-08
4.76968e-06
-3.17478e-08
4.76001e-06
-2.94645e-08
4.75074e-06
-2.73654e-08
4.74186e-06
-2.54449e-08
4.73333e-06
-2.36951e-08
4.72518e-06
-2.21503e-08
4.7174e-06
-2.0813e-08
4.71155e-06
-2.05434e-08
-2.17417e-08
4.71106e-06
4.10958e-06
4.01792e-06
3.95444e-06
3.89966e-06
3.85092e-06
3.80707e-06
3.76706e-06
3.73014e-06
3.69592e-06
3.66417e-06
3.6347e-06
3.60734e-06
3.58189e-06
3.5582e-06
3.53605e-06
3.51523e-06
3.49469e-06
3.47295e-06
5.97697e-08
-5.97495e-08
1.53766e-07
-9.39733e-08
2.62498e-07
-1.08734e-07
3.59693e-07
-9.71876e-08
4.46159e-07
-8.64729e-08
5.21584e-07
-7.54215e-08
5.89052e-07
-6.74768e-08
6.49722e-07
-6.06672e-08
7.05401e-07
-5.5688e-08
7.56976e-07
-5.15715e-08
8.05266e-07
-4.82981e-08
8.50667e-07
-4.53968e-08
8.93423e-07
-4.27644e-08
9.33621e-07
-4.01914e-08
9.71223e-07
-3.761e-08
1.00616e-06
-3.49341e-08
1.03828e-06
-3.21245e-08
1.06742e-06
-2.91345e-08
1.09338e-06
-2.59657e-08
1.11598e-06
-2.26061e-08
1.135e-06
-1.90217e-08
1.15001e-06
-1.50242e-08
1.16044e-06
-1.04341e-08
1.16543e-06
-5.00864e-09
1.16377e-06
1.66051e-09
1.15436e-06
9.39138e-09
1.13663e-06
1.77301e-08
1.11004e-06
2.6578e-08
1.07399e-06
3.60594e-08
1.02776e-06
4.62449e-08
9.70893e-07
5.68775e-08
9.0345e-07
6.74763e-08
8.26376e-07
7.70881e-08
7.42081e-07
8.43361e-08
6.53884e-07
8.82033e-08
5.65479e-07
8.84316e-08
4.80856e-07
8.46142e-08
4.04457e-07
7.63939e-08
3.39797e-07
6.46383e-08
2.88283e-07
5.14888e-08
2.48758e-07
3.95038e-08
2.1587e-07
3.28778e-08
1.78284e-07
3.75741e-08
1.23563e-07
5.47332e-08
4.47437e-08
7.88116e-08
-5.34131e-08
9.81727e-08
-1.6082e-07
1.07397e-07
-2.73437e-07
1.12625e-07
-3.88773e-07
1.15325e-07
-5.03664e-07
1.14892e-07
-6.1549e-07
1.11815e-07
-7.22992e-07
1.07499e-07
-8.25829e-07
1.02828e-07
-9.23524e-07
9.76915e-08
-1.01552e-06
9.19881e-08
-1.10145e-06
8.59264e-08
-1.1812e-06
7.9743e-08
-1.25488e-06
7.36756e-08
-1.32279e-06
6.79034e-08
-1.38535e-06
6.25469e-08
-1.44302e-06
5.76694e-08
-1.49632e-06
5.32884e-08
-1.54571e-06
4.93927e-08
-1.59167e-06
4.59531e-08
-1.6346e-06
4.29276e-08
-1.67487e-06
4.02679e-08
-1.7128e-06
3.79252e-08
-1.74866e-06
3.5852e-08
-1.78266e-06
3.40052e-08
-1.81501e-06
3.23464e-08
-1.84585e-06
3.08416e-08
-1.87531e-06
2.94622e-08
-1.9035e-06
2.81825e-08
-1.93048e-06
2.69817e-08
-1.95633e-06
2.58407e-08
-1.98108e-06
2.47459e-08
-2.00477e-06
2.36856e-08
-2.02742e-06
2.26507e-08
-2.04906e-06
2.16326e-08
-2.06969e-06
2.06235e-08
-2.08932e-06
1.96171e-08
-2.10793e-06
1.86067e-08
-2.12553e-06
1.75888e-08
-2.1421e-06
1.65588e-08
-2.15762e-06
1.55177e-08
-2.1721e-06
1.4464e-08
-2.1855e-06
1.34046e-08
-2.19785e-06
1.2342e-08
-2.20912e-06
1.12718e-08
-2.21927e-06
1.0156e-08
-2.22822e-06
8.9587e-09
-2.23589e-06
7.67789e-09
-2.2422e-06
6.31634e-09
-2.24707e-06
4.87096e-09
-2.25041e-06
3.3451e-09
-2.25216e-06
1.75718e-09
-2.25236e-06
1.96178e-10
-2.25128e-06
-1.06931e-09
-2.24925e-06
-2.03398e-09
-2.24629e-06
-2.95664e-09
-2.24242e-06
-3.87244e-09
-2.2376e-06
-4.82571e-09
-2.23178e-06
-5.82788e-09
-2.22489e-06
-6.88946e-09
-2.21688e-06
-8.01858e-09
-2.20769e-06
-9.1993e-09
-2.19735e-06
-1.03441e-08
-2.18586e-06
-1.15048e-08
-2.17317e-06
-1.26948e-08
-2.15925e-06
-1.39241e-08
-2.14405e-06
-1.51959e-08
-2.12754e-06
-1.65171e-08
-2.10964e-06
-1.78904e-08
-2.09032e-06
-1.9321e-08
-2.06951e-06
-2.08014e-08
-2.04718e-06
-2.23272e-08
-2.02328e-06
-2.38927e-08
-1.99777e-06
-2.54946e-08
-1.97064e-06
-2.71262e-08
-1.94184e-06
-2.8783e-08
-1.91137e-06
-3.0464e-08
-1.87918e-06
-3.21736e-08
-1.84525e-06
-3.39232e-08
-1.80953e-06
-3.57037e-08
-1.77205e-06
-3.74649e-08
-1.73289e-06
-3.91501e-08
-1.69206e-06
-4.0807e-08
-1.64952e-06
-4.25233e-08
-1.6053e-06
-4.41973e-08
-1.55945e-06
-4.58291e-08
-1.51199e-06
-4.74396e-08
-1.46297e-06
-4.90002e-08
-1.41244e-06
-5.05134e-08
-1.36046e-06
-5.19616e-08
-1.3071e-06
-5.33393e-08
-1.25244e-06
-5.46547e-08
-1.19647e-06
-5.59501e-08
-1.13923e-06
-5.72314e-08
-1.08075e-06
-5.84788e-08
-1.02114e-06
-5.96135e-08
-9.60469e-07
-6.06777e-08
-8.98769e-07
-6.17046e-08
-8.36079e-07
-6.26952e-08
-7.72429e-07
-6.36551e-08
-7.0785e-07
-6.45852e-08
-6.42367e-07
-6.54885e-08
-5.76005e-07
-6.63697e-08
-5.08779e-07
-6.72354e-08
-4.40703e-07
-6.80877e-08
-3.71782e-07
-6.89352e-08
-3.02026e-07
-6.97722e-08
-2.31484e-07
-7.05612e-08
-1.60175e-07
-7.13308e-08
-8.81097e-08
-7.20897e-08
-1.55124e-08
-7.2624e-08
5.88329e-08
-7.43717e-08
1.358e-07
-7.69935e-08
2.13981e-07
-7.82069e-08
2.92418e-07
-7.8464e-08
3.70474e-07
-7.80829e-08
4.47294e-07
-7.68475e-08
5.22817e-07
-7.55505e-08
5.97271e-07
-7.44798e-08
6.70799e-07
-7.35508e-08
7.43408e-07
-7.2629e-08
8.14985e-07
-7.15921e-08
8.85381e-07
-7.0406e-08
9.54342e-07
-6.89627e-08
1.02166e-06
-6.73103e-08
1.08694e-06
-6.52677e-08
1.14999e-06
-6.30276e-08
1.21019e-06
-6.01725e-08
1.26751e-06
-5.7278e-08
1.32081e-06
-5.32485e-08
1.3705e-06
-4.96428e-08
1.41405e-06
-4.34925e-08
1.45179e-06
-3.76921e-08
1.47772e-06
-2.58802e-08
1.47561e-06
2.15115e-09
4.20543e-08
1.4336e-06
1.15631e-07
-1.75367e-07
1.90507e-07
-1.68839e-07
2.48687e-07
-1.66914e-07
2.90775e-07
-1.39274e-07
3.34244e-07
-1.29944e-07
3.74819e-07
-1.15995e-07
4.16936e-07
-1.09597e-07
4.58224e-07
-1.01955e-07
4.99987e-07
-9.74529e-08
5.41174e-07
-9.27573e-08
5.82027e-07
-8.91536e-08
6.21811e-07
-8.51804e-08
6.60241e-07
-8.1196e-08
6.96762e-07
-7.67116e-08
7.31043e-07
-7.18925e-08
7.62723e-07
-6.66128e-08
7.9154e-07
-6.09426e-08
8.17261e-07
-5.4855e-08
8.39702e-07
-4.84088e-08
8.5871e-07
-4.16162e-08
8.74316e-07
-3.46309e-08
8.86727e-07
-2.74393e-08
8.96343e-07
-2.0056e-08
9.03834e-07
-1.25058e-08
9.10368e-07
-4.87809e-09
9.16529e-07
3.22435e-09
9.22072e-07
1.21842e-08
9.26275e-07
2.23723e-08
9.27755e-07
3.45794e-08
9.23935e-07
5.00676e-08
9.1066e-07
7.0158e-08
8.83397e-07
9.47478e-08
8.38997e-07
1.21496e-07
7.76913e-07
1.46431e-07
6.99508e-07
1.65614e-07
6.10892e-07
1.77052e-07
5.14943e-07
1.80563e-07
4.15129e-07
1.76205e-07
3.14518e-07
1.65244e-07
2.14087e-07
1.51914e-07
1.11473e-07
1.42113e-07
2.57453e-09
1.41773e-07
-1.14826e-07
1.54973e-07
-2.37637e-07
1.77545e-07
-3.60085e-07
2.0126e-07
-4.81026e-07
2.19114e-07
-6.02052e-07
2.28422e-07
-7.19853e-07
2.30426e-07
-8.30348e-07
2.25819e-07
-9.30849e-07
2.15392e-07
-1.01974e-06
2.00706e-07
-1.09598e-06
1.83738e-07
-1.15896e-06
1.65809e-07
-1.20905e-06
1.47776e-07
-1.24747e-06
1.30406e-07
-1.27584e-06
1.14294e-07
-1.2959e-06
9.97974e-08
-1.3093e-06
8.70761e-08
-1.31753e-06
7.61258e-08
-1.32182e-06
6.68365e-08
-1.32319e-06
5.90392e-08
-1.32245e-06
5.25459e-08
-1.32023e-06
4.71691e-08
-1.31701e-06
4.27294e-08
-1.31314e-06
3.90627e-08
-1.3089e-06
3.60245e-08
-1.30447e-06
3.3492e-08
-1.29998e-06
3.13627e-08
-1.29553e-06
2.95526e-08
-1.29118e-06
2.79942e-08
-1.28697e-06
2.66333e-08
-1.28294e-06
2.54267e-08
-1.2791e-06
2.43395e-08
-1.27546e-06
2.3345e-08
-1.27204e-06
2.24234e-08
-1.26886e-06
2.15613e-08
-1.26593e-06
2.07491e-08
-1.26326e-06
1.99801e-08
-1.26088e-06
1.92503e-08
-1.25882e-06
1.85574e-08
-1.25711e-06
1.79013e-08
-1.25579e-06
1.72824e-08
-1.2549e-06
1.67023e-08
-1.25451e-06
1.61612e-08
-1.25466e-06
1.56598e-08
-1.25539e-06
1.51962e-08
-1.25676e-06
1.47692e-08
-1.25879e-06
1.43731e-08
-1.26152e-06
1.39962e-08
-1.26497e-06
1.36155e-08
-1.26924e-06
1.32254e-08
-1.27439e-06
1.28315e-08
-1.2805e-06
1.2429e-08
-1.28763e-06
1.20024e-08
-1.29581e-06
1.15318e-08
-1.30506e-06
1.09999e-08
-1.31524e-06
1.03784e-08
-1.32586e-06
9.5517e-09
-1.33646e-06
8.56447e-09
-1.34685e-06
7.43345e-09
-1.35689e-06
6.16896e-09
-1.36651e-06
4.7877e-09
-1.37565e-06
3.30462e-09
-1.38427e-06
1.72503e-09
-1.3923e-06
3.40384e-12
-1.39949e-06
-2.01226e-09
-1.40559e-06
-4.24696e-09
-1.41048e-06
-6.62215e-09
-1.41407e-06
-9.11488e-09
-1.41628e-06
-1.1712e-08
-1.41707e-06
-1.44085e-08
-1.41639e-06
-1.72061e-08
-1.41417e-06
-2.01063e-08
-1.41038e-06
-2.31072e-08
-1.40498e-06
-2.62041e-08
-1.39791e-06
-2.93923e-08
-1.38914e-06
-3.26657e-08
-1.37861e-06
-3.60185e-08
-1.36629e-06
-3.94422e-08
-1.35214e-06
-4.29304e-08
-1.33611e-06
-4.64805e-08
-1.31819e-06
-5.00941e-08
-1.29835e-06
-5.37575e-08
-1.27662e-06
-5.74297e-08
-1.25304e-06
-6.10314e-08
-1.22765e-06
-6.45338e-08
-1.20039e-06
-6.80636e-08
-1.17124e-06
-7.16621e-08
-1.14027e-06
-7.51604e-08
-1.10749e-06
-7.85937e-08
-1.07297e-06
-8.19527e-08
-1.03674e-06
-8.52188e-08
-9.98857e-07
-8.83878e-08
-9.59356e-07
-9.14535e-08
-9.18276e-07
-9.44114e-08
-8.757e-07
-9.72244e-08
-8.31735e-07
-9.99097e-08
-7.86421e-07
-1.02543e-07
-7.39788e-07
-1.05111e-07
-6.91905e-07
-1.07498e-07
-6.42831e-07
-1.09754e-07
-5.92614e-07
-1.11924e-07
-5.4129e-07
-1.14021e-07
-4.88891e-07
-1.16056e-07
-4.3544e-07
-1.18038e-07
-3.80955e-07
-1.19976e-07
-3.25446e-07
-1.21881e-07
-2.68917e-07
-1.23767e-07
-2.11359e-07
-1.2565e-07
-1.52741e-07
-1.27557e-07
-9.29815e-08
-1.29537e-07
-3.19287e-08
-1.3162e-07
3.04163e-08
-1.33682e-07
9.39505e-08
-1.35631e-07
1.58984e-07
-1.37665e-07
2.24721e-07
-1.40117e-07
2.90093e-07
-1.42375e-07
3.55452e-07
-1.43576e-07
4.21127e-07
-1.44148e-07
4.87725e-07
-1.44692e-07
5.55852e-07
-1.44984e-07
6.24973e-07
-1.4468e-07
6.94536e-07
-1.44053e-07
7.64115e-07
-1.43138e-07
8.33404e-07
-1.41924e-07
9.02147e-07
-1.4034e-07
9.7011e-07
-1.38371e-07
1.03703e-06
-1.35883e-07
1.10266e-06
-1.32928e-07
1.16666e-06
-1.2926e-07
1.22876e-06
-1.25119e-07
1.28856e-06
-1.19952e-07
1.34582e-06
-1.14509e-07
1.39996e-06
-1.07368e-07
1.4509e-06
-1.00556e-07
1.4977e-06
-9.02603e-08
1.54067e-06
-8.06318e-08
1.57781e-06
-6.29973e-08
1.61515e-06
-3.51546e-08
8.36207e-09
1.64886e-06
6.81014e-08
-2.43459e-07
9.67017e-08
-1.97432e-07
1.26757e-07
-1.9697e-07
1.52749e-07
-1.65265e-07
1.85883e-07
-1.63081e-07
2.20745e-07
-1.50858e-07
2.61199e-07
-1.50053e-07
3.03185e-07
-1.4394e-07
3.48462e-07
-1.4273e-07
3.94147e-07
-1.38442e-07
4.40427e-07
-1.35434e-07
4.85423e-07
-1.30175e-07
5.28781e-07
-1.24555e-07
5.69572e-07
-1.17501e-07
6.07645e-07
-1.09966e-07
6.42624e-07
-1.01591e-07
6.74359e-07
-9.26784e-08
7.02523e-07
-8.30186e-08
7.26781e-07
-7.26675e-08
7.46698e-07
-6.15342e-08
7.61805e-07
-4.974e-08
7.71711e-07
-3.73494e-08
7.76096e-07
-2.44429e-08
7.74367e-07
-1.07823e-08
7.65694e-07
3.79198e-09
7.49936e-07
1.89782e-08
7.27926e-07
3.41916e-08
7.01176e-07
4.91195e-08
6.71419e-07
6.43348e-08
6.39854e-07
8.16313e-08
6.06082e-07
1.03931e-07
5.67295e-07
1.33537e-07
5.19459e-07
1.69334e-07
4.6004e-07
2.05854e-07
3.8943e-07
2.36225e-07
3.1015e-07
2.56334e-07
2.2495e-07
2.65763e-07
1.35273e-07
2.65879e-07
4.04846e-08
2.6003e-07
-6.20196e-08
2.54416e-07
-1.75139e-07
2.55231e-07
-2.98399e-07
2.65032e-07
-4.2537e-07
2.81943e-07
-5.48315e-07
3.00491e-07
-6.62338e-07
3.15283e-07
-7.65626e-07
3.22402e-07
-8.57517e-07
3.20313e-07
-9.36931e-07
3.09839e-07
-1.00363e-06
2.92521e-07
-1.0586e-06
2.70358e-07
-1.10356e-06
2.45664e-07
-1.14018e-06
2.20357e-07
-1.1702e-06
1.95832e-07
-1.19549e-06
1.73058e-07
-1.21768e-06
1.52596e-07
-1.23806e-06
1.34679e-07
-1.25755e-06
1.19285e-07
-1.27672e-06
1.06241e-07
-1.29588e-06
9.52873e-08
-1.31518e-06
8.61372e-08
-1.33466e-06
7.85111e-08
-1.35427e-06
7.21556e-08
-1.37395e-06
6.68511e-08
-1.39363e-06
6.24095e-08
-1.41324e-06
5.86716e-08
-1.43272e-06
5.55039e-08
-1.45203e-06
5.27956e-08
-1.47112e-06
5.04553e-08
-1.48998e-06
4.84086e-08
-1.50858e-06
4.65947e-08
-1.52691e-06
4.49651e-08
-1.54497e-06
4.34807e-08
-1.56274e-06
4.21106e-08
-1.58022e-06
4.08308e-08
-1.59743e-06
3.96227e-08
-1.61434e-06
3.84737e-08
-1.63097e-06
3.73744e-08
-1.64731e-06
3.63184e-08
-1.66336e-06
3.53003e-08
-1.67912e-06
3.43153e-08
-1.69458e-06
3.33596e-08
-1.70972e-06
3.24287e-08
-1.72454e-06
3.15189e-08
-1.73901e-06
3.06256e-08
-1.7531e-06
2.97447e-08
-1.76677e-06
2.8869e-08
-1.78e-06
2.79922e-08
-1.79273e-06
2.71046e-08
-1.80493e-06
2.61963e-08
-1.81657e-06
2.52557e-08
-1.82763e-06
2.4285e-08
-1.83808e-06
2.32891e-08
-1.84792e-06
2.22634e-08
-1.85711e-06
2.11899e-08
-1.86561e-06
2.00392e-08
-1.87338e-06
1.87679e-08
-1.88032e-06
1.73173e-08
-1.88637e-06
1.5601e-08
-1.89144e-06
1.36302e-08
-1.89544e-06
1.14368e-08
-1.8983e-06
9.02989e-09
-1.89994e-06
6.42334e-09
-1.90027e-06
3.62866e-09
-1.89922e-06
6.62396e-10
-1.89678e-06
-2.43347e-09
-1.89317e-06
-5.62842e-09
-1.88846e-06
-8.9675e-09
-1.88263e-06
-1.246e-08
-1.87564e-06
-1.61084e-08
-1.86744e-06
-1.99089e-08
-1.858e-06
-2.38602e-08
-1.84724e-06
-2.79618e-08
-1.83513e-06
-3.22158e-08
-1.82162e-06
-3.66197e-08
-1.80666e-06
-4.1168e-08
-1.7902e-06
-4.58523e-08
-1.7722e-06
-5.0665e-08
-1.75262e-06
-5.55976e-08
-1.73141e-06
-6.06425e-08
-1.70855e-06
-6.57901e-08
-1.684e-06
-7.10302e-08
-1.65774e-06
-7.63475e-08
-1.62978e-06
-8.17167e-08
-1.60011e-06
-8.70993e-08
-1.56869e-06
-9.24478e-08
-1.53546e-06
-9.77513e-08
-1.50046e-06
-1.03066e-07
-1.46374e-06
-1.0837e-07
-1.42531e-06
-1.13582e-07
-1.38518e-06
-1.18718e-07
-1.34338e-06
-1.23749e-07
-1.29993e-06
-1.28663e-07
-1.25486e-06
-1.33446e-07
-1.20823e-06
-1.38084e-07
-1.16008e-06
-1.42553e-07
-1.11046e-06
-1.46842e-07
-1.05936e-06
-1.51006e-07
-1.00689e-06
-1.55011e-07
-9.53166e-07
-1.58831e-07
-8.98156e-07
-1.62509e-07
-8.41875e-07
-1.66035e-07
-7.84368e-07
-1.69432e-07
-7.25658e-07
-1.72731e-07
-6.65773e-07
-1.75941e-07
-6.04731e-07
-1.7908e-07
-5.42547e-07
-1.82161e-07
-4.79233e-07
-1.85195e-07
-4.14801e-07
-1.882e-07
-3.49264e-07
-1.91187e-07
-2.82654e-07
-1.94168e-07
-2.15045e-07
-1.97146e-07
-1.46546e-07
-2.00119e-07
-7.7232e-08
-2.02996e-07
-7.27481e-09
-2.05589e-07
6.30711e-08
-2.08012e-07
1.33714e-07
-2.10762e-07
2.04755e-07
-2.1342e-07
2.76406e-07
-2.1523e-07
3.487e-07
-2.16446e-07
4.21428e-07
-2.17423e-07
4.94233e-07
-2.17793e-07
5.66812e-07
-2.17263e-07
6.38926e-07
-2.16169e-07
7.10389e-07
-2.14605e-07
7.81022e-07
-2.1256e-07
8.50613e-07
-2.09933e-07
9.18919e-07
-2.0668e-07
9.85668e-07
-2.02634e-07
1.05057e-06
-1.97831e-07
1.1133e-06
-1.91999e-07
1.17358e-06
-1.854e-07
1.23108e-06
-1.77455e-07
1.28556e-06
-1.68988e-07
1.33671e-06
-1.58524e-07
1.38433e-06
-1.48185e-07
1.42815e-06
-1.34078e-07
1.46802e-06
-1.20514e-07
1.50342e-06
-9.84061e-08
1.54001e-06
-7.17403e-08
-2.26393e-08
1.57101e-06
3.79737e-08
-2.81425e-07
4.31372e-08
-2.02592e-07
6.15269e-08
-2.15361e-07
8.1551e-08
-1.85289e-07
1.01069e-07
-1.826e-07
1.20762e-07
-1.70551e-07
1.41783e-07
-1.71074e-07
1.66334e-07
-1.68489e-07
1.94317e-07
-1.70714e-07
2.25316e-07
-1.69439e-07
2.58077e-07
-1.68195e-07
2.90929e-07
-1.63025e-07
3.22916e-07
-1.56543e-07
3.53346e-07
-1.4793e-07
3.81966e-07
-1.38586e-07
4.08456e-07
-1.28081e-07
4.32468e-07
-1.1669e-07
4.53417e-07
-1.03967e-07
4.70602e-07
-8.98532e-08
4.83275e-07
-7.42083e-08
4.9109e-07
-5.75571e-08
4.94179e-07
-4.04404e-08
4.93196e-07
-2.34629e-08
4.87796e-07
-5.38502e-09
4.73892e-07
1.76921e-08
4.47444e-07
4.54221e-08
4.0853e-07
7.31024e-08
3.60784e-07
9.68618e-08
3.08897e-07
1.1622e-07
2.5615e-07
1.34375e-07
2.03561e-07
1.56519e-07
1.50621e-07
1.86476e-07
9.68742e-08
2.23082e-07
4.25731e-08
2.60156e-07
-1.20702e-08
2.90869e-07
-6.76945e-08
3.11959e-07
-1.26237e-07
3.24304e-07
-1.91529e-07
3.3117e-07
-2.6818e-07
3.3668e-07
-3.58002e-07
3.44235e-07
-4.57704e-07
3.54931e-07
-5.59992e-07
3.67318e-07
-6.56516e-07
3.78467e-07
-7.41234e-07
3.85208e-07
-8.11333e-07
3.85382e-07
-8.66738e-07
3.77806e-07
-9.09138e-07
3.62713e-07
-9.41087e-07
3.41788e-07
-9.65644e-07
3.17077e-07
-9.85925e-07
2.90638e-07
-1.00451e-06
2.64243e-07
-1.02313e-06
2.38986e-07
-1.04286e-06
2.15561e-07
-1.06411e-06
1.94305e-07
-1.08679e-06
1.75272e-07
-1.11051e-06
1.58395e-07
-1.13475e-06
1.43533e-07
-1.15904e-06
1.30527e-07
-1.18296e-06
1.19204e-07
-1.20622e-06
1.09396e-07
-1.22864e-06
1.00933e-07
-1.25014e-06
9.3655e-08
-1.2707e-06
8.74082e-08
-1.29034e-06
8.20492e-08
-1.30911e-06
7.74466e-08
-1.32709e-06
7.3482e-08
-1.34435e-06
7.00513e-08
-1.36096e-06
6.70642e-08
-1.377e-06
6.44437e-08
-1.39253e-06
6.21247e-08
-1.40761e-06
6.00526e-08
-1.42232e-06
5.81813e-08
-1.43668e-06
5.64723e-08
-1.45074e-06
5.48927e-08
-1.46453e-06
5.34146e-08
-1.47808e-06
5.20143e-08
-1.49137e-06
5.06714e-08
-1.50443e-06
4.93693e-08
-1.51722e-06
4.80954e-08
-1.52975e-06
4.6841e-08
-1.54199e-06
4.56011e-08
-1.55394e-06
4.43739e-08
-1.56558e-06
4.31601e-08
-1.57692e-06
4.19616e-08
-1.58796e-06
4.07808e-08
-1.59871e-06
3.96189e-08
-1.60919e-06
3.84732e-08
-1.61942e-06
3.73348e-08
-1.62941e-06
3.61868e-08
-1.63916e-06
3.5007e-08
-1.64865e-06
3.37761e-08
-1.65784e-06
3.24774e-08
-1.66667e-06
3.10926e-08
-1.67508e-06
2.95993e-08
-1.68301e-06
2.79739e-08
-1.69044e-06
2.61894e-08
-1.69733e-06
2.42078e-08
-1.7037e-06
2.19762e-08
-1.70956e-06
1.94843e-08
-1.71486e-06
1.67351e-08
-1.71956e-06
1.37299e-08
-1.72362e-06
1.0473e-08
-1.72696e-06
6.96687e-09
-1.72953e-06
3.2256e-09
-1.73119e-06
-7.77054e-10
-1.73181e-06
-5.01386e-09
-1.73129e-06
-9.49623e-09
-1.72954e-06
-1.42095e-08
-1.72651e-06
-1.91433e-08
-1.72214e-06
-2.42884e-08
-1.71636e-06
-2.96399e-08
-1.70913e-06
-3.51922e-08
-1.70041e-06