/*--------------------------------*- C++ -*----------------------------------*\
| =========                 |                                                 |
| \\      /  F ield         | OpenFOAM: The Open Source CFD Toolbox           |
|  \\    /   O peration     | Version:  v1906                                 |
|   \\  /    A nd           | Web:      www.OpenFOAM.com                      |
|    \\/     M anipulation  |                                                 |
\*---------------------------------------------------------------------------*/
FoamFile
{
    version     2.0;
    format      ascii;
    class       volSymmTensorField;
    location    "1566";
    object      R;
}
// * * * * * * * * * * * * * * * * * * * * * * * * * * * * * * * * * * * * * //

dimensions      [0 2 -2 0 0 0 0];


internalField   nonuniform List<symmTensor> 
12225
(
(1.62918 -0.333427 0 1.36079 0 1.52752)
(1.99604 -0.59771 0 0.915071 0 1.54224)
(2.14975 -0.586212 0 0.68567 0 1.48847)
(2.1628 -0.548286 0 0.594792 0 1.42582)
(2.12999 -0.521054 0 0.549795 0 1.37023)
(2.0841 -0.501319 0 0.521806 0 1.32322)
(2.03683 -0.485849 0 0.501241 0 1.28307)
(1.99273 -0.473112 0 0.484913 0 1.24866)
(1.95151 -0.462054 0 0.471105 0 1.21823)
(1.91557 -0.452656 0 0.459582 0 1.19212)
(1.88084 -0.443911 0 0.449174 0 1.16803)
(1.85347 -0.437301 0 0.440575 0 1.14802)
(1.83143 -0.432095 0 0.433592 0 1.13182)
(1.81403 -0.427811 0 0.427867 0 1.11836)
(1.79762 -0.423823 0 0.422683 0 1.10636)
(1.78614 -0.42135 0 0.419183 0 1.09725)
(1.77222 -0.417161 0 0.414152 0 1.08717)
(1.7667 -0.418029 0 0.413667 0 1.08218)
(1.52372 -0.0379492 0 1.4601 0 1.51677)
(1.57651 -0.140433 0 1.18694 0 1.51214)
(1.5867 -0.190038 0 0.927625 0 1.45696)
(1.57203 -0.209347 0 0.77377 0 1.39907)
(1.54343 -0.218161 0 0.676188 0 1.34284)
(1.51874 -0.225236 0 0.611049 0 1.29757)
(1.49704 -0.231426 0 0.564353 0 1.25991)
(1.47758 -0.236846 0 0.528979 0 1.22736)
(1.461 -0.241822 0 0.501365 0 1.19984)
(1.44633 -0.246091 0 0.478987 0 1.17526)
(1.43464 -0.250332 0 0.460894 0 1.15509)
(1.42367 -0.253615 0 0.44521 0 1.1356)
(1.41645 -0.257741 0 0.43309 0 1.12136)
(1.40893 -0.260072 0 0.421113 0 1.10522)
(1.40465 -0.264266 0 0.413646 0 1.09598)
(1.39999 -0.265402 0 0.403079 0 1.08175)
(1.39652 -0.269295 0 0.399463 0 1.07623)
(1.39234 -0.269281 0 0.389489 0 1.06217)
(1.51161 -0.00809968 0 1.49388 0 1.51021)
(1.53451 -0.0358621 0 1.38468 0 1.51858)
(1.54642 -0.0615145 0 1.23518 0 1.50561)
(1.54334 -0.0798458 0 1.11801 0 1.48175)
(1.52918 -0.0934484 0 1.02641 0 1.45229)
(1.51231 -0.105328 0 0.95297 0 1.423)
(1.49501 -0.115991 0 0.893139 0 1.39549)
(1.47796 -0.12561 0 0.843445 0 1.36975)
(1.46205 -0.134431 0 0.80165 0 1.34637)
(1.44721 -0.142382 0 0.765909 0 1.32471)
(1.43392 -0.149855 0 0.735235 0 1.30547)
(1.42161 -0.156444 0 0.708178 0 1.2872)
(1.41074 -0.162912 0 0.68508 0 1.27168)
(1.40132 -0.168311 0 0.66352 0 1.25604)
(1.39159 -0.17392 0 0.646685 0 1.2441)
(1.38693 -0.17827 0 0.626978 0 1.22977)
(1.37259 -0.182738 0 0.619422 0 1.22261)
(1.38688 -0.185894 0 0.589493 0 1.2063)
(1.51151 -0.00606697 0 1.49419 0 1.51108)
(1.52718 -0.0162794 0 1.42187 0 1.52172)
(1.53968 -0.0294806 0 1.31301 0 1.52313)
(1.54282 -0.0419181 0 1.21363 0 1.5151)
(1.5377 -0.0522128 0 1.12986 0 1.50082)
(1.52864 -0.0612905 0 1.05924 0 1.48388)
(1.51774 -0.0695416 0 0.999686 0 1.46622)
(1.50593 -0.077112 0 0.949024 0 1.44851)
(1.49402 -0.0841534 0 0.905551 0 1.43144)
(1.48232 -0.0906436 0 0.867857 0 1.41503)
(1.47117 -0.0967558 0 0.835007 0 1.39971)
(1.46055 -0.102348 0 0.805966 0 1.38505)
(1.45057 -0.107696 0 0.780535 0 1.37172)
(1.44151 -0.112444 0 0.757444 0 1.35878)
(1.43243 -0.117052 0 0.737672 0 1.34747)
(1.42562 -0.120952 0 0.718124 0 1.33586)
(1.41617 -0.124591 0 0.704013 0 1.32688)
(1.41294 -0.127784 0 0.684118 0 1.31592)
(1.50986 -0.00453884 0 1.49822 0 1.50974)
(1.52088 -0.00882598 0 1.44953 0 1.51873)
(1.53213 -0.014919 0 1.37341 0 1.52448)
(1.53781 -0.0219798 0 1.29852 0 1.52379)
(1.53769 -0.0286121 0 1.23196 0 1.518)
(1.53399 -0.0349166 0 1.17327 0 1.50921)
(1.52816 -0.0410205 0 1.12169 0 1.49883)
(1.52098 -0.0468941 0 1.07628 0 1.4876)
(1.51308 -0.0525306 0 1.0361 0 1.47609)
(1.50485 -0.0578797 0 1.00037 0 1.46456)
(1.49659 -0.0629841 0 0.968501 0 1.45332)
(1.48842 -0.0677776 0 0.939852 0 1.44234)
(1.48046 -0.0723379 0 0.914135 0 1.43191)
(1.4729 -0.0765197 0 0.890739 0 1.42178)
(1.46546 -0.0804421 0 0.869766 0 1.41239)
(1.4589 -0.0839396 0 0.850112 0 1.40319)
(1.45211 -0.0870405 0 0.83314 0 1.39514)
(1.44715 -0.0900163 0 0.814796 0 1.38679)
(1.50977 -0.00411313 0 1.49855 0 1.50978)
(1.51843 -0.00585144 0 1.46076 0 1.51759)
(1.52822 -0.00839569 0 1.40248 0 1.52451)
(1.5347 -0.0122082 0 1.342 0 1.52727)
(1.53715 -0.0162749 0 1.28554 0 1.52614)
(1.53666 -0.0203984 0 1.23399 0 1.52228)
(1.53411 -0.0245763 0 1.18746 0 1.51663)
(1.53011 -0.0287338 0 1.14561 0 1.50981)
(1.52515 -0.0328173 0 1.10794 0 1.50229)
(1.51959 -0.0367787 0 1.07398 0 1.49437)
(1.51369 -0.0406116 0 1.04329 0 1.48632)
(1.50761 -0.0442719 0 1.01544 0 1.47823)
(1.50149 -0.0477633 0 0.990148 0 1.47029)
(1.49546 -0.051018 0 0.96703 0 1.46248)
(1.4895 -0.0540427 0 0.945943 0 1.455)
(1.48391 -0.0567963 0 0.926387 0 1.44772)
(1.47836 -0.0592495 0 0.908613 0 1.44092)
(1.4734 -0.0616875 0 0.890848 0 1.43412)
(1.50946 -0.00338853 0 1.49937 0 1.50953)
(1.51632 -0.00434196 0 1.46915 0 1.51608)
(1.52447 -0.00510987 0 1.42402 0 1.52272)
(1.53073 -0.006802 0 1.37564 0 1.52678)
(1.53421 -0.00893914 0 1.32902 0 1.52798)
(1.5354 -0.0113446 0 1.28546 0 1.52693)
(1.53483 -0.013983 0 1.24532 0 1.52424)
(1.53291 -0.0167643 0 1.20858 0 1.52035)
(1.53003 -0.0196082 0 1.17498 0 1.51565)
(1.52645 -0.022454 0 1.14425 0 1.51039)
(1.52241 -0.0252658 0 1.1161 0 1.5048)
(1.51806 -0.0279987 0 1.09028 0 1.499)
(1.51353 -0.030625 0 1.06655 0 1.49314)
(1.50893 -0.0331016 0 1.04467 0 1.48727)
(1.50434 -0.0354063 0 1.02446 0 1.48151)
(1.49988 -0.0375333 0 1.00566 0 1.47588)
(1.49558 -0.0394598 0 0.988202 0 1.47051)
(1.4914 -0.0414067 0 0.971397 0 1.4652)
(1.50951 -0.00299197 0 1.49932 0 1.50962)
(1.51529 -0.00361428 0 1.47356 0 1.51537)
(1.52211 -0.00351821 0 1.43713 0 1.52143)
(1.52787 -0.0040152 0 1.39716 0 1.52592)
(1.53174 -0.00497044 0 1.35756 0 1.52837)
(1.53387 -0.00626612 0 1.31972 0 1.52904)
(1.53455 -0.00785242 0 1.2842 0 1.52829)
(1.53406 -0.00964021 0 1.25116 0 1.52643)
(1.53264 -0.0115473 0 1.22054 0 1.52374)
(1.53054 -0.0135135 0 1.19221 0 1.52044)
(1.52792 -0.0154951 0 1.166 0 1.51671)
(1.52492 -0.0174499 0 1.14173 0 1.51268)
(1.52167 -0.0193435 0 1.11924 0 1.50846)
(1.51827 -0.021144 0 1.09834 0 1.50414)
(1.51478 -0.0228287 0 1.07889 0 1.4998)
(1.5113 -0.0243997 0 1.06072 0 1.49549)
(1.50779 -0.025874 0 1.04374 0 1.49126)
(1.50412 -0.0273744 0 1.02774 0 1.48708)
(1.50947 -0.00245169 0 1.49948 0 1.5096)
(1.51437 -0.00306041 0 1.47721 0 1.51463)
(1.52005 -0.00262111 0 1.44726 0 1.51999)
(1.52514 -0.0024126 0 1.41403 0 1.5244)
(1.52896 -0.0025498 0 1.38048 0 1.52736)
(1.53147 -0.00301374 0 1.34789 0 1.52895)
(1.53282 -0.00377839 0 1.31688 0 1.52936)
(1.53318 -0.00477401 0 1.28767 0 1.5288)
(1.53273 -0.00592823 0 1.2603 0 1.52747)
(1.53163 -0.00718333 0 1.23473 0 1.52554)
(1.53003 -0.00849305 0 1.21085 0 1.52316)
(1.52806 -0.00981578 0 1.18855 0 1.52045)
(1.5258 -0.0111162 0 1.16772 0 1.51749)
(1.52334 -0.0123675 0 1.14823 0 1.51438)
(1.52076 -0.0135516 0 1.12997 0 1.51119)
(1.51811 -0.0146748 0 1.11283 0 1.50797)
(1.51539 -0.0157478 0 1.09674 0 1.50477)
(1.51233 -0.0168732 0 1.08176 0 1.50157)
(1.5095 -0.00209709 0 1.49944 0 1.50964)
(1.51385 -0.00272684 0 1.47947 0 1.51421)
(1.51865 -0.00217264 0 1.45409 0 1.51897)
(1.52312 -0.00160249 0 1.42589 0 1.52313)
(1.52672 -0.00126609 0 1.39699 0 1.52628)
(1.52936 -0.0012155 0 1.3685 0 1.52838)
(1.53108 -0.00144571 0 1.341 0 1.52953)
(1.53199 -0.00190432 0 1.3148 0 1.52985)
(1.5322 -0.00253063 0 1.28999 0 1.52948)
(1.53183 -0.00327267 0 1.26659 0 1.52856)
(1.531 -0.00408678 0 1.24455 0 1.5272)
(1.5298 -0.00493517 0 1.22381 0 1.5255)
(1.52831 -0.00578632 0 1.2043 0 1.52353)
(1.52661 -0.00661856 0 1.18594 0 1.52138)
(1.52474 -0.00741956 0 1.16864 0 1.51909)
(1.52273 -0.00819718 0 1.15235 0 1.51673)
(1.52052 -0.00897825 0 1.13706 0 1.51432)
(1.51792 -0.00980843 0 1.12289 0 1.51189)
(1.50947 -0.00168615 0 1.49956 0 1.50962)
(1.51335 -0.00234158 0 1.48147 0 1.51378)
(1.51743 -0.00181528 0 1.45962 0 1.518)
(1.52131 -0.00108473 0 1.43545 0 1.52182)
(1.52459 -0.000460768 0 1.41044 0 1.52492)
(1.52717 -5.19876e-05 0 1.38551 0 1.52723)
(1.52903 0.000118417 0 1.3612 0 1.52878)
(1.53023 7.95684e-05 0 1.3378 0 1.52964)
(1.53085 -0.000123999 0 1.31545 0 1.52991)
(1.53096 -0.000449298 0 1.29419 0 1.52968)
(1.53066 -0.000857918 0 1.27403 0 1.52904)
(1.53002 -0.00131662 0 1.25494 0 1.52808)
(1.5291 -0.00179821 0 1.23686 0 1.52685)
(1.52796 -0.00228473 0 1.21975 0 1.52543)
(1.52665 -0.00276688 0 1.20356 0 1.52386)
(1.52516 -0.00325097 0 1.18826 0 1.52219)
(1.52345 -0.00374937 0 1.17388 0 1.52044)
(1.52128 -0.00431913 0 1.16058 0 1.51864)
(1.50943 -0.00142224 0 1.49966 0 1.50959)
(1.51302 -0.00208073 0 1.4828 0 1.5135)
(1.51662 -0.00161989 0 1.46333 0 1.51733)
(1.52004 -0.000856356 0 1.44198 0 1.52085)
(1.52302 -0.000112682 0 1.41979 0 1.52383)
(1.52547 0.000474171 0 1.3975 0 1.5262)
(1.52735 0.000863215 0 1.37556 0 1.52795)
(1.5287 0.00106692 0 1.35427 0 1.52913)
(1.52955 0.0011173 0 1.33377 0 1.52979)
(1.52997 0.00104936 0 1.31413 0 1.53002)
(1.53002 0.000895885 0 1.29538 0 1.52988)
(1.52975 0.000685269 0 1.27752 0 1.52943)
(1.52923 0.000440238 0 1.26053 0 1.52872)
(1.52849 0.000175202 0 1.24437 0 1.52782)
(1.52756 -0.000103544 0 1.22903 0 1.52676)
(1.52643 -0.000401816 0 1.2145 0 1.52558)
(1.52503 -0.000736725 0 1.20084 0 1.5243)
(1.52319 -0.00112449 0 1.18819 0 1.52295)
(1.50937 -0.00114952 0 1.49984 0 1.50953)
(1.5127 -0.00177161 0 1.48405 0 1.51321)
(1.51588 -0.00138898 0 1.4665 0 1.51669)
(1.5189 -0.000648552 0 1.44749 0 1.51992)
(1.52159 0.000145001 0 1.4277 0 1.52274)
(1.52387 0.000841079 0 1.40768 0 1.52508)
(1.5257 0.00138439 0 1.38785 0 1.52692)
(1.5271 0.0017719 0 1.36846 0 1.52829)
(1.52808 0.00202311 0 1.34965 0 1.52922)
(1.5287 0.00216426 0 1.33153 0 1.52977)
(1.529 0.00222177 0 1.31413 0 1.52998)
(1.52901 0.00221902 0 1.29746 0 1.52991)
(1.52879 0.00217452 0 1.28153 0 1.52961)
(1.52835 0.00210031 0 1.26632 0 1.52911)
(1.52772 0.00200153 0 1.25184 0 1.52845)
(1.52688 0.00187652 0 1.23809 0 1.52767)
(1.52577 0.00171888 0 1.22514 0 1.52678)
(1.52423 0.00150122 0 1.21313 0 1.52579)
(1.50928 -0.000921654 0 1.50006 0 1.50945)
(1.51238 -0.00149037 0 1.48521 0 1.51292)
(1.51521 -0.00119339 0 1.46931 0 1.51611)
(1.51786 -0.000521386 0 1.45236 0 1.51906)
(1.52025 0.000255438 0 1.43473 0 1.52169)
(1.52233 0.000987009 0 1.41683 0 1.52395)
(1.52408 0.00160963 0 1.39897 0 1.52582)
(1.52547 0.00210824 0 1.38137 0 1.5273)
(1.52654 0.00249136 0 1.36417 0 1.52843)
(1.5273 0.00277671 0 1.34749 0 1.52923)
(1.52779 0.00298401 0 1.33136 0 1.52974)
(1.52803 0.00313119 0 1.31584 0 1.52999)
(1.52805 0.00323241 0 1.30092 0 1.53003)
(1.52787 0.00329639 0 1.28663 0 1.52988)
(1.5275 0.00332634 0 1.27297 0 1.52958)
(1.52691 0.00331953 0 1.25998 0 1.52914)
(1.52605 0.00326723 0 1.24772 0 1.5286)
(1.52482 0.00318067 0 1.23627 0 1.52796)
(1.50917 -0.000648954 0 1.50035 0 1.50933)
(1.51203 -0.00108464 0 1.48643 0 1.51259)
(1.51455 -0.000847054 0 1.47199 0 1.5155)
(1.51685 -0.000263874 0 1.45685 0 1.51817)
(1.51895 0.000454018 0 1.44118 0 1.52059)
(1.52081 0.00117499 0 1.42521 0 1.52273)
(1.52242 0.00183472 0 1.40918 0 1.52456)
(1.52377 0.00240976 0 1.39328 0 1.5261)
(1.52486 0.00289866 0 1.37764 0 1.52734)
(1.5257 0.00331026 0 1.36235 0 1.52831)
(1.52632 0.00365689 0 1.3475 0 1.52904)
(1.52672 0.00395079 0 1.33311 0 1.52954)
(1.52694 0.00420189 0 1.31922 0 1.52985)
(1.52696 0.00441724 0 1.30586 0 1.52998)
(1.5268 0.00460005 0 1.29304 0 1.52997)
(1.52643 0.00475037 0 1.28082 0 1.52983)
(1.52581 0.00486431 0 1.26924 0 1.52957)
(1.52485 0.00491281 0 1.25839 0 1.52921)
(1.50903 -0.00044544 0 1.50069 0 1.5092)
(1.51167 -0.000754457 0 1.48756 0 1.51225)
(1.51394 -0.000575337 0 1.47427 0 1.51494)
(1.51598 -0.000111066 0 1.46057 0 1.51739)
(1.51783 0.000487104 0 1.44647 0 1.51961)
(1.51949 0.00111538 0 1.43211 0 1.52161)
(1.52096 0.00171675 0 1.41764 0 1.52338)
(1.52223 0.00226547 0 1.40319 0 1.52491)
(1.52329 0.002754 0 1.38889 0 1.52621)
(1.52417 0.00318436 0 1.37484 0 1.52729)
(1.52486 0.00356255 0 1.36109 0 1.52816)
(1.52537 0.00389524 0 1.34771 0 1.52883)
(1.52571 0.00418809 0 1.33474 0 1.52933)
(1.52588 0.00444471 0 1.32221 0 1.52968)
(1.52589 0.00466693 0 1.31015 0 1.52989)
(1.52571 0.00485597 0 1.2986 0 1.52997)
(1.52531 0.00501232 0 1.2876 0 1.52995)
(1.52464 0.00516145 0 1.27722 0 1.52983)
(1.50889 -0.000176992 0 1.50104 0 1.50905)
(1.51133 -0.0002485 0 1.4886 0 1.51191)
(1.5134 -3.89894e-05 0 1.47619 0 1.51442)
(1.51523 0.000356368 0 1.46356 0 1.51669)
(1.51688 0.000855624 0 1.45065 0 1.51875)
(1.51838 0.00139653 0 1.43751 0 1.52063)
(1.51972 0.00194113 0 1.42423 0 1.52232)
(1.52091 0.00246947 0 1.41091 0 1.52382)
(1.52193 0.00297284 0 1.39767 0 1.52513)
(1.52281 0.00344902 0 1.38459 0 1.52626)
(1.52352 0.0038988 0 1.37173 0 1.5272)
(1.52409 0.00432398 0 1.35916 0 1.52798)
(1.52451 0.00472592 0 1.34693 0 1.5286)
(1.52477 0.0051051 0 1.33507 0 1.52908)
(1.52489 0.00546005 0 1.32362 0 1.52943)
(1.52483 0.0057867 0 1.31262 0 1.52966)
(1.52459 0.00607804 0 1.3021 0 1.52978)
(1.52415 0.00630542 0 1.29211 0 1.5298)
(1.50877 -1.40933e-05 0 1.50131 0 1.50894)
(1.51109 9.05432e-05 0 1.48931 0 1.51166)
(1.51305 0.00029328 0 1.47738 0 1.51406)
(1.51479 0.000566203 0 1.46532 0 1.51624)
(1.51635 0.000885427 0 1.45305 0 1.51822)
(1.51776 0.00123049 0 1.44058 0 1.52003)
(1.51904 0.00158712 0 1.42797 0 1.52167)
(1.52018 0.00194605 0 1.41531 0 1.52314)
(1.52119 0.00230146 0 1.40269 0 1.52445)
(1.52206 0.00264985 0 1.39018 0 1.52558)
(1.52279 0.00298898 0 1.37787 0 1.52656)
(1.5234 0.00331737 0 1.36579 0 1.52738)
(1.52387 0.00363397 0 1.354 0 1.52806)
(1.52421 0.00393836 0 1.34254 0 1.52861)
(1.52441 0.00423073 0 1.33145 0 1.52903)
(1.52448 0.00451407 0 1.32074 0 1.52934)
(1.52439 0.00479165 0 1.31046 0 1.52954)
(1.52412 0.00508727 0 1.30063 0 1.52964)
(1.50879 0.000334233 0 1.50125 0 1.50896)
(1.51113 0.000826524 0 1.48914 0 1.51171)
(1.51313 0.0011861 0 1.47709 0 1.51413)
(1.51489 0.00147588 0 1.46489 0 1.51633)
(1.51647 0.00174633 0 1.45247 0 1.51832)
(1.5179 0.00203017 0 1.43984 0 1.52013)
(1.51918 0.00234544 0 1.42709 0 1.52177)
(1.52031 0.00269932 0 1.4143 0 1.52323)
(1.5213 0.00309194 0 1.40155 0 1.52451)
(1.52214 0.00351941 0 1.38894 0 1.52562)
(1.52284 0.00397567 0 1.37652 0 1.52656)
(1.52341 0.0044536 0 1.36435 0 1.52734)
(1.52384 0.00494541 0 1.35247 0 1.52798)
(1.52415 0.00544277 0 1.34093 0 1.52848)
(1.52434 0.00593644 0 1.32973 0 1.52886)
(1.52442 0.0064152 0 1.3189 0 1.52913)
(1.5244 0.00686543 0 1.30845 0 1.52931)
(1.5243 0.00726081 0 1.29838 0 1.52942)
(1.50903 0.000517303 0 1.50077 0 1.50918)
(1.51171 0.00115914 0 1.48779 0 1.51221)
(1.514 0.00145174 0 1.47471 0 1.51487)
(1.51606 0.00155291 0 1.46129 0 1.51729)
(1.51794 0.00157978 0 1.44752 0 1.5195)
(1.51963 0.00160703 0 1.43351 0 1.52148)
(1.52114 0.00167559 0 1.41939 0 1.52323)
(1.52246 0.00180203 0 1.4053 0 1.52477)
(1.52359 0.00198809 0 1.39133 0 1.52608)
(1.52454 0.00222743 0 1.37759 0 1.52717)
(1.52532 0.00250972 0 1.36415 0 1.52806)
(1.52592 0.00282291 0 1.35104 0 1.52877)
(1.52637 0.00315481 0 1.33831 0 1.5293)
(1.52666 0.00349386 0 1.326 0 1.52967)
(1.52682 0.0038312 0 1.31412 0 1.5299)
(1.52682 0.00416178 0 1.30269 0 1.52999)
(1.52668 0.00448942 0 1.29173 0 1.52995)
(1.52637 0.00484018 0 1.28126 0 1.52978)
(1.50921 0.000884398 0 1.50031 0 1.50935)
(1.51221 0.00181499 0 1.48617 0 1.51268)
(1.51489 0.00213513 0 1.47147 0 1.51568)
(1.51736 0.00217433 0 1.45606 0 1.51842)
(1.5196 0.00213563 0 1.44014 0 1.52088)
(1.52158 0.00212992 0 1.42395 0 1.52304)
(1.5233 0.00221007 0 1.40771 0 1.5249)
(1.52475 0.00239144 0 1.39161 0 1.52644)
(1.52592 0.00266923 0 1.37579 0 1.52768)
(1.52684 0.00303022 0 1.36033 0 1.52864)
(1.52752 0.00345895 0 1.34531 0 1.52934)
(1.52799 0.00394082 0 1.33078 0 1.52981)
(1.52825 0.00446371 0 1.31676 0 1.53007)
(1.52833 0.00501908 0 1.30326 0 1.53014)
(1.52825 0.00560162 0 1.29031 0 1.53005)
(1.52803 0.00620916 0 1.27788 0 1.52983)
(1.5277 0.00683663 0 1.26597 0 1.52949)
(1.52734 0.00745888 0 1.25454 0 1.52909)
(1.50941 0.00115183 0 1.49989 0 1.50952)
(1.5128 0.00219538 0 1.48441 0 1.51317)
(1.51599 0.00242863 0 1.46746 0 1.51658)
(1.51901 0.00236625 0 1.44925 0 1.51971)
(1.52173 0.00226069 0 1.43034 0 1.52246)
(1.52408 0.00222948 0 1.41121 0 1.52477)
(1.52601 0.00232425 0 1.39223 0 1.52662)
(1.52754 0.00255435 0 1.37362 0 1.52803)
(1.52869 0.00290723 0 1.35554 0 1.52903)
(1.5295 0.00336297 0 1.33806 0 1.52967)
(1.53 0.00390039 0 1.32124 0 1.52999)
(1.53023 0.00449896 0 1.30508 0 1.53004)
(1.53024 0.00513931 0 1.2896 0 1.52986)
(1.53005 0.00580245 0 1.27479 0 1.52947)
(1.52969 0.00646947 0 1.26063 0 1.52892)
(1.5292 0.00711984 0 1.24711 0 1.52823)
(1.52857 0.00773795 0 1.23423 0 1.52742)
(1.52772 0.00833711 0 1.222 0 1.52645)
(1.50955 0.00172103 0 1.4995 0 1.50965)
(1.51348 0.00297681 0 1.48187 0 1.51378)
(1.5175 0.00321927 0 1.4612 0 1.51782)
(1.52131 0.00326902 0 1.43851 0 1.5215)
(1.52462 0.00340294 0 1.41501 0 1.52454)
(1.52731 0.00369995 0 1.39148 0 1.52689)
(1.52937 0.00417975 0 1.36839 0 1.52857)
(1.53083 0.00482418 0 1.34603 0 1.52963)
(1.53175 0.00559836 0 1.32454 0 1.53014)
(1.53221 0.0064684 0 1.30399 0 1.53018)
(1.53227 0.00740619 0 1.28441 0 1.52984)
(1.53199 0.00838875 0 1.2658 0 1.52916)
(1.53143 0.00939807 0 1.24812 0 1.52821)
(1.53061 0.0104219 0 1.23136 0 1.52704)
(1.52959 0.0114547 0 1.21549 0 1.52568)
(1.52838 0.012503 0 1.20047 0 1.52416)
(1.52702 0.0135824 0 1.18626 0 1.52252)
(1.52568 0.0146999 0 1.17278 0 1.52086)
(1.50958 0.002092 0 1.49945 0 1.50966)
(1.51414 0.00345473 0 1.47929 0 1.51426)
(1.51922 0.00385348 0 1.45346 0 1.51901)
(1.52395 0.00425827 0 1.42482 0 1.52311)
(1.52776 0.00484879 0 1.39561 0 1.52613)
(1.53055 0.00563245 0 1.36696 0 1.52805)
(1.53237 0.00661441 0 1.33941 0 1.52899)
(1.53335 0.0077713 0 1.31321 0 1.52909)
(1.5336 0.00905949 0 1.28842 0 1.52851)
(1.53327 0.0104397 0 1.26505 0 1.52737)
(1.53247 0.0118815 0 1.24302 0 1.5258)
(1.5313 0.0133611 0 1.22229 0 1.52389)
(1.52985 0.0148596 0 1.20277 0 1.52173)
(1.52817 0.0163614 0 1.18438 0 1.51938)
(1.52636 0.0178514 0 1.16704 0 1.51691)
(1.52445 0.019304 0 1.15068 0 1.51435)
(1.52255 0.0206764 0 1.13522 0 1.51178)
(1.52046 0.0219176 0 1.12066 0 1.50913)
(1.50975 0.00299426 0 1.49899 0 1.5098)
(1.51562 0.00467086 0 1.47379 0 1.51543)
(1.52242 0.00578387 0 1.43882 0 1.52123)
(1.52832 0.00735893 0 1.40041 0 1.52562)
(1.53251 0.00926577 0 1.36212 0 1.52815)
(1.53505 0.0113297 0 1.32533 0 1.52901)
(1.53618 0.0135078 0 1.29062 0 1.52851)
(1.53614 0.0157662 0 1.25816 0 1.52693)
(1.53518 0.0180527 0 1.22796 0 1.52453)
(1.53352 0.0203315 0 1.1999 0 1.52151)
(1.53133 0.0225828 0 1.17385 0 1.51805)
(1.52874 0.0247926 0 1.14966 0 1.51428)
(1.52587 0.0269492 0 1.12717 0 1.51029)
(1.52279 0.0290426 0 1.10624 0 1.50617)
(1.51955 0.0310627 0 1.08674 0 1.50196)
(1.51619 0.0330081 0 1.06859 0 1.49771)
(1.51262 0.0348941 0 1.0517 0 1.49339)
(1.50913 0.0368091 0 1.036 0 1.48916)
(1.50955 0.00334574 0 1.4994 0 1.50953)
(1.51696 0.00625474 0 1.46777 0 1.51608)
(1.52588 0.00941912 0 1.41962 0 1.52244)
(1.53251 0.0131351 0 1.36896 0 1.52578)
(1.53608 0.0169472 0 1.32081 0 1.52604)
(1.53708 0.0206645 0 1.2763 0 1.52395)
(1.53614 0.0243377 0 1.23552 0 1.52017)
(1.53378 0.0280004 0 1.19824 0 1.51521)
(1.53043 0.0316033 0 1.16418 0 1.50949)
(1.5264 0.0351113 0 1.13303 0 1.50328)
(1.52192 0.0385108 0 1.10447 0 1.4968)
(1.51717 0.0417942 0 1.07824 0 1.4902)
(1.51227 0.0449576 0 1.05408 0 1.48358)
(1.50733 0.0480033 0 1.03178 0 1.47702)
(1.50242 0.0509365 0 1.01116 0 1.47058)
(1.49761 0.0537665 0 0.992051 0 1.4643)
(1.49315 0.0564844 0 0.974254 0 1.45831)
(1.48892 0.0589252 0 0.957755 0 1.45262)
(1.51072 0.00497665 0 1.49654 0 1.51053)
(1.52207 0.0113458 0 1.44806 0 1.51931)
(1.53419 0.0199295 0 1.37296 0 1.52521)
(1.54097 0.0285689 0 1.29833 0 1.52508)
(1.54243 0.0362459 0 1.23088 0 1.52025)
(1.54 0.0428621 0 1.17117 0 1.51234)
(1.53503 0.0487548 0 1.11854 0 1.50255)
(1.52857 0.0542074 0 1.07212 0 1.49179)
(1.52123 0.059259 0 1.03112 0 1.48063)
(1.51342 0.0639574 0 0.994727 0 1.4694)
(1.50545 0.0683532 0 0.96226 0 1.45832)
(1.49752 0.0724795 0 0.933151 0 1.44755)
(1.48972 0.076357 0 0.906926 0 1.43714)
(1.48218 0.0800092 0 0.883204 0 1.42716)
(1.47486 0.0834404 0 0.861643 0 1.41759)
(1.46789 0.0866639 0 0.842004 0 1.4085)
(1.4608 0.0896274 0 0.823983 0 1.39961)
(1.45388 0.0924147 0 0.807773 0 1.39121)
(1.50985 0.00579267 0 1.49843 0 1.50915)
(1.52695 0.0254793 0 1.42428 0 1.5175)
(1.54205 0.0456239 0 1.31348 0 1.51586)
(1.54568 0.0605886 0 1.21737 0 1.50429)
(1.54104 0.0721966 0 1.13755 0 1.48739)
(1.53133 0.0816068 0 1.07063 0 1.46796)
(1.51921 0.0898306 0 1.01361 0 1.44776)
(1.50652 0.0974094 0 0.964598 0 1.4281)
(1.49377 0.104325 0 0.922176 0 1.40931)
(1.48134 0.110645 0 0.885123 0 1.39157)
(1.46942 0.116447 0 0.852505 0 1.3749)
(1.45817 0.1218 0 0.823589 0 1.35934)
(1.44756 0.12674 0 0.79777 0 1.34477)
(1.43769 0.131323 0 0.774616 0 1.33124)
(1.42845 0.135594 0 0.753668 0 1.31855)
(1.41987 0.139557 0 0.734793 0 1.30682)
(1.41211 0.143412 0 0.717382 0 1.29576)
(1.40577 0.146727 0 0.702226 0 1.28624)
(1.5189 0.0284581 0 1.47294 0 1.51483)
(1.5634 0.112014 0 1.26339 0 1.5187)
(1.58322 0.161038 0 1.03772 0 1.48715)
(1.57567 0.181973 0 0.887065 0 1.44363)
(1.55683 0.192581 0 0.7844 0 1.39973)
(1.53313 0.198872 0 0.711492 0 1.35826)
(1.51042 0.204103 0 0.657332 0 1.32169)
(1.4909 0.209183 0 0.615953 0 1.29073)
(1.47354 0.213977 0 0.583064 0 1.26373)
(1.45809 0.218437 0 0.556207 0 1.23993)
(1.44422 0.222536 0 0.533852 0 1.21871)
(1.43205 0.226335 0 0.514962 0 1.19986)
(1.42109 0.229825 0 0.498738 0 1.1828)
(1.41165 0.233061 0 0.484723 0 1.16765)
(1.40298 0.236059 0 0.472429 0 1.15369)
(1.39576 0.238823 0 0.461646 0 1.14139)
(1.38874 0.241451 0 0.452072 0 1.12975)
(1.38187 0.243661 0 0.443323 0 1.11895)
(1.59274 0.291964 0 1.39581 0 1.52093)
(1.91623 0.578695 0 0.968061 0 1.53309)
(2.06904 0.585627 0 0.732305 0 1.48899)
(2.10353 0.552954 0 0.628166 0 1.43529)
(2.09256 0.52559 0 0.573908 0 1.38572)
(2.06469 0.505451 0 0.540737 0 1.34257)
(2.03084 0.489958 0 0.517677 0 1.30528)
(1.99595 0.477423 0 0.500097 0 1.27296)
(1.96236 0.466906 0 0.485815 0 1.24466)
(1.93089 0.457815 0 0.473762 0 1.21963)
(1.90175 0.449802 0 0.463354 0 1.19731)
(1.87483 0.442644 0 0.454219 0 1.17724)
(1.8501 0.436202 0 0.446117 0 1.15913)
(1.82723 0.430359 0 0.43886 0 1.14265)
(1.80633 0.425028 0 0.432319 0 1.12769)
(1.78675 0.420173 0 0.426405 0 1.1139)
(1.76908 0.415624 0 0.420965 0 1.10141)
(1.75203 0.411408 0 0.416108 0 1.08963)
(0.00791537 0.00254385 0 0.027543 0 0.0229723)
(0.0217002 9.44549e-05 0 0.0442487 0 0.0520234)
(0.0372611 -0.00137139 0 0.0580458 0 0.0754211)
(0.0495887 -0.00533996 0 0.0648477 0 0.088377)
(0.0606536 -0.00938832 0 0.0690055 0 0.0976712)
(0.0707701 -0.0117959 0 0.0692477 0 0.104149)
(0.0797362 -0.0133025 0 0.0684012 0 0.108867)
(0.0874503 -0.0144262 0 0.067082 0 0.112224)
(0.0941922 -0.0153719 0 0.0657451 0 0.11472)
(0.100124 -0.0162967 0 0.064412 0 0.116571)
(0.105452 -0.0172582 0 0.0631323 0 0.117985)
(0.110311 -0.0182826 0 0.0618638 0 0.119072)
(0.114836 -0.0193601 0 0.0605972 0 0.119932)
(0.119116 -0.0204703 0 0.0593122 0 0.120622)
(0.123221 -0.0215868 0 0.0580075 0 0.12119)
(0.12718 -0.0226828 0 0.0566809 0 0.121655)
(0.131044 -0.0237404 0 0.055341 0 0.122044)
(0.134749 -0.0247314 0 0.0539919 0 0.122347)
(0.138509 -0.0256641 0 0.0526231 0 0.122598)
(0.141424 -0.0261085 0 0.0513045 0 0.1227)
(0.144701 -0.026211 0 0.0491946 0 0.122123)
(0.146065 -0.0262151 0 0.0480549 0 0.121679)
(0.147291 -0.0261115 0 0.04666 0 0.120943)
(0.148126 -0.0258585 0 0.045005 0 0.119732)
(0.148218 -0.0254409 0 0.0432745 0 0.118028)
(0.147514 -0.0248054 0 0.0415482 0 0.115896)
(0.145914 -0.0240116 0 0.0397627 0 0.113233)
(0.14335 -0.0230477 0 0.037874 0 0.10997)
(0.13984 -0.0219291 0 0.0358868 0 0.106121)
(0.135399 -0.0206898 0 0.033767 0 0.101631)
(0.130037 -0.0192598 0 0.031549 0 0.0965817)
(0.123401 -0.0176291 0 0.0291886 0 0.0907424)
(0.115105 -0.0157972 0 0.0266499 0 0.083868)
(0.104844 -0.0138212 0 0.023923 0 0.0758064)
(0.0928213 -0.0118132 0 0.0210649 0 0.0667449)
(0.0782513 -0.00990957 0 0.0179857 0 0.0561989)
(0.067165 -0.00792655 0 0.015088 0 0.0478876)
(0.0603131 -0.00589015 0 0.0126758 0 0.042326)
(0.0570269 -0.00400238 0 0.0109707 0 0.0392399)
(0.0564188 -0.00236508 0 0.00996321 0 0.0381392)
(0.0570419 -0.00167903 0 0.00969028 0 0.0383103)
(0.0579132 -0.00130597 0 0.00961986 0 0.0388325)
(0.0570062 -0.00135182 0 0.00953721 0 0.0383864)
(0.053675 -0.00131539 0 0.00924381 0 0.0365754)
(0.0487886 -0.000763162 0 0.00887229 0 0.0341662)
(0.0475439 0.000169438 0 0.00932858 0 0.0346171)
(0.0540689 0.00177598 0 0.0111308 0 0.0401146)
(0.0651943 0.00388996 0 0.014079 0 0.0487919)
(0.0792818 0.00617927 0 0.0177821 0 0.0595228)
(0.0961392 0.00854451 0 0.0220089 0 0.0721398)
(0.116127 0.0109802 0 0.0266339 0 0.0868769)
(0.140677 0.0135568 0 0.0315195 0 0.104633)
(0.162382 0.0162781 0 0.0359778 0 0.120306)
(0.182104 0.019048 0 0.0401966 0 0.134586)
(0.20005 0.0217207 0 0.0441835 0 0.147647)
(0.216638 0.0242642 0 0.0479728 0 0.159743)
(0.23208 0.0266685 0 0.0515688 0 0.171005)
(0.246546 0.0289293 0 0.0549817 0 0.181544)
(0.260175 0.0310551 0 0.0582246 0 0.191457)
(0.273084 0.0330566 0 0.0613122 0 0.200827)
(0.285383 0.034947 0 0.0642616 0 0.209738)
(0.297197 0.0367366 0 0.0670909 0 0.218284)
(0.308586 0.0384346 0 0.0698111 0 0.22651)
(0.319581 0.0400513 0 0.0724323 0 0.234443)
(0.330211 0.0415968 0 0.074964 0 0.242105)
(0.340501 0.04308 0 0.0774161 0 0.249519)
(0.350476 0.044509 0 0.0797974 0 0.256703)
(0.36016 0.0458907 0 0.0821162 0 0.263677)
(0.369573 0.0472312 0 0.0843799 0 0.270457)
(0.378734 0.0485357 0 0.0865951 0 0.277058)
(0.387662 0.0498086 0 0.0887674 0 0.283494)
(0.396371 0.0510538 0 0.090902 0 0.289776)
(0.404878 0.052275 0 0.0930039 0 0.295917)
(0.413203 0.0534753 0 0.0950778 0 0.301933)
(0.421378 0.0546557 0 0.0971292 0 0.307848)
(0.429423 0.0558166 0 0.0991608 0 0.313675)
(0.437348 0.0569583 0 0.101174 0 0.319424)
(0.445162 0.0580812 0 0.103171 0 0.325101)
(0.45287 0.0591851 0 0.105152 0 0.330709)
(0.460476 0.0602698 0 0.107117 0 0.336253)
(0.467978 0.0613346 0 0.109066 0 0.341732)
(0.475376 0.0623781 0 0.110998 0 0.347147)
(0.482664 0.0633986 0 0.112911 0 0.352494)
(0.48983 0.0643935 0 0.114803 0 0.35777)
(0.496859 0.065359 0 0.11667 0 0.362965)
(0.503723 0.0662905 0 0.118506 0 0.368066)
(0.510381 0.0671806 0 0.120305 0 0.373055)
(0.516767 0.0680144 0 0.122056 0 0.377903)
(0.522786 0.0687507 0 0.123749 0 0.382575)
(0.528298 0.0692635 0 0.12537 0 0.38703)
(0.533665 0.0696934 0 0.126987 0 0.391433)
(0.538979 0.0701227 0 0.128611 0 0.395812)
(0.544183 0.0705211 0 0.130237 0 0.400146)
(0.549307 0.0708893 0 0.131873 0 0.404455)
(0.554347 0.071217 0 0.133518 0 0.408735)
(0.559321 0.0715054 0 0.135177 0 0.412992)
(0.564253 0.0717712 0 0.136856 0 0.417228)
(0.569193 0.0720541 0 0.138573 0 0.421459)
(0.574056 0.0723299 0 0.140317 0 0.425663)
(0.578793 0.0725614 0 0.142074 0 0.429827)
(0.583433 0.0727455 0 0.143847 0 0.433966)
(0.587945 0.072875 0 0.145631 0 0.438066)
(0.59233 0.0729492 0 0.147428 0 0.442126)
(0.596572 0.0729662 0 0.149239 0 0.446141)
(0.60066 0.0729201 0 0.151067 0 0.450102)
(0.604574 0.0727994 0 0.152906 0 0.453993)
(0.608272 0.0725936 0 0.154741 0 0.457787)
(0.611736 0.0722989 0 0.156564 0 0.461467)
(0.614931 0.0719119 0 0.158368 0 0.465007)
(0.617827 0.0714337 0 0.160146 0 0.468383)
(0.620383 0.0708671 0 0.161888 0 0.471561)
(0.622559 0.0702166 0 0.163589 0 0.474513)
(0.624357 0.0694783 0 0.16525 0 0.477248)
(0.62585 0.0686313 0 0.16688 0 0.479825)
(0.627041 0.0676722 0 0.168477 0 0.482241)
(0.627931 0.0665979 0 0.17004 0 0.484497)
(0.628517 0.0654064 0 0.171566 0 0.486588)
(0.6288 0.0640954 0 0.173054 0 0.488515)
(0.62878 0.0626613 0 0.174504 0 0.490281)
(0.628455 0.0610967 0 0.175921 0 0.491894)
(0.62782 0.0593799 0 0.177318 0 0.493367)
(0.626915 0.057455 0 0.178716 0 0.494715)
(0.625862 0.055488 0 0.180011 0 0.495862)
(0.624803 0.0534461 0 0.181232 0 0.496865)
(0.623718 0.0514905 0 0.182309 0 0.497681)
(0.622426 0.0494988 0 0.183323 0 0.498368)
(0.619758 0.0465893 0 0.184657 0 0.499097)
(0.617981 0.0441023 0 0.185702 0 0.499592)
(0.615715 0.041404 0 0.186708 0 0.499928)
(0.613422 0.0386166 0 0.187674 0 0.500169)
(0.610971 0.0357112 0 0.188584 0 0.500279)
(0.608436 0.0327026 0 0.189446 0 0.500286)
(0.605815 0.0295892 0 0.190258 0 0.500188)
(0.60315 0.0263742 0 0.191025 0 0.499999)
(0.600427 0.0230856 0 0.191712 0 0.499679)
(0.597641 0.0197507 0 0.192298 0 0.499215)
(0.594836 0.0163424 0 0.19284 0 0.498678)
(0.592061 0.012825 0 0.19339 0 0.498126)
(0.589351 0.00923707 0 0.193909 0 0.497524)
(0.586684 0.00559099 0 0.194377 0 0.496851)
(0.584073 0.00189571 0 0.194797 0 0.496114)
(0.581531 -0.00184507 0 0.195177 0 0.495321)
(0.579076 -0.00563085 0 0.195522 0 0.49448)
(0.576725 -0.00945951 0 0.195837 0 0.4936)
(0.574493 -0.0133283 0 0.196124 0 0.492685)
(0.57239 -0.0172345 0 0.196387 0 0.491741)
(0.570435 -0.0211756 0 0.19663 0 0.490772)
(0.56864 -0.0251493 0 0.196856 0 0.489786)
(0.567013 -0.0291524 0 0.197068 0 0.488782)
(0.565562 -0.0331837 0 0.197271 0 0.487762)
(0.564293 -0.0372458 0 0.197471 0 0.486723)
(0.563213 -0.0413544 0 0.197674 0 0.485663)
(0.562353 -0.0455228 0 0.197883 0 0.4846)
(0.561839 -0.0498071 0 0.198146 0 0.483586)
(0.561729 -0.0544128 0 0.198608 0 0.482755)
(0.562868 -0.0599177 0 0.199121 0 0.482688)
(0.565389 -0.0651828 0 0.199368 0 0.483437)
(0.56848 -0.0699602 0 0.199481 0 0.484277)
(0.571616 -0.0744642 0 0.199485 0 0.484915)
(0.575213 -0.0790826 0 0.199474 0 0.485513)
(0.576722 -0.0810891 0 0.197541 0 0.48485)
(0.577801 -0.0830231 0 0.195421 0 0.483615)