/*--------------------------------*- C++ -*----------------------------------*\
| =========                 |                                                 |
| \\      /  F ield         | OpenFOAM: The Open Source CFD Toolbox           |
|  \\    /   O peration     | Version:  v1906                                 |
|   \\  /    A nd           | Web:      www.OpenFOAM.com                      |
|    \\/     M anipulation  |                                                 |
\*---------------------------------------------------------------------------*/
FoamFile
{
    version     2.0;
    format      ascii;
    class       volVectorField;
    location    "1566";
    object      U;
}
// * * * * * * * * * * * * * * * * * * * * * * * * * * * * * * * * * * * * * //

dimensions      [0 1 -1 0 0 0 0];


internalField   nonuniform List<vector> 
12225
(
(9.79726 -0.108749 0)
(9.50669 -0.356752 0)
(9.26435 -0.488264 0)
(9.06591 -0.540808 0)
(8.90291 -0.559431 0)
(8.76175 -0.565099 0)
(8.63551 -0.565524 0)
(8.52213 -0.563488 0)
(8.42022 -0.560068 0)
(8.32837 -0.555839 0)
(8.24553 -0.550893 0)
(8.16956 -0.545238 0)
(8.10015 -0.539351 0)
(8.03701 -0.533485 0)
(7.98068 -0.527832 0)
(7.93219 -0.523731 0)
(7.89244 -0.515962 0)
(7.86809 -0.536036 0)
(10.0492 0.150443 0)
(10.0911 0.25975 0)
(10.0684 0.319251 0)
(10.0256 0.36333 0)
(9.98275 0.392943 0)
(9.93996 0.411585 0)
(9.89714 0.423533 0)
(9.8556 0.431333 0)
(9.81595 0.436179 0)
(9.77796 0.438933 0)
(9.74184 0.440191 0)
(9.70764 0.440401 0)
(9.67548 0.439627 0)
(9.64506 0.438135 0)
(9.61655 0.435451 0)
(9.58889 0.432844 0)
(9.56479 0.425438 0)
(9.53867 0.421964 0)
(10.0166 0.00775875 0)
(10.0499 -0.0105766 0)
(10.0415 -0.0528607 0)
(10.0182 -0.0930349 0)
(9.99666 -0.127435 0)
(9.97696 -0.155794 0)
(9.95808 -0.178096 0)
(9.94029 -0.195456 0)
(9.92363 -0.209214 0)
(9.90787 -0.22037 0)
(9.89284 -0.229434 0)
(9.87876 -0.236871 0)
(9.8655 -0.243065 0)
(9.85345 -0.248655 0)
(9.842 -0.253725 0)
(9.83188 -0.259624 0)
(9.82249 -0.265364 0)
(9.80618 -0.279567 0)
(10.0096 0.0582942 0)
(10.039 0.0976402 0)
(10.0507 0.115027 0)
(10.0511 0.134101 0)
(10.0492 0.15298 0)
(10.0452 0.169414 0)
(10.0393 0.183408 0)
(10.0325 0.195197 0)
(10.0254 0.204967 0)
(10.0182 0.213019 0)
(10.011 0.219712 0)
(10.0041 0.225295 0)
(9.99762 0.229858 0)
(9.99171 0.233408 0)
(9.98627 0.235982 0)
(9.98145 0.237258 0)
(9.97706 0.237333 0)
(9.97434 0.234729 0)
(10.0094 0.0199277 0)
(10.0406 0.0291307 0)
(10.0562 0.0220042 0)
(10.0605 0.0109656 0)
(10.0618 -0.00221952 0)
(10.0614 -0.0166216 0)
(10.0597 -0.0305738 0)
(10.0576 -0.043311 0)
(10.0553 -0.0548095 0)
(10.053 -0.0651813 0)
(10.0506 -0.074526 0)
(10.0484 -0.082996 0)
(10.0463 -0.0908127 0)
(10.0445 -0.0982766 0)
(10.043 -0.105594 0)
(10.0411 -0.113373 0)
(10.0398 -0.121225 0)
(10.0326 -0.131677 0)
(10.0058 0.0332879 0)
(10.0286 0.0620121 0)
(10.045 0.0731158 0)
(10.0548 0.0811958 0)
(10.0625 0.0887493 0)
(10.0683 0.0958008 0)
(10.0725 0.102679 0)
(10.0755 0.109335 0)
(10.0779 0.11554 0)
(10.0797 0.121187 0)
(10.0813 0.126279 0)
(10.0826 0.130818 0)
(10.0839 0.134773 0)
(10.0852 0.138043 0)
(10.0866 0.140613 0)
(10.0878 0.142234 0)
(10.0888 0.143079 0)
(10.0916 0.143124 0)
(10.0046 0.0160029 0)
(10.0242 0.0297662 0)
(10.04 0.0320538 0)
(10.0498 0.0302282 0)
(10.057 0.0259433 0)
(10.0623 0.0198001 0)
(10.0661 0.0128173 0)
(10.0692 0.00561868 0)
(10.0718 -0.00155386 0)
(10.0742 -0.00857507 0)
(10.0763 -0.0153708 0)
(10.0784 -0.021947 0)
(10.0804 -0.0283729 0)
(10.0823 -0.0347944 0)
(10.0841 -0.0412715 0)
(10.0854 -0.0481047 0)
(10.0864 -0.0548888 0)
(10.0839 -0.0630015 0)
(10.0032 0.0203297 0)
(10.0185 0.0433597 0)
(10.0327 0.0543035 0)
(10.0435 0.0607844 0)
(10.0529 0.0653566 0)
(10.0608 0.0689267 0)
(10.0676 0.0722127 0)
(10.0735 0.0754609 0)
(10.0787 0.0786408 0)
(10.0836 0.0816925 0)
(10.088 0.084573 0)
(10.0922 0.0872274 0)
(10.0962 0.089593 0)
(10.1 0.0915763 0)
(10.1036 0.0931449 0)
(10.1071 0.0941998 0)
(10.1102 0.0947871 0)
(10.1147 0.0954993 0)
(10.0019 0.0115388 0)
(10.0136 0.024788 0)
(10.0264 0.030106 0)
(10.0364 0.0316303 0)
(10.0451 0.0307843 0)
(10.0522 0.0282461 0)
(10.0582 0.0247251 0)
(10.0633 0.0206487 0)
(10.0679 0.0162293 0)
(10.0721 0.011599 0)
(10.076 0.00684344 0)
(10.0797 0.00199208 0)
(10.0832 -0.00295989 0)
(10.0864 -0.00806591 0)
(10.0894 -0.0133203 0)
(10.0918 -0.0188324 0)
(10.0937 -0.0243302 0)
(10.0933 -0.0306839 0)
(10.0017 0.0127318 0)
(10.0116 0.0307213 0)
(10.023 0.0410059 0)
(10.0329 0.0472597 0)
(10.0421 0.0512195 0)
(10.0504 0.0538544 0)
(10.0578 0.0558844 0)
(10.0645 0.0576634 0)
(10.0707 0.0593173 0)
(10.0766 0.0608849 0)
(10.082 0.0623685 0)
(10.0872 0.063741 0)
(10.0921 0.0649668 0)
(10.0968 0.0659944 0)
(10.1012 0.0668127 0)
(10.1054 0.0674093 0)
(10.1093 0.0678053 0)
(10.1142 0.068685 0)
(10.0007 0.00803355 0)
(10.0075 0.0191822 0)
(10.0171 0.0250083 0)
(10.0261 0.0277348 0)
(10.0345 0.0283287 0)
(10.042 0.0274259 0)
(10.0486 0.0255656 0)
(10.0546 0.023075 0)
(10.0601 0.02014 0)
(10.0651 0.0168775 0)
(10.0698 0.0133621 0)
(10.0741 0.00963074 0)
(10.0782 0.00570209 0)
(10.082 0.00156951 0)
(10.0854 -0.00274296 0)
(10.0883 -0.00727586 0)
(10.0907 -0.0118594 0)
(10.0917 -0.0171115 0)
(10.0008 0.0081852 0)
(10.0074 0.0215018 0)
(10.0162 0.0300871 0)
(10.0248 0.0356616 0)
(10.0331 0.0391618 0)
(10.041 0.0413425 0)
(10.0482 0.0427685 0)
(10.055 0.0437737 0)
(10.0614 0.0445367 0)
(10.0673 0.0451503 0)
(10.073 0.0456599 0)
(10.0783 0.0460774 0)
(10.0833 0.0464049 0)
(10.0881 0.0466308 0)
(10.0925 0.0467742 0)
(10.0968 0.0468589 0)
(10.1007 0.0469162 0)
(10.1051 0.0475631 0)
(10.0002 0.00573526 0)
(10.0046 0.0146202 0)
(10.0119 0.0198724 0)
(10.0195 0.0227945 0)
(10.0271 0.0239093 0)
(10.0343 0.0237517 0)
(10.0411 0.0227184 0)
(10.0473 0.0210695 0)
(10.0531 0.0189679 0)
(10.0584 0.0165163 0)
(10.0634 0.0137809 0)
(10.0681 0.0108006 0)
(10.0725 0.00760056 0)
(10.0765 0.00419688 0)
(10.0801 0.000605616 0)
(10.0833 -0.00317304 0)
(10.0861 -0.0070802 0)
(10.0882 -0.0116187 0)
(10.0005 0.00538709 0)
(10.005 0.0151717 0)
(10.0118 0.022224 0)
(10.019 0.0272921 0)
(10.0264 0.0307579 0)
(10.0337 0.0331366 0)
(10.0407 0.0348221 0)
(10.0474 0.0360837 0)
(10.0537 0.0370945 0)
(10.0597 0.0379598 0)
(10.0653 0.0387428 0)
(10.0707 0.0394775 0)
(10.0758 0.040188 0)
(10.0805 0.0408872 0)
(10.085 0.0416077 0)
(10.0893 0.0423951 0)
(10.0932 0.0432464 0)
(10.0971 0.0447573 0)
(10.0001 0.00340752 0)
(10.0028 0.00899219 0)
(10.008 0.012413 0)
(10.0141 0.0142877 0)
(10.0207 0.0148432 0)
(10.0273 0.0144046 0)
(10.0338 0.0132183 0)
(10.0399 0.0114574 0)
(10.0457 0.00924145 0)
(10.0512 0.00665025 0)
(10.0564 0.00373681 0)
(10.0612 0.000538287 0)
(10.0657 -0.00292285 0)
(10.0699 -0.00662399 0)
(10.0738 -0.0105605 0)
(10.0773 -0.0147274 0)
(10.0806 -0.0190641 0)
(10.0836 -0.024016 0)
(10.0002 0.00303055 0)
(10.0031 0.00894702 0)
(10.008 0.0137668 0)
(10.0137 0.0176674 0)
(10.0199 0.0207366 0)
(10.0262 0.0231956 0)
(10.0325 0.0252475 0)
(10.0385 0.0270507 0)
(10.0443 0.0287243 0)
(10.0498 0.0303512 0)
(10.055 0.0319889 0)
(10.0599 0.0336752 0)
(10.0645 0.0354397 0)
(10.0687 0.0373008 0)
(10.0726 0.0392807 0)
(10.0762 0.0414127 0)
(10.0795 0.0436163 0)
(10.0822 0.0464126 0)
(10.0001 0.00101073 0)
(10.0022 0.00249956 0)
(10.0063 0.00299668 0)
(10.0115 0.00269585 0)
(10.0174 0.00166592 0)
(10.0236 1.80743e-05 0)
(10.0298 -0.00215109 0)
(10.036 -0.00477245 0)
(10.0421 -0.00779458 0)
(10.048 -0.0111794 0)
(10.0537 -0.0148991 0)
(10.0591 -0.0189288 0)
(10.0642 -0.0232495 0)
(10.0691 -0.0278352 0)
(10.0738 -0.0326633 0)
(10.0783 -0.0377091 0)
(10.0825 -0.0428495 0)
(10.0868 -0.0484633 0)
(10 0.000970982 0)
(10.0016 0.00308121 0)
(10.0049 0.00526869 0)
(10.0091 0.00753064 0)
(10.0139 0.00984675 0)
(10.0188 0.012242 0)
(10.0237 0.0147499 0)
(10.0284 0.0174011 0)
(10.0328 0.0202223 0)
(10.0369 0.0232337 0)
(10.0407 0.0264479 0)
(10.0441 0.0298712 0)
(10.0471 0.0335022 0)
(10.0497 0.0373365 0)
(10.052 0.0413471 0)
(10.0538 0.0455406 0)
(10.0555 0.0497469 0)
(10.0566 0.0544093 0)
(10.0003 -0.00191215 0)
(10.0031 -0.00587985 0)
(10.008 -0.00981269 0)
(10.0139 -0.0136888 0)
(10.0206 -0.0175685 0)
(10.0277 -0.0215263 0)
(10.0352 -0.0256368 0)
(10.0427 -0.0299617 0)
(10.0502 -0.034544 0)
(10.0577 -0.0394097 0)
(10.0652 -0.0445708 0)
(10.0725 -0.0500285 0)
(10.0796 -0.0557763 0)
(10.0865 -0.0617995 0)
(10.0932 -0.0680755 0)
(10.0997 -0.0745824 0)
(10.1057 -0.0812247 0)
(10.1116 -0.0881749 0)
(9.99985 -0.0021061 0)
(10.0009 -0.0053673 0)
(10.0038 -0.00723998 0)
(10.0075 -0.00801232 0)
(10.0116 -0.00788107 0)
(10.0156 -0.00699989 0)
(10.0194 -0.00550801 0)
(10.0227 -0.00351543 0)
(10.0256 -0.00110451 0)
(10.0281 0.00166383 0)
(10.03 0.00474731 0)
(10.0315 0.00812022 0)
(10.0325 0.011777 0)
(10.0332 0.0157239 0)
(10.0334 0.0199954 0)
(10.0333 0.0246257 0)
(10.0333 0.0296416 0)
(10.0328 0.035303 0)
(10.0006 -0.00470487 0)
(10.005 -0.0136685 0)
(10.0115 -0.0209129 0)
(10.0187 -0.0267505 0)
(10.0264 -0.0315918 0)
(10.0342 -0.0357929 0)
(10.042 -0.0396573 0)
(10.0496 -0.0433943 0)
(10.0572 -0.0471244 0)
(10.0645 -0.0509099 0)
(10.0717 -0.0547795 0)
(10.0787 -0.0587453 0)
(10.0856 -0.0628189 0)
(10.0925 -0.0670197 0)
(10.0993 -0.0713983 0)
(10.1062 -0.0760294 0)
(10.1129 -0.0810215 0)
(10.1201 -0.0867341 0)
(9.99993 -0.00474586 0)
(10.0025 -0.0119564 0)
(10.0076 -0.0160131 0)
(10.0131 -0.0178334 0)
(10.0182 -0.0179611 0)
(10.0228 -0.0167491 0)
(10.0266 -0.0145388 0)
(10.0298 -0.0116147 0)
(10.0324 -0.00818702 0)
(10.0345 -0.00441549 0)
(10.0361 -0.00042383 0)
(10.0372 0.00369711 0)
(10.0379 0.00789015 0)
(10.0381 0.0121313 0)
(10.0378 0.016451 0)
(10.0366 0.0209377 0)
(10.0351 0.0257719 0)
(10.0319 0.031504 0)
(10.0012 -0.00957431 0)
(10.0087 -0.0254408 0)
(10.0184 -0.0362072 0)
(10.0277 -0.0439573 0)
(10.0367 -0.0500979 0)
(10.0454 -0.0553826 0)
(10.0536 -0.0603208 0)
(10.0614 -0.0651827 0)
(10.0686 -0.0700434 0)
(10.0755 -0.0748912 0)
(10.082 -0.0796887 0)
(10.0882 -0.0843926 0)
(10.0942 -0.0889614 0)
(10.1001 -0.0933673 0)
(10.1061 -0.0976162 0)
(10.1127 -0.101777 0)
(10.1196 -0.106046 0)
(10.1288 -0.111101 0)
(10.0009 -0.00810141 0)
(10.0084 -0.0182471 0)
(10.0179 -0.0220131 0)
(10.0253 -0.0220593 0)
(10.031 -0.0195828 0)
(10.0353 -0.0151538 0)
(10.0385 -0.00946063 0)
(10.0409 -0.00308971 0)
(10.0427 0.00358648 0)
(10.0441 0.0103204 0)
(10.0451 0.0169326 0)
(10.0458 0.0232986 0)
(10.0463 0.0293331 0)
(10.0463 0.0349757 0)
(10.0459 0.0401912 0)
(10.0445 0.0449933 0)
(10.0421 0.0495404 0)
(10.0359 0.0546318 0)
(10.0027 -0.0199659 0)
(10.0162 -0.0448957 0)
(10.0301 -0.0584707 0)
(10.0411 -0.0683333 0)
(10.0508 -0.0773007 0)
(10.0594 -0.0859064 0)
(10.0667 -0.0944118 0)
(10.073 -0.102848 0)
(10.0785 -0.111038 0)
(10.0833 -0.118817 0)
(10.0876 -0.126101 0)
(10.0915 -0.13285 0)
(10.095 -0.139038 0)
(10.0983 -0.144644 0)
(10.1016 -0.149627 0)
(10.1055 -0.15395 0)
(10.1101 -0.157607 0)
(10.1196 -0.161161 0)
(10.0045 -0.0117393 0)
(10.0233 -0.021005 0)
(10.037 -0.0181289 0)
(10.043 -0.0098894 0)
(10.0456 0.00146054 0)
(10.0467 0.0147786 0)
(10.0467 0.0285406 0)
(10.046 0.0417466 0)
(10.0452 0.0540171 0)
(10.0443 0.0652431 0)
(10.0433 0.0754033 0)
(10.0422 0.0845245 0)
(10.041 0.0926583 0)
(10.0396 0.0998532 0)
(10.0381 0.106121 0)
(10.0358 0.111423 0)
(10.0329 0.115687 0)
(10.0238 0.119395 0)
(10.0057 -0.0439034 0)
(10.0279 -0.0818165 0)
(10.0434 -0.101285 0)
(10.051 -0.120668 0)
(10.0557 -0.140537 0)
(10.0584 -0.158884 0)
(10.059 -0.175284 0)
(10.0582 -0.189754 0)
(10.0566 -0.202265 0)
(10.0545 -0.212938 0)
(10.0521 -0.222002 0)
(10.0494 -0.229683 0)
(10.0466 -0.236164 0)
(10.0438 -0.241601 0)
(10.041 -0.246082 0)
(10.0387 -0.249636 0)
(10.0367 -0.252082 0)
(10.0416 -0.253161 0)
(10.0127 -0.00410129 0)
(10.0433 0.00727098 0)
(10.0436 0.0413104 0)
(10.029 0.0774614 0)
(10.0138 0.110685 0)
(10.0004 0.139464 0)
(9.98763 0.163112 0)
(9.97566 0.182064 0)
(9.96458 0.197268 0)
(9.95417 0.209555 0)
(9.94423 0.219511 0)
(9.93469 0.227563 0)
(9.9255 0.234041 0)
(9.91661 0.239199 0)
(9.90809 0.243198 0)
(9.89949 0.246139 0)
(9.89141 0.247907 0)
(9.87634 0.248729 0)
(10.0321 -0.126625 0)
(10.0676 -0.225596 0)
(10.0594 -0.280262 0)
(10.0339 -0.322902 0)
(10.008 -0.353512 0)
(9.9831 -0.374033 0)
(9.95834 -0.387994 0)
(9.93444 -0.39764 0)
(9.91185 -0.404166 0)
(9.89043 -0.408333 0)
(9.86997 -0.410704 0)
(9.85037 -0.411693 0)
(9.83157 -0.411593 0)
(9.81356 -0.410633 0)
(9.79622 -0.408968 0)
(9.77992 -0.406848 0)
(9.76427 -0.404212 0)
(9.7579 -0.4006 0)
(9.86117 0.0769216 0)
(9.66243 0.274095 0)
(9.48809 0.393153 0)
(9.34018 0.447739 0)
(9.21733 0.470361 0)
(9.10939 0.479057 0)
(9.01035 0.48132 0)
(8.91878 0.480328 0)
(8.83416 0.477593 0)
(8.75578 0.473834 0)
(8.68303 0.46939 0)
(8.61546 0.464441 0)
(8.55268 0.459091 0)
(8.49427 0.453423 0)
(8.43982 0.447425 0)
(8.38875 0.441265 0)
(8.34071 0.434026 0)
(8.28969 0.426448 0)
(-0.0359833 -0.0979742 -3.10896e-19)
(0.0908906 -0.174594 1.66914e-19)
(0.188216 -0.217215 0)
(0.276416 -0.217192 0)
(0.35905 -0.206744 0)
(0.431649 -0.194611 -7.14701e-20)
(0.495049 -0.183758 0)
(0.551814 -0.17379 0)
(0.603522 -0.165061 0)
(0.651324 -0.157285 0)
(0.69592 -0.150395 5.39213e-20)
(0.737863 -0.144174 0)
(0.777434 -0.13853 0)
(0.814753 -0.133336 0)
(0.84984 -0.128516 0)
(0.882612 -0.123984 4.71248e-20)
(0.913028 -0.119683 0)
(0.940787 -0.115524 0)
(0.965984 -0.111556 0)
(0.988156 -0.107895 0)
(1.00725 -0.104097 0)
(1.02324 -0.100059 0)
(1.03519 -0.0954836 0)
(1.04278 -0.0900241 4.33976e-20)
(1.04554 -0.082858 -4.34951e-20)
(1.0411 -0.0731562 4.36434e-20)
(1.02943 -0.0611705 4.40107e-20)
(1.01024 -0.0474092 0)
(0.982845 -0.0322985 0)
(0.946559 -0.0161854 -4.66368e-20)
(0.900791 -0.000185171 -4.81734e-20)
(0.845333 0.0144238 0)
(0.780599 0.0264106 0)
(0.707631 0.0346016 -5.61223e-20)
(0.629906 0.0384832 0)
(0.550261 0.0384034 0)
(0.470722 0.0342905 7.13181e-20)
(0.396745 0.0256643 0)
(0.332436 0.0125147 8.60351e-20)
(0.279817 -0.00301524 1.87377e-19)
(0.239318 -0.0178792 0)
(0.208508 -0.0285139 0)
(0.180391 -0.0304793 0)
(0.143003 -0.018442 0)
(0.0866603 0.00768766 0)
(0.000228238 0.0299036 2.74248e-19)
(-0.0979416 0.0358034 2.36548e-19)
(-0.19694 0.0374124 1.92103e-19)
(-0.301129 0.0365627 0)
(-0.406706 0.0325667 -1.39744e-19)
(-0.511455 0.0265108 0)
(-0.611186 0.0201033 1.12154e-19)
(-0.706751 0.0139956 1.03011e-19)
(-0.798877 0.00741277 0)
(-0.885938 -7.35072e-05 0)
(-0.967781 -0.00840177 0)
(-1.04405 -0.0173558 8.09959e-20)
(-1.1148 -0.0266757 0)
(-1.18021 -0.0361329 0)
(-1.2406 -0.0455456 0)
(-1.2964 -0.0547863 0)
(-1.34805 -0.0637722 0)
(-1.39599 -0.0724627 0)
(-1.44065 -0.0808499 0)
(-1.48243 -0.0889466 0)
(-1.52167 -0.0967779 -6.22345e-20)
(-1.55869 -0.104374 0)
(-1.59376 -0.111768 0)
(-1.62708 -0.118991 5.88747e-20)
(-1.65886 -0.126073 5.78915e-20)
(-1.68925 -0.133041 0)
(-1.71836 -0.139917 -5.60808e-20)
(-1.74631 -0.146722 5.52421e-20)
(-1.77317 -0.153466 0)
(-1.79901 -0.160157 -5.36758e-20)
(-1.82386 -0.166795 0)
(-1.84777 -0.173379 0)
(-1.87076 -0.179904 5.15251e-20)
(-1.89285 -0.186363 0)
(-1.91405 -0.192747 -5.0187e-20)
(-1.93436 -0.199042 0)
(-1.95378 -0.205235 4.89063e-20)
(-1.9723 -0.211309 4.82835e-20)
(-1.98991 -0.217247 4.76706e-20)
(-2.0066 -0.223031 9.41326e-20)
(-2.02235 -0.228646 -9.29386e-20)
(-2.03716 -0.234079 0)
(-2.051 -0.239332 0)
(-2.06388 -0.244435 0)
(-2.07578 -0.249458 -8.82634e-20)
(-2.08665 -0.254425 -8.71148e-20)
(-2.09638 -0.259286 8.59746e-20)
(-2.10489 -0.26401 0)
(-2.11212 -0.26856 -8.37159e-20)
(-2.11798 -0.272858 -8.25956e-20)
(-2.12242 -0.276781 -8.14802e-20)
(-2.12536 -0.280153 0)
(-2.12678 -0.282839 0)
(-2.1274 -0.285178 0)
(-2.12711 -0.287278 -7.68623e-20)
(-2.12599 -0.289144 0)
(-2.124 -0.290789 0)
(-2.1211 -0.292208 7.31097e-20)
(-2.11723 -0.293419 0)
(-2.11231 -0.294476 0)
(-2.1063 -0.295458 6.90145e-20)
(-2.09919 -0.296465 0)
(-2.09098 -0.297555 0)
(-2.08165 -0.298745 -6.45199e-20)
(-2.07117 -0.300049 -6.29221e-20)
(-2.05947 -0.301473 0)
(-2.04653 -0.303022 5.95746e-20)
(-2.03229 -0.304692 0)
(-2.01668 -0.306475 -5.60136e-20)
(-1.99966 -0.308367 0)
(-1.98116 -0.310365 -5.21744e-20)
(-1.96114 -0.31247 -5.01395e-20)
(-1.93957 -0.31468 0)
(-1.9164 -0.316994 0)
(-1.8916 -0.319413 0)
(-1.86515 -0.321948 0)
(-1.83701 -0.324598 0)
(-1.80713 -0.327381 0)
(-1.77551 -0.330265 0)
(-1.74209 -0.333212 -3.04833e-20)
(-1.70683 -0.336229 2.7522e-20)
(-1.66996 -0.339501 0)
(-1.63143 -0.342859 0)
(-1.59101 -0.34628 0)
(-1.54899 -0.349837 0)
(-1.50523 -0.35351 2.11544e-20)
(-1.45985 -0.357304 0)
(-1.41284 -0.361213 -5.28309e-21)
(-1.36425 -0.365225 -3.23147e-21)
(-1.31416 -0.369332 0)
(-1.26266 -0.373584 0)
(-1.20974 -0.378052 0)
(-1.15538 -0.382713 4.17439e-20)
(-1.09964 -0.387512 5.26544e-20)
(-1.04258 -0.392507 0)
(-0.984301 -0.397679 7.63145e-20)
(-0.924825 -0.403054 8.91688e-20)
(-0.864184 -0.40865 -1.0279e-19)
(-0.802405 -0.414486 0)
(-0.739509 -0.420585 0)
(-0.675521 -0.426967 -1.4908e-19)
(-0.610459 -0.433658 0)
(-0.544333 -0.440684 0)
(-0.477153 -0.448077 0)
(-0.408916 -0.455874 0)
(-0.339619 -0.464108 2.51791e-19)
(-0.269301 -0.472749 2.77929e-19)
(-0.197986 -0.481531 0)
(-0.125545 -0.49032 3.38401e-19)
(-0.0527666 -0.499213 0)
(0.0215346 -0.50097 0)
(0.0988194 -0.494029 3.86705e-19)
(0.178541 -0.486261 0)
(0.258488 -0.47913 3.69427e-19)
(0.339776 -0.473128 0)
(0.419587 -0.466121 0)
(0.49834 -0.458328 3.49316e-19)
(0.576289 -0.450982 0)
(0.653499 -0.444311 3.38058e-19)
(0.730067 -0.438249 0)
(0.805922 -0.432683 0)
(0.880944 -0.427523 0)
(0.954878 -0.422704 -3.1838e-19)
(1.02754 -0.418197 0)
(1.09852 -0.413968 3.09935e-19)
(1.16766 -0.410031 0)
(1.23428 -0.406342 0)
(1.29841 -0.402958 0)
(1.35881 -0.399774 0)
(1.41617 -0.396947 0)
(1.46736 -0.394292 0)
(1.5158 -0.391979 0)
(1.54673 -0.390307 -5.85149e-19)
(1.58732 -0.387259 0)
(1.52574 -0.380502 0)
(-0.0414596 -0.222681 4.84875e-19)
(0.158542 -0.254618 -2.3205e-19)
(0.196311 -0.252692 0)
(0.239878 -0.203437 7.68862e-20)
(0.277566 -0.169116 0)
(0.315223 -0.135092 2.98404e-20)
(0.35156 -0.11259 -5.65818e-20)
(0.389041 -0.0942075 -5.38405e-20)
(0.426088 -0.0817132 0)
(0.46325 -0.0716621 -5.02794e-20)
(0.500017 -0.0640774 -2.42779e-20)
(0.536254 -0.0573546 0)
(0.571437 -0.0512409 0)
(0.605198 -0.0450798 0)
(0.637126 -0.0387377 0)
(0.666918 -0.0319928 -2.27085e-20)
(0.694289 -0.0247983 0)
(0.719023 -0.0170962 4.50024e-20)
(0.740917 -0.00890757 0)
(0.759827 -0.000131141 0)
(0.775681 0.00890744 -4.39229e-20)
(0.788527 0.0185361 0)
(0.798713 0.0288651 4.33861e-20)
(0.806542 0.0400972 -2.15065e-20)
(0.812699 0.0523263 2.15188e-20)
(0.819102 0.0647359 -2.15431e-20)
(0.824886 0.0769439 -2.15739e-20)
(0.829919 0.0891885 0)
(0.833235 0.102231 0)
(0.833379 0.116813 2.14835e-20)
(0.827358 0.133598 -2.16319e-20)
(0.810552 0.152481 0)
(0.779311 0.171574 0)
(0.731653 0.187655 2.08154e-20)
(0.668285 0.197767 0)
(0.592767 0.20054 0)
(0.508968 0.195441 -2.01567e-20)
(0.420044 0.182518 0)
(0.329038 0.164063 2.07448e-20)
(0.238547 0.143535 -4.20771e-20)
(0.147734 0.124562 0)
(0.0530923 0.114819 0)
(-0.0491957 0.125623 -8.70462e-20)
(-0.159648 0.153783 -8.18792e-20)
(-0.270698 0.185672 -7.70466e-20)
(-0.381189 0.210711 3.67752e-20)
(-0.491936 0.226939 -3.45432e-20)
(-0.601681 0.236994 -1.00373e-19)
(-0.706591 0.241155 6.51826e-20)
(-0.803423 0.239522 3.15713e-20)
(-0.890414 0.233271 0)
(-0.966267 0.224522 -3.09625e-20)
(-1.03032 0.21452 3.1435e-20)
(-1.08228 0.203807 0)
(-1.12298 0.192929 0)
(-1.15379 0.182496 0)
(-1.17626 0.172954 -3.02991e-20)
(-1.19198 0.164614 0)
(-1.20236 0.15763 6.02146e-20)
(-1.20865 0.152034 0)
(-1.21188 0.147772 5.93896e-20)
(-1.21286 0.14474 0)
(-1.21224 0.142811 -5.85245e-20)
(-1.21052 0.141843 0)
(-1.20807 0.141698 5.75659e-20)
(-1.20518 0.142244 -2.87013e-20)
(-1.20204 0.143363 0)
(-1.19881 0.144952 -5.6138e-20)
(-1.19557 0.146925 -2.76805e-20)
(-1.19241 0.14921 -2.74637e-20)
(-1.18936 0.151747 0)
(-1.18647 0.154487 -2.74058e-20)
(-1.18375 0.157386 -2.68703e-20)
(-1.18121 0.16041 0)
(-1.17888 0.163528 2.65214e-20)
(-1.17676 0.166716 -5.30849e-20)
(-1.17487 0.169949 0)
(-1.17322 0.173207 -2.60094e-20)
(-1.17183 0.176466 0)
(-1.17072 0.179703 7.73753e-20)
(-1.16993 0.182895 0)
(-1.16949 0.186018 -7.62565e-20)
(-1.16944 0.189047 -2.50725e-20)
(-1.16983 0.191961 2.53225e-20)
(-1.17071 0.194742 5.02314e-20)
(-1.17213 0.197375 -4.9799e-20)
(-1.17413 0.199855 0)
(-1.17675 0.202177 0)
(-1.18002 0.204336 0)
(-1.18397 0.206306 1.41535e-19)
(-1.18865 0.208058 4.62832e-20)
(-1.19413 0.20957 -4.57221e-20)
(-1.20051 0.210828 0)
(-1.20785 0.211803 -4.56882e-20)
(-1.2162 0.212467 4.39439e-20)
(-1.22556 0.212806 4.33162e-20)
(-1.23588 0.212842 0)
(-1.24716 0.212637 0)
(-1.25841 0.212364 0)
(-1.26963 0.211852 4.06291e-20)
(-1.28058 0.211067 0)
(-1.29119 0.209974 -7.9682e-20)
(-1.30139 0.208551 -1.1656e-19)
(-1.31116 0.206779 7.6606e-20)
(-1.32043 0.204633 0)
(-1.32915 0.202179 3.73888e-20)
(-1.33689 0.199685 0)
(-1.34356 0.197191 6.97108e-20)
(-1.34905 0.194711 -3.47342e-20)
(-1.35327 0.192248 -3.38055e-20)
(-1.35618 0.189803 0)
(-1.35771 0.187367 -9.22411e-20)
(-1.35782 0.184939 6.0082e-20)
(-1.35645 0.182518 2.81114e-20)
(-1.35356 0.18011 0)
(-1.34909 0.17772 2.5927e-20)
(-1.343 0.175353 7.63016e-20)
(-1.33524 0.173012 0)
(-1.32576 0.170706 4.68197e-20)
(-1.31452 0.168436 4.43577e-20)
(-1.30147 0.166204 4.18174e-20)
(-1.28657 0.163996 0)
(-1.26979 0.161812 0)
(-1.25113 0.159666 0)
(-1.23061 0.157627 -1.65895e-20)
(-1.20825 0.155753 -1.27606e-20)
(-1.18416 0.154008 0)
(-1.15804 0.152197 -2.17548e-20)
(-1.13014 0.150498 -1.85605e-20)
(-1.10036 0.148904 0)
(-1.0688 0.147392 -9.3199e-21)
(-1.03546 0.145984 -1.6989e-20)
(-1.0004 0.14467 2.28065e-21)
(-0.963642 0.143446 4.13196e-21)
(-0.925225 0.14231 0)
(-0.885183 0.14131 0)
(-0.843613 0.140455 0)
(-0.800626 0.139644 -1.66472e-20)
(-0.756166 0.13883 1.47468e-20)
(-0.710335 0.138189 4.34787e-20)
(-0.663164 0.137632 -2.88857e-20)
(-0.614715 0.137126 2.69633e-20)
(-0.565011 0.136663 3.74088e-20)
(-0.514084 0.13623 0)
(-0.461953 0.135819 0)
(-0.408632 0.135417 -4.42982e-20)
(-0.354127 0.135008 0)
(-0.298439 0.134572 0)
(-0.241561 0.134087 1.22924e-19)
(-0.183462 0.133521 0)
(-0.124106 0.132834 6.77832e-20)
(-0.0633318 0.131977 -7.9642e-20)
(-0.000987625 0.130831 0)
(0.0627552 0.129216 8.09699e-20)
(0.128048 0.127146 0)
(0.195062 0.125842 0)
(0.262138 0.126194 -9.58725e-20)
(0.329097 0.127685 1.90133e-19)
(0.396594 0.129785 -1.00597e-19)
(0.464468 0.132153 0)
(0.534523 0.133971 0)
(0.605978 0.135323 1.00717e-19)
(0.678466 0.136605 0)
(0.751405 0.138032 1.04166e-19)
(0.824451 0.139665 0)
(0.897322 0.141526 0)
(0.969795 0.143588 0)
(1.04158 0.145903 1.14593e-19)
(1.11247 0.148418 0)
(1.18207 0.151266 -1.16097e-19)
(1.2502 0.15429 0)
(1.31626 0.157798 0)
(1.38031 0.161339 2.30645e-19)
(1.44122 0.165711 -2.31641e-19)
(1.49986 0.169754 0)
(1.55344 0.175632 0)
(1.60572 0.181193 0)
(1.64794 0.191214 7.14267e-19)
(1.69503 0.210256 0)
(1.72808 0.233021 -4.95289e-19)
(-0.14473 -0.422815 1.15583e-21)
(0.143881 -0.369165 2.67503e-19)
(0.0727824 -0.354231 0)
(0.13699 -0.296139 -1.18416e-19)
(0.142382 -0.290723 0)
(0.183142 -0.270412 0)
(0.211742 -0.266159 -2.39244e-22)
(0.251287 -0.253536 3.55506e-20)
(0.288854 -0.246937 3.38641e-20)
(0.330541 -0.237677 3.2321e-20)
(0.371363 -0.230198 0)
(0.412654 -0.22088 0)
(0.452223 -0.211253 -2.99247e-20)
(0.490107 -0.20024 -5.86892e-20)
(0.525521 -0.188566 5.76561e-20)
(0.558422 -0.176019 0)
(0.588503 -0.162899 5.58209e-20)
(0.615606 -0.149182 -2.73527e-20)
(0.639405 -0.135038 0)
(0.659566 -0.120599 5.31764e-20)
(0.675657 -0.106063 2.60318e-20)
(0.687264 -0.0916214 -5.13917e-20)
(0.694076 -0.0773397 -2.51919e-20)
(0.695793 -0.0633816 0)
(0.69168 -0.0499514 4.93328e-20)
(0.681034 -0.0354952 4.88041e-20)
(0.664137 -0.0191312 0)
(0.642209 -0.000116915 4.78448e-20)
(0.616773 0.023074 0)
(0.589327 0.0532237 4.67494e-20)
(0.560577 0.093254 2.2935e-20)
(0.529143 0.142815 0)
(0.49144 0.197097 0)
(0.443806 0.248158 0)
(0.385075 0.288118 0)
(0.316963 0.313106 0)
(0.242372 0.32345 0)
(0.16343 0.319568 4.5304e-20)
(0.0805116 0.303199 -6.85197e-20)
(-0.00778447 0.283161 0)
(-0.104713 0.272254 0)
(-0.21269 0.278545 0)
(-0.327979 0.301256 -3.91863e-22)
(-0.442889 0.331318 4.01128e-20)
(-0.551125 0.35886 7.77497e-20)
(-0.65007 0.37628 -7.52367e-20)
(-0.739299 0.380346 -3.68538e-20)
(-0.81776 0.371972 3.55388e-20)
(-0.884599 0.352817 5.07322e-22)
(-0.940094 0.325087 3.50419e-20)
(-0.985699 0.291786 0)
(-1.02314 0.255911 3.45629e-20)
(-1.05369 0.219619 3.36726e-22)
(-1.07917 0.184549 0)
(-1.10119 0.151931 0)
(-1.1211 0.122499 -3.37931e-20)
(-1.1399 0.0965391 0)
(-1.15824 0.0740057 0)
(-1.17652 0.0546298 3.30548e-20)
(-1.19492 0.0380305 6.51827e-20)
(-1.21352 0.0237909 -3.21457e-20)
(-1.2323 0.0115099 0)
(-1.25121 0.000829836 3.15141e-20)
(-1.2702 -0.0085581 0)
(-1.28918 -0.0169141 3.11452e-20)
(-1.3081 -0.0244531 3.06193e-20)
(-1.32691 -0.0313494 -6.09409e-20)
(-1.34558 -0.0377423 -3.03428e-20)
(-1.36407 -0.0437418 0)
(-1.38238 -0.0494337 5.94753e-20)
(-1.40047 -0.0548848 0)
(-1.41835 -0.0601459 8.77729e-20)
(-1.43601 -0.0652561 5.82106e-20)
(-1.45343 -0.0702438 5.78213e-20)
(-1.47063 -0.0751298 -5.74417e-20)
(-1.4876 -0.0799252 8.54337e-20)
(-1.50434 -0.084634 0)
(-1.52085 -0.0892533 0)
(-1.53714 -0.0937747 -5.59501e-20)
(-1.55318 -0.0981845 -8.31711e-20)
(-1.56899 -0.102465 0)
(-1.58456 -0.106594 2.72026e-20)
(-1.59986 -0.11055 0)
(-1.61488 -0.114314 -8.07767e-20)
(-1.6296 -0.117869 4.17e-22)
(-1.64399 -0.121204 -4.25521e-22)
(-1.65801 -0.124316 5.26976e-20)
(-1.67163 -0.127205 0)
(-1.68479 -0.129876 -5.17862e-20)
(-1.69748 -0.132332 4.60558e-22)
(-1.70967 -0.134556 0)
(-1.72134 -0.136532 0)
(-1.73247 -0.138261 0)
(-1.74303 -0.13976 4.88929e-20)
(-1.75301 -0.141063 0)
(-1.76235 -0.142231 0)
(-1.77098 -0.143351 0)
(-1.77884 -0.144541 0)
(-1.78584 -0.145783 0)
(-1.7919 -0.146975 4.60021e-20)
(-1.79694 -0.148073 0)
(-1.80088 -0.149025 4.40624e-20)
(-1.80365 -0.149786 4.33332e-20)
(-1.80515 -0.150314 -4.25698e-20)
(-1.8053 -0.150597 0)
(-1.80423 -0.150927 -4.0903e-20)
(-1.80215 -0.151442 0)
(-1.79902 -0.152108 -3.90813e-20)
(-1.79481 -0.152909 3.81183e-20)
(-1.78948 -0.153833 1.12744e-19)
(-1.78298 -0.154866 0)
(-1.77525 -0.156005 1.06509e-19)
(-1.76625 -0.15725 3.53746e-20)
(-1.75591 -0.158603 0)
(-1.7442 -0.160059 6.47171e-20)
(-1.73105 -0.161612 6.22984e-20)
(-1.71642 -0.163254 -8.89273e-20)
(-1.70028 -0.164979 0)
(-1.68256 -0.166778 -2.6479e-20)
(-1.66323 -0.168643 -2.50849e-20)
(-1.64225 -0.170567 -7.25577e-20)
(-1.61958 -0.172538 0)
(-1.59522 -0.174534 0)
(-1.56916 -0.176528 0)
(-1.54137 -0.17849 -1.91168e-20)
(-1.5118 -0.180428 0)
(-1.4804 -0.182408 0)
(-1.44724 -0.184363 1.22292e-20)
(-1.41234 -0.186249 1.04183e-20)
(-1.37569 -0.188085 0)
(-1.33731 -0.189849 0)
(-1.29721 -0.191534 9.48504e-21)
(-1.25542 -0.193131 0)
(-1.21196 -0.194636 -1.54311e-21)
(-1.16687 -0.19605 6.00047e-22)
(-1.12022 -0.197367 0)
(-1.07199 -0.198617 0)
(-1.02218 -0.199797 -1.31164e-20)
(-0.971004 -0.200862 -2.00886e-21)
(-0.918447 -0.201834 -2.02905e-21)
(-0.864447 -0.202705 0)
(-0.809077 -0.203497 -6.31212e-20)
(-0.752343 -0.204226 0)
(-0.694271 -0.204895 0)
(-0.634873 -0.205513 0)
(-0.574158 -0.206082 5.07404e-20)
(-0.51213 -0.206606 0)
(-0.448795 -0.207087 -1.15637e-19)
(-0.384155 -0.207525 -6.4687e-20)
(-0.318218 -0.207928 0)
(-0.25102 -0.208311 -7.41147e-20)
(-0.182672 -0.208682 0)
(-0.113248 -0.209079 0)
(-0.0428144 -0.209455 -2.60649e-19)
(0.0283523 -0.209873 1.80571e-19)
(0.100025 -0.211028 0)
(0.172257 -0.21271 1.93837e-19)
(0.245225 -0.214022 -1.02256e-19)
(0.319197 -0.215213 0)
(0.393975 -0.216449 0)
(0.469325 -0.217162 0)
(0.544806 -0.217179 -3.36409e-19)
(0.620203 -0.216938 0)
(0.695276 -0.216617 -1.18268e-19)
(0.769874 -0.216236 0)
(0.843777 -0.215733 0)
(0.916776 -0.215066 0)
(0.988558 -0.21415 0)
(1.05889 -0.212997 0)
(1.12735 -0.211483 0)
(1.19377 -0.209712 -2.56396e-19)
(1.25753 -0.207419 0)
(1.31882 -0.204928 -1.31999e-19)
(1.37649 -0.201595 3.95617e-19)
(1.43176 -0.198309 0)
(1.48166 -0.193429 0)
(1.5308 -0.18888 -2.68329e-19)
(1.5701 -0.181052 -2.74066e-19)
(1.61543 -0.171095 2.75691e-19)
(1.64939 -0.153297 2.88305e-19)
(-0.230205 -0.510206 -6.74763e-19)
(0.15208 -0.381234 -3.70348e-19)
(-0.0155746 -0.386796 -1.42524e-19)
(0.101268 -0.32304 -5.24636e-20)
(0.0581764 -0.315028 0)
(0.113064 -0.286923 7.16078e-20)
(0.106767 -0.284225 -3.20295e-20)
(0.141847 -0.271864 0)
(0.156141 -0.27066 -2.73423e-20)
(0.18832 -0.261314 0)
(0.213608 -0.254845 5.02332e-20)
(0.245371 -0.242585 0)
(0.273263 -0.229621 2.34886e-20)
(0.302046 -0.213403 4.58248e-20)
(0.328137 -0.196577 -4.47956e-20)
(0.353182 -0.17817 0)
(0.375853 -0.158983 -4.29687e-20)
(0.396324 -0.13837 0)
(0.413682 -0.116414 0)
(0.427406 -0.0927314 -4.04333e-20)
(0.43678 -0.0675812 0)
(0.441829 -0.0410606 -1.8469e-22)
(0.442745 -0.0134667 0)
(0.440506 0.0160474 0)
(0.433327 0.0480982 1.90133e-22)
(0.416101 0.0804371 -3.64106e-20)
(0.386474 0.110601 -3.62236e-20)
(0.346681 0.136863 -3.57504e-20)
(0.301066 0.15937 0)
(0.253661 0.180713 -7.11382e-20)
(0.206435 0.206648 0)
(0.159292 0.244066 -3.54902e-20)
(0.111485 0.293889 0)
(0.062873 0.347402 0)
(0.0139 0.392322 3.50436e-20)
(-0.0355995 0.421045 0)
(-0.0865423 0.432759 -3.40965e-20)
(-0.141349 0.431755 4.46944e-22)
(-0.204647 0.426395 6.54452e-20)
(-0.280193 0.425564 -6.45565e-20)
(-0.367382 0.433727 0)
(-0.460978 0.449656 0)
(-0.552986 0.468352 -3.03106e-20)
(-0.636352 0.483513 0)
(-0.707098 0.490462 -2.7968e-20)
(-0.764207 0.486274 2.72859e-20)
(-0.808544 0.470278 2.66878e-20)
(-0.842122 0.444456 0)
(-0.867597 0.411857 -2.57744e-20)
(-0.887851 0.375867 -2.54488e-20)
(-0.905602 0.339709 5.09836e-20)
(-0.922821 0.305487 -2.4964e-20)
(-0.940729 0.274643 -2.47626e-20)
(-0.960006 0.247898 0)
(-0.980747 0.225322 0)
(-1.00269 0.206635 2.41986e-20)
(-1.0254 0.191377 0)
(-1.04838 0.179047 0)
(-1.07122 0.169171 -4.72529e-20)
(-1.09361 0.161334 -4.68773e-20)
(-1.11532 0.155189 0)
(-1.13625 0.150449 0)
(-1.15634 0.146879 0)
(-1.17561 0.14428 0)
(-1.19409 0.142488 -4.51837e-20)
(-1.21184 0.141362 4.51444e-20)
(-1.22892 0.140785 4.46148e-20)
(-1.2454 0.140657 8.89637e-20)
(-1.26136 0.140895 0)
(-1.27685 0.141429 2.65787e-22)
(-1.29193 0.142202 0)