# vtk DataFile Version 2.0
track0
ASCII
DATASET POLYDATA
POINTS 11221 double
-0.0205 0.001 1e-05
-0.0204991 0.00100536 1e-05
-0.0204976 0.00101063 1e-05
-0.0204947 0.00101518 1e-05
-0.0204905 0.00101864 1e-05
-0.0204746 0.00102682 1e-05
-0.0201831 0.00105563 1e-05
-0.0203616 0.00128793 1e-05
-0.0204488 0.00141936 1e-05
-0.0201625 0.0014444 1e-05
-0.0201519 0.00173163 1e-05
-0.0202219 0.00184007 1e-05
-0.0200495 0.00193025 1e-05
-0.0200808 0.00212221 1e-05
-0.0201294 0.00229098 1e-05
-0.0200087 0.00238763 1e-05
-0.0199911 0.00254123 1e-05
-0.0200041 0.0026953 1e-05
-0.0199827 0.00277425 1e-05
-0.019869 0.00287784 1e-05
-0.0198179 0.00302292 1e-05
-0.0198054 0.00317624 1e-05
-0.0197599 0.00329221 1e-05
-0.0196347 0.00340323 1e-05
-0.0195485 0.00354672 1e-05
-0.0194776 0.0036983 1e-05
-0.0193909 0.0038415 1e-05
-0.0193841 0.00384734 1e-05
-0.0193107 0.00390806 1e-05
-0.0192438 0.00397588 1e-05
-0.019179 0.00404567 1e-05
-0.0191112 0.00411259 1e-05
-0.0190172 0.00419773 1e-05
-0.0189564 0.00424665 1e-05
-0.0188938 0.00429327 1e-05
-0.0188296 0.00433759 1e-05
-0.0187639 0.00437958 1e-05
-0.0186583 0.00444232 1e-05
-0.0184261 0.00456519 1e-05
-0.018185 0.00466939 1e-05
-0.0179369 0.00475554 1e-05
-0.0176828 0.00482186 1e-05
-0.0174976 0.0048534 1e-05
-0.0172058 0.00488411 1e-05
-0.0169124 0.00488584 1e-05
-0.0166199 0.00486347 1e-05
-0.0163297 0.00482024 1e-05
-0.0160387 0.00475612 1e-05
-0.0158295 0.00469336 1e-05
-0.0156239 0.00461954 1e-05
-0.0154225 0.00453501 1e-05
-0.0152239 0.00444402 1e-05
-0.0152205 0.00444232 1e-05
-0.015104 0.00438399 1e-05
-0.0149903 0.00432038 1e-05
-0.0148798 0.00425144 1e-05
-0.0147716 0.00417888 1e-05
-0.0146381 0.00408347 1e-05
-0.0145773 0.00403624 1e-05
-0.0145174 0.00398793 1e-05
-0.0144585 0.0039385 1e-05
-0.0144004 0.00388796 1e-05
-0.0143546 0.00384734 1e-05
-0.0142305 0.00373631 1e-05
-0.0141129 0.00361838 1e-05
-0.0140029 0.0034934 1e-05
-0.0138988 0.00336341 1e-05
-0.0138444 0.00329221 1e-05
-0.0137672 0.00318862 1e-05
-0.0136976 0.00307984 1e-05
-0.0136343 0.00296725 1e-05
-0.0135748 0.0028526 1e-05
-0.0135376 0.00277425 1e-05
-0.0134946 0.0026776 1e-05
-0.0134587 0.00257807 1e-05
-0.0134268 0.00247718 1e-05
-0.0133995 0.00237496 1e-05
-0.0133815 0.00229098 1e-05
-0.0133664 0.0022008 1e-05
-0.0133574 0.00210982 1e-05
-0.0133537 0.00201846 1e-05
-0.013356 0.00192706 1e-05
-0.0133645 0.00184007 1e-05
-0.0133793 0.00175593 1e-05
-0.0134018 0.00167351 1e-05
-0.0134312 0.00159329 1e-05
-0.0134675 0.00151599 1e-05
-0.0135242 0.00141936 1e-05
-0.0135816 0.00134085 1e-05
-0.01365 0.00127163 1e-05
-0.0137241 0.00120866 1e-05
-0.0138028 0.00115144 1e-05
-0.0139966 0.00102682 1e-05
-0.0141249 0.000957588 1e-05
-0.0142599 0.000902619 1e-05
-0.0143982 0.000856451 1e-05
-0.0145372 0.000812317 1e-05
-0.0146381 0.000781931 1e-05
-0.014722 0.000757658 1e-05
-0.0148064 0.000734731 1e-05
-0.014891 0.000712942 1e-05
-0.0149761 0.00069317 1e-05
-0.0151499 0.000660566 1e-05
-0.0153277 0.000638011 1e-05
-0.0155058 0.000618865 1e-05
-0.0156842 0.000602373 1e-05
-0.0158628 0.000587872 1e-05
-0.0160387 0.000568187 1e-05
-0.0162832 0.000518318 1e-05
-0.0165314 0.000493589 1e-05
-0.0167807 0.000482547 1e-05
-0.0170301 0.000475724 1e-05
-0.0174976 0.000406226 1e-05
-0.0174976 0.000406226 1e-05
-0.0174976 0.000406226 1e-05
-0.0174976 0.000406226 1e-05
-0.0174976 0.000406226 1e-05
-0.0174976 0.000406226 1e-05
-0.0174951 0.000388749 1e-05
-0.0174897 0.00037195 1e-05
-0.017482 0.000356069 1e-05
-0.0174727 0.000341132 1e-05
-0.0174557 0.000318841 1e-05
-0.0173838 0.000255072 1e-05
-0.0172967 0.000214399 1e-05
-0.0172047 0.000186603 1e-05
-0.0171106 0.000167061 1e-05
-0.0160387 4.43903e-06 1e-05
-0.0160288 3.55123e-06 1e-05
-0.0160189 3.09742e-06 1e-05
-0.016009 2.68532e-06 1e-05
-0.0159991 2.27322e-06 1e-05
-0.0159444 0 1e-05
-0.0205 0.00367778 1e-05
-0.0203955 0.00371169 1e-05
-0.0203045 0.0037732 1e-05
-0.020217 0.00383976 1e-05
-0.0201979 0.00384734 1e-05
-0.0199618 0.0039343 1e-05
-0.019766 0.0040924 1e-05
-0.0196201 0.00429746 1e-05
-0.0194752 0.00444232 1e-05
-0.0193836 0.00449613 1e-05
-0.0192962 0.00455661 1e-05
-0.0192131 0.00462282 1e-05
-0.0191277 0.00468592 1e-05
-0.0190172 0.00476139 1e-05
-0.018914 0.00482511 1e-05
-0.0188082 0.0048843 1e-05
-0.0187001 0.00493903 1e-05
-0.0185898 0.00498942 1e-05
-0.0183683 0.00508 1e-05
-0.0181942 0.00513499 1e-05
-0.018018 0.00518301 1e-05
-0.0178401 0.00522423 1e-05
-0.0176607 0.00525851 1e-05
-0.0174976 0.0052815 1e-05
-0.0172058 0.0053094 1e-05
-0.0169127 0.00531424 1e-05
-0.0166201 0.00529724 1e-05
-0.0163294 0.00526005 1e-05
-0.0160387 0.00520506 1e-05
-0.0159405 0.00518005 1e-05
-0.0158429 0.00515305 1e-05
-0.0157458 0.00512415 1e-05
-0.0156491 0.00509404 1e-05
-0.0156059 0.00508 1e-05
-0.0154124 0.00501578 1e-05
-0.0152222 0.00494211 1e-05
-0.0150361 0.00485863 1e-05
-0.0148544 0.0047661 1e-05
-0.0146381 0.00464625 1e-05
-0.0145719 0.00460546 1e-05
-0.0145063 0.00456379 1e-05
-0.0144413 0.00452123 1e-05
-0.0143768 0.00447789 1e-05
-0.0143244 0.00444232 1e-05
-0.0141509 0.00432332 1e-05
-0.0139839 0.00419531 1e-05
-0.0138247 0.00405779 1e-05
-0.0136701 0.00391504 1e-05
-0.0135997 0.00384734 1e-05
-0.0135385 0.00378728 1e-05
-0.0134793 0.00372513 1e-05
-0.0134217 0.00366157 1e-05
-0.013365 0.00359724 1e-05
-0.0132934 0.00351376 1e-05
-0.013257 0.00346945 1e-05
-0.0132209 0.00342478 1e-05
-0.0131854 0.00337973 1e-05
-0.0131503 0.0033343 1e-05
-0.0131184 0.00329221 1e-05
-0.0130403 0.00318862 1e-05
-0.0129642 0.0030836 1e-05
-0.0128908 0.00297658 1e-05
-0.0128208 0.00286743 1e-05
-0.0127635 0.00277425 1e-05
-0.0127058 0.0026776 1e-05
-0.0126495 0.00258012 1e-05
-0.0125948 0.00248176 1e-05
-0.0125416 0.0023826 1e-05
-0.0124948 0.00229098 1e-05
-0.0124512 0.0022008 1e-05
-0.0124079 0.00211048 1e-05
-0.0123649 0.00202004 1e-05
-0.0123221 0.00192947 1e-05
-0.0122812 0.00184007 1e-05
-0.0122463 0.00175593 1e-05
-0.0122099 0.00167242 1e-05
-0.0121722 0.00158948 1e-05
-0.012133 0.00150722 1e-05
-0.0120889 0.00141936 1e-05
-0.0120716 0.00138596 1e-05
-0.012053 0.00135329 1e-05
-0.0120332 0.00132132 1e-05
-0.0120122 0.00129013 1e-05
-0.0120025 0.00127695 1e-05
-0.0119645 0.00122693 1e-05
-0.0119232 0.00117947 1e-05
-0.0118789 0.00113492 1e-05
-0.0118315 0.0010936 1e-05
-0.011743 0.00102682 1e-05
-0.011628 0.000953567 1e-05
-0.0115051 0.000894559 1e-05
-0.0113775 0.000846311 1e-05
-0.0112471 0.000806499 1e-05
-0.0107632 0.000720141 1e-05
-0.0105252 0.000729155 1e-05
-0.0102871 0.000725448 1e-05
-0.010049 0.000723465 1e-05
-0.00981086 0.000722534 1e-05
-0.00957337 0.000722269 1e-05
-0.00934491 0.00073179 1e-05
-0.00911628 0.000728327 1e-05
-0.00888764 0.000725958 1e-05
-0.00865899 0.000724339 1e-05
-0.00843108 0.000723247 1e-05
-0.00821175 0.000732314 1e-05
-0.00799227 0.000728288 1e-05
-0.00777277 0.000725274 1e-05
-0.00755327 0.000722987 1e-05
-0.00733443 0.000721235 1e-05
-0.00712387 0.000729664 1e-05
-0.00691317 0.000725518 1e-05
-0.00670246 0.000722291 1e-05
-0.00649174 0.000719744 1e-05
-0.0062816 0.00071771 1e-05
-0.00607944 0.000725435 1e-05
-0.00587718 0.000721546 1e-05
-0.0056749 0.000718448 1e-05
-0.00547262 0.000715949 1e-05
-0.00527083 0.000713911 1e-05
-0.00507675 0.000720941 1e-05
-0.00488258 0.000717455 1e-05
-0.00468839 0.00071463 1e-05
-0.0044942 0.000712316 1e-05
-0.00430044 0.000710404 1e-05
-0.00411412 0.000716791 1e-05
-0.00392771 0.000713726 1e-05
-0.0037413 0.000711205 1e-05
-0.00355488 0.000709111 1e-05
-0.00336883 0.000707359 1e-05
-0.00318995 0.000713167 1e-05
-0.003011 0.000710486 1e-05
-0.00283204 0.000708259 1e-05
-0.00265307 0.000706395 1e-05
-0.00247443 0.000704827 1e-05
-0.0023027 0.000710155 1e-05
-0.0021309 0.000707801 1e-05
-0.0019591 0.00070582 1e-05
-0.00178729 0.00070414 1e-05
-0.00161577 0.000702707 1e-05
-0.0014509 0.00070758 1e-05
-0.00128597 0.000705514 1e-05
-0.00112104 0.000703978 1e-05
-0.000956097 0.000702873 1e-05
-0.000791418 0.00070212 1e-05
-0.000633135 0.000707432 1e-05
-0.000474763 0.000706912 1e-05
-0.00031639 0.00070696 1e-05
-0.000158018 0.000707481 1e-05
0 0.000708393 1e-05
0.000105677 0.000713248 1e-05
0.000211459 0.000714491 1e-05
0.000317239 0.000715902 1e-05
0.000423016 0.000717463 1e-05
0.000528387 0.000719154 1e-05
0.000634886 0.000724912 1e-05
0.00074152 0.000727041 1e-05
0.000848152 0.000729234 1e-05
0.000954783 0.000731488 1e-05
0.00106088 0.000733785 1e-05
0.00116821 0.00074032 1e-05
0.00127569 0.000743394 1e-05
0.00138317 0.000746642 1e-05
0.00149064 0.000750052 1e-05
0.00159752 0.000753806 1e-05
0.00170568 0.000761815 1e-05
0.00181402 0.000766797 1e-05
0.00192239 0.000771237 1e-05
0.00203075 0.000775756 1e-05
0.00213833 0.000781432 1e-05
0.00224733 0.000790686 1e-05
0.00235654 0.000796993 1e-05
0.00246584 0.000801598 1e-05
0.00257514 0.000806089 1e-05
0.00268334 0.000812507 1e-05
0.00279319 0.000822099 1e-05
0.00290326 0.000828607 1e-05
0.00301347 0.000832218 1e-05
0.00312369 0.000835571 1e-05
0.00323259 0.000841659 1e-05
0.00334329 0.000850711 1e-05
0.00345421 0.000856528 1e-05
0.00356526 0.000859117 1e-05
0.00367631 0.000861409 1e-05
0.00378611 0.000866327 1e-05
0.00389767 0.000874002 1e-05
0.00400941 0.000878435 1e-05
0.00412123 0.000879661 1e-05
0.00423306 0.000880464 1e-05
0.00434393 0.000883604 1e-05
0.00445636 0.000889186 1e-05
0.0045689 0.000891861 1e-05
0.00468147 0.000891673 1e-05
0.00479404 0.000890972 1e-05
0.00490609 0.000892074 1e-05
0.0050194 0.000895047 1e-05
0.00513274 0.000895638 1e-05
0.00524607 0.000893883 1e-05
0.00535939 0.000891538 1e-05
0.00547262 0.000890355 1e-05
0.00558681 0.000890367 1e-05
0.00570098 0.000888532 1e-05
0.00581511 0.000884874 1e-05
0.00592921 0.000880555 1e-05
0.00604356 0.000876794 1e-05
0.00615863 0.000873598 1e-05
0.00627366 0.000869014 1e-05
0.00638862 0.000863052 1e-05
0.00650355 0.000856403 1e-05
0.00661893 0.000849786 1e-05
0.0067349 0.000843232 1e-05
0.00685081 0.000835646 1e-05
0.00696665 0.000827182 1e-05
0.00708245 0.000818071 1e-05
0.00719878 0.000808405 1e-05
0.00731565 0.000798449 1e-05
0.00743245 0.000787716 1e-05
[...]
POINT_DATA 11221
 FIELD attributes 2
p 1 11221 float
134.881 150.118 154.465 157.066 157.78 155.642 144.829 782.487 761.132 598.194 667.494 307.047 292.811 269.109 -38.1834 22.5535 115.121 -25.3049 -136.538 -45.5839 126.799 -18.6401 -159.619 -93.2272 -34.3288 -59.9312 -201.417 -208.058 -189.94 -185.007 -200.905 -218.554 -244.371 -261.899 -280.57 -300.34 -299.952 -273.608 -319.279 -366.736 -379.716 -381.624 -387.702 -391.275 -394.626 -398.708 -381.364 -359.333 -342.78 -328.156 -306.971 -287.1 -286.778 -274.137 -262.496 -248.009 -232.931 -214.679 -206.869 -199.275 -191.908 -191.268 -191.798 -157.81 -126.007 -116.473 -124.77 -129.704 -94.7589 -70.8011 -62.5367 -61.5465 -71.3295 -42.1535 -34.8167 -27.7447 -20.9828 -24.2323 -9.40487 -3.78854 1.4355 6.19962 3.03252 13.9579 16.3648 18.2053 19.4367 -4.50838 18.0274 17.302 13.9084 0.953634 -77.9156 -74.6869 -86.2574 -126.732 -167.305 -196.71 -218.906 -241.141 -267.409 -301.943 -369.863 -425.481 -481.644 -538.217 -601.882 -671.495 -784.656 -896.824 -1010.31 -1152.62 -1421.58 -1421.58 -1421.58 -1421.58 -1421.58 -1421.58 -1420.04 -1416.8 -1412.24 -1406.7 -1400.17 -1351.23 -1299.42 -1247.55 -1196.16 -693.533 -688.989 -685.023 -681.581 -678.14 -659.154
118.717 118.611 93.9118 15.8283 4.54335 -3.74366 42.2042 -25.4345 -124.982 -121.184 -114.705 -128.56 -143.432 -163.414 -181.19 -200.188 -220.328 -216.81 -209.6 -229.055 -249.222 -267.858 -274.25 -281.793 -288.279 -299.695 -296.094 -286.249 -278.091 -274.339 -270.524 -263.422 -256.484 -253.451 -240.964 -229.949 -218.29 -200.647 -180.267 -174.033 -167.929 -162.86 -161.637 -160.695 -130.559 -100.173 -88.6557 -91.3846 -93.0563 -75.4375 -64.4084 -59.4724 -54.5876 -48.3996 -45.3863 -42.3974 -39.4342 -37.5331 -37.8201 -23.6033 -14.8958 -6.33897 -4.83395 -6.14712 9.3239 24.8408 31.1895 28.8795 26.6386 42.1054 53.3904 57.5111 59.4989 56.3448 70.2807 72.8956 75.4923 78.0666 77.7657 81.4071 81.546 81.6732 81.7879 81.8321 82.3272 82.8137 83.289 83.7504 80.1544 81.1087 81.4658 81.3224 75.7639 56.6655 52.4349 46.3452 40.3463 34.403 27.2793 24.1648 19.7872 15.4577 11.1612 6.075 5.16047 2.4853 -0.140686 -2.73121 -6.54745 -6.29752 -8.03312 -9.7226 -11.3779 -14.4433 -13.6904 -14.8501 -15.9714 -17.0635 -19.5301 -18.458 -19.1796 -19.8702 -20.5369 -22.5209 -21.2364 -21.6587 -22.0562 -22.4343 -24.0962 -22.7215 -22.9314 -23.1215 -23.2957 -24.6888 -23.2268 -23.2992 -23.3555 -23.3989 -24.6396 -23.1046 -22.8998 -22.6741 -22.4313 -23.3053 -21.4364 -20.9968 -20.5338 -20.0516 -21.0374 -18.7857 -18.2087 -17.6247 -17.0345 -18.3939 -16.2928 -15.4952 -14.6958 -13.8947 -14.9639 -13.4836 -13.0655 -12.6449 -12.2971 -13.3397 -12.8539 -13.0272 -13.3633 -13.9372 -15.0117 -15.2572 -15.7761 -16.6368 -17.6688 -18.776 -19.2871 -19.851 -20.9415 -22.1518 -23.3246 -23.8559 -24.4193 -25.4675 -26.7519 -27.9817 -28.403 -28.8744 -29.7824 -31.052 -32.2646 -32.4848 -32.7627 -33.5055 -34.6934 -35.8345 -35.8231 -35.8663 -36.4563 -37.5621 -38.6381 -38.4738 -38.3555 -38.8118 -39.8005 -40.7768 -40.5381 -40.3353 -40.6784 -41.5012 -42.3461 -42.0946 -42.0537 -42.3173 -42.7445 -43.4543 -43.2335 -43.377 -43.5483 -43.7378 -44.1075 -44.056 -44.0568 -44.0604 -44.0668 -44.0745 -44.1281 -44.1881 -44.2548 -44.328 -44.2037 -44.0118 -43.8938 -43.791 -43.4997 -43.0077 -42.5782 -42.1607 -41.5864 -40.9411 -40.3016 -39.6472 -38.8738 -38.0723 -37.2806 -36.663 -36.6284 -36.5939 -36.5594 -36.5287 -36.5035 -35.7165 -34.9762 -34.2433 -33.6859 -33.3023 -32.5907 -31.9017 -31.4191 -30.9548 -30.6448 -30.5759 -30.5125 -30.4658 -30.4194 -30.3755 -29.9784 -29.5886 -29.2066 -28.8963 -28.6085 -28.2728 -27.946 -27.6115 -27.2888 -27.0707 -26.9623 -26.8544 -26.747 -26.6374 -26.5262 -25.9455 -25.3771 -24.8435 -24.3329 -23.7811 -23.7187 -23.6563 -23.5789 -23.4973 -23.4178 -22.7605 -22.1032 -21.4127 -20.4688 -19.5431 -19.1411 -18.7403 -18.1382 -17.5376 -16.8615 -16.3723 -15.8862 -15.4031 -14.7896 -14.157 -13.1478 -12.1708 -11.0657 -9.7457 -8.55957 -7.8674 -7.02461 -6.12514 -5.26038 -4.18077 -4.12851 -4.05194 -3.976 -3.90068 -3.8163 -3.28882 -2.79265 -2.32771 -1.89393 -1.51469 -1.28219 -1.10614 -0.966823 -0.871248 -0.862798 -1.03551 -1.23017 -1.45173 -1.72691 -2.10076 -2.6518 -3.17924 -3.71773 -4.28376 -4.98175 -5.84092 -6.64083 -7.45774 -8.2918 -9.21408 -9.91501 -10.5825 -11.2554 -11.9336 -12.3616 -12.8053 -13.2512 -13.6994 -14.1499 -14.5375 -15.75 -17.0084 -18.2764 -19.5125 -20.6226 -21.9621 -23.3088 -24.6917 -25.9493 -27.2324 -28.6922 -30.0781 -31.3593 -32.6429 -34.0016 -34.3544 -34.6809 -34.9946 -35.3083 -35.6063 -36.615 -37.6231 -38.6306 -39.5761 -40.4603 -41.7434 -43.0248 -44.1938 -45.338 -46.4964 -47.082 -47.6404 -48.156 -48.671 -49.1612 -49.731 -50.2998 -50.8676 -51.3758 -51.8656 -52.8567 -53.8447 -54.7328 -55.5934 -56.4643 -56.7147 -56.959 -57.1774 -57.3957 -57.6111 -58.1677 -58.7227 -59.2761 -59.7613 -60.2419 -60.8358 -61.4218 -61.9162 -62.41 -62.8918 -62.973 -63.0542 -63.1354 -63.2013 -63.267 -63.7803 -64.2902 -64.766 -65.1535 -65.5429 -65.7146 -65.8847 -65.9925 -66.1007 -66.2104 -66.4332 -66.6567 -66.8808 -67.0242 -67.1602 -67.4391 -67.7125 -67.8551 -68.004 -68.1515 -68.1599 -68.1671 -68.1679 -68.1687 -68.1695 -68.2838 -68.404 -68.5301 -68.5548 -68.556 -68.5943 -68.6043 -68.5354 -68.476 -68.4193 -68.4208 -68.4222 -68.4237 -68.4223 -68.4187 -68.3307 -68.2459 -68.1714 -68.0277 -67.8506 -67.7095 -67.5706 -67.3334 -67.1008 -66.8488 -66.7607 -66.6389 -66.5028 -66.3693 -66.222 -66.0857 -65.9535 -65.8254 -65.69 -65.5114 -65.2234 -64.8996 -64.575 -64.1874 -63.7981 -63.4414 -63.1002 -62.6949 -62.213 -61.7542 -61.3306 -60.8845 -60.4149 -59.9438 -59.4179 -58.9293 -58.4002 -57.8915 -57.4034 -56.8547 -56.3081 -55.7484 -55.2092 -54.6905 -54.101 -53.5203 -52.9365 -52.3726 -51.8123 -51.1632 -50.5522 -49.9557 -49.3733 -48.7123 -48.0376 -47.3976 -46.7764 -46.088 -45.3869 -44.6903 -44.0581 -43.3555 -42.6462 -41.9515 -41.5546 -41.4642 -41.3741 -41.2843 -41.1866 -41.0788 -40.3063 -39.5583 -38.8271 -38.0278 -37.1846 -36.4322 -35.6676 -34.8561 -34.0579 -33.4957 -33.3992 -33.303 -33.207 -33.0997 -32.9911 -32.093 -31.2321 -30.3743 -29.4798 -28.5574 -28.2706 -27.9854 -27.6967 -27.4087 -27.1442 -26.5114 -25.8854 -25.2644 -24.6449 -24.0069 -23.5692 -23.135 -22.7177 -22.3106 -21.9472 -21.4434 -20.9436 -20.4608 -19.9961 -19.5176 -19.1268 -18.7388 -18.3729 -18.0335 -17.7249 -17.1997 -16.6785 -16.2049 -15.7587 -15.2963 -15.0663 -14.8374 -14.6203 -14.4335 -14.2569 -13.6357 -13.0202 -12.485 -11.9868 -11.4633 -11.392 -11.3209 -11.2528 -11.197 -11.1422 -10.5042 -9.87293 -9.32247 -8.84852 -8.43923 -8.35189 -8.26468 -8.18996 -8.11899 -8.04731 -7.59751 -7.15303 -6.73386 -6.39392 -6.08943 -5.84517 -5.60213 -5.39698 -5.20203 -5.00047 -4.75845 -4.51832 -4.28771 -4.10367 -3.93084 -3.55145 -3.17516 -2.86104 -2.56227 -2.2444 -2.16708 -2.08999 -2.01451 -1.95494 -1.89663 -1.45774 -1.02317 -0.642459 -0.319717 -0.0275772 0.0484908 0.12442 0.188971 0.251628 0.315346 0.623105 0.927628 1.22242 1.46121 1.68242 1.91726 2.15074 2.34762 2.5388 2.74264 2.87756 3.01174 3.14434 3.25108 3.35401 3.72844 4.0993 4.40925 4.71064 4.98243 4.99928 5.01613 5.03062 5.04498 5.05943 5.36484 5.66703 5.96439 6.20481 6.42826 6.62707 6.82486 6.98705 7.14853 7.32573 7.43982 7.55338 7.66641 7.75932 7.84783 8.12753 8.40585 8.64077 8.83703 9.02595 9.12852 9.22424 9.30349 9.38271 9.46426 9.58889 9.71334 9.83762 9.9424 10.0373 10.2457 10.4542 10.6285 10.7798 10.9308 11.0057 11.0746 11.1315 11.1883 11.2452 11.3398 11.4344 11.529 11.6077 11.6777 11.8201 11.9625 12.073 12.1608 12.2452 12.3064 12.3607 12.4097 12.4584 12.5395 12.5666 12.5935 12.6204 12.6472 12.6681 12.7424 12.8183 12.894 12.969 13.0329 13.058 13.0879 13.1178 13.1476 13.1712 13.2184 13.2658 13.3132 13.3607 13.4203 13.5156 13.5945 13.6684 13.7386 13.8213 13.8878 13.9376 13.9709 13.9718 13.9717 13.9681 13.9612 13.9566 13.9466 13.9091 13.8606 13.7961 13.7171 13.6792 13.609 13.5346 13.4573 13.3765 13.2265 13.2244 13.2223 13.2202 13.2185 13.2179 13.1319 13.0463 12.9592 12.8927 12.887 12.7794 12.6687 12.6224 12.6419 12.6603 12.5735 12.4844 12.4746 12.5082 12.5497 12.4824 12.4675 12.4778 12.4873 12.5486 12.5198 12.5489 12.5775 12.6054 12.649 12.6532 12.6758 12.6983 12.7207 12.7479 12.7681 12.7883 12.8083 12.8282 12.8256 12.9065 12.9625 13.0181 13.0733 13.0612 13.1975 13.2614 13.3251 13.3885 13.3432 13.5107 13.5902 13.6565 13.6874 13.6416 13.8059 13.9194 13.9824 13.975 13.9248 14.0778 14.2149 14.269 14.2214 14.1632 14.2999 14.4374 14.473 14.4065 14.3386 14.4558 14.5737 14.5953 14.5192 14.4419 14.5388 14.6365 14.6426 14.5579 14.4721 14.552 14.6327 14.6205 14.5267 14.4299 14.4927 14.5359 14.5035 14.4161 14.3047 14.3489 14.3497 14.2971 14.21 14.0788 14.1003 14.0558 13.9809 13.8915 13.7393 13.7373 13.6484 13.5512 13.4541 13.2845 13.2466 13.1291 13.0116 12.8942 12.7235 12.647 12.5124 12.3779 12.2434 12.0722 11.9629 11.815 11.6672 11.5194 11.35 11.2155 11.0588 10.9021 10.7455 10.5794 10.4347 10.2806 10.1266 9.97254 9.78237 9.78228 9.78218 9.78209 9.78199 9.78189 9.62021 9.45858 9.297 9.13546 8.98594 8.81546 8.65668 8.49795 8.33926 8.20121 8.02832 7.87489 7.7215 7.56816 7.4402 7.27096 7.12497 6.97902 6.83311 6.71342 6.55322 6.41661 6.28002 6.14345 6.03052 5.8845 5.75939 5.63429 5.5092 5.4022 5.27492 5.16338 5.05183 4.94027 4.83894 4.73363 4.63702 4.54038 4.44372 4.34785 4.34046 4.33377 4.32708 4.32038 4.31407 4.2396 4.16506 4.09048 4.01583 3.93553 3.87542 3.81144 3.74737 3.6832 3.60647 3.56911 3.52332 3.47743 3.43142 3.36544 3.35273 3.32577 3.29868 3.27145 3.21548 3.22892 3.22111 3.21283 3.19766 3.15797 3.19187 3.21194 3.22159 3.21226 3.18992 3.24189 3.29155 3.3163 3.30992 3.30322 3.37083 3.43819 3.47471 3.48041 3.48581 3.56515 3.64365 3.68881 3.7089 3.72386 3.81282 3.88076 3.93365 3.98402 4.00472 4.09267 4.15039 4.20781 4.26491 4.31504 4.33355 4.34645 4.35933 4.3722 4.38475 4.43153 4.47813 4.52455 4.57078 4.624 4.68486 4.74515 4.8052 4.8685 4.94046 5.00332 5.06568 5.1268 5.1994 5.27197 5.33632 5.40054 5.47421 5.54594 5.61754 5.68135 5.75145 5.82445 5.89736 5.96671 6.0004 6.03833 6.07626 6.11417 6.15172 6.18379 6.21586 6.24792 6.27997 6.3098 6.38605 6.45375 6.52143 6.58775 6.65046 6.73042 6.81006 6.87663 6.9398 7.00296 7.08392 7.16462 7.24104 7.31007 7.37474 7.45718 7.5345 7.61159 7.68867 7.76356 7.7754 7.78649 7.79758 7.80866 7.81974 7.8866 7.95344 8.02028 8.08712 8.15622 8.23747 8.31615 8.39394 8.47224 8.55079 8.62919 8.70757 8.7855 8.86174 8.93805 9.01325 9.08888 9.16477 9.24064 9.31627 9.34409 9.37194 9.39979 9.42764 9.4548 9.50119 9.54759 9.59398 9.64031 9.68386 9.75883 9.82991 9.90063 9.96685 10.0311 10.1001 10.1691 10.2322 10.2893 10.3465 10.4077 10.4631 10.5176 10.5721 10.6241 10.6246 10.6252 10.6257 10.6263 10.6268 10.6767 10.7265 10.7763 10.8258 10.874 10.9175 10.9608 11.0028 11.0433 11.0838 11.1195 11.153 11.1857 11.2183 11.251 11.2514 11.2517 11.2521 11.2524 11.2528 11.2793 11.3058 11.3323 11.3575 11.3799 11.3991 11.4183 11.4347 11.4483 11.462 11.4692 11.475 11.4798 11.4847 11.4897 11.492 11.4944 11.4967 11.4988 11.5006 11.5024 11.5037 11.5049 11.5058 11.5065 11.5012 11.496 11.4915 11.4868 11.4816 11.4752 11.4698 11.4647 11.4596 11.4541 11.4509 11.4476 11.4444 11.4413 11.439 11.4287 11.4179 11.407 11.3987 11.3913 11.3794 11.3674 11.3599 11.3531 11.3461 11.3353 11.3305 11.326 11.3212 11.3163 11.3156 11.3156 11.3156 11.3157 11.3157 11.3148 11.3136 11.3123 11.3108 11.3137 11.3161 11.3207 11.3252 11.3324 11.3425 11.3515 11.3602 11.3726 11.39 11.4071 11.4237 11.4401 11.4605 11.4851 11.5093 11.5338 11.5581 11.5853 11.617 11.6483 11.6804 11.7122 11.7456 11.7838 11.8218 11.8604 11.8987 11.9378 11.982 12.026 12.0698 12.1135 12.1581 12.2065 12.2548 12.3021 12.3493 12.3984 12.4497 12.5009 12.5504 12.5999 12.6522 12.705 12.7578 12.8085 12.8597 12.9132 12.9664 13.0195 13.0704 13.1225 13.1751 13.2278 13.2796 13.3296 13.3805 13.4313 13.4822 13.5326 13.5585 13.5845 13.6105 13.6365 13.6615 13.6843 13.707 13.7298 13.7525 13.7753 13.8217 13.8676 13.9134 13.9593 14.0049 14.0491 14.0916 14.1339 14.1757 14.2167 14.2568 14.2966 14.3345 14.3707 14.4069 14.4423 14.4778 14.5114 14.5431 14.5748 14.6058 14.6365 14.6658 14.694 14.7215 14.7484 14.774 14.7993 14.8247 14.8486 14.8713 14.8929 14.9146 14.9362 14.9577 14.9611 14.9643 14.9676 14.9708 14.9741 14.9893 15.0045 15.0197 15.0349 15.0493 15.0653 15.0804 15.0955 15.1106 15.1244 15.1377 15.15 15.162 15.1734 15.1844 15.1947 15.2047 15.2136 15.2217 15.2298 15.2371 15.2443 15.2503 15.2551 15.2598 15.2636 15.2674 15.2702 15.2712 15.2723 15.2722 15.2716 15.2695 15.2658 15.2613 15.2554 15.2493 15.2429 15.2361 15.2285 15.2206 15.2097 15.1987 15.1877 15.1765 15.1755 15.1743 15.173 15.1718 15.1705 15.1537 15.1369 15.12 15.103 15.0809 15.0559 15.0294 15.0023 14.9722 14.9409 14.9087 14.8764 14.842 14.8055 14.7689 14.731 14.6921 14.6519 14.6115 14.5699 14.5304 14.4891 14.4479 14.4066 14.3566 14.3538 14.351 14.3482 14.3454 14.3425 14.292 14.2413 14.1907 14.14 14.0876 14.0326 13.9765 13.9201 13.8624 13.8035 13.742 13.6804 13.6176 13.5531 13.4886 13.4213 13.354 13.284 13.2119 13.1398 13.0647 12.9886 12.9114 12.8338 12.7553 12.6735 12.5877 12.5019 12.4161 12.3285 12.2462 12.1625 12.0787 11.995 11.8866 11.88 11.8733 11.8666 11.8599 11.8531 11.7498 11.6464 11.5429 11.4394 11.3343 11.2236 11.1111 10.9986 10.886 10.7699 10.6505 10.5275 10.404 10.2789 10.1506 10.0188 9.88485 9.74798 9.60694 9.46423 9.31738 9.17053 9.01698 8.85697 8.69694 8.53207 8.36721 8.19499 8.01567 7.83634 7.65142 7.46651 7.27317 7.07173 6.87029 6.66242 6.45427 6.23642 6.01082 5.78441 5.55065 5.31455 5.07304 4.8275 4.5793 4.32295 4.05186 3.76893 3.47856 3.1724 2.85592 2.56766 2.28697 2.00913 1.76114 1.50514 1.14736 0.789042 0.430654 0