# vtk DataFile Version 2.0
track0
ASCII
DATASET POLYDATA
POINTS 11221 double
-0.0205 0.001 1e-05
-0.0204991 0.00100536 1e-05
-0.0204976 0.00101063 1e-05
-0.0204947 0.00101518 1e-05
-0.0204905 0.00101864 1e-05
-0.0204746 0.00102682 1e-05
-0.0201831 0.00105563 1e-05
-0.0203616 0.00128793 1e-05
-0.0204488 0.00141936 1e-05
-0.0201625 0.0014444 1e-05
-0.0201519 0.00173163 1e-05
-0.0202219 0.00184007 1e-05
-0.0200495 0.00193025 1e-05
-0.0200808 0.00212221 1e-05
-0.0201294 0.00229098 1e-05
-0.0200087 0.00238763 1e-05
-0.0199911 0.00254123 1e-05
-0.0200041 0.0026953 1e-05
-0.0199827 0.00277425 1e-05
-0.019869 0.00287784 1e-05
-0.0198179 0.00302292 1e-05
-0.0198054 0.00317624 1e-05
-0.0197599 0.00329221 1e-05
-0.0196347 0.00340323 1e-05
-0.0195485 0.00354672 1e-05
-0.0194776 0.0036983 1e-05
-0.0193909 0.0038415 1e-05
-0.0193841 0.00384734 1e-05
-0.0193107 0.00390806 1e-05
-0.0192438 0.00397588 1e-05
-0.019179 0.00404567 1e-05
-0.0191112 0.00411259 1e-05
-0.0190172 0.00419773 1e-05
-0.0189564 0.00424665 1e-05
-0.0188938 0.00429327 1e-05
-0.0188296 0.00433759 1e-05
-0.0187639 0.00437958 1e-05
-0.0186583 0.00444232 1e-05
-0.0184261 0.00456519 1e-05
-0.018185 0.00466939 1e-05
-0.0179369 0.00475554 1e-05
-0.0176828 0.00482186 1e-05
-0.0174976 0.0048534 1e-05
-0.0172058 0.00488411 1e-05
-0.0169124 0.00488584 1e-05
-0.0166199 0.00486347 1e-05
-0.0163297 0.00482024 1e-05
-0.0160387 0.00475612 1e-05
-0.0158295 0.00469336 1e-05
-0.0156239 0.00461954 1e-05
-0.0154225 0.00453501 1e-05
-0.0152239 0.00444402 1e-05
-0.0152205 0.00444232 1e-05
-0.015104 0.00438399 1e-05
-0.0149903 0.00432038 1e-05
-0.0148798 0.00425144 1e-05
-0.0147716 0.00417888 1e-05
-0.0146381 0.00408347 1e-05
-0.0145773 0.00403624 1e-05
-0.0145174 0.00398793 1e-05
-0.0144585 0.0039385 1e-05
-0.0144004 0.00388796 1e-05
-0.0143546 0.00384734 1e-05
-0.0142305 0.00373631 1e-05
-0.0141129 0.00361838 1e-05
-0.0140029 0.0034934 1e-05
-0.0138988 0.00336341 1e-05
-0.0138444 0.00329221 1e-05
-0.0137672 0.00318862 1e-05
-0.0136976 0.00307984 1e-05
-0.0136343 0.00296725 1e-05
-0.0135748 0.0028526 1e-05
-0.0135376 0.00277425 1e-05
-0.0134946 0.0026776 1e-05
-0.0134587 0.00257807 1e-05
-0.0134268 0.00247718 1e-05
-0.0133995 0.00237496 1e-05
-0.0133815 0.00229098 1e-05
-0.0133664 0.0022008 1e-05
-0.0133574 0.00210982 1e-05
-0.0133537 0.00201846 1e-05
-0.013356 0.00192706 1e-05
-0.0133645 0.00184007 1e-05
-0.0133793 0.00175593 1e-05
-0.0134018 0.00167351 1e-05
-0.0134312 0.00159329 1e-05
-0.0134675 0.00151599 1e-05
-0.0135242 0.00141936 1e-05
-0.0135816 0.00134085 1e-05
-0.01365 0.00127163 1e-05
-0.0137241 0.00120866 1e-05
-0.0138028 0.00115144 1e-05
-0.0139966 0.00102682 1e-05
-0.0141249 0.000957588 1e-05
-0.0142599 0.000902619 1e-05
-0.0143982 0.000856451 1e-05
-0.0145372 0.000812317 1e-05
-0.0146381 0.000781931 1e-05
-0.014722 0.000757658 1e-05
-0.0148064 0.000734731 1e-05
-0.014891 0.000712942 1e-05
-0.0149761 0.00069317 1e-05
-0.0151499 0.000660566 1e-05
-0.0153277 0.000638011 1e-05
-0.0155058 0.000618865 1e-05
-0.0156842 0.000602373 1e-05
-0.0158628 0.000587872 1e-05
-0.0160387 0.000568187 1e-05
-0.0162832 0.000518318 1e-05
-0.0165314 0.000493589 1e-05
-0.0167807 0.000482547 1e-05
-0.0170301 0.000475724 1e-05
-0.0174976 0.000406226 1e-05
-0.0174976 0.000406226 1e-05
-0.0174976 0.000406226 1e-05
-0.0174976 0.000406226 1e-05
-0.0174976 0.000406226 1e-05
-0.0174976 0.000406226 1e-05
-0.0174951 0.000388749 1e-05
-0.0174897 0.00037195 1e-05
-0.017482 0.000356069 1e-05
-0.0174727 0.000341132 1e-05
-0.0174557 0.000318841 1e-05
-0.0173838 0.000255072 1e-05
-0.0172967 0.000214399 1e-05
-0.0172047 0.000186603 1e-05
-0.0171106 0.000167061 1e-05
-0.0160387 4.43903e-06 1e-05
-0.0160288 3.55123e-06 1e-05
-0.0160189 3.09742e-06 1e-05
-0.016009 2.68532e-06 1e-05
-0.0159991 2.27322e-06 1e-05
-0.0159444 0 1e-05
-0.0205 0.00367778 1e-05
-0.0203955 0.00371169 1e-05
-0.0203045 0.0037732 1e-05
-0.020217 0.00383976 1e-05
-0.0201979 0.00384734 1e-05
-0.0199618 0.0039343 1e-05
-0.019766 0.0040924 1e-05
-0.0196201 0.00429746 1e-05
-0.0194752 0.00444232 1e-05
-0.0193836 0.00449613 1e-05
-0.0192962 0.00455661 1e-05
-0.0192131 0.00462282 1e-05
-0.0191277 0.00468592 1e-05
-0.0190172 0.00476139 1e-05
-0.018914 0.00482511 1e-05
-0.0188082 0.0048843 1e-05
-0.0187001 0.00493903 1e-05
-0.0185898 0.00498942 1e-05
-0.0183683 0.00508 1e-05
-0.0181942 0.00513499 1e-05
-0.018018 0.00518301 1e-05
-0.0178401 0.00522423 1e-05
-0.0176607 0.00525851 1e-05
-0.0174976 0.0052815 1e-05
-0.0172058 0.0053094 1e-05
-0.0169127 0.00531424 1e-05
-0.0166201 0.00529724 1e-05
-0.0163294 0.00526005 1e-05
-0.0160387 0.00520506 1e-05
-0.0159405 0.00518005 1e-05
-0.0158429 0.00515305 1e-05
-0.0157458 0.00512415 1e-05
-0.0156491 0.00509404 1e-05
-0.0156059 0.00508 1e-05
-0.0154124 0.00501578 1e-05
-0.0152222 0.00494211 1e-05
-0.0150361 0.00485863 1e-05
-0.0148544 0.0047661 1e-05
-0.0146381 0.00464625 1e-05
-0.0145719 0.00460546 1e-05
-0.0145063 0.00456379 1e-05
-0.0144413 0.00452123 1e-05
-0.0143768 0.00447789 1e-05
-0.0143244 0.00444232 1e-05
-0.0141509 0.00432332 1e-05
-0.0139839 0.00419531 1e-05
-0.0138247 0.00405779 1e-05
-0.0136701 0.00391504 1e-05
-0.0135997 0.00384734 1e-05
-0.0135385 0.00378728 1e-05
-0.0134793 0.00372513 1e-05
-0.0134217 0.00366157 1e-05
-0.013365 0.00359724 1e-05
-0.0132934 0.00351376 1e-05
-0.013257 0.00346945 1e-05
-0.0132209 0.00342478 1e-05
-0.0131854 0.00337973 1e-05
-0.0131503 0.0033343 1e-05
-0.0131184 0.00329221 1e-05
-0.0130403 0.00318862 1e-05
-0.0129642 0.0030836 1e-05
-0.0128908 0.00297658 1e-05
-0.0128208 0.00286743 1e-05
-0.0127635 0.00277425 1e-05
-0.0127058 0.0026776 1e-05
-0.0126495 0.00258012 1e-05
-0.0125948 0.00248176 1e-05
-0.0125416 0.0023826 1e-05
-0.0124948 0.00229098 1e-05
-0.0124512 0.0022008 1e-05
-0.0124079 0.00211048 1e-05
-0.0123649 0.00202004 1e-05
-0.0123221 0.00192947 1e-05
-0.0122812 0.00184007 1e-05
-0.0122463 0.00175593 1e-05
-0.0122099 0.00167242 1e-05
-0.0121722 0.00158948 1e-05
-0.012133 0.00150722 1e-05
-0.0120889 0.00141936 1e-05
-0.0120716 0.00138596 1e-05
-0.012053 0.00135329 1e-05
-0.0120332 0.00132132 1e-05
-0.0120122 0.00129013 1e-05
-0.0120025 0.00127695 1e-05
-0.0119645 0.00122693 1e-05
-0.0119232 0.00117947 1e-05
-0.0118789 0.00113492 1e-05
-0.0118315 0.0010936 1e-05
-0.011743 0.00102682 1e-05
-0.011628 0.000953567 1e-05
-0.0115051 0.000894559 1e-05
-0.0113775 0.000846311 1e-05
-0.0112471 0.000806499 1e-05
-0.0107632 0.000720141 1e-05
-0.0105252 0.000729155 1e-05
-0.0102871 0.000725448 1e-05
-0.010049 0.000723465 1e-05
-0.00981086 0.000722534 1e-05
-0.00957337 0.000722269 1e-05
-0.00934491 0.00073179 1e-05
-0.00911628 0.000728327 1e-05
-0.00888764 0.000725958 1e-05
-0.00865899 0.000724339 1e-05
-0.00843108 0.000723247 1e-05
-0.00821175 0.000732314 1e-05
-0.00799227 0.000728288 1e-05
-0.00777277 0.000725274 1e-05
-0.00755327 0.000722987 1e-05
-0.00733443 0.000721235 1e-05
-0.00712387 0.000729664 1e-05
-0.00691317 0.000725518 1e-05
-0.00670246 0.000722291 1e-05
-0.00649174 0.000719744 1e-05
-0.0062816 0.00071771 1e-05
-0.00607944 0.000725435 1e-05
-0.00587718 0.000721546 1e-05
-0.0056749 0.000718448 1e-05
-0.00547262 0.000715949 1e-05
-0.00527083 0.000713911 1e-05
-0.00507675 0.000720941 1e-05
-0.00488258 0.000717455 1e-05
-0.00468839 0.00071463 1e-05
-0.0044942 0.000712316 1e-05
-0.00430044 0.000710404 1e-05
-0.00411412 0.000716791 1e-05
-0.00392771 0.000713726 1e-05
-0.0037413 0.000711205 1e-05
-0.00355488 0.000709111 1e-05
-0.00336883 0.000707359 1e-05
-0.00318995 0.000713167 1e-05
-0.003011 0.000710486 1e-05
-0.00283204 0.000708259 1e-05
-0.00265307 0.000706395 1e-05
-0.00247443 0.000704827 1e-05
-0.0023027 0.000710155 1e-05
-0.0021309 0.000707801 1e-05
-0.0019591 0.00070582 1e-05
-0.00178729 0.00070414 1e-05
-0.00161577 0.000702707 1e-05
-0.0014509 0.00070758 1e-05
-0.00128597 0.000705514 1e-05
-0.00112104 0.000703978 1e-05
-0.000956097 0.000702873 1e-05
-0.000791418 0.00070212 1e-05
-0.000633135 0.000707432 1e-05
-0.000474763 0.000706912 1e-05
-0.00031639 0.00070696 1e-05
-0.000158018 0.000707481 1e-05
0 0.000708393 1e-05
0.000105677 0.000713248 1e-05
0.000211459 0.000714491 1e-05
0.000317239 0.000715902 1e-05
0.000423016 0.000717463 1e-05
0.000528387 0.000719154 1e-05
0.000634886 0.000724912 1e-05
0.00074152 0.000727041 1e-05
0.000848152 0.000729234 1e-05
0.000954783 0.000731488 1e-05
0.00106088 0.000733785 1e-05
0.00116821 0.00074032 1e-05
0.00127569 0.000743394 1e-05
0.00138317 0.000746642 1e-05
0.00149064 0.000750052 1e-05
0.00159752 0.000753806 1e-05
0.00170568 0.000761815 1e-05
0.00181402 0.000766797 1e-05
0.00192239 0.000771237 1e-05
0.00203075 0.000775756 1e-05
0.00213833 0.000781432 1e-05
0.00224733 0.000790686 1e-05
0.00235654 0.000796993 1e-05
0.00246584 0.000801598 1e-05
0.00257514 0.000806089 1e-05
0.00268334 0.000812507 1e-05
0.00279319 0.000822099 1e-05
0.00290326 0.000828607 1e-05
0.00301347 0.000832218 1e-05
0.00312369 0.000835571 1e-05
0.00323259 0.000841659 1e-05
0.00334329 0.000850711 1e-05
0.00345421 0.000856528 1e-05
0.00356526 0.000859117 1e-05
0.00367631 0.000861409 1e-05
0.00378611 0.000866327 1e-05
0.00389767 0.000874002 1e-05
0.00400941 0.000878435 1e-05
0.00412123 0.000879661 1e-05
0.00423306 0.000880464 1e-05
0.00434393 0.000883604 1e-05
0.00445636 0.000889186 1e-05
0.0045689 0.000891861 1e-05
0.00468147 0.000891673 1e-05
0.00479404 0.000890972 1e-05
0.00490609 0.000892074 1e-05
0.0050194 0.000895047 1e-05
0.00513274 0.000895638 1e-05
0.00524607 0.000893883 1e-05
0.00535939 0.000891538 1e-05
0.00547262 0.000890355 1e-05
0.00558681 0.000890367 1e-05
0.00570098 0.000888532 1e-05
0.00581511 0.000884874 1e-05
0.00592921 0.000880555 1e-05
0.00604356 0.000876794 1e-05
0.00615863 0.000873598 1e-05
0.00627366 0.000869014 1e-05
0.00638862 0.000863052 1e-05
0.00650355 0.000856403 1e-05
0.00661893 0.000849786 1e-05
0.0067349 0.000843232 1e-05
0.00685081 0.000835646 1e-05
0.00696665 0.000827182 1e-05
0.00708245 0.000818071 1e-05
0.00719878 0.000808405 1e-05
0.00731565 0.000798449 1e-05
0.00743245 0.000787716 1e-05
[...]
POINT_DATA 11221
 FIELD attributes 1
U 3 11221 float
1.1328 	6.39887 	0 1.5917 	5.97927 	0 3.06054 	4.6599 	0 4.29065 	3.52874 	0 5.18155 	2.68002 	0 7.1541 	0.707078 	0 -4.22521 	5.50134 	0 -5.18621 	7.8103 	0 7.56578 	0.661638 	0 0.172595 	4.66513 	0 -9.05129 	14.0258 	0 5.93243 	3.10455 	0 -2.52891 	15.5157 	0 -6.42157 	22.297 	0 7.16742 	5.74063 	0 1.97803 	17.2201 	0 -2.24954 	26.6766 	0 4.29394 	15.8474 	0 9.07751 	8.26926 	0 6.22471 	17.6642 	0 2.3909 	29.3735 	0 7.49006 	19.1117 	0 11.9519 	10.5957 	0 10.9785 	18.2837 	0 10.8653 	23.2105 	0 12.865 	21.2635 	0 16.0838 	13.7021 	0 16.2322 	13.4303 	0 16.3927 	16.6272 	0 16.8098 	18.0987 	0 17.5792 	17.3588 	0 18.361 	16.6171 	0 19.4175 	15.6287 	0 20.1837 	15.0448 	0 20.9585 	14.4635 	0 21.7406 	13.8856 	0 22.0863 	13.1217 	0 22.0703 	11.682 	0 24.2715 	10.4891 	0 26.3529 	9.15044 	0 27.0744 	7.06458 	0 27.2285 	4.63809 	0 27.3551 	2.87913 	0 28.0741 	0.165631 	0 28.332 	-2.16739 	0 28.2594 	-4.2092 	0 27.2012 	-5.99352 	0 25.807 	-7.74127 	0 25.1982 	-9.04857 	0 24.5586 	-10.3066 	0 23.3515 	-10.6994 	0 22.1341 	-11.0683 	0 22.1127 	-11.0743 	0 21.4845 	-12.0198 	0 20.8595 	-13.0114 	0 20.0203 	-13.4263 	0 19.1101 	-13.6578 	0 17.9618 	-13.9624 	0 17.5257 	-14.1394 	0 17.0883 	-14.3196 	0 16.6498 	-14.503 	0 16.3181 	-14.4522 	0 16.0696 	-14.3777 	0 14.8147 	-14.864 	0 13.5175 	-15.355 	0 12.3277 	-15.3977 	0 11.4557 	-14.9755 	0 10.982 	-14.748 	0 9.65543 	-15.0837 	0 8.54353 	-15.198 	0 7.77016 	-14.9766 	0 6.95706 	-14.6576 	0 6.36516 	-14.2917 	0 5.15405 	-14.2878 	0 4.40964 	-13.9511 	0 3.64323 	-13.6246 	0 2.85363 	-13.3102 	0 2.16427 	-12.9699 	0 1.25379 	-12.611 	0 0.493397 	-12.2008 	0 -0.297548 	-11.8048 	0 -1.11944 	-11.4261 	0 -1.94035 	-11.0426 	0 -2.87857 	-10.5456 	0 -3.69196 	-10.0824 	0 -4.54029 	-9.64851 	0 -5.41882 	-9.2487 	0 -6.42914 	-8.78635 	0 -8.01476 	-8.11529 	0 -8.99224 	-7.6369 	0 -9.94308 	-7.23206 	0 -10.7304 	-6.89786 	0 -11.6386 	-6.28064 	0 -13.1506 	-5.35406 	0 -14.0393 	-4.68757 	0 -13.1814 	-4.18727 	0 -12.3656 	-3.72272 	0 -11.8072 	-3.41362 	0 -12.4085 	-3.37336 	0 -13.0422 	-3.35756 	0 -13.8598 	-3.21911 	0 -15.0465 	-2.82274 	0 -17.54 	-2.22569 	0 -18.2472 	-1.96107 	0 -19.2853 	-1.78259 	0 -20.5803 	-1.67112 	0 -19.9206 	-2.22998 	0 -16.3596 	-3.33706 	0 -24.5341 	-2.4436 	0 -37.1706 	-1.64647 	0 -49.5687 	-1.35596 	0 -35.3202 	-5.25151 	0 1.81956 	-13.0841 	0 1.81956 	-13.0841 	0 1.81956 	-13.0841 	0 1.81956 	-13.0841 	0 1.81956 	-13.0841 	0 1.81956 	-13.0841 	0 4.21858 	-13.1214 	0 6.34716 	-13.1079 	0 8.21003 	-13.0536 	0 9.83703 	-12.9676 	0 14.8281 	-13.1457 	0 23.0789 	-10.7777 	0 30.0048 	-9.06326 	0 38.0134 	-7.89295 	0 46.6092 	-7.07129 	0 0.352864 	-0.0316942 	0 1.18432 	-0.0542126 	0 1.48791 	-0.0618389 	0 1.28995 	-0.0536115 	0 1.09199 	-0.0453841 	0 0 	0 	0
9.83295 	3.19086 	0 9.65837 	6.52547 	0 10.0781 	7.67486 	0 11.816 	4.68057 	0 12.0609 	4.44113 	0 12.9624 	10.4672 	0 13.4045 	18.8435 	0 15.3401 	15.334 	0 17.3395 	10.1863 	0 17.8522 	12.3608 	0 18.3291 	14.6061 	0 18.907 	13.9572 	0 19.5024 	13.3181 	0 20.2731 	12.5265 	0 21.1486 	11.8325 	0 22.0478 	11.1557 	0 22.9681 	10.4965 	0 23.0557 	9.42898 	0 23.1833 	7.31989 	0 24.2091 	6.59819 	0 25.2151 	5.84153 	0 26.0651 	4.98198 	0 26.0966 	3.6778 	0 26.1657 	2.50215 	0 26.7758 	0.442212 	0 27.5032 	-1.59774 	0 27.2034 	-3.48041 	0 26.2626 	-4.96811 	0 25.3025 	-6.4473 	0 25.1388 	-6.9516 	0 24.956 	-7.42782 	0 24.5362 	-7.6392 	0 24.1181 	-7.84777 	0 23.9317 	-7.93989 	0 23.2915 	-9.02301 	0 22.6961 	-10.1816 	0 22.0084 	-11.2039 	0 20.8927 	-11.5782 	0 19.5617 	-12.0591 	0 19.2542 	-12.2284 	0 18.9489 	-12.4007 	0 18.6569 	-12.5365 	0 18.413 	-12.5117 	0 18.2152 	-12.4919 	0 17.0568 	-13.0766 	0 15.8908 	-13.7249 	0 14.9588 	-13.8147 	0 14.1063 	-13.5611 	0 13.7111 	-13.4444 	0 13.0505 	-13.7148 	0 12.5199 	-13.8069 	0 12.1116 	-13.7313 	0 11.7012 	-13.6595 	0 11.1727 	-13.5728 	0 10.9291 	-13.5526 	0 10.6842 	-13.534 	0 10.4379 	-13.5172 	0 10.2225 	-13.4745 	0 10.086 	-13.3831 	0 9.60445 	-13.2472 	0 8.93177 	-13.0381 	0 8.24282 	-12.836 	0 7.69619 	-12.5174 	0 7.28346 	-12.2083 	0 6.89783 	-11.9504 	0 6.50612 	-11.696 	0 6.08599 	-11.3353 	0 5.54839 	-10.866 	0 5.04373 	-10.4393 	0 4.8198 	-10.0533 	0 4.59812 	-9.66648 	0 4.38133 	-9.27787 	0 4.05657 	-8.85962 	0 3.47677 	-8.37869 	0 3.47127 	-7.96054 	0 3.39261 	-7.46933 	0 3.32153 	-6.97732 	0 3.25948 	-6.48451 	0 3.04325 	-5.88595 	0 3.22043 	-5.65086 	0 3.37151 	-5.44479 	0 3.52906 	-5.24055 	0 3.6932 	-5.0385 	0 3.76742 	-4.95182 	0 3.98895 	-4.59258 	0 4.2214 	-4.2396 	0 4.46429 	-3.89481 	0 4.71675 	-3.56012 	0 5.28971 	-3.36827 	0 6.45198 	-3.09649 	0 7.53354 	-2.84949 	0 8.55781 	-2.61204 	0 10.197 	-1.81987 	0 15.2903 	0.579184 	0 15.3605 	-0.23911 	0 16.1597 	-0.134581 	0 16.917 	-0.0661196 	0 17.6487 	-0.0196854 	0 18.871 	0.786427 	0 18.7409 	-0.283889 	0 19.2718 	-0.199696 	0 19.7786 	-0.14 	0 20.2687 	-0.0971128 	0 21.1777 	0.875476 	0 20.9483 	-0.384238 	0 21.3415 	-0.293119 	0 21.7136 	-0.226188 	0 22.0707 	-0.176678 	0 22.7816 	0.911861 	0 22.5198 	-0.443085 	0 22.8332 	-0.349731 	0 23.1281 	-0.279542 	0 23.4094 	-0.226522 	0 23.9948 	0.916836 	0 23.7202 	-0.456004 	0 23.9787 	-0.367277 	0 24.2215 	-0.299237 	0 24.4523 	-0.246884 	0 24.9588 	0.903954 	0 24.675 	-0.442938 	0 24.8912 	-0.362097 	0 25.0942 	-0.298989 	0 25.287 	-0.249598 	0 25.7418 	0.882371 	0 25.4498 	-0.418379 	0 25.6323 	-0.346671 	0 25.8038 	-0.289775 	0 25.9667 	-0.244543 	0 26.3863 	0.856733 	0 26.0864 	-0.390903 	0 26.2455 	-0.326597 	0 26.3953 	-0.274812 	0 26.5376 	-0.233044 	0 26.9372 	0.835751 	0 26.6327 	-0.364867 	0 26.7797 	-0.308884 	0 26.9188 	-0.263218 	0 27.0515 	-0.225917 	0 27.439 	0.810989 	0 27.1275 	-0.339785 	0 27.3304 	-0.254577 	0 27.5209 	-0.184452 	0 27.7013 	-0.126601 	0 28.1606 	0.945127 	0 27.802 	-0.0913989 	5.58022e-21 28.0577 	0.0086309 	2.11917e-20 28.2978 	0.0930858 	3.66828e-20 28.5249 	0.164621 	5.20739e-20 29.1557 	1.33939 	6.5151e-20 28.7425 	0.337842 	1.22566e-19 28.9378 	0.385933 	1.14343e-19 29.1283 	0.429975 	1.06293e-19 29.3143 	0.470372 	9.84005e-20 29.999 	1.62184 	3.78202e-20 29.5042 	0.588995 	4.8305e-20 29.6247 	0.609482 	4.836e-20 29.7433 	0.628561 	4.84307e-20 29.8601 	0.646352 	4.85159e-20 30.5614 	1.86091 	4.03627e-20 30.0613 	0.85971 	2.15196e-20 30.1321 	0.910589 	4.50167e-20 30.198 	0.958261 	6.84239e-20 30.29 	1.06384 	9.21021e-20 30.936 	2.29075 	1.22039e-19 30.5497 	1.40489 	8.79646e-20 30.4917 	1.24919 	5.62036e-20 30.5103 	1.27234 	2.49326e-20 30.6714 	1.61842 	1.84232e-20 31.1132 	2.64157 	6.4842e-20 30.8745 	1.78296 	1.85595e-19 30.754 	1.29554 	2.48404e-19 30.743 	1.26338 	2.40419e-19 30.9114 	1.83357 	1.37946e-19 31.1399 	2.71914 	-1.36577e-20 31.0444 	1.83528 	-1.49124e-20 30.9997 	1.01578 	-1.7883e-20 30.9702 	0.942075 	-2.53482e-20 31.0386 	1.7354 	-6.4238e-20 31.0658 	2.54 	-1.03316e-19 31.1097 	1.63147 	-2.83805e-19 31.2044 	0.727473 	-4.64993e-19 31.1843 	0.64384 	-4.59488e-19 31.0698 	1.39151 	-2.60438e-19 30.9197 	2.12698 	-6.28474e-20 31.0878 	1.23341 	1.35551e-19 31.3015 	0.343106 	3.33308e-19 31.2859 	0.224793 	3.51707e-19 31.012 	0.878348 	1.89772e-19 30.7109 	1.52453 	2.92382e-20 30.9441 	0.735571 	1.75844e-20 31.2141 	-0.0519048 	5.89581e-21 31.1782 	-0.194245 	1.4434e-20 30.7991 	0.302852 	4.14215e-20 30.4007 	0.797643 	6.87265e-20 30.6328 	0.159721 	5.05065e-20 30.8929 	-0.478384 	3.1696e-20 30.8244 	-0.637927 	2.20351e-20 30.4027 	-0.317667 	2.23987e-20 29.9684 	0.00313557 	2.29036e-20 30.1528 	-0.4844 	1.33303e-20 30.3579 	-0.97315 	3.53289e-21 30.2587 	-1.14516 	-5.22831e-21 29.8449 	-0.981755 	-1.3379e-20 29.4239 	-0.817273 	-2.14911e-20 29.5384 	-1.17712 	-1.43012e-20 29.6681 	-1.53863 	-7.2503e-21 29.5324 	-1.70857 	-8.19431e-21 29.1679 	-1.67263 	-1.62591e-20 28.791 	-1.62718 	-2.46621e-20 28.8303 	-1.88702 	-1.77945e-20 28.7887 	-2.10328 	-1.14148e-20 28.6155 	-2.25156 	-5.71151e-21 28.3931 	-2.35907 	-1.22419e-20 28.0733 	-2.39164 	-4.12822e-20 28.043 	-2.57689 	-1.52699e-19 27.8491 	-2.70953 	-1.65487e-19 27.6559 	-2.8416 	-1.74588e-19 27.4681 	-2.97462 	-1.82718e-19 27.2452 	-3.08067 	-1.43524e-19 27.1917 	-3.13462 	-1.92634e-19 27.0972 	-3.18318 	-1.71578e-19 27.0036 	-3.23199 	-1.50272e-19 26.911 	-3.28106 	-1.28714e-19 26.8347 	-3.32209 	-1.10564e-19 26.7212 	-3.39424 	-9.64148e-20 26.6098 	-3.46702 	-8.21476e-20 26.5005 	-3.54042 	-6.77612e-20 26.3934 	-3.61445 	-5.32544e-20 26.1471 	-3.6903 	-5.69063e-20 26.0379 	-3.81322 	6.17535e-20 25.8258 	-3.91927 	1.07166e-19 25.6194 	-4.02734 	1.53639e-19 25.3007 	-4.13178 	1.20047e-19 24.8612 	-4.23334 	1.57406e-21 24.7239 	-4.33342 	-1.12424e-19 24.5903 	-4.43534 	-2.26332e-19 24.3187 	-4.52783 	-2.30891e-19 23.9147 	-4.60947 	-1.27535e-19 23.512 	-4.6944 	-2.31968e-20 23.3405 	-4.76858 	-4.31883e-21 23.0474 	-4.83763 	-1.21472e-23 22.7208 	-4.90675 	-8.20565e-24 22.3976 	-4.97815 	-4.32623e-24 22.1448 	-5.03645 	-1.31049e-24 22.1312 	-5.04058 	-9.46308e-25 22.1177 	-5.04471 	-5.82002e-25 22.1041 	-5.04884 	-2.17579e-25 22.0861 	-5.05275 	0 22.0612 	-5.0563 	0 21.7469 	-5.12332 	5.19886e-21 21.424 	-5.19322 	1.11323e-20 21.1047 	-5.2661 	1.69421e-20 20.6784 	-5.34326 	3.43984e-20 20.1362 	-5.42678 	6.40941e-20 19.8649 	-5.48789 	4.06186e-20 19.5847 	-5.55284 	2.08343e-20 19.137 	-5.63421 	5.73606e-20 18.6907 	-5.72051 	9.46428e-20 18.1964 	-5.82206 	1.44575e-19 18.1525 	-5.83347 	1.40118e-19 18.1035 	-5.84577 	1.37042e-19 18.0386 	-5.86062 	1.3823e-19 17.9737 	-5.87561 	1.3944e-19 17.9117 	-5.89005 	1.40616e-19 17.5353 	-5.96329 	1.56383e-19 17.1598 	-6.04035 	1.73112e-19 16.7851 	-6.12141 	1.90854e-19 16.3767 	-6.19924 	1.321e-19 15.9404 	-6.28181 	4.19838e-20 15.5854 	-6.37099 	2.17745e-20 15.2297 	-6.46385 	3.43011e-21 14.8638 	-6.55186 	2.8578e-21 14.4984 	-6.64495 	2.3324e-21 14.2418 	-6.71423 	1.99762e-21 14.1501 	-6.73435 	1.3301e-21 14.0584 	-6.75476 	6.61178e-22 13.9676 	-6.77532 	0 13.9373 	-6.78631 	0 13.9067 	-6.79759 	0 13.4677 	-6.88552 	0 13.0349 	-6.97975 	0 12.8001 	-7.05166 	-1.37797e-21 12.7764 	-7.09511 	-3.01796e-21 12.7515 	-7.14319 	-4.53636e-21 12.7072 	-7.1552 	-2.09289e-20 12.663 	-7.16731 	-3.72795e-20 12.663 	-7.16902 	-1.80783e-20 12.6757 	-7.16773 	1.13095e-20 12.688 	-7.16646 	3.98782e-20 12.6886 	-7.1561 	1.7744e-19 12.689 	-7.14562 	3.1489e-19 12.732 	-7.12828 	4.04162e-19 13.1001 	-7.05936 	1.27916e-19 13.4542 	-6.98872 	-1.44325e-19 13.4921 	-6.94096 	-1.18525e-19 13.5282 	-6.89278 	-9.22815e-20 13.7641 	-6.80035 	-2.66886e-19 13.9968 	-6.70611 	-4.42454e-19 14.2534 	-6.59796 	-6.38855e-19 14.383 	-6.53088 	-8.28155e-19 14.51 	-6.46326 	-1.01526e-18 14.6346 	-6.39511 	-1.20021e-18 14.749 	-6.31221 	-9.86407e-19 14.8548 	-6.22698 	-6.52527e-19 15.2235 	-5.98757 	-1.01591e-18 15.5754 	-5.74473 	-1.38841e-18 15.8683 	-5.505 	-1.25761e-18 16.0918 	-5.25214 	-6.91407e-19 16.2848 	-5.01795 	-1.68287e-19 16.6072 	-4.7325 	-6.38901e-20 16.8289 	-4.45552 	-2.46072e-20 16.9967 	-4.18203 	-1.69018e-20 17.1545 	-3.90715 	-8.90806e-21 17.3408 	-3.55678 	0 17.3766 	-3.51428 	-2.38814e-22 17.3913 	-3.47804 	-6.28415e-21 17.4059 	-3.44178 	-1.23187e-20 17.4203 	-3.4055 	-1.83423e-20 17.4365 	-3.3645 	-2.5134e-20 17.5312 	-3.11065 	-5.22569e-20 17.6199 	-2.85607 	-8.00419e-20 17.7029 	-2.60083 	-1.08479e-19 17.78 	-2.34498 	-1.37557e-19 17.6699 	-2.12919 	-1.21221e-19 17.8115 	-1.8295 	2.90066e-19 17.8479 	-1.56318 	3.49197e-19 17.8793 	-1.29645 	3.98845e-19 17.8778 	-1.03756 	3.79994e-19 17.6692 	-0.841766 	-7.54732e-20 17.7603 	-0.58081 	-9.44189e-20 17.7619 	-0.351573 	-6.78997e-20 17.7365 	-0.130996 	-2.89575e-20 17.6615 	0.0744338 	0 17.444 	0.232893 	0 17.4766 	0.446013 	0 17.4301 	0.628996 	1.61275e-21 17.3636 	0.805094 	3.63003e-21 17.2897 	0.979567 	4.25486e-21 17.0784 	1.10981 	-2.5259e-20 17.0609 	1.27966 	-2.31658e-19 16.9744 	1.42239 	-2.05648e-19 16.8878 	1.56573 	-1.76937e-19 16.8012 	1.70969 	-1.45492e-19 16.6649 	1.84246 	-7.36634e-21 16.6326 	1.93084 	6.93395e-21 16.579 	2.01172 	7.00324e-21 16.5256 	2.09286 	7.08366e-21 16.4724 	2.17427 	7.1753e-21 16.4393 	2.22539 	7.23973e-21 16.4046 	2.28028 	6.88757e-21 16.3701 	2.33531 	6.53003e-21 16.3356 	2.39048 	6.1671e-21 16.3012 	2.44581 	5.79875e-21 16.2543 	2.48967 	6.06865e-21 16.2084 	2.62127 	5.01377e-21 16.1434 	2.75044 	4.45358e-21 16.0791 	2.88018 	3.86551e-21 16.0099 	3.00549 	3.60307e-21 15.9194 	3.11467 	4.61171e-21 15.9027 	3.24195 	2.9421e-21 15.8865 	3.36957 	1.26137e-21 15.8508 	3.49996 	1.79024e-22 15.802 	3.62023 	4.08875e-22 15.753 	3.74261 	6.39952e-22 15.7577 	3.8681 	2.68851e-20 15.7582 	3.98868 	3.85064e-20 15.7526 	4.1024 	2.97834e-20 15.7473 	4.21612 	2.08313e-20 15.7397 	4.33779 	3.8072e-22 15.7464 	4.36531 	3.01039e-22 15.7515 	4.39095 	2.68698e-22 15.7558 	4.41566 	2.59442e-22 15.7601 	4.44036 	2.50218e-22 15.7642 	4.46382 	2.41484e-22 15.7728 	4.54694 	1.73626e-22 15.7814 	4.62998 	1.05516e-22 15.7901 	4.71292 	3.71567e-23 15.7958 	4.7915 	0 15.798 	4.86591 	0 15.8286 	4.95981 	0 15.8593 	5.05354 	0 15.8829 	5.13967 	3.91262e-21 15.9014 	5.2227 	1.80987e-20 15.9201 	5.30674 	3.23821e-20 15.9387 	5.34309 	1.96242e-20 15.9548 	5.37747 	1.74961e-20 15.9671 	5.40874 	3.21907e-20 15.9794 	5.43997 	4.69065e-20 15.9911 	5.46969 	6.09504e-20 16.0035 	5.50888 	7.14821e-20 16.0159 	5.54802 	8.20088e-20 16.0284 	5.58712 	9.25304e-20 16.0372 	5.6221 	8.85263e-20 16.0447 	5.65583 	7.93346e-20 16.0714 	5.71568 	4.47708e-20 16.0981 	5.7754 	1.01317e-20 16.1179 	5.82725 	-2.75234e-23 16.1336 	5.87362 	6.43216e-21 16.1489 	5.91969 	1.48273e-20 16.1555 	5.93138 	6.65618e-21 16.1615 	5.94245 	0 16.1653 	5.95079 	0 16.1691 	5.95913 	0 16.1728 	5.96735 	0 16.1838 	5.99744 	0 16.1947 	6.02751 	0 16.2056 	6.05755 	0 16.2116 	6.07855 	0 16.2172 	6.09885 	0 16.2288 	6.12303 	0 16.24 	6.14628 	0 16.2457 	6.15666 	0 16.2515 	6.16702 	0 16.2571 	6.17713 	0 16.2584 	6.18079 	0 16.2597 	6.18445 	0 16.261 	6.18811 	0 16.2617 	6.18923 	0 16.2624 	6.19029 	0 16.2716 	6.20157 	0 16.2792 	6.20966 	1.76442e-21 16.285 	6.21064 	4.61798e-21 16.2886 	6.19748 	7.51864e-21 16.2922 	6.18432 	1.04348e-20 16.2942 	6.18086 	5.14185e-21 16.2962 	6.1772 	4.85176e-24 16.2982 	6.16649 	1.75897e-22 16.3001 	6.15579 	3.46855e-22 16.3022 	6.14501 	5.1931e-22 16.3081 	6.13679 	5.83127e-22 16.314 	6.12857 	6.47135e-22 16.32 	6.12034 	7.11333e-22 16.3284 	6.10055 	1.87699e-20 16.337 	6.0796 	3.86529e-20 16.3479 	6.05241 	1.90088e-19 16.3592 	6.024 	3.29588e-19 16.3762 	5.97699 	2.90472e-19 16.3932 	5.93007 	2.51851e-19 16.4094 	5.88156 	2.01901e-19 16.4098 	5.87958 	2.19358e-19 16.4102 	5.87748 	2.32169e-19 16.411 	5.87476 	2.206e-19 16.4117 	5.87203 	2.09037e-19 16.4125 	5.86929 	1.97435e-19 16.4324 	5.81848 	-3.31874e-20 16.4523 	5.76762 	-2.61935e-19 16.4722 	5.71669 	-4.88806e-19 16.4959 	5.65161 	-2.83963e-19 16.5204 	5.58315 	4.40568e-20 16.5426 	5.52395 	-2.93754e-19 16.5664 	5.46018 	-5.04527e-19 16.594 	5.38525 	-4.05287e-19 16.6215 	5.31038 	-3.08076e-19 16.6524 	5.22588 	-2.00562e-19 16.6539 	5.22254 	-2.01513e-19 16.6554 	5.2192 	-2.02464e-19 16.6569 	5.21586 	-2.03417e-19 16.6584 	5.21207 	-2.04573e-19 16.6599 	5.20795 	-2.05882e-19 16.6927 	5.12217 	-1.76093e-19 16.7241 	5.03491 	-1.55409e-19 16.7553 	4.94753 	-1.35708e-19 16.7877 	4.85138 	-8.77843e-20 16.8202 	4.75157 	-2.45612e-20 16.856 	4.65773 	-5.53106e-19 16.8917 	4.56286 	-1.02618e-18 16.9288 	4.4564 	-8.4388e-19 16.9644 	4.3486 	-5.93463e-19 16.9947 	4.23701 	-5.74998e-20 17.0087 	4.19221 	-1.53648e-20 17.0239 	4.1444 	-1.88268e-21 17.0395 	4.0952 	-1.74368e-21 17.0551 	4.046 	-1.60356e-21 17.0725 	3.99057 	-1.44445e-21 17.0929 	3.92632 	-1.06355e-21 17.1132 	3.86203 	-6.84015e-22 17.1333 	3.79771 	-3.05843e-22 17.1531 	3.73222 	8.27091e-21 17.1719 	3.66241 	5.16468e-20 17.2153 	3.54499 	9.49736e-21 17.2524 	3.421 	-2.0523e-20 17.2872 	3.29501 	-4.73377e-20 17.3181 	3.15914 	-1.12268e-19 17.3469 	3.02236 	-1.87404e-19 17.3864 	2.88905 	-7.13113e-19 17.4253 	2.75572 	-1.2395e-18 17.4598 	2.61149 	-1.25506e-18 17.4873 	2.45538 	-7.49663e-19 17.5136 	2.30126 	-2.49887e-19 17.5503 	2.14911 	-3.15054e-19 17.5808 	1.98929 	-3.23546e-19 17.6048 	1.82145 	-2.72494e-19 17.6256 	1.65059 	-2.04366e-19 17.6361 	1.46953 	-6.87483e-20 17.6573 	1.28876 	-4.06819e-20 17.6687 	1.1039 	-4.8418e-20 17.6791 	0.919099 	-5.53391e-20 17.6887 	0.734381 	-6.14447e-20 17.6894 	0.543071 	-9.2317e-20 17.6965 	0.34905 	-3.02833e-19 17.692 	0.156685 	-3.03702e-19 17.6867 	-0.0357201 	-3.08953e-19 17.6805 	-0.228142 	-3.18588e-19 17.6619 	-0.42629 	-9.72242e-20 17.6512 	-0.626833 	-5.72887e-20 17.6259 	-0.820776 	5.88064e-20 17.5997 	-1.0149 	1.73584e-19 17.5704 	-1.20973 	2.83399e-19 17.5243 	-1.4091 	3.68727e-19 17.4927 	-1.61049 	7.14586e-19 17.4522 	-1.80629 	8.82245e-19 17.4031 	-1.99649 	8.72734e-19 17.3368 	-2.18637 	5.8521e-19 17.2646 	-2.37851 	2.24937e-19 17.2075 	-2.57264 	7.38391e-20 17.1493 	-2.76703 	-7.6439e-20 17.0726 	-2.95586 	6.72801e-21 16.9762 	-3.13134 	2.19272e-19 16.8771 	-3.31042 	4.39022e-19 16.798 	-3.48212 	4.26197e-19 16.7004 	-3.64531 	4.37507e-19 16.5975 	-3.80657 	4.57644e-19 16.4935 	-3.96804 	4.8157e-19 16.4322 	-4.06244 	4.97772e-19 16.4181 	-4.08707 	5.15327e-19 16.4039 	-4.11171 	5.33046e-19 16.3898 	-4.13637 	5.50928e-19 16.3743 	-4.16022 	5.24311e-19 16.3571 	-4.18318 	4.44039e-19 16.2358 	-4.35075 	2.99756e-19 16.1093 	-4.51278 	1.6782e-19 15.982 	-4.67584 	3.46209e-20 15.8387 	-4.82582 	-4.0616e-20 15.6838 	-4.97557 	-9.45075e-20 15.5503 	-5.11878 	-7.40422e-19 15.4104 	-5.25557 	-1.11241e-18 15.2571 	-5.37676 	-8.62036e-19 15.1029 	-5.49841 	-6.02872e-19 14.9916 	-5.5859 	-4.10749e-19 14.9726 	-5.60432 	-4.0804e-19 14.9537 	-5.62276 	-4.05294e-19 14.9347 	-5.64122 	-4.02508e-19 14.9138 	-5.65655 	-4.05864e-19 14.8927 	-5.67174 	-4.09708e-19 14.7214 	-5.80542 	-2.64861e-19 14.5454 	-5.93211 	-1.43546e-19 14.3659 	-6.05389 	-4.87793e-20 14.1746 	-6.15123 	-7.12628e-20 13.9735 	-6.25432 	-9.31016e-20 13.9113 	-6.28952 	-4.94689e-20 13.8491 	-6.32485 	-5.72523e-21 13.7839 	-6.35077 	-3.63043e-20 13.7182 	-6.37535 	-7.81523e-20 13.6575 	-6.39811 	-1.16856e-19 13.5219 	-6.471 	-1.26236e-19 13.3859 	-6.54472 	-1.34742e-19 13.2483 	-6.61307 	-1.42452e-19 13.107 	-6.66311 	-1.49581e-19 12.9597 	-6.71579 	-1.56188e-19 12.8586 	-6.75591 	-8.97682e-20 12.7573 	-6.79637 	-2.31154e-20 12.6549 	-6.82582 	-1.07164e-22 12.5519 	-6.84953 	-2.7143e-22 12.459 	-6.87107 	-4.19602e-22 12.344 	-6.9161 	-4.21522e-22 12.2286 	-6.9617 	-4.21987e-22 12.113 	-6.99802 	4.75184e-22 11.9972 	-7.02409 	2.35321e-21 11.8767 	-7.05158 	4.30947e-21 11.7778 	-7.07727 	-5.7171e-20 11.6787 	-7.1033 	-1.18447e-19 11.5802 	-7.12261 	-1.15941e-19 11.4824 	-7.1335 	-3.44601e-20 11.3926 	-7.14369 	4.06767e-20 11.2652 	-7.17656 	1.33712e-19 11.1374 	-7.21012 	2.27677e-19 11.0091 	-7.23184 	2.05689e-19 10.8803 	-7.24741 	1.21121e-19 10.7454 	-7.26426 	3.29268e-20 10.68 	-7.27373 	5.61099e-20 10.6145 	-7.28336 	7.92e-20 10.549 	-7.29093 	8.86806e-20 10.4838 	-7.29256 	6.0829e-20 10.4218 	-7.29423 	3.42037e-20 10.2589 	-7.31478 	-6.53144e-20 10.0955 	-7.33642 	-1.66339e-19 9.93327 	-7.34524 	-1.56363e-19 9.77128 	-7.3492 	-1.00082e-19 9.59858 	-7.35441 	-4.11195e-20 9.57567 	-7.35542 	-2.19242e-20 9.55275 	-7.35644 	-2.75778e-21 9.5299 	-7.35706 	8.37512e-21 9.50743 	-7.35587 	-1.49381e-20 9.4853 	-7.3547 	-3.79271e-20 9.3015 	-7.35787 	-1.16341e-20 9.11714 	-7.36248 	1.41701e-20 8.9345 	-7.35759 	-4.29859e-20 8.75297 	-7.34424 	-1.69715e-19 8.59276 	-7.33352 	-2.81665e-19 8.56802 	-7.33371 	-3.48451e-19 8.54326 	-7.33392 	-4.15332e-19 8.51909 	-7.33215 	-3.90546e-19 8.49508 	-7.32983 	-3.38895e-19 8.47078 	-7.32749 	-2.8667e-19 8.32241 	-7.31486 	-1.9357e-19 8.17363 	-7.30315 	-1.00545e-19 8.02547 	-7.28973 	-2.83062e-20 7.88078 	-7.26728 	-3.32136e-20 7.74879 	-7.24764 	-3.79246e-20 7.67462 	-7.24004 	-2.06793e-20 7.60035 	-7.2327 	-3.41939e-21 7.52801 	-7.22038 	0 7.45608 	-7.207 	0 7.38119 	-7.19333 	0 7.2926 	-7.17863 	0 7.20386 	-7.16431 	0 7.11542 	-7.14947 	4.11129e-23 7.02