/*--------------------------------*- C++ -*----------------------------------*\
| =========                 |                                                 |
| \\      /  F ield         | OpenFOAM: The Open Source CFD Toolbox           |
|  \\    /   O peration     | Version:  v1906                                 |
|   \\  /    A nd           | Web:      www.OpenFOAM.com                      |
|    \\/     M anipulation  |                                                 |
\*---------------------------------------------------------------------------*/
FoamFile
{
    version     2.0;
    format      ascii;
    class       volScalarField;
    location    "1900";
    object      epsilon;
}
// * * * * * * * * * * * * * * * * * * * * * * * * * * * * * * * * * * * * * //

dimensions      [0 2 -3 0 0 0 0];


internalField   nonuniform List<scalar> 
12225
(
8534.34
8358.77
8007.03
7625.92
7271.18
6953.73
6674.05
6428.75
6212.4
6023.66
5853.71
5709.27
5595.1
5503.52
5421.54
5362.5
5294.15
5268.22
613.288
1491.95
1695.93
1687.56
1643.41
1583.28
1532.39
1488.7
1451.1
1417.69
1389.62
1364.03
1344.08
1326.27
1311.32
1298.89
1282.56
1272.21
136.16
458.05
618.089
686.294
715.054
720.499
717.98
711.44
701.61
690.834
680.541
670.114
660.619
651.587
643.154
635.967
627.34
622.686
58.5088
195.962
292.241
349.065
383.005
401.929
412.217
417.457
418.772
418.125
416.385
413.412
409.966
406.305
402.462
398.955
394.411
392.388
35.9875
104.727
162.906
203.317
231.126
249.917
262.59
271.182
276.711
280.15
282.19
283.138
283.133
282.809
282.025
281.029
279.354
279.109
26.8395
65.6084
102.205
130.482
151.705
167.45
179.12
187.823
194.254
198.979
202.445
204.943
206.631
207.781
208.481
208.852
208.877
209.294
22.3051
46.1195
70.0868
90.0652
106.014
118.577
128.448
136.231
142.364
147.197
151.013
154.025
156.372
158.204
159.62
160.703
161.47
162.439
19.7662
35.2992
51.5662
65.9129
77.9253
87.811
95.9069
102.543
107.988
112.461
116.146
119.187
121.692
123.759
125.463
126.867
128.01
129.203
18.2255
28.7911
40.1606
50.6305
59.7405
67.5012
74.0629
79.6037
84.2846
88.2442
91.6011
94.4533
96.8792
98.9457
100.709
102.217
103.513
104.774
17.2358
24.6386
32.7745
40.5287
47.4964
53.6054
58.908
63.4953
67.4612
70.8925
73.8659
76.4473
78.692
80.6472
82.3538
83.847
85.1664
86.4091
16.5723
21.8697
27.8004
33.6168
38.9903
43.8207
48.1092
51.8964
55.2347
58.1767
60.7718
63.0638
65.0909
66.8866
68.4804
69.899
71.1732
72.3571
16.1505
20.1196
24.6324
29.1582
33.4329
37.3539
40.8991
44.0824
46.9319
49.48
51.7587
53.7979
55.6246
57.2629
58.7349
60.0608
61.2639
62.3771
15.8386
18.8323
22.2883
25.828
29.2423
32.4351
35.3725
38.052
40.4855
42.6908
44.6878
46.4961
48.1344
49.6197
50.9682
52.1951
53.3173
54.3557
15.5804
17.7746
20.3513
23.0512
25.7155
28.2599
30.6455
32.8591
34.9007
36.7772
38.4988
40.0767
41.5226
42.8478
44.0632
45.1796
46.2083
47.1627
15.375
16.9414
18.8167
20.8315
22.87
24.8623
26.7694
28.572
30.2624
31.8395
33.306
34.6671
35.9287
37.0974
38.1799
39.1832
40.1147
40.9824
15.2206
16.3214
17.6684
19.1557
20.7023
22.2524
23.77
25.2333
26.6296
27.9528
29.2004
30.3729
31.472
32.5008
33.4627
34.3619
35.2024
35.9886
15.1157
15.9043
16.8916
18.0129
19.2116
20.4436
21.6771
22.8897
24.0666
25.1983
26.2793
27.3068
28.28
29.1994
30.0662
30.8824
31.6502
32.3715
15.0632
15.6965
16.5025
17.436
18.4534
19.5176
20.5993
21.6769
22.7346
23.7618
24.7513
25.699
26.6025
27.4611
28.2749
29.0449
29.7726
30.4602
15.0795
15.76
16.6199
17.608
18.6772
19.7889
20.9135
22.0294
23.1213
24.179
25.1958
26.1678
27.0932
27.9713
28.8024
29.5874
30.3274
31.0233
15.1994
16.2351
17.5045
18.9115
20.3815
21.8621
23.3188
24.7299
26.0825
27.3696
28.5881
29.7375
30.8189
31.8343
32.7863
33.6776
34.5103
35.2856
15.4079
17.0691
19.046
21.1585
23.2874
25.3618
27.3435
29.2138
30.9661
32.6002
34.1197
35.5303
36.8385
38.051
39.1746
40.2148
41.1761
42.0595
15.7678
18.5276
21.7177
25.0026
28.1927
31.1971
33.9807
36.5372
38.8743
41.006
42.9488
44.7192
46.3334
47.8064
49.1518
50.381
51.5026
52.516
16.3874
21.0682
26.3239
31.5247
36.3793
40.7894
44.7458
48.2749
51.4162
54.2118
56.7016
58.9221
60.9059
62.6816
64.2749
65.7069
66.9947
68.1307
17.4993
25.6609
34.5355
42.9072
50.3686
56.8744
62.501
67.3529
71.537
75.1513
78.2798
80.9943
83.3553
85.4139
87.2158
88.7971
90.1944
91.3853
19.6479
34.571
50.1043
63.8442
75.3996
84.98
92.8941
99.4239
104.822
109.3
113.023
116.126
118.716
120.881
122.703
124.232
125.554
126.608
24.3004
53.8821
82.3904
105.372
123.238
137.067
147.765
156.008
162.384
167.339
171.174
174.14
176.404
178.12
179.434
180.385
181.154
181.599
36.4961
103.238
158.406
197.147
223.879
242.399
255.091
263.53
269.175
272.888
275.111
276.305
276.651
276.497
276.065
275.199
274.364
273.22
81.6392
262.163
371.711
432.678
465.678
483.231
490.747
491.951
490.936
488.372
484.329
479.746
474.98
470.004
465.352
460.456
456.415
451.901
390.39
972.792
1158.17
1204.46
1196.9
1173.35
1136.55
1105.19
1078
1054.22
1033.13
1014.26
997.593
982.387
969.291
956.777
946.834
936.141
6457.37
6263.5
6000.48
5747.88
5516.18
5307.91
5121.81
4956.24
4808.67
4676.8
4558.4
4451.72
4355.35
4267.76
4188.39
4115.38
4049.34
3987.38
4.21857
4.35927
7.1565
9.21236
10.8
11.9152
12.7754
13.4209
13.9387
14.3556
14.706
15.0055
15.2694
15.5055
15.7182
15.9071
16.0723
16.201
16.3078
16.3591
16.334
16.2099
15.9284
15.4977
14.9232
14.212
13.3859
12.486
11.5728
10.7263
10.0199
9.52265
9.27655
9.14964
9.19249
9.37434
9.71761
10.1036
10.4608
10.7396
10.8793
10.8567
10.6689
10.0758
8.99438
7.85459
7.0963
7.10378
7.75792
8.95588
10.7563
13.4103
17.3821
21.5718
25.9449
30.4727
35.1365
39.9351
44.8973
49.9051
54.9483
60.0257
65.1447
70.311
75.535
80.8274
86.2
91.6647
97.2335
102.918
108.729
114.678
120.775
127.029
133.45
140.046
146.826
153.799
160.974
168.358
175.96
183.79
191.857
200.17
208.741
217.579
226.696
236.105
245.819
255.851
266.215
276.926
287.998
299.443
311.276
323.509
336.15
349.203
362.667
376.535
390.796
405.431
420.412
435.698
451.28
467.321
483.79
500.628
517.747
535.036
552.404
569.899
587.614
605.344
622.871
639.86
655.73
667.726
674.202
676.692
674.99
674.509
673.542
673.189
673.337
674.458
676.638
682.504
692.515
701.841
714.253
730.648
746.936
759.858
765.542
764.718
756.617
735.575
702.614
658.475
609.425
551.844
478.669
398.032
309.103
213.895
123.653
64.3429
54.2033
63.8685
64.2082
43.5228
24.6242
60.3431
169.359
261.642
342.133
405.98
443.613
460.432
471.611
476.108
475.223
472.779
467.33
460.11
452.179
444.264
437.002
430.657
425.616
421.49
419.789
419.348
424.387
430.657
432.651
431.886
434.459
412.02
12.5552
8.51262
7.4508
7.07318
7.02685
7.08205
7.17277
7.27745
7.37173
7.45488
7.51969
7.56621
7.59273
7.59889
7.58992
7.56777
7.53471
7.50157
7.47813
7.47844
7.51462
7.60834
7.75931
7.99444
8.33413
8.79334
9.3711
10.042
10.7532
11.4284
12.0524
12.6742
13.3442
14.1059
15.0011
16.065
17.3276
18.8014
20.4777
22.3208
24.2549
26.1527
27.8395
29.1276
29.9011
30.2443
30.3474
30.3514
30.339
30.4013
30.6225
31.0692
31.7509
32.5951
33.5834
34.7099
35.9634
37.3313
38.7912
40.336
41.9593
43.6559
45.422
47.2544
49.1508
51.1096
53.13
55.2115
57.3542
59.5584
61.8249
64.1544
66.548
69.0069
71.5326
74.1262
76.7895
79.5241
82.3316
85.2139
88.1729
91.2106
94.3291
97.5305
100.817
104.191
107.654
111.209
114.858
118.602
122.444
126.384
130.422
134.558
138.791
143.121
147.544
152.058
156.662
161.356
166.146
171.045
176.085
181.334
186.879
192.591
198.435
204.444
210.729
217.439
224.863
233.322
241.958
250.686
259.41
267.97
276.111
283.496
290.068
296.098
301.732
307.262
312.513
317.573
322.393
327.061
331.98
337.246
342.559
346.022
347.635
348.695
349.356
348.919
346.961
342.358
334.387
322.535
307.067
288.195
266.776
244.183
230.703
209.04
193.406
185.547
170.294
150.373
133.614
134.365
149.362
155.384
138.103
137.068
160.275
176.697
188.026
195.718
202.053
210.048
217.263
221.184
222.768
223.077
221.927
219.861
217.267
214.451
211.641
209.007
206.697
204.941
203.726
203.05
202.968
202.646
201.154
199.527
197.552
196.433
23.9149
12.8004
10.2695
9.02661
8.43866
8.09902
7.89937
7.80506
7.74617
7.7141
7.68884
7.66966
7.6521
7.63796
7.63065
7.63918
7.68089
7.7891
7.96556
8.20192
8.49848
8.86216
9.30791
9.85685
10.5311
11.3498
12.328
13.4758
14.8004
16.3112
17.9928
19.815
21.7614
23.8196
25.9619
28.1272
30.2075
32.0565
33.5213
34.4713
34.8843
34.8701
34.4483
33.7438
32.8929
32.0291
31.2629
30.6716
30.3537
30.2697
30.4171
30.796
31.4048
32.228
33.233
34.3921
35.6782
37.0655
38.5381
40.0745
41.6601
43.2851
44.943
46.6297
48.3434
50.0839
51.8519
53.6488
55.4766
57.3372
59.233
61.1658
63.1376
65.1503
67.2054
69.3047
71.4498
73.6422
75.8832
78.1743
80.5169
82.9123
85.3618
87.8666
90.428
93.0474
95.7259
98.4649
101.266
104.13
107.058
110.053
113.115
116.247
119.45
122.728
126.085
129.524
133.054
136.681
140.416
144.272
148.266
152.417
156.739
161.24
165.958
170.919
176.139
181.651
187.47
193.567
199.85
206.322
212.966
219.687
226.373
232.951
239.428
245.849
252.189
258.424
264.467
270.27
275.77
280.966
285.878
290.334
293.949
296.386
298.319
299.822
300.289
299.615
297.272
292.131
283.812
272.25
257.813
240.939
222.75
205.346
189.712
172.939
157.836
152.706
156.819
167.227
190.928
245.589
287.645
255.557
198.565
172.77
167.384
166.98
167.939
170.893
176.124
183.112
188.178
190.728
191.559
191.349
190.105
188.104
185.608
182.843
179.991
177.215
174.685
172.713
171.015
169.444
168.032
166.488
164.822
163.08
161.854
162.172
32.6889
16.8578
13.0506
11.3482
10.3782
9.82508
9.4521
9.24337
9.09485
9.00635
8.94696
8.92117
8.92159
8.9537
9.02238
9.13871
9.31807
9.58528
9.96877
10.4621
11.0595
11.7532
12.535
13.4006
14.3579
15.4292
16.6459
18.0381
19.6239
21.3992
23.331
25.3514
27.358
29.2203
30.8256
32.0796
32.9203
33.3289
33.411
33.2081
32.6878
31.9134
31.0007
30.0943
29.303
28.7012
28.3809
28.3032
28.4876
28.9277
29.6091
30.5009
31.5631
32.7671
34.1
35.5391
37.059
38.6329
40.2425
41.8758
43.5259
45.1898
46.8673
48.5602
50.2712
52.0039
53.7618
55.5487
57.3683
59.2237
61.1182
63.0547
65.035
67.0605
69.1329
71.2539
73.4249
75.6474
77.9225
80.2513
82.6347
85.0735
87.5684
90.1199
92.7284
95.394
98.1171
100.898
103.735
106.631
109.583
112.593
115.66
118.785
121.967
125.208
128.51
131.876
135.31
138.817
142.405
146.081
149.858
153.745
157.752
161.894
166.193
170.662
175.32
180.184
185.266
190.574
196.123
201.955
208.147
214.573
221.085
227.647
234.247
240.857
247.415
253.865
260.141
266.181
271.931
277.357
282.393
286.897
290.72
293.914
296.536
298.248
298.49
297.339
294.104
287.873
278.675
266.46
251.615
234.592
216.109
197.117
178.604
163.37
151.797
151.486
161.473
191.748
259.836
336.706
329.334
258.028
202.053
176.095
166.559
163.978
165.57
170.42
177.094
183.401
187.922
190.499
191.504
191.592
190.626
188.793
186.346
183.519
180.517
177.498
174.609
171.903
169.333
166.854
164.491
162.121
159.887
157.715
156.252
155.643
46.1815
21.7028
16.235
13.7376
12.4575
11.6397
11.1504
10.8096
10.5925
10.4454
10.3691
10.349
10.3814
10.4701
10.6185
10.8324
11.1214
11.4968
11.9708
12.5493
13.2318
14.0115
14.8804
15.833
16.8704
18
19.2294
20.5564
21.9644
23.4175
24.8587
26.2182
27.4281
28.4376
29.1381
29.4608
29.4616
29.1436
28.5975
27.9189
27.2464
26.6845
26.3004
26.1293
26.1385
26.3595
26.7977
27.4401
28.2622
29.2383
30.3728
31.6621
33.079
34.5909
36.1647
37.7777
39.4157
41.0739
42.7494
44.441
46.1493
47.8765
49.6254
51.3995
53.2023
55.0374
56.9082
58.8179
60.7694
62.7653
64.8078
66.8988
69.0407
71.2357
73.4857
75.7921
78.1559
80.5782
83.0596
85.6007
88.2017
90.8628
93.5839
96.365
99.2055
102.105
105.063
108.078
111.15
114.278
117.461
120.698
123.988
127.33
130.725
134.172
137.673
141.229
144.843
148.52
152.264
156.083
159.987
163.985
168.09
172.313
176.66
181.153
185.811
190.655
195.705
200.983
206.516
212.33
218.431
224.793
231.409
238.283
245.408
252.704
260.074
267.431
274.683
281.736
288.491
294.859
300.75
306.083
310.872
315.415
319.345
322.034
322.862
321.724
317.887
310.108
298.521
283.351
265.14
244.521
222.281
199.94
181.693
169.474
163.519
166.31
185.395
240.06
327.757
365.708
317.961
245.186
197.086
174.783
167.487
167.174
172.008
179.505
187.651
194.828
200.308
203.89
205.599
205.939
204.929
202.85
199.994
196.632
192.995
189.249
185.522
181.854
178.27
174.77
171.408
168.143
165.113
162.25
160.07
158.253
57.2618
26.4339
19.3904
16.1654
14.6552
13.6701
13.0771
12.6633
12.3959
12.2161
12.1163
12.08
12.1055
12.1908
12.337
12.5446
12.8163
13.1556
13.5677
14.0562
14.6217
15.2612
15.9696
16.7404
17.5693
18.4523
19.3828
20.3496
21.3179
22.232
23.0272
23.6554
24.082
24.2866
24.3397
24.2882
24.1721
24.0236
23.8879
23.8213
23.8463
23.9915
24.28
24.7231
25.3223
26.0679
26.9478
27.9627
29.1235
30.4185
31.817
33.2916
34.8309
36.4226
38.0561
39.724
41.4215
43.1467
44.8989
46.679
48.4885
50.3299
52.2058
54.119
56.0728
58.0699
60.1133
62.2058
64.3499
66.5479
68.8022
71.1147
73.4873
75.9217
78.4193
80.9811
83.608
86.3006
89.0594
91.8845
94.7759
97.7332
100.756
103.844
106.995
110.209
113.485
116.82
120.214
123.664
127.169
130.727
134.336
137.994
141.7
145.453
149.253
153.1
156.997
160.946
164.951
169.02
173.159
177.379
181.692
186.114
190.662
195.353
200.207
205.246
210.497
215.989
221.754
227.823
234.223
240.983
248.139
255.731
263.82
272.224
280.814
289.498
298.199
306.829
315.284
323.482
331.339
338.781
345.74
352.086
357.45
361.337
363.07
362.187
357.876
348.315
333.536
313.945
290.461
264.169
236.458
210.127
190.461
182.694
184.192
195.673
229.132
297.157
359.348
352.486
287.602
225.476
189.242
174.151
170.734
174.474
182.472
192.215
201.945
210.457
217.086
221.5
223.637
224.017
222.743
220.162
216.624
212.446
207.892
203.153
198.374
193.633
188.994
184.48
180.15
175.981
172.105
168.426
165.354
162.317
68.265
30.8088
22.3308
18.4913
16.677
15.4989
14.7723
14.2634
13.9243
13.688
13.5373
13.4536
13.4296
13.4592
13.5429
13.6792
13.8678
14.1079
14.3989
14.7397
15.1281
15.5611
16.0357
16.5489
17.0871
17.632
18.1672
18.6713
19.1305
19.5387
19.8975
20.2037
20.4573
20.6689
20.8581
21.0463
21.2553
21.5063
21.8194
22.2121
22.6974
23.2862
23.9785
24.7726
25.6701
26.6874
27.8241
29.0676
30.3967
31.8048
33.2835
34.8249
36.4222
38.0699
39.7639
41.5011
43.28
45.0999
46.9611
48.8647
50.8121
52.8053
54.8466
56.9384
59.0833
61.2839
63.5428
65.8624
68.2452
70.6934
73.2092
75.7946
78.4513
81.1807
83.9841
86.8626
89.8167
92.8471
95.9537
99.1367
102.395
105.729
109.138
112.619
116.172
119.796
123.487
127.245
131.067
134.95
138.892
142.89
146.942
151.045
155.197
159.396
163.641
167.931
172.268
176.653
181.091
185.588
190.15
194.789
199.515
204.34
209.28
214.357
219.597
225.026
230.679
236.589
242.8
249.354
256.3
263.688
271.565
279.967
288.902
298.333
308.148
318.226
328.472
338.808
349.016
358.979
368.586
377.714
386.211
393.847
400.267
404.971
407.214
406.302
401.111
389.361
370.803
345.863
315.973
283.247
250.546
222.845
207.791
205.425
212.537
233.932
278.122
333.745
353.992
315.881
255.218
208.197
183.975
175.923
177.487
185.248
196.083
207.999
219.475
229.375
237.027
242.061
244.443
244.7
242.994
239.734
235.337
230.171
224.544
218.685
212.766
206.898
201.167
195.61
190.29
185.185
180.409
175.846
171.811
167.674
74.323
33.7515
24.2645
20.0009
17.9548
16.626
15.794
15.2081
14.8111
14.5301
14.342
14.2203
14.1574
14.1416
14.1685
14.2341
14.3365
14.4734
14.6432
14.8441
15.0742
15.3297
15.6032
15.8878
16.1812
16.4822
16.7858
17.0887
17.3896
17.6896
17.9915
18.2995
18.6201
18.9615
19.3332
19.7453
20.2074
20.7289
21.3158
21.9721
22.7003
23.5026
24.3942
25.3821
26.4647
27.6293
28.8739
30.1956
31.5906
33.0554
34.5867
36.1812
37.8361
39.549
41.3184
43.143
45.0224
46.9567
48.9464
50.9928
53.0972
55.2616
57.4881
59.779
62.1366
64.5634
67.062
69.6347
72.2839
75.0117
77.8203
80.7114
83.6866
86.7473
89.8945
93.1289
96.451
99.8609
103.358
106.943
110.614
114.371
118.211
122.133
126.136
130.217
134.374
138.604
142.904
147.271
151.702
156.193
160.742
165.344
169.997
174.698
179.444
184.235
189.071
193.952
198.883
203.868
208.916
214.037
219.245
224.561
230.002
235.589
241.347
247.306
253.503
259.979
266.783
273.973
281.609
289.758
298.484
307.85
317.915
328.779
340.214
352.034
364.057
376.09
387.96
399.511
410.585
420.999
430.545
438.971
445.904
450.817
452.915
451.447
444.811
430.552
408.138
377.823
341.598
303.139
267.975
242.567
231.574
233.11
245.975
273.767
312.124
335.807
323.435
276.15
227.749
196.13
182.732
180.916
187.502
198.303
210.837
224.29
237.189
248.284
256.788
262.288
264.816
264.816
262.559
258.516
253.175
246.967
240.242
233.269
226.248
219.312
212.556
206.018
199.759
193.754
188.101
182.664
177.705
172.565
80.1665
35.6822
25.3249
20.7343
18.5103
17.0707
16.159
15.5151
15.0733
14.758
14.5423
14.3971
14.3098
14.2699
14.268
14.2998
14.3605
14.4476
14.5583
14.6891
14.837
15.001
15.1814
15.3772
15.5886
15.8163
16.0612
16.3254
16.6116
16.9229
17.2633
17.637
18.0493
18.5037
19.004
19.5536
20.1555
20.8111
21.5286
22.3161
23.1799
24.1226
25.1383
26.2257
27.386
28.6193
29.9256
31.3044
32.7552
34.2771
35.8692
37.5308
39.2611
41.0594
42.9257
44.86
46.8627
48.9345
51.0767
53.2907
55.5783
57.9413
60.382
62.9027
65.5057
68.1935
70.9684
73.8329
76.789
79.839
82.9846
86.2275
89.5692
93.0106
96.5527
100.196
103.94
107.785
111.731
115.777
119.921
124.161
128.497
132.926
137.446
142.054
146.747
151.523
156.377
161.306
166.307
171.376
176.508
181.699
186.946
192.245
197.592
202.987
208.428
213.917
219.455
225.049
230.705
236.433
242.245
248.154
254.182
260.355
266.701
273.257
280.061
287.162
294.616
302.491
310.861
319.807
329.411
339.745
350.859
362.752
375.349
388.591
402.207
415.891
429.41
442.539
455.029
466.617
477.038
485.998
493.079
497.708
499.033
496.364
487.611
470.636
444.609
409.816
368.888
327.025
292.063
270.172
261.187
264.277
278.719
301.398
318.024
316.473
284.421
242.684
208.508
190.2
185.151
189.704
199.843
212.473
226.188
241.014
255.173
267.259
276.396
282.175
284.682
284.285
281.365
276.453
270.121
262.852
255.04
246.986
238.909
230.954
223.22
215.749
208.595
201.731
195.241
188.977
183.162
177.158
81.3041
36.0872
25.4849
20.7755
18.4862
17.0001
16.0541
15.3832
14.921
14.5904
14.3643
14.2126
14.1216
14.0793
14.0752
14.1028
14.1566
14.233
14.3302
14.4473
14.5837
14.7389
14.913
15.1068
15.3219
15.5604
15.8251
16.1183
16.4427
16.8012
17.1966
17.6312
18.1072
18.6299
19.2035
19.8323
20.5212
21.2739
22.0903
22.9698
23.9129
24.9224
25.9998
27.1469
28.3653
29.6564
31.0214
32.4615
33.9774
35.5701
37.2402
38.9884
40.8153
42.7217
44.7087
46.7772
48.9286
51.1643
53.4862
55.8959
58.3957
60.9877
63.6743
66.4578
69.3406
72.3251
75.4137
78.6085
81.9115
85.3248
88.8499
92.4881
96.2405
100.108
104.091
108.189
112.402
116.729
121.17
125.723
130.386
135.157
140.034
145.015
150.096
155.274
160.546
165.908
171.357
176.888
182.497
188.178
193.928
199.741
205.612
211.537
217.511
223.532
229.597
235.707
241.864
248.072
254.339
260.676
267.099
273.628
280.284
287.091
294.078
301.283
308.747
316.523
324.673
333.273
342.413
352.191
362.704
374.042
386.269
399.405
413.405
428.146
443.4
458.889
474.296
489.268
503.426
516.4
527.88
537.567
544.923
549.323
549.76
545.575
534.421
514.624
485.334
447.151
403.195
359.615
324.79
301.731
290.715
291.129
299.349
306.132
304.792
282.458
249.511
218.068
197.678
190.064
191.907
200.669
212.967
226.684
241.153
256.855
271.987
284.828
294.389
300.285
302.598
301.722
298.073
292.263
284.961
276.688
267.869
258.825
249.79
240.915
232.302
223.989
216.028
208.388
201.145
194.142
187.58
180.849
81.7188
35.6752
25.0769
20.3585
18.0631
16.5728
15.6255
14.9556
14.4972
14.1731
13.9565
13.8171
13.7431
13.7192
13.7358
13.7853
13.8631
13.9656
14.0908
14.2373
14.4046
14.5926
14.8017
15.0331
15.2877
15.5668
15.8731
16.21
16.581
16.9897
17.4396
17.9347
18.4785
19.0723
19.7181
20.4178
21.1728
21.9857
22.859
23.795
24.7958
25.864
27.002
28.2121
29.4967
30.8582
32.2986
33.8203
35.4251
37.1151
38.8922
40.7584
42.7155
44.7655
46.9103
49.1521
51.493
53.9351
56.4807
59.1323
61.8923
64.763
67.747
70.8467
74.0645
77.4025
80.863
84.4479
88.1589
91.9975
95.9648
100.062
104.289
108.647
113.134
117.752
122.498
127.371
132.37
137.493
142.737
148.099
153.577
159.168
164.868
170.674
176.581
182.585
188.682
194.867
201.134
207.478
213.893
220.374
226.913
233.506
240.147
246.832
253.56
260.329
267.141
273.998
280.909
287.881
294.927
302.063
309.314
316.708
324.279
332.069
340.123
348.5
357.269
366.52
376.358
386.903
398.282
410.614
423.999
438.489
454.063
470.606
487.9
505.639
523.433
540.832
557.363
572.562
585.984
597.17
605.57
610.488
610.738
605.434
592.161
569.523
537.095
496.244
449.854
404.193
364.669
334.736
315.897
306.605
301.088
294.623
275.844
249.536
223.074
203.669
194.531
193.921
200.814
212.222
225.745
240.059
255.169
271.9
287.839
301.191
310.946
316.739
318.671
317.238
312.777
306.059
297.813
288.587
278.829
268.875
258.971
249.267
239.863
230.795
222.111
213.781
205.876
198.235
191.042
183.725
80.5741
34.7419
24.2517
19.6074
17.3633
15.9159
15.006
14.37
13.9442
13.6515
13.4667
13.3611
13.3217
13.3315
13.3842
13.4724
13.5917
13.7383
13.9099
14.1046
14.3217
14.5602
14.82
15.1023
15.41
15.7458
16.1129
16.5129
16.9482
17.4216
17.9356
18.4925
19.0956
19.7474
20.4508
21.2084
22.0228
22.897
23.8337
24.836
25.9068
27.0491
28.2661
29.5608
30.9366
32.3965
33.9436
35.5812
37.3124
39.1402
41.0678
43.0981
45.2341
47.4789
49.8353
52.3062
54.8946
57.6031
60.4347
63.3921
66.4779
69.6947
73.0449
76.531
80.1549
83.9187
87.8241
91.8726
96.0652
100.403
104.886
109.515
114.289
119.208
124.271
129.475
134.821
140.304
145.923
151.675
157.557
163.564
169.693
175.941
182.302
188.772
195.347
202.02
208.787
215.642
222.578
229.588
236.665
243.802
250.993
258.229
265.504
272.814
280.155
287.524
294.922
302.351
309.819
317.336
324.918
332.583
340.353
348.257
356.33
364.612
373.155
382.023
391.297
401.082
411.507
422.72
434.884
448.158
462.682
478.542
495.746
514.192
533.658
553.793
574.141
594.177
613.352
631.131
647.009
660.5
671.069
678.007
680.245
676.652
664.976
643.057
609.894
565.951
514.192
459.96
409.094
366.459
334.056
309.939
291.098
270.131
246.675
224.423
207.663
197.986
195.808
200.514
210.485
223.434
237.601
252.317
268.09
285.637
302.14
315.746
325.459
330.957
332.372
330.32
324.984
317.375
308.232
298.127
287.524
276.767
266.106
255.688
245.604
235.888
226.585
217.67
209.212
201.048
193.345
185.568
78.0408
33.2248
23.1223
18.6898
16.5405
15.1674
14.3191
13.7375
13.3627
13.1187
12.9829
12.9262
12.9331
12.991
13.0935
13.2332
13.4063
13.6086
13.8379
14.0912
14.3664
14.6648
14.9881
15.3379
15.7153
16.1214
16.5574
17.0257
17.5291
18.0704
18.6528
19.2793
19.9529
20.6769
21.4545
22.2889
23.1838
24.1425
25.1688
26.2662
27.4387
28.6901
30.0244
31.4457
32.9579
34.5654
36.2723
38.0829
40.0012
42.0316
44.1781
46.4449
48.8358
51.3548
54.0055
56.7916
59.7166
62.7836
65.9958
69.356
72.867
76.5312
80.3506
84.3273
88.4628
92.7584
97.2151
101.833
106.613
111.555
116.658
121.921
127.342
132.92
138.652
144.536
150.568
156.746
163.064
169.52
176.108
182.824
189.663
196.619
203.688
210.863
218.139
225.509
232.967
240.506
248.117
255.793
263.525
271.305
279.125
286.975
294.848
302.739
310.641
318.552
326.472
334.401
342.343
350.305
358.294
366.331
374.438
382.648
390.998
399.532
408.305
417.391
426.888
436.923
447.655
459.268
471.964
485.947
501.4
518.447
537.12
557.324
578.816
601.206
623.979
646.55
668.315
688.698
707.171
723.246
736.425
746.076
751.304
750.603
742.279
723.166
691.179
645.4
587.52
522.256
456.476
397.052
347.616
307.675
275.515
247.935
225.524
209.887
200.589
197.473
200.037
208.154
219.985
233.718
248.174
263.276
280.083
298.342
315.154
328.731
338.145
343.142
343.896
341.112
334.839
326.348
316.351
305.438
294.077
282.619
271.309
260.289
249.633
239.371
229.537
220.122
211.224
202.648
194.554
186.468
74.3908
31.4255
21.8826
17.7565
15.7
14.4104
13.6353
13.12
12.8081
12.6256
12.5514
12.5519
12.6185
12.7372
12.9021
13.1059
13.3447
13.6133
13.9089
14.2315
14.5818
14.9593
15.3643
15.7964
16.2563
16.7455
17.2661
17.8208
18.4132
19.0462
19.7229
20.4468
21.2215
22.0507
22.9386
23.8893
24.907
25.9963
27.1618
28.408
29.7398
31.1622
32.6802
34.299
36.0238
37.8599
39.8127
41.8874
44.0893
46.4237
48.8957
51.5102
54.2719
57.1853
60.2548
63.4842
66.8772
70.4372
74.167
78.0692
82.146
86.3992
90.8303
95.44
100.229
105.197
110.344
115.669
121.171
126.848
132.697
138.717
144.903
151.252
157.76
164.423
171.236
178.193
185.289
192.518
199.874
207.352
214.944
222.644
230.445
238.34
246.322
254.383
262.514
270.707
278.953
287.242
295.564
303.908
312.265
320.624
328.976
337.312
345.628
353.919
362.181
370.416
378.625
386.815
394.995
403.181
411.393
419.66
428.016
436.506
445.188
454.146
463.494
473.39
484.031
495.643
508.477
522.784
538.79
556.658
576.445
598.057
621.234
645.542
670.414
695.214
719.305
742.097
763.056
781.687
797.518
809.984
818.263
820.958
816.403
801.246
771.805
725.703
662.681
586.439
505.048
427.986
361.659
307.898
265.992
235.319
214.852
203.672
199.183
199.79
205.86
216.057
228.851
242.881
257.536
273.234
291.206
309.957
326.772
340.009
348.846
353.135
353.114
349.415
342.203
332.85
322.062
310.428
298.409
286.341
274.499
262.994
251.877
241.185
230.963
221.206
212.046
203.218
194.889
186.635
70.3392
29.4829
20.5855
16.7989
14.8682
13.6818
12.9936
12.5559
12.318
12.2081
12.2028
12.275
12.4153
12.6099
12.8528
13.1349
13.4535
13.8067
14.1945
14.6148
15.0671
15.5501
16.0631
16.6067
17.1821
17.791
18.4361
19.1205
19.8475
20.6208
21.4442
22.3217
23.2576
24.2566
25.3239
26.4648
27.6847
28.9892
30.3841
31.8752
33.4687
35.1709
36.9882
38.927
40.9938
43.1952
45.5375
48.0271
50.6703
53.4731
56.4412
59.5802
62.8951
66.3905
70.0706
73.9391
77.9992
82.2534
86.7039
91.3521
96.199
101.245
106.489
111.932
117.571
123.405
129.43
135.645
142.045
148.626
155.385
162.314
169.41
176.666
184.075
191.631
199.327
207.155
215.108
223.178
231.356
239.636
248.008
256.466
264.999
273.601
282.262
290.972
299.722
308.501
317.299
326.104
334.905
343.69
352.447
361.164
369.83
378.436
386.975
395.441
403.831
412.141
420.366
428.506
436.569
444.566
452.516
460.442
468.374
476.353
484.441
492.732
501.367
510.539
520.488
531.489
543.845
557.864
573.827
591.939
612.279
634.764
659.124
684.874
711.381
737.97
763.995
788.885
812.115
833.169
851.548
866.692
877.844
883.839
882.587
871.418
845.301
800.247
734.005
648.897
553.96
461.402
380.59
315.136
267.891
235.488
215.236
204.763
201.888
205.047
212.895
224.032
237.102
251.175
266.143
282.782
301.909
320.807
337.226
349.75
357.705
361.01
360.128
355.324
347.122
336.918
325.407
313.153
300.605
288.097
275.898
264.106
252.706
241.754
231.298
221.334
211.954
202.891
194.357
185.971
65.4492
27.3788
19.2259
15.8222
14.0574
13.0062
12.4135
12.0667
11.9188
11.8946
11.9797
12.145
12.3811
12.6722
13.0161
13.4087
13.8491
14.333
14.8591
15.4252
16.0309
16.6759
17.3608
18.0863
18.854
19.6664
20.5265
21.4376
22.4026
23.4249
24.5099
25.6625
26.8881
28.1931
29.5843
31.0685
32.6525
34.3429
36.1471
38.0725
40.1271
42.3187
44.6554
47.145
49.795
52.6131
55.6065
58.782
62.1464
65.7057
69.4655
73.4309
77.606
81.9946
86.5995
91.4229
96.4661
101.73
107.214
112.917
118.839
124.975
131.324
137.881
144.642
151.602
158.755
166.096
173.616
181.31
189.168
197.184
205.348
213.651
222.084
230.637
239.3
248.064
256.919
265.855
274.861
283.929
293.048
302.209
311.402
320.617
329.844
339.072
348.289
357.483
366.642
375.754
384.805
393.783
402.672
411.46
420.136
428.689
437.109
445.388
453.52
461.499
469.321
476.984
484.492
491.851
499.069
506.155
513.125
520.013
526.879
533.834
541.046
548.751
557.236
566.833
577.907
590.841
605.985
623.596
643.778
666.47
691.432
718.074
745.675
773.562
801.106
827.783
853.1
876.498
897.404
915.177
929.044
937.847
939.36
931.463
908.613
865.308
797.857
707.291
603.004
499.2
407.703
334.122
280.652
245.127
223.59
212.619
209.87
213.364
221.444
232.507
245.323
259.357
274.945
293.04
312.552
331.015
346.54
357.942
364.708
366.762
364.77
358.587
349.471
338.637
326.642
313.998
301.133
288.373
275.949
263.903
252.255
241.08
230.419
220.259
210.636
201.415
192.762
184.328
60.707
25.2782
17.9157
14.9025
13.3399
12.4531
11.9747
11.7416
11.7066
11.7975
11.9997
12.2825
12.6467
13.0826
13.5892
14.1595
14.7927
15.4851
16.237
17.0472
17.9173
18.8478
19.8408
20.8981
22.0226
23.2179
24.4882
25.8367
27.2664
28.7814
30.385
32.0801
33.8738
35.7774
37.7992
39.9456
42.2231
44.6406
47.2075
49.9337
52.8297
55.9049
59.1679
62.6272
66.2905
70.1646
74.2562
78.5709
83.114
87.8898
92.9016
98.1517
103.641
109.371
115.341
121.548
127.991
134.666
141.569
148.695
156.038
163.592
171.35
179.303
187.444
195.762
204.248
212.894
221.687
230.617
239.673
248.844
258.118
267.482
276.926
286.436
296.001
305.608
315.246
324.904
334.57
344.234
353.885
363.512
373.104
382.653
392.145
401.571
410.918
420.175
429.329
438.365
447.269
456.024
464.616
473.03
481.258
489.288
497.108
504.708
512.073
519.192
526.057
532.662
539.007
545.092
550.913
556.463
561.743
566.779
571.629
576.415
581.343
586.694
592.808
600.066
608.911
619.824
633.258
649.52
668.704
690.78
715.408
741.985
770.034
798.977
827.991
856.395
883.707
909.449
933
953.591
970.366
981.928
986.112
980.655
960.522
918.964
851.666
759.068
650.443
540.668
442.892
364.323
306.552
267.119
242.529
229.138
224.165
225.663
232.374
242.459
254.658
268.763
285.394
304.114
323.142
340.487
354.577
364.43
369.694
370.135
366.84
359.498
349.753
338.395
325.958
312.983
299.871
286.907
274.263
262.014
250.228
238.938
228.174
217.916
208.2
198.927
190.242
181.842
55.7816
23.3316
16.7575
14.1279
12.7853
12.0855
11.7569
11.6719
11.7735
12.0057
12.3676
12.8346
13.406
14.0699
14.8282
15.6755
16.6146
17.6444
18.7696
19.9925
21.3179
22.7483
24.2891
25.944
27.719
29.619
31.6497
33.8142
36.1157
38.5567
41.1387
43.8612
46.7275
49.7486
52.9285
56.274
59.7938
63.4971
67.3941
71.4946
75.8073
80.3429
85.1142
90.1267
95.3827
100.886
106.638
112.643
118.9
125.409
132.168
139.174
146.423
153.909
161.626
169.568
177.726
186.092
194.658
203.412
212.346
221.447
230.705
240.108
249.643
259.299
269.061
278.919
288.858
298.865
308.926
319.03
329.161
339.308
349.455
359.592
369.704
379.779
389.806
399.772
409.666
419.478
429.197
438.814
448.319
457.701
466.951
476.058
485.013
493.802
502.415
510.834
519.044
527.027