/*--------------------------------*- C++ -*----------------------------------*\
| =========                 |                                                 |
| \\      /  F ield         | OpenFOAM: The Open Source CFD Toolbox           |
|  \\    /   O peration     | Version:  v1906                                 |
|   \\  /    A nd           | Web:      www.OpenFOAM.com                      |
|    \\/     M anipulation  |                                                 |
\*---------------------------------------------------------------------------*/
FoamFile
{
    version     2.0;
    format      ascii;
    class       volScalarField;
    location    "1900";
    object      k;
}
// * * * * * * * * * * * * * * * * * * * * * * * * * * * * * * * * * * * * * //

dimensions      [0 2 -2 0 0 0 0];


internalField   nonuniform List<scalar> 
12225
(
2.2588
2.22771
2.16477
2.09552
2.03002
1.9705
1.9173
1.87003
1.82783
1.79062
1.75678
1.72776
1.70465
1.686
1.66921
1.65707
1.64296
1.63759
2.25089
2.14399
1.99899
1.88919
1.80208
1.73415
1.67962
1.63402
1.5965
1.56406
1.53792
1.5136
1.49589
1.47708
1.46597
1.45043
1.44368
1.42871
2.25785
2.21948
2.14545
2.07334
2.00639
1.94665
1.89404
1.84725
1.8062
1.76954
1.73753
1.70832
1.6833
1.65973
1.64031
1.62082
1.60621
1.59017
2.2584
2.23556
2.18865
2.13682
2.08598
2.03837
1.9948
1.95495
1.91887
1.88601
1.85637
1.82919
1.80482
1.78226
1.76218
1.74322
1.72692
1.71
2.25893
2.24471
2.21551
2.18075
2.14479
2.10948
2.07575
2.0439
2.01412
1.98634
1.96061
1.93666
1.91455
1.89397
1.87503
1.85731
1.84139
1.82564
2.25905
2.24845
2.22782
2.20229
2.17486
2.1471
2.11991
2.09371
2.06874
2.04509
2.02282
2.00186
1.98221
1.96376
1.94652
1.93035
1.91531
1.90063
2.25919
2.25084
2.2358
2.21686
2.19601
2.17444
2.15285
2.13166
2.11112
2.09137
2.0725
2.05452
2.03745
2.02127
2.00599
1.99154
1.978
1.96489
2.25923
2.25214
2.24043
2.22562
2.20904
2.1916
2.17388
2.15624
2.13894
2.12211
2.10586
2.09024
2.07528
2.06098
2.04736
2.03441
2.02208
2.0102
2.25928
2.25314
2.24374
2.23193
2.21861
2.20444
2.18987
2.17522
2.16069
2.14642
2.13252
2.11904
2.10603
2.09351
2.08151
2.07001
2.05903
2.04843
2.25929
2.25379
2.24591
2.23616
2.22512
2.21328
2.20101
2.18856
2.17611
2.16379
2.1517
2.13989
2.12843
2.11733
2.10662
2.09631
2.08639
2.07682
2.25933
2.25433
2.24758
2.23937
2.2301
2.22012
2.20971
2.19907
2.18837
2.17771
2.16719
2.15685
2.14676
2.13694
2.12741
2.1182
2.1093
2.10069
2.25934
2.25468
2.24867
2.24149
2.23341
2.22469
2.21557
2.20621
2.19674
2.18727
2.17786
2.16859
2.1595
2.15061
2.14196
2.13356
2.12542
2.11752
2.25937
2.255
2.24958
2.24321
2.23609
2.22842
2.22037
2.21208
2.20366
2.1952
2.18678
2.17843
2.17022
2.16216
2.15429
2.14663
2.13917
2.13192
2.25939
2.25526
2.25034
2.24468
2.23839
2.23163
2.22452
2.21718
2.2097
2.20215
2.1946
2.1871
2.17969
2.1724
2.16525
2.15826
2.15144
2.14481
2.25943
2.25554
2.25105
2.24598
2.24042
2.23445
2.22818
2.22168
2.21505
2.20833
2.20159
2.19486
2.18819
2.18161
2.17513
2.16878
2.16257
2.1565
2.25946
2.25574
2.25159
2.24699
2.24199
2.23666
2.23105
2.22524
2.21929
2.21325
2.20716
2.20108
2.19503
2.18904
2.18313
2.17733
2.17164
2.16607
2.25949
2.25593
2.25202
2.24777
2.24318
2.23831
2.2332
2.22789
2.22245
2.21692
2.21134
2.20574
2.20016
2.19462
2.18914
2.18374
2.17843
2.17324
2.25951
2.25604
2.25227
2.2482
2.24385
2.23923
2.23439
2.22938
2.22423
2.219
2.2137
2.20839
2.20308
2.19781
2.19259
2.18744
2.18237
2.17738
2.2595
2.25599
2.25218
2.24806
2.24365
2.23896
2.23405
2.22896
2.22373
2.21841
2.21304
2.20764
2.20225
2.1969
2.1916
2.18638
2.18125
2.17624
2.2595
2.25587
2.25183
2.24737
2.24254
2.23738
2.23197
2.22636
2.22061
2.21477
2.20889
2.203
2.19713
2.19131
2.18556
2.1799
2.17433
2.16886
2.25943
2.25552
2.25102
2.24593
2.24033
2.23432
2.22799
2.22145
2.21475
2.20798
2.20118
2.1944
2.18767
2.18102
2.17448
2.16807
2.1618
2.15573
2.25942
2.25522
2.25006
2.24406
2.23736
2.23015
2.22257
2.21476
2.20681
2.19881
2.19082
2.18289
2.17507
2.16737
2.15984
2.15248
2.1453
2.13827
2.25935
2.25456
2.24827
2.24068
2.23212
2.22289
2.21323
2.20333
2.19333
2.18334
2.17344
2.16369
2.15414
2.1448
2.13571
2.12689
2.11834
2.11015
2.25936
2.25388
2.24593
2.23608
2.22494
2.21302
2.20067
2.18814
2.17561
2.16321
2.15103
2.13913
2.12757
2.11636
2.10555
2.09512
2.08513
2.07545
2.25926
2.25242
2.24128
2.22724
2.21148
2.19485
2.17788
2.16094
2.14426
2.128
2.11225
2.09708
2.08249
2.06852
2.05514
2.04234
2.03005
2.01846
2.25926
2.25048
2.2342
2.21399
2.19193
2.1692
2.1465
2.12426
2.10273
2.08206
2.06232
2.04354
2.0257
2.0088
1.99281
1.97772
1.96358
1.9503
2.25889
2.24476
2.21641
2.18263
2.14755
2.11294
2.07974
2.0484
2.01905
1.99167
1.96618
1.94247
1.92041
1.89992
1.88078
1.86301
1.84608
1.83043
2.2587
2.2346
2.18652
2.13451
2.08371
2.03554
1.99101
1.95038
1.91334
1.87959
1.8488
1.82075
1.79506
1.77162
1.75005
1.73036
1.71219
1.69655
2.25373
2.17683
2.06325
1.96597
1.88599
1.81867
1.76352
1.7173
1.67772
1.64353
1.6136
1.58757
1.5644
1.54424
1.52593
1.51008
1.4953
1.48157
2.25477
2.20941
2.14712
2.08643
2.02998
1.97855
1.93203
1.89017
1.85246
1.81843
1.78761
1.75961
1.73413
1.7108
1.68952
1.66983
1.65192
1.63502
0.0197525
0.0335104
0.0466343
0.0551759
0.0613369
0.0654773
0.0685751
0.0708474
0.0726377
0.0740579
0.0752358
0.0762309
0.0770983
0.077867
0.0785535
0.0791572
0.0796807
0.0800817
0.0804107
0.0805561
0.080452
0.0800262
0.0790863
0.0776458
0.0757105
0.0732845
0.0704159
0.0672206
0.0638919
0.0607152
0.057987
0.0560013
0.0549985
0.0544442
0.0545758
0.0552448
0.0565471
0.0580128
0.0593631
0.0604117
0.060944
0.0608608
0.0601871
0.0580471
0.053888
0.0492188
0.0458588
0.0456302
0.0482461
0.0529775
0.0597606
0.0691303
0.0820627
0.0949159
0.107417
0.119628
0.131575
0.143309
0.154942
0.166255
0.17725
0.187971
0.198462
0.20876
0.218904
0.228931
0.238875
0.248766
0.258632
0.268497
0.278384
0.288313
0.298299
0.308358
0.318503
0.328746
0.339097
0.349565
0.360161
0.370891
0.381765
0.392789
0.403973
0.415324
0.42685
0.43856
0.450464
0.462569
0.474887
0.487427
0.500199
0.513212
0.526476
0.539999
0.553787
0.567846
0.582177
0.596775
0.61163
0.626729
0.642052
0.657572
0.673254
0.689043
0.704926
0.721066
0.737431
0.753964
0.770573
0.787151
0.803602
0.819944
0.836326
0.852535
0.868382
0.883563
0.897538
0.908159
0.913855
0.915688
0.913471
0.912476
0.910909
0.909916
0.909323
0.909215
0.910292
0.914444
0.921836
0.930138
0.939188
0.952426
0.965645
0.976245
0.981177
0.980283
0.973593
0.956593
0.928775
0.89037
0.845796
0.793881
0.724535
0.643267
0.547818
0.434179
0.307748
0.196725
0.164726
0.181135
0.188271
0.154457
0.0984342
0.148524
0.326614
0.450339
0.545762
0.616873
0.657367
0.675808
0.687342
0.691882
0.690941
0.688224
0.682653
0.675154
0.666779
0.658287
0.650333
0.643215
0.637371
0.632349
0.629693
0.628249
0.632092
0.637397
0.638804
0.637139
0.638785
0.615769
0.0408858
0.0683072
0.0941199
0.107749
0.118004
0.125266
0.130915
0.135175
0.138573
0.141286
0.143567
0.145549
0.147366
0.149099
0.150805
0.152488
0.154109
0.155578
0.156817
0.157775
0.158476
0.159118
0.160033
0.161656
0.164496
0.169042
0.175617
0.184242
0.194569
0.205957
0.217691
0.229259
0.240454
0.251314
0.262033
0.272873
0.284057
0.295683
0.307674
0.319753
0.331433
0.342027
0.350708
0.356648
0.359514
0.360202
0.359733
0.358757
0.358187
0.358255
0.359243
0.361387
0.364592
0.369368
0.376028
0.384536
0.394669
0.406153
0.418723
0.432143
0.446228
0.460833
0.475845
0.491177
0.506768
0.522574
0.538568
0.554736
0.571073
0.587579
0.604261
0.621126
0.638184
0.655444
0.672915
0.690606
0.708526
0.726682
0.745082
0.76373
0.782634
0.801799
0.82123
0.840934
0.860916
0.881181
0.901736
0.922587
0.94374
0.965202
0.986981
1.00908
1.0315
1.05424
1.07729
1.10064
1.12428
1.14817
1.17227
1.19652
1.22083
1.24512
1.26931
1.29327
1.31682
1.34011
1.36344
1.3869
1.41059
1.43459
1.45891
1.48358
1.50871
1.53426
1.56008
1.58597
1.6116
1.63651
1.66041
1.68293
1.70391
1.72327
1.74011
1.7539
1.76371
1.76872
1.76967
1.76567
1.75651
1.7485
1.74671
1.74446
1.73627
1.71966
1.69432
1.6594
1.61219
1.55153
1.4774
1.39257
1.30243
1.20315
1.08981
0.979588
0.884233
0.81108
0.755043
0.736645
0.760945
0.850589
0.972737
1.00481
0.943616
0.949041
1.0308
1.14489
1.25266
1.34083
1.40627
1.45125
1.48275
1.50238
1.511
1.51305
1.50864
1.4989
1.48535
1.46937
1.4521
1.4342
1.41626
1.39801
1.38054
1.3633
1.34867
1.33505
1.32435
1.31099
1.29873
1.27225
0.0628525
0.0987839
0.131182
0.147973
0.161129
0.170137
0.177443
0.18312
0.187989
0.192183
0.196049
0.199701
0.203323
0.207026
0.210927
0.215093
0.219551
0.224286
0.229282
0.234555
0.240209
0.246438
0.253496
0.261641
0.271058
0.281816
0.293873
0.307112
0.321386
0.336564
0.352543
0.369231
0.386524
0.404271
0.422203
0.439865
0.456571
0.471464
0.483683
0.492568
0.497647
0.499253
0.497901
0.494138
0.488991
0.483603
0.47903
0.476567
0.476209
0.478514
0.48367
0.491711
0.502497
0.515797
0.531309
0.548658
0.567449
0.587302
0.607886
0.628933
0.65024
0.671659
0.693092
0.714483
0.735805
0.757055
0.778247
0.799404
0.820552
0.841723
0.862946
0.884247
0.905653
0.927183
0.948857
0.970688
0.992688
1.01487
1.03723
1.05978
1.08253
1.10547
1.1286
1.15192
1.17543
1.19913
1.22301
1.24706
1.2713
1.2957
1.32026
1.34498
1.36984
1.39485
1.42
1.44527
1.47066
1.49617
1.52179
1.54751
1.57335
1.59931
1.62541
1.65171
1.67833
1.70536
1.73293
1.76109
1.78987
1.81931
1.84947
1.88037
1.91196
1.94416
1.97686
2.00991
2.04308
2.07602
2.10837
2.13985
2.17
2.19811
2.2233
2.24472
2.26147
2.27277
2.27847
2.27861
2.27216
2.25966
2.24303
2.22162
2.19392
2.15861
2.11467
2.0605
1.99386
1.91356
1.8204
1.71642
1.6086
1.5029
1.39594
1.27972
1.15692
1.05491
1.03947
1.10675
1.30004
1.55398
1.71808
1.66918
1.55104
1.52062
1.57063
1.64765
1.72244
1.78865
1.8461
1.89455
1.93227
1.95644
1.96745
1.96928
1.96237
1.94859
1.93001
1.90839
1.88513
1.8612
1.83741
1.81396
1.7915
1.76962
1.74911
1.72884
1.70947
1.68858
1.66894
1.64125
0.0773997
0.12781
0.166015
0.185545
0.201457
0.212912
0.222639
0.230361
0.23716
0.243064
0.248587
0.253818
0.25902
0.264306
0.269861
0.275804
0.282263
0.289322
0.297038
0.305414
0.314421
0.323982
0.334013
0.344478
0.355461
0.367178
0.379924
0.393964
0.409442
0.42631
0.444299
0.462905
0.481402
0.498897
0.514462
0.527288
0.536821
0.54279
0.545378
0.545415
0.543336
0.540079
0.536617
0.53401
0.533026
0.534082
0.537665
0.54407
0.553379
0.565558
0.580456
0.59782
0.617313
0.638548
0.661135
0.684698
0.708902
0.733467
0.758175
0.782873
0.807466
0.831908
0.856187
0.88032
0.904337
0.928279
0.952192
0.97612
1.00011
1.02419
1.0484
1.07278
1.09734
1.12211
1.14709
1.17231
1.19776
1.22346
1.2494
1.27558
1.30199
1.32864
1.35551
1.38259
1.40987
1.43733
1.46496
1.49274
1.52065
1.54867
1.57678
1.60496
1.63319
1.66145
1.68972
1.71798
1.74623
1.77445
1.80265
1.83084
1.85905
1.88732
1.91571
1.94428
1.9731
2.00223
2.03176
2.06176
2.09232
2.12354
2.15546
2.18815
2.22161
2.25582
2.29072
2.32617
2.36197
2.39782
2.43331
2.46794
2.5011
2.5319
2.55933
2.58239
2.60001
2.61112
2.61555
2.61282
2.60249
2.58451
2.55898
2.5258
2.48481
2.43557
2.37725
2.30845
2.22718
2.13235
2.02518
1.90975
1.79272
1.68114
1.57831
1.47696
1.37683
1.32574
1.36582
1.53467
1.8292
2.10344
2.14966
2.00669
1.8973
1.87422
1.91097
1.97497
2.04753
2.12019
2.18725
2.24382
2.28578
2.31032
2.32001
2.31811
2.30575
2.28538
2.25944
2.22994
2.19852
2.16634
2.13433
2.10291
2.07257
2.04322
2.01518
1.98773
1.96153
1.93493
1.90979
1.87883
0.0974457
0.161005
0.204489
0.226733
0.244777
0.258316
0.27006
0.279874
0.288575
0.29621
0.303227
0.309773
0.316102
0.322321
0.328579
0.334989
0.341702
0.348868
0.356635
0.365077
0.374177
0.383858
0.394038
0.404682
0.415846
0.427665
0.440293
0.453798
0.468077
0.482816
0.497499
0.511491
0.524141
0.534909
0.543456
0.549693
0.553809
0.556237
0.557576
0.558514
0.559724
0.561835
0.565396
0.570857
0.578544
0.588651
0.60127
0.616378
0.633847
0.653465
0.674957
0.698019
0.722335
0.747594
0.773509
0.799836
0.826381
0.853001
0.879606
0.906147
0.932608
0.958997
0.985339
1.01167
1.03803
1.06445
1.09099
1.11768
1.14455
1.17163
1.19895
1.22653
1.25439
1.28254
1.31098
1.33973
1.36878
1.39812
1.42776
1.45769
1.48789
1.51835
1.54905
1.57998
1.61111
1.64242
1.67388
1.70548
1.73717
1.76894
1.80076
1.8326
1.86442
1.89621
1.92793
1.95958
1.99113
2.02258
2.05392
2.08518
2.11639
2.14757
2.17879
2.21011
2.24163
2.2734
2.30549
2.338
2.37103
2.40468
2.43903
2.47418
2.51018
2.54708
2.58485
2.62337
2.66246
2.7018
2.74097
2.77942
2.81642
2.85099
2.88199
2.90822
2.92844
2.94142
2.9465
2.94278
2.92987
2.90729
2.87499
2.83291
2.78112
2.71956
2.64775
2.5648
2.46922
2.36018
2.23951
2.11268
1.98832
1.87617
1.78286
1.711
1.66728
1.67491
1.76371
1.9847
2.27895
2.44298
2.36422
2.21107
2.1352
2.13014
2.17629
2.24985
2.3347
2.41978
2.49659
2.55883
2.60271
2.62641
2.63401
2.62772
2.6096
2.5825
2.5491
2.51169
2.47211
2.43166
2.39139
2.35179
2.31332
2.27603
2.24025
2.20561
2.17263
2.14003
2.10903
2.0736
0.112482
0.188374
0.238482
0.26395
0.284321
0.299823
0.313286
0.324695
0.334862
0.34385
0.35202
0.359506
0.366549
0.373277
0.379837
0.386327
0.392855
0.399521
0.406437
0.413695
0.42135
0.429415
0.437891
0.446777
0.456079
0.465797
0.475894
0.486272
0.496748
0.507066
0.516935
0.526091
0.534356
0.541679
0.548151
0.553955
0.559351
0.564711
0.570471
0.577094
0.584908
0.594192
0.605166
0.617989
0.632748
0.649458
0.66806
0.688434
0.710416
0.733817
0.758423
0.784012
0.810369
0.8373
0.864646
0.892276
0.920098
0.948047
0.97609
1.00421
1.03242
1.06072
1.08914
1.11772
1.14648
1.17545
1.20466
1.23415
1.26393
1.29404
1.32448
1.35527
1.38642
1.41794
1.44983
1.48209
1.51471
1.54769
1.58102
1.61468
1.64865
1.68292
1.71746
1.75224
1.78724
1.82244
1.85779
1.89326
1.92883
1.96445
2.00009
2.03571
2.07128
2.10677
2.14214
2.17737
2.21244
2.24734
2.28207
2.31663
2.35105
2.38537
2.41963
2.4539
2.48826
2.52281
2.55764
2.59286
2.62857
2.66488
2.70192
2.7398
2.77865
2.81854
2.8595
2.9015
2.94441
2.98795
3.03171
3.07509
3.11729
3.15725
3.19373
3.22535
3.25067
3.26829
3.27702
3.27572
3.26391
3.24045
3.20472
3.15634
3.09532
3.02179
2.93569
2.83686
2.72464
2.59901
2.46291
2.32417
2.19427
2.08479
2.00752
1.97167
1.97581
2.02421
2.15244
2.3724
2.57635
2.59635
2.46537
2.35172
2.31349
2.33625
2.40233
2.49221
2.59105
2.68703
2.77121
2.83763
2.88274
2.90555
2.91054
2.89941
2.87505
2.8407
2.79938
2.7536
2.7054
2.65628
2.60737
2.55933
2.51269
2.46761
2.42439
2.38276
2.34321
2.30446
2.26754
2.22704
0.12649
0.211447
0.267282
0.295421
0.317679
0.33466
0.349322
0.361771
0.372835
0.382599
0.391401
0.399361
0.406685
0.413502
0.419959
0.426167
0.432236
0.438254
0.4443
0.450439
0.456721
0.463178
0.469829
0.476681
0.483732
0.490968
0.49836
0.505866
0.513432
0.521007
0.528561
0.536097
0.54366
0.551332
0.55922
0.567534
0.576517
0.586356
0.597197
0.609132
0.622314
0.636862
0.652851
0.670312
0.689238
0.709586
0.731291
0.75426
0.778373
0.8035
0.829505
0.856257
0.883634
0.911533
0.939866
0.968564
0.997578
1.02687
1.05643
1.08625
1.11633
1.14668
1.17732
1.20827
1.23955
1.27118
1.30319
1.3356
1.36841
1.40166
1.43534
1.46948
1.50406
1.53911
1.57461
1.61055
1.64694
1.68375
1.72097
1.75859
1.79657
1.8349
1.87355
1.91248
1.95166
1.99106
2.03064
2.07036
2.11018
2.15006
2.18996
2.22984
2.26965
2.30936
2.34893
2.38832
2.42752
2.46651
2.50527
2.54381
2.58214
2.6203
2.65834
2.69631
2.73429
2.77235
2.81058
2.8491
2.88807
2.92764
2.96795
3.00918
3.05148
3.09501
3.13988
3.18614
3.23374
3.28251
3.33207
3.38181
3.43092
3.4783
3.52259
3.56225
3.59561
3.621
3.63677
3.64135
3.63382
3.61287
3.57698
3.52538
3.45758
3.3734
3.27301
3.15694
3.02591
2.88165
2.72914
2.57875
2.44537
2.34281
2.28106
2.26542
2.28798
2.35804
2.48884
2.64663
2.71809
2.64661
2.53024
2.46855
2.46925
2.52259
2.61109
2.71879
2.83165
2.93775
3.02828
3.09768
3.1429
3.16407
3.16541
3.14871
3.11751
3.07542
3.02573
2.97123
2.91414
2.85617
2.79853
2.74203
2.68727
2.63447
2.58396
2.53548
2.48943
2.44455
2.40166
2.35577
0.133913
0.225371
0.28619
0.316613
0.34037
0.358459
0.374003
0.387199
0.398919
0.409283
0.418623
0.427041
0.434721
0.441772
0.448323
0.454473
0.460325
0.465964
0.471469
0.47691
0.482344
0.487822
0.493387
0.499078
0.50493
0.510979
0.517266
0.523832
0.530725
0.537998
0.545711
0.553933
0.562737
0.572205
0.582442
0.593524
0.605527
0.618527
0.632587
0.647755
0.664069
0.681553
0.700216
0.720054
0.741052
0.763176
0.786375
0.810588
0.835745
0.861772
0.888593
0.916135
0.94433
0.973116
1.00244
1.03226
1.06255
1.09329
1.12445
1.15604
1.18806
1.22052
1.25342
1.28678
1.32062
1.35495
1.38979
1.42514
1.46103
1.49746
1.53443
1.57196
1.61004
1.64866
1.68783
1.72753
1.76775
1.80846
1.84966
1.8913
1.93338
1.97584
2.01867
2.06183
2.10527
2.14896
2.19285
2.23691
2.28109
2.32534
2.36961
2.41386
2.45804
2.50211
2.54602
2.58974
2.63322
2.67646
2.71942
2.76212
2.80455
2.84675
2.88876
2.93063
2.97247
3.01439
3.05649
3.09891
3.14178
3.18528
3.22959
3.27492
3.32148
3.3695
3.41918
3.47067
3.52402
3.57917
3.63584
3.69347
3.75125
3.80801
3.86229
3.91235
3.95626
3.99201
4.01756
4.03097
4.03047
4.01509
3.98221
3.93045
3.85863
3.7659
3.65217
3.5184
3.36688
3.20202
3.0321
2.87012
2.73039
2.62554
2.5646
2.54913
2.57265
2.63657
2.72377
2.77924
2.74509
2.65705
2.59008
2.57659
2.61641
2.69802
2.80714
2.92996
3.05328
3.16603
3.26033
3.33113
3.3755
3.39443
3.39117
3.36831
3.32983
3.2797
3.22152
3.15833
3.09256
3.02606
2.96016
2.89577
2.83349
2.77356
2.71629
2.66143
2.60928
2.55858
2.51005
2.4589
0.140861
0.235014
0.297908
0.329177
0.353404
0.371847
0.387674
0.401149
0.413164
0.423864
0.433587
0.442433
0.450566
0.458073
0.465065
0.471627
0.477844
0.483789
0.489536
0.495153
0.500706
0.506262
0.511888
0.517652
0.523624
0.529878
0.53649
0.543537
0.551098
0.559247
0.568057
0.577594
0.587919
0.599086
0.611144
0.62413
0.638078
0.653011
0.668948
0.685905
0.703893
0.72292
0.742988
0.764089
0.786209
0.809327
0.833414
0.858439
0.884363
0.911145
0.938741
0.967109
0.996207
1.026
1.05645
1.08754
1.11925
1.15156
1.18445
1.21794
1.25202
1.28669
1.32196
1.35785
1.39435
1.43148
1.46925
1.50767
1.54674
1.58647
1.62686
1.6679
1.70959
1.75192
1.79489
1.83847
1.88264
1.92739
1.97269
2.0185
2.0648
2.11155
2.15871
2.20625
2.25412
2.30228
2.35068
2.39928
2.44803
2.49687
2.54576
2.59465
2.64349
2.69222
2.7408
2.78918
2.83732
2.88519
2.93278
2.98006
3.02706
3.07378
3.12027
3.1666
3.21282
3.25903
3.30536
3.35197
3.39904
3.44678
3.4954
3.54516
3.59635
3.64926
3.7042
3.76142
3.82113
3.88337
3.94798
4.01451
4.08214
4.14963
4.21536
4.27734
4.33333
4.38094
4.41778
4.44157
4.45009
4.44179
4.41452
4.36537
4.29266
4.19458
4.07028
3.92057
3.74881
3.56183
3.37117
3.19236
3.03912
2.92017
2.84159
2.80508
2.8049
2.82537
2.83508
2.7998
2.73176
2.6743
2.65721
2.68829
2.76181
2.86746
2.99387
3.12871
3.25995
3.37753
3.47403
3.54462
3.58682
3.60212
3.5932
3.5634
3.51714
3.45874
3.39205
3.32034
3.24622
3.17164
3.09801
3.02624
2.95696
2.89042
2.8269
2.76613
2.70835
2.65231
2.59864
2.5429
0.142202
0.238065
0.301616
0.333255
0.3578
0.37647
0.392513
0.406202
0.418466
0.429462
0.43955
0.448833
0.457477
0.465561
0.473186
0.480419
0.48734
0.494015
0.500516
0.506907
0.513261
0.519647
0.526139
0.532809
0.539736
0.546999
0.554679
0.562854
0.571599
0.580984
0.59107
0.601914
0.61356
0.626047
0.639407
0.653665
0.668841
0.684954
0.702019
0.720048
0.739049
0.759027
0.779985
0.801923
0.824835
0.848715
0.87355
0.899323
0.926014
0.953603
0.982064
1.01138
1.04151
1.07245
1.10418
1.13668
1.16994
1.20394
1.23869
1.27419
1.31042
1.3474
1.38513
1.42361
1.46286
1.50286
1.54363
1.58517
1.62748
1.67056
1.7144
1.759
1.80435
1.85042
1.89721
1.94469
1.99284
2.04164
2.09104
2.14102
2.19154
2.24256
2.29404
2.34593
2.3982
2.4508
2.50367
2.55676
2.61004
2.66343
2.71689
2.77037
2.8238
2.87712
2.9303
2.98326
3.03597
3.0884
3.1405
3.19226
3.2437
3.29481
3.34566
3.39629
3.44683
3.49739
3.5481
3.59914
3.65069
3.70298
3.75627
3.81085
3.86708
3.92532
3.98598
4.04946
4.11608
4.18602
4.25925
4.3354
4.41366
4.49275
4.57088
4.64574
4.71477
4.77519
4.82428
4.8594
4.87814
4.87815
4.85817
4.81406
4.74355
4.64395
4.51327
4.35148
4.16198
3.95284
3.73738
3.53188
3.34975
3.19944
3.08572
3.00864
2.95754
2.91098
2.84848
2.78014
2.72728
2.71084
2.73887
2.80673
2.90711
3.03168
3.17075
3.31337
3.44894
3.56844
3.66492
3.73359
3.77237
3.78266
3.76733
3.73004
3.67578
3.60917
3.53431
3.45462
3.3728
3.29087
3.21026
3.13188
3.05635
2.98393
2.91484
2.84883
2.78609
2.72536
2.66728
2.60768
0.142699
0.238115
0.300457
0.33174
0.35621
0.374902
0.39106
0.404925
0.417446
0.428771
0.439275
0.449065
0.458318
0.467105
0.475521
0.483625
0.491485
0.499158
0.506712
0.514209
0.521712
0.529283
0.536991
0.544903
0.55309
0.561623
0.570572
0.580008
0.589995
0.600596
0.611864
0.623849
0.636593
0.650135
0.664505
0.679732
0.695838
0.712844
0.730769
0.749628
0.769434
0.7902
0.811935
0.834646
0.858338
0.88301
0.908662
0.93529
0.962886
0.991442
1.02095
1.0514
1.08277
1.11507
1.14828
1.18239
1.21739
1.25329
1.29008
1.32776
1.36633
1.40578
1.44612
1.48736
1.52948
1.57249
1.61639
1.66117
1.70684
1.75337
1.80076
1.849
1.89807
1.94795
1.99862
2.05004
2.1022
2.15506
2.20858
2.26273
2.31746
2.37274
2.42851
2.48474
2.54138
2.59837
2.65567
2.71322
2.77097
2.82886
2.88683
2.94482
3.00278
3.06063
3.11832
3.1758
3.233
3.28989
3.34643
3.4026
3.4584
3.51386
3.56899
3.62387
3.67858
3.73323
3.78799
3.84307
3.8987
3.95514
4.01271
4.07177
4.13272
4.19603
4.26224
4.33186
4.40536
4.48307
4.56509
4.65112
4.74037
4.83146
4.92237
5.01056
5.09307
5.16679
5.22859
5.27555
5.30504
5.31459
5.3026
5.26573
5.20025
5.10315
4.97116
4.80279
4.60008
4.37046
4.1272
3.88648
3.66169
3.46231
3.29384
3.15518
3.0364
2.92672
2.8312
2.76927
2.74736
2.77322
2.83789
2.93354
3.05355
3.1912
3.33825
3.48524
3.62268
3.7421
3.8366
3.9015
3.93518
3.93899
3.91645
3.87109
3.80868
3.73404
3.65138
3.56422
3.47534
3.38674
3.29985
3.21556
3.13449
3.05686
2.98289
2.91232
2.84529
2.78062
2.7189
2.65631
0.141372
0.234827
0.295512
0.326272
0.350586
0.369292
0.38561
0.399732
0.412609
0.424369
0.435388
0.445759
0.455662
0.465168
0.474384
0.483372
0.492214
0.500951
0.509632
0.518305
0.527023
0.53584
0.544812
0.553999
0.563462
0.573261
0.583458
0.594112
0.60528
0.617019
0.629381
0.642415
0.656164
0.670667
0.68596
0.702077
0.719046
0.736897
0.755652
0.775336
0.795968
0.817568
0.840152
0.863734
0.888326
0.913938
0.940577
0.968249
0.996958
1.02671
1.05749
1.08932
1.12218
1.15608
1.19101
1.22697
1.26396
1.30198
1.34102
1.38109
1.42217
1.46428
1.5074
1.55153
1.59667
1.6428
1.68994
1.73805
1.78714
1.83718
1.88816
1.94006
1.99286
2.04653
2.10104
2.15636
2.21246
2.2693
2.32684
2.38503
2.44384
2.50322
2.56312
2.62349
2.68427
2.74543
2.8069
2.86862
2.93054
2.99259
3.05472
3.11686
3.17893
3.24088
3.30263
3.36412
3.42529
3.4861
3.54649
3.60645
3.66597
3.72507
3.78377
3.84217
3.90037
3.9585
4.01674
4.07531
4.13446
4.1945
4.2558
4.31879
4.38396
4.4519
4.52328
4.59877
4.67899
4.76444
4.85531
4.95137
5.0518
5.15511
5.25908
5.36084
5.45709
5.54433
5.6191
5.67824
5.71895
5.73885
5.73566
5.70772
5.65
5.55952
5.43196
5.26392
5.05473
4.80888
4.5371
4.25432
3.97532
3.71347
3.47721
3.2684
3.08619
2.93809
2.83813
2.79521
2.80771
2.86566
2.95532
3.06884
3.20077
3.34547
3.49588
3.6436
3.77991
3.89668
3.98703
4.04634
4.07331
4.06979
4.0392
3.98556
3.91511
3.83275
3.7428
3.64885
3.55367
3.45922
3.36687
3.27749
3.19166
3.10959
3.03148
2.95709
2.88657
2.81874
2.7542
2.68944
0.138404
0.22888
0.287608
0.317875
0.342057
0.360826
0.37736
0.391803
0.40511
0.417383
0.429005
0.440054
0.450715
0.461049
0.47116
0.481097
0.49092
0.50068
0.510446
0.520248
0.530124
0.540119
0.550286
0.560674
0.571334
0.58232
0.593686
0.605484
0.61777
0.630597
0.644018
0.658081
0.67283
0.688311
0.704562
0.721624
0.739531
0.758319
0.77802
0.798662
0.820275
0.842883
0.86651
0.891177
0.916905
0.94371
0.971608
1.00061
1.03074
1.06199
1.09438
1.12791
1.16259
1.19842
1.2354
1.27353
1.31282
1.35326
1.39485
1.43758
1.48145
1.52646
1.57259
1.61983
1.66818
1.71763
1.76815
1.81973
1.87235
1.926
1.98064
2.03624
2.09279
2.15025
2.20858
2.26775
2.32771
2.38843
2.44986
2.51195
2.57466
2.63793
2.70172
2.76597
2.83062
2.89563
2.96094
3.02647
3.09218
3.15799
3.22384
3.28966
3.35537
3.42089
3.48616
3.55111
3.61566
3.67976
3.74337
3.80645
3.86899
3.93101
3.99253
4.05361
4.11433
4.17486
4.23538
4.29616
4.35751
4.41979
4.48344
4.54898
4.61704
4.68837
4.76381
4.84421
4.93038
5.02295
5.12222
5.22801
5.33944
5.45484
5.57173
5.68689
5.79666
5.89718
5.98471
6.05589
6.10785
6.13819
6.14463
6.1263
6.07851
5.9977
5.87936
5.7182
5.51016
5.25502
4.9588
4.63358
4.2964
3.96735
3.66256
3.39197
3.16502
2.99538
2.90251
2.88081
2.91586
2.98984
3.09107
3.21218
3.34836
3.49458
3.64434
3.78977
3.92244
4.03421
4.11815
4.16995
4.18866
4.17705
4.13753
4.07547
3.99711
3.90741
3.81073
3.71068
3.60998
3.51049
3.41349
3.31982
3.23
3.1442
3.06261
2.98507
2.91179
2.84154
2.77495
2.7088
0.134058
0.22113
0.277883
0.307753
0.331864
0.350742
0.367529
0.382331
0.396107
0.40893
0.42119
0.432946
0.444381
0.455545
0.466542
0.477414
0.488228
0.49902
0.509828
0.520696
0.531673
0.54279
0.554093
0.565625
0.577435
0.589567
0.602067
0.614993
0.628403
0.642351
0.656885
0.672053
0.687904
0.704483
0.721838
0.740011
0.759047
0.778984
0.799863
0.821718
0.844584
0.868494
0.893478
0.919564
0.946777
0.975142
1.00468
1.03541
1.06736
1.10053
1.13494
1.17059
1.20751
1.24569
1.28513
1.32583
1.3678
1.41103
1.45552
1.50125
1.54821
1.5964
1.6458
1.69639
1.74815
1.80108
1.85513
1.91029
1.96654
2.02383
2.08215
2.14145
2.2017
2.26287
2.3249
2.38777
2.45141
2.51579
2.58085
2.64655
2.71284
2.77965
2.84694
2.91464
2.98271
3.05108
3.11968
3.18846
3.25735
3.32626
3.39514
3.4639
3.53245
3.60072
3.66863
3.73609
3.80303
3.86938
3.93509
4.00013
4.06448
4.12813
4.19111
4.2535
4.31539
4.37692
4.43832
4.49986
4.56188
4.6248
4.68915
4.75557
4.82486
4.89798
4.97599
5.05998
5.15096
5.24973
5.35667
5.47162
5.59359
5.7207
5.85012
5.97825
6.10105
6.21432
6.3141
6.39689
6.45977
6.50034
6.51674
6.50758
6.47031
6.40021
6.29324
6.14274
5.94154
5.68425
5.37081
5.00956
4.62063
4.23275
3.87297
3.56112
3.31266
3.13983
3.05199
3.0338
3.06926
3.14284
3.24281
3.36209
3.49576
3.63856
3.78374
3.92351
4.04962
4.15386
4.22924
4.27176
4.28096
4.26043
4.21132
4.14094
4.05499
3.95849
3.85578
3.75033
3.64496
3.54126
3.44044
3.34328
3.25029
3.16162
3.07747
2.9977
2.92267
2.85087
2.78302
2.71617
0.129148
0.21254
0.267257
0.29672
0.320749
0.339738
0.35678
0.37194
0.386184
0.399558
0.412458
0.424921
0.43714
0.449146
0.461046
0.472868
0.484677
0.496499
0.50838
0.520347
0.532442
0.544703
0.557171
0.569885
0.582889
0.596228
0.609956
0.624127
0.638798
0.654023
0.669853
0.686339
0.703527
0.721467
0.740215
0.759818
0.780325
0.801783
0.824233
0.84772
0.872281
0.897955
0.924777
0.952781
0.981997
1.01245
1.04418
1.07719
1.11152
1.14717
1.18416
1.22251
1.26222
1.30328
1.34572
1.38951
1.43465
1.48114
1.52897
1.57811
1.62855
1.68028
1.73326
1.78748
1.84291
1.89952
1.95727
2.01614
2.07609
2.13709
2.19908
2.26204
2.32592
2.39067
2.45624
2.52259
2.58966
2.65741
2.72577
2.79469
2.86413
2.93401
3.00428
3.07488
3.14576
3.21684
3.28807
3.35936
3.43065
3.50186
3.5729
3.6437
3.71415
3.78418
3.85369
3.92259
3.99079
4.05823
4.12483
4.19056
4.25538
4.31928
4.38226
4.44437
4.50569
4.56639
4.62669
4.68689
4.74738
4.80863
4.87127
4.93613
5.00422
5.07678
5.15516
5.24073
5.33473
5.43815
5.5515
5.67457
5.80626
5.94438
6.0857
6.22618
6.36136
6.48672
6.59812
6.69199
6.7654
6.81603
6.84213
6.84163
6.8142
6.75415
6.65812
6.51898
6.32742
6.07379
5.75209
5.36671
4.94059
4.51095
4.11501
3.78049
3.52354
3.35012
3.25708
3.23048
3.25499
3.31688
3.40628
3.51653
3.6422
3.77718
3.91421
4.0454
4.1623
4.25644
4.32097
4.35248
4.35124
4.32038
4.26154
4.18274
4.08953
3.98691
3.87908
3.76944
3.66081
3.55424
3.45086
3.35142
3.25637
3.16588
3.08009
2.99887
2.92247
2.84949
2.78081
2.71375
0.123089
0.202631
0.255493
0.284602
0.308578
0.327717
0.345048
0.360596
0.375339
0.389294
0.402869
0.416085
0.42914
0.442053
0.454931
0.467795
0.480709
0.493691
0.506784
0.520013
0.533403
0.546995
0.560844
0.574988
0.58947
0.604339
0.619651
0.635459
0.65181
0.668749
0.68634
0.70464
0.723692
0.743555
0.764289
0.785952
0.808595
0.832264
0.857005
0.882863
0.909882
0.938103
0.967565
0.998304
1.03035
1.06374
1.0985
1.13464
1.17219
1.21117
1.25158
1.29343
1.33673
1.38146
1.42763
1.47521
1.5242
1.57458
1.62633
1.67943
1.73384
1.78954
1.84649
1.90466
1.96403
2.02453
2.08615
2.14882
2.21252
2.2772
2.34279
2.40927
2.47658
2.54465
2.61345
2.68291
2.75298
2.82361
2.89472
2.96627
3.03819
3.11043
3.18293
3.25562
3.32843
3.40131
3.47418
3.54697
3.61958
3.69194
3.76396
3.83555
3.9066
3.97703
4.04671
4.11556
4.18349
4.25039
4.3162
4.38084
4.44429
4.5065
4.56748
4.62727
4.68595
4.74367
4.80064
4.85717
4.91364
4.97059
5.02879
5.08928
5.15336
5.2226
5.29876
5.38347
5.47829
5.58449
5.7027
5.83271
5.97319
6.12159
6.27421
6.42645
6.57358
6.7106
6.8332
6.93784
7.02167
7.08242
7.11809
7.12665
7.10797
7.05714
6.9702
6.84077
6.65869
6.41179
6.08985
5.69446
5.24998
4.79893
4.38484
4.03905
3.77687
3.59868
3.49569
3.45455
3.46166
3.50542
3.57849
3.67464
3.78792
3.91113
4.03638
4.15563
4.26018
4.34135
4.39271
4.41121
4.39866
4.35562
4.28735
4.20145
4.10271
3.9957
3.88439
3.77199
3.66102
3.55223
3.44693
3.3458
3.24925
3.1574
3.07038
2.98803
2.91047
2.83688
2.76797
2.70129
0.117072
0.192896
0.24366
0.272334
0.296228
0.315523
0.333172
0.349147
0.364439
0.379036
0.393362
0.407412
0.421398
0.435328
0.449325
0.463397
0.477611
0.491979
0.506535
0.521283
0.536309
0.551657
0.567366
0.583478
0.600046
0.617117
0.634744
0.652972
0.671843
0.691411
0.71172
0.732796
0.754699
0.777518
0.801324
0.826161
0.852062
0.879079
0.90726
0.936652
0.967299
0.999241
1.03251
1.06715
1.10318
1.14064
1.17954
1.2199
1.26173
1.30505
1.34984
1.3961
1.44383
1.49301
1.54362
1.59564
1.64904
1.70379
1.75986
1.81723
1.87584
1.93566
1.99665
2.05876
2.12196
2.18619
2.2514
2.31755
2.38458
2.45244
2.52109
2.59045
2.66048
2.73113
2.80233
2.87402
2.94614
3.01864
3.09145
3.16452
3.23778
3.31118
3.38464
3.45812
3.53153
3.60482
3.67791
3.75072
3.82316
3.89515
3.96659
4.03738
4.1074
4.17655
4.2447
4.31175
4.37759
4.44213
4.50527
4.56692
4.62701
4.68546
4.74227
4.79744
4.85105
4.90325
4.95423
5.00427
5.05378
5.10337
5.15396
5.20688
5.26369
5.32622
5.39628
5.47616
5.56822
5.67424
5.79513
5.93068
6.07929
6.23791
6.40221
6.56662
6.72527
6.8734
7.00682