/*--------------------------------*- C++ -*----------------------------------*\
| =========                 |                                                 |
| \\      /  F ield         | OpenFOAM: The Open Source CFD Toolbox           |
|  \\    /   O peration     | Version:  v1906                                 |
|   \\  /    A nd           | Web:      www.OpenFOAM.com                      |
|    \\/     M anipulation  |                                                 |
\*---------------------------------------------------------------------------*/
FoamFile
{
    version     2.0;
    format      ascii;
    class       volScalarField;
    location    "1900";
    object      nut;
}
// * * * * * * * * * * * * * * * * * * * * * * * * * * * * * * * * * * * * * //

dimensions      [0 2 -1 0 0 0 0];


internalField   nonuniform List<scalar> 
12225
(
5.38055e-05
5.3434e-05
5.26737e-05
5.18244e-05
5.1008e-05
5.02546e-05
4.95716e-05
4.89567e-05
4.84012e-05
4.7906e-05
4.74511e-05
4.70576e-05
4.67417e-05
4.64853e-05
4.62533e-05
4.60847e-05
4.5888e-05
4.58129e-05
0.00074351
0.000277289
0.00021206
0.000190342
0.000177846
0.000170946
0.000165689
0.000161418
0.000158082
0.000155299
0.000153183
0.000151162
0.000149837
0.000148054
0.000147498
0.000145768
0.000146254
0.000144402
0.00336964
0.000967902
0.000670236
0.000563733
0.000506679
0.000473351
0.000449687
0.000431675
0.000418484
0.000407932
0.000399257
0.00039195
0.000386023
0.00038049
0.000376512
0.000371771
0.000370121
0.000365476
0.00784554
0.00229532
0.00147521
0.00117726
0.00102249
0.000930378
0.000868786
0.000823955
0.000791327
0.000765637
0.000744859
0.000728413
0.000715095
0.000703614
0.000694415
0.000685526
0.000680519
0.000670686
0.0127613
0.00433018
0.00271177
0.00210514
0.00179129
0.00160249
0.00147678
0.00138644
0.00131943
0.00126753
0.00122598
0.0011922
0.00116516
0.00114155
0.00112195
0.00110474
0.00109239
0.00107472
0.0171128
0.00693503
0.00437046
0.00334533
0.00280611
0.00247777
0.00225805
0.00210051
0.00198282
0.00189173
0.00181907
0.00175985
0.00171137
0.00167038
0.00163567
0.00160574
0.00158062
0.00155339
0.0205942
0.00988656
0.00641904
0.00491091
0.00409401
0.00358869
0.00324746
0.00300194
0.00281753
0.00267427
0.00255985
0.00246644
0.00238923
0.0023242
0.00226888
0.00222125
0.00218074
0.00213909
0.0232402
0.0129321
0.00876076
0.00676355
0.00563602
0.00492285
0.00443469
0.00408066
0.00381296
0.00360391
0.00343635
0.00329918
0.00318517
0.00308899
0.0030069
0.00293609
0.00287472
0.00281479
0.025206
0.0158694
0.011282
0.00885507
0.0074154
0.00647928
0.00582746
0.00534953
0.00498516
0.0046988
0.00446816
0.00427864
0.00412043
0.00398655
0.00387193
0.00377282
0.00368616
0.00360441
0.0266536
0.0185546
0.0138513
0.0111041
0.00938181
0.00822444
0.00740136
0.00678917
0.00631755
0.0059439
0.00564106
0.00539095
0.0051812
0.00500301
0.0048499
0.00471701
0.00460006
0.00449243
0.0277216
0.0209138
0.016354
0.0134258
0.0114798
0.0101231
0.00913448
0.00838657
0.00780319
0.00733659
0.00695557
0.00663901
0.00637219
0.0061445
0.00594812
0.00577704
0.00562606
0.00548888
0.0284461
0.0227402
0.0184752
0.015508
0.0134278
0.0119247
0.0108019
0.00993734
0.00925404
0.00870194
0.00824747
0.00786745
0.0075454
0.00726932
0.00703025
0.00682123
0.0066363
0.00646955
0.0290069
0.0243013
0.0204346
0.0175345
0.015389
0.0137792
0.0125438
0.0115735
0.0107953
0.0101592
0.0096308
0.00918575
0.00880631
0.0084794
0.00819508
0.00794559
0.00772443
0.00752556
0.0294882
0.0257536
0.0223948
0.0196724
0.0175356
0.0158605
0.0145328
0.0134644
0.0125914
0.0118674
0.0112592
0.0107421
0.0102978
0.00991268
0.00957592
0.00927913
0.00901533
0.00877856
0.0298832
0.0270268
0.0242364
0.0217939
0.0197531
0.0180736
0.0166918
0.0155477
0.0145917
0.0137849
0.0130976
0.0125066
0.0119942
0.0115466
0.0111527
0.0108038
0.0104925
0.0102128
0.0301871
0.0280586
0.0258241
0.0237218
0.021852
0.0202332
0.0188465
0.0176613
0.0166458
0.0157716
0.0150149
0.0143559
0.0137784
0.0132696
0.0128186
0.0124169
0.0120572
0.0117334
0.0303974
0.028799
0.0270219
0.0252442
0.0235727
0.0220559
0.0207059
0.019516
0.0184711
0.0175539
0.0167471
0.0160354
0.0154053
0.0148452
0.0143453
0.0138974
0.0134944
0.0131309
0.0305039
0.0291831
0.0276651
0.0260894
0.0245557
0.0231214
0.0218127
0.0206355
0.0195847
0.0186499
0.017819
0.0170796
0.0164203
0.0158309
0.0153023
0.0148267
0.0143973
0.0140081
0.0304706
0.0290643
0.0274676
0.0258315
0.0242571
0.0227989
0.0214783
0.0202975
0.0192484
0.0183184
0.0174941
0.0167622
0.0161108
0.0155293
0.0150085
0.0145408
0.0141195
0.0137394
0.0302301
0.0282109
0.0260714
0.0240362
0.0222068
0.0206078
0.0192271
0.0180389
0.0170153
0.01613
0.0153605
0.0146882
0.0140974
0.0135755
0.0131122
0.0126992
0.0123295
0.0119979
0.0298192
0.0268241
0.023944
0.021456
0.0193975
0.0177154
0.0163387
0.0152029
0.0142563
0.013459
0.0127805
0.0121976
0.0116924
0.0112511
0.010863
0.0105197
0.0102148
0.00994414
0.0291384
0.0247059
0.0209807
0.018127
0.01598
0.0143481
0.0130834
0.0120826
0.0112748
0.0106113
0.0100579
0.00958987
0.00918952
0.00884349
0.00854173
0.00827663
0.00804249
0.00783569
0.0280348
0.021714
0.0172818
0.0143335
0.012326
0.0109026
0.00985241
0.00905064
0.00842075
0.00791394
0.00749798
0.00715082
0.00685692
0.00660507
0.00638685
0.00619613
0.00602826
0.00588202
0.0262538
0.017817
0.0131453
0.0104878
0.00884546
0.0077499
0.00697374
0.00639788
0.00595488
0.00560405
0.00531967
0.00508467
0.00488737
0.00471948
0.00457484
0.00444901
0.00433839
0.00424218
0.0233808
0.0132077
0.00902317
0.00699284
0.00583767
0.00510192
0.00459538
0.00422703
0.0039477
0.00372877
0.00355278
0.00340833
0.00328776
0.00318568
0.00309792
0.00302177
0.0029541
0.00289616
0.0189043
0.00845955
0.00545269
0.00418666
0.00350873
0.00308964
0.00280631
0.00260323
0.00245057
0.00233149
0.00223624
0.00215829
0.00209355
0.00203892
0.00199191
0.00195151
0.00191554
0.0018851
0.0125831
0.0043928
0.00279106
0.00217478
0.00185403
0.00165762
0.00152604
0.00143299
0.00136302
0.00130826
0.00126468
0.00122903
0.00119977
0.00117495
0.00115321
0.00113508
0.00111794
0.00110366
0.00562422
0.00171424
0.00115756
0.000947707
0.000839136
0.000771698
0.000726998
0.000695917
0.000671122
0.000651055
0.000635159
0.000621915
0.000610556
0.000601014
0.000592327
0.000585232
0.000578078
0.000573237
0.00117097
0.000438401
0.000330807
0.000288806
0.000267463
0.000253701
0.000246274
0.000240159
0.000234998
0.000230603
0.000226821
0.000223645
0.000220792
0.000218468
0.000216201
0.000214503
0.000212532
0.00021103
7.08584e-05
7.01421e-05
6.91462e-05
6.8162e-05
6.72335e-05
6.63765e-05
6.55915e-05
6.4877e-05
6.42266e-05
6.3634e-05
6.30924e-05
6.25964e-05
6.21414e-05
6.1722e-05
6.1337e-05
6.09785e-05
6.06506e-05
6.03397e-05
8.32379e-06
2.3184e-05
2.73497e-05
2.9742e-05
3.13519e-05
3.23834e-05
3.31284e-05
3.36596e-05
3.40679e-05
3.43845e-05
3.46415e-05
3.4854e-05
3.50357e-05
3.51936e-05
3.53321e-05
3.54514e-05
3.55526e-05
3.56261e-05
3.5684e-05
3.57011e-05
3.56634e-05
3.55572e-05
3.53405e-05
3.50115e-05
3.45695e-05
3.40104e-05
3.33378e-05
3.25705e-05
3.17465e-05
3.09306e-05
3.02022e-05
2.96401e-05
2.93466e-05
2.91569e-05
2.91614e-05
2.93011e-05
2.96145e-05
2.9979e-05
3.03185e-05
3.0584e-05
3.07257e-05
3.07056e-05
3.05585e-05
3.0097e-05
2.90573e-05
2.77575e-05
2.66721e-05
2.63789e-05
2.70036e-05
2.82044e-05
2.98819e-05
3.20732e-05
3.48683e-05
3.75866e-05
4.00254e-05
4.22664e-05
4.43437e-05
4.62845e-05
4.81236e-05
4.98481e-05
5.14589e-05
5.29771e-05
5.44149e-05
5.57844e-05
5.70956e-05
5.83573e-05
5.95768e-05
6.07606e-05
6.19141e-05
6.30421e-05
6.41483e-05
6.52362e-05
6.63084e-05
6.73674e-05
6.8415e-05
6.94532e-05
7.04832e-05
7.15063e-05
7.25237e-05
7.35364e-05
7.45451e-05
7.55509e-05
7.65543e-05
7.75562e-05
7.85573e-05
7.95582e-05
8.05597e-05
8.15625e-05
8.25672e-05
8.35746e-05
8.45852e-05
8.55997e-05
8.66186e-05
8.76423e-05
8.86711e-05
8.97052e-05
9.07443e-05
9.17879e-05
9.28352e-05
9.38851e-05
9.49364e-05
9.59872e-05
9.70343e-05
9.80729e-05
9.91021e-05
0.000100133
0.000101165
0.000102195
0.000103217
0.000104226
0.000105213
0.000106173
0.000107128
0.00010806
0.00010896
0.000109808
0.000110566
0.000111165
0.000111483
0.000111518
0.000111259
0.000111096
0.000110874
0.00011069
0.000110521
0.000110311
0.000110217
0.000110269
0.000110439
0.000110943
0.000111146
0.000111737
0.000112355
0.000112883
0.00011318
0.000113095
0.000112751
0.000111962
0.000110496
0.000108354
0.000105646
0.000102787
9.8702e-05
9.35638e-05
8.73799e-05
7.93192e-05
6.89331e-05
5.41329e-05
4.50547e-05
4.62337e-05
4.96842e-05
4.93332e-05
3.54138e-05
3.29008e-05
5.66896e-05
6.97614e-05
7.83529e-05
8.43585e-05
8.76705e-05
8.92737e-05
9.01579e-05
9.049e-05
9.04123e-05
9.01663e-05
8.97467e-05
8.91632e-05
8.84904e-05
8.77873e-05
8.71027e-05
8.64615e-05
8.5903e-05
8.53825e-05
8.501e-05
8.47094e-05
8.47307e-05
8.49045e-05
8.48866e-05
8.45946e-05
8.45286e-05
8.28248e-05
1.19829e-05
4.93302e-05
0.000107005
0.000147726
0.00017835
0.000199413
0.000215048
0.000225973
0.00023444
0.00024099
0.00024669
0.000251989
0.000257419
0.000263296
0.000269672
0.000276533
0.000283681
0.000290394
0.000295963
0.000299577
0.000300791
0.000299496
0.000297057
0.000294196
0.00029221
0.000292467
0.0002962
0.000304228
0.00031685
0.000334048
0.000353876
0.000373228
0.000389955
0.000402972
0.000411939
0.00041714
0.000419098
0.000418511
0.000416047
0.000412251
0.000407601
0.000402574
0.000397625
0.000393023
0.000389034
0.000386093
0.00038378
0.000381649
0.000380593
0.000379958
0.000379298
0.000378319
0.000376792
0.000376711
0.00037893
0.000383409
0.000389805
0.000397693
0.000406784
0.000416682
0.000427098
0.000437811
0.000448649
0.000459491
0.000470252
0.000480878
0.000491342
0.000501632
0.000511753
0.000521714
0.000531531
0.000541223
0.000550807
0.0005603
0.000569717
0.000579071
0.000588373
0.000597631
0.000606853
0.000616044
0.000625208
0.000634348
0.000643467
0.000652568
0.000661652
0.000670722
0.000679782
0.000688836
0.000697888
0.000706946
0.000716016
0.000725108
0.000734226
0.000743377
0.000752564
0.000761786
0.000771033
0.000780277
0.00078947
0.000798533
0.000807349
0.00081575
0.00082348
0.000830123
0.000835087
0.000839239
0.000843132
0.00084675
0.000849809
0.000851844
0.00085188
0.000848997
0.000846671
0.000845105
0.000844404
0.000844789
0.000846588
0.000850227
0.000855413
0.000860877
0.000865993
0.000869843
0.000872027
0.000871779
0.000868386
0.000860859
0.00084901
0.000831979
0.0008106
0.000795192
0.000789877
0.000785452
0.000776624
0.000762785
0.000744654
0.000723881
0.000699561
0.000671714
0.000639739
0.000605603
0.000572273
0.000533541
0.000463334
0.000413143
0.000363836
0.000319093
0.000301292
0.000324779
0.00039003
0.000484614
0.000570155
0.000584795
0.000580272
0.000591393
0.000596661
0.000667634
0.000751088
0.000826718
0.000880878
0.000902423
0.00091074
0.000918428
0.000922402
0.000923623
0.000923006
0.000919686
0.000913914
0.000906104
0.000896683
0.000885725
0.000873361
0.00085829
0.000841958
0.000823805
0.00080654
0.000791593
0.000784732
0.000775245
0.000768423
0.000741605
1.48668e-05
6.86106e-05
0.000150814
0.000218314
0.000276896
0.000321668
0.000358732
0.000386667
0.000410601
0.000430913
0.000449895
0.000467979
0.000486222
0.000505026
0.000524744
0.000545066
0.000564808
0.000581248
0.000593971
0.000603695
0.000611056
0.000616762
0.000621346
0.000625054
0.000627905
0.000629774
0.000630477
0.000629912
0.000628089
0.000625019
0.000621679
0.00061922
0.000617888
0.000617521
0.000617942
0.00061909
0.000621077
0.000624056
0.000628122
0.000633458
0.000638934
0.000643326
0.00064768
0.000651245
0.000654249
0.000657168
0.000660601
0.00066643
0.000672397
0.000680807
0.000692186
0.000706591
0.000723624
0.000742962
0.000764481
0.000787749
0.000812256
0.000837519
0.00086297
0.000888349
0.000913417
0.000937995
0.000961972
0.000985288
0.00100793
0.00102991
0.00105127
0.00107205
0.00109231
0.0011121
0.00113148
0.00115049
0.00116917
0.00118757
0.0012057
0.0012236
0.00124127
0.00125873
0.00127599
0.00129304
0.00130989
0.00132652
0.00134294
0.00135913
0.00137509
0.00139081
0.00140628
0.00142147
0.00143639
0.00145102
0.00146534
0.00147935
0.00149302
0.00150633
0.00151926
0.00153178
0.00154385
0.00155544
0.00156648
0.0015769
0.00158664
0.0015956
0.00160371
0.00161094
0.0016174
0.00162331
0.00162858
0.00163312
0.00163693
0.00163991
0.00164212
0.00164399
0.00164625
0.00164878
0.00165152
0.00165497
0.00165954
0.0016651
0.00167095
0.00167626
0.00168049
0.00168271
0.00168215
0.00167791
0.00166908
0.00165462
0.00163436
0.00160947
0.00158069
0.00155049
0.00151785
0.00148156
0.0014426
0.00139967
0.00135386
0.00130801
0.00126066
0.00121048
0.00115683
0.00110048
0.00104549
0.000989959
0.000924447
0.000852277
0.000763207
0.000655867
0.000620112
0.000659224
0.000796679
0.000884958
0.000923571
0.000981203
0.0010904
0.00120452
0.00132641
0.00146321
0.00158993
0.00168488
0.00174154
0.00176415
0.0017857
0.00180619
0.00181864
0.00182403
0.0018231
0.00181671
0.00180621
0.00179267
0.00177695
0.00175925
0.0017394
0.00171464
0.00168905
0.00166333
0.00163865
0.00161573
0.0015957
0.00157357
0.00154882
0.00149492
1.64938e-05
8.7211e-05
0.000190067
0.00027303
0.000351954
0.000415247
0.000471972
0.000516692
0.000556582
0.000590387
0.00062162
0.000649926
0.00067681
0.000702189
0.000726443
0.000749132
0.000769531
0.000785962
0.000796571
0.000802419
0.000804507
0.000803763
0.000801026
0.000796968
0.000792017
0.000786417
0.000780421
0.000774398
0.000768851
0.000764354
0.000761482
0.00076072
0.000762384
0.000766621
0.000772749
0.000780025
0.00078784
0.000795584
0.000801213
0.000806218
0.000812819
0.000822591
0.000835988
0.000852818
0.000872622
0.000894455
0.000916727
0.000941275
0.000967459
0.000995137
0.00102413
0.00105456
0.00108661
0.00111993
0.00115363
0.00118723
0.00122045
0.00125327
0.00128557
0.00131723
0.00134817
0.00137833
0.0014077
0.00143629
0.00146414
0.0014913
0.00151781
0.00154374
0.00156915
0.00159407
0.00161856
0.00164266
0.0016664
0.00168983
0.00171299
0.00173587
0.00175849
0.00178085
0.00180294
0.00182475
0.00184628
0.00186752
0.00188843
0.00190902
0.00192925
0.00194911
0.00196856
0.0019876
0.00200619
0.0020243
0.00204192
0.00205901
0.00207555
0.0020915
0.00210683
0.00212152
0.00213553
0.00214883
0.0021614
0.00217321
0.00218425
0.00219452
0.00220405
0.00221289
0.00222107
0.00222863
0.00223549
0.00224172
0.00224734
0.0022524
0.00225698
0.00226117
0.00226491
0.00226777
0.0022689
0.0022696
0.00227108
0.00227308
0.0022749
0.0022759
0.0022755
0.00227264
0.00226615
0.0022548
0.00223735
0.00221237
0.0021803
0.00214158
0.00209675
0.0020454
0.00198746
0.00192514
0.00186166
0.00179553
0.00172939
0.00166603
0.00160197
0.00153578
0.00146701
0.00139921
0.00133843
0.0012904
0.00125527
0.00120174
0.00112393
0.00104421
0.00103975
0.00110545
0.00115895
0.00118264
0.00126283
0.00140455
0.00160344
0.00179531
0.00197325
0.00214081
0.00227888
0.00237394
0.00243129
0.00247068
0.00250227
0.00252169
0.00252955
0.00252425
0.00251005
0.00248986
0.00246561
0.00243864
0.00240983
0.00237958
0.00234802
0.00231528
0.00228307
0.00225183
0.00222193
0.00219341
0.00216581
0.00213649
0.00210081
0.00204122
1.85054e-05
0.000107499
0.000231811
0.000336792
0.000432867
0.000515947
0.000588671
0.000652165
0.000707559
0.000755993
0.000798063
0.000834512
0.000866249
0.000893034
0.000915081
0.000932351
0.000944885
0.000952767
0.000956244
0.00095585
0.000952312
0.000946456
0.000939085
0.000930911
0.000922534
0.000914489
0.000907319
0.000901611
0.000897757
0.000895909
0.000896086
0.000898081
0.000901453
0.000905543
0.000912239
0.000923079
0.000936928
0.000955475
0.000978415
0.00100557
0.00103486
0.00106464
0.00109392
0.00112245
0.00115248
0.0011831
0.00121418
0.00124609
0.0012794
0.00131442
0.00134993
0.00138496
0.0014196
0.00145416
0.00148898
0.00152409
0.00155932
0.00159432
0.00162888
0.00166286
0.00169619
0.00172884
0.0017608
0.00179209
0.00182276
0.00185284
0.0018824
0.00191147
0.00194011
0.00196836
0.00199627
0.00202387
0.00205118
0.00207819
0.00210491
0.00213134
0.00215747
0.00218331
0.00220885
0.00223407
0.00225896
0.0022835
0.00230767
0.00233145
0.00235481
0.00237773
0.00240017
0.00242212
0.00244353
0.00246438
0.00248463
0.00250424
0.0025232
0.00254146
0.00255899
0.00257576
0.00259174
0.00260692
0.00262127
0.0026348
0.00264749
0.00265938
0.00267047
0.00268081
0.00269045
0.00269945
0.00270789
0.00271574
0.00272298
0.00272965
0.00273575
0.00274123
0.00274599
0.0027499
0.00275295
0.00275537
0.00275695
0.00275712
0.00275525
0.00275132
0.00274499
0.00273541
0.00272143
0.00270181
0.00267536
0.00264083
0.00259806
0.00254636
0.00248518
0.00241178
0.00232947
0.00224288
0.00215608
0.00206898
0.00198483
0.00190914
0.00183817
0.00176934
0.00170244
0.00164283
0.00160071
0.00158448
0.00157449
0.00155467
0.00153
0.00151812
0.00151007
0.00147676
0.00142614
0.00146876
0.00158214
0.00179453
0.00208192
0.00233646
0.00254503
0.00272509
0.00285206
0.00293574
0.00298941
0.00302462
0.00304364
0.0030449
0.00303708
0.00301761
0.00299081
0.00295902
0.00292415
0.00288749
0.00284991
0.00281201
0.00277426
0.00273728
0.00270168
0.00266766
0.00263515
0.00260388
0.00257296
0.00254038
0.0025009
0.00244534
1.98858e-05
0.000120816
0.000263977
0.000387882
0.000496442
0.000591834
0.000675483
0.000749286
0.000814133
0.000871061
0.000920465
0.000962914
0.000998904
0.00102866
0.00105251
0.00107077
0.00108379
0.00109197
0.00109578
0.00109581
0.00109278
0.00108745
0.00108064
0.00107315
0.00106554
0.00105824
0.00105159
0.00104579
0.00104177
0.00104086
0.00104441
0.00105301
0.00106712
0.00108733
0.00111104
0.0011371
0.00116492
0.00119469
0.00122611
0.00125826
0.00129121
0.00132446
0.00135751
0.00139028
0.00142299
0.00145626
0.00149056
0.00152542
0.00155964
0.00159324
0.00162707
0.0016617
0.00169685
0.00173235
0.00176805
0.0018038
0.00183943
0.0018748
0.00190979
0.00194434
0.00197839
0.00201195
0.002045
0.00207758
0.0021097
0.0021414
0.00217271
0.00220367
0.00223431
0.00226465
0.00229471
0.00232451
0.00235406
0.00238336
0.00241241
0.00244121
0.00246975
0.00249803
0.00252602
0.00255371
0.00258108
0.00260811
0.00263477
0.00266103
0.00268687
0.00271225
0.00273714
0.00276151
0.00278532
0.00280853
0.00283112
0.00285305
0.00287428
0.00289479
0.00291453
0.00293349
0.00295164
0.00296896
0.00298544
0.00300107
0.00301586
0.00302982
0.00304296
0.00305531
0.00306689
0.00307774
0.00308786
0.00309728
0.003106
0.00311402
0.00312133
0.00312787
0.00313356
0.0031383
0.00314192
0.00314415
0.00314444
0.00314199
0.00313553
0.00312632
0.00311442
0.00309896
0.00307847
0.0030514
0.00301638
0.0029719
0.00291695
0.00285061
0.00277312
0.00268413
0.00258587
0.0024814
0.002375
0.00226902
0.00216736
0.00207944
0.00200317
0.00193645
0.00187955
0.00184034
0.0018326
0.00186161
0.0019044
0.00191508
0.00190749
0.00188461
0.00181978
0.00170464
0.0016624
0.00172118
0.00190201
0.00220756
0.00254543
0.00282069
0.0030422
0.00320392
0.00331129
0.00338066
0.00342253
0.00344342
0.00344526
0.00343026
0.00340915
0.00337738
0.00333986
0.00329877
0.00325581
0.00321215
0.00316862
0.00312585
0.00308434
0.00304451
0.00300658
0.0029706
0.00293637
0.00290359
0.00287125
0.00283774
0.00279858
0.00275002
2.10937e-05
0.000130609
0.000287924
0.000424775
0.000544629
0.000650355
0.000743438
0.000825823
0.000898465
0.000962476
0.00101848
0.00106693
0.0011084
0.00114335
0.00117204
0.00119493
0.00121249
0.00122527
0.00123386
0.00123887
0.00124096
0.00124079
0.0012389
0.00123575
0.00123249
0.0012304
0.00123039
0.0012335
0.00124017
0.00125036
0.00126367
0.00128026
0.00130032
0.00132359
0.00134938
0.00137737
0.00140734
0.0014388
0.00147108
0.00150341
0.00153563
0.0015676
0.00159973
0.00163239
0.00166553
0.00169804
0.00172982
0.00176147
0.00179388
0.00182693
0.00186059
0.00189479
0.0019294
0.00196429
0.00199934
0.00203441
0.00206942
0.00210426
0.00213888
0.00217323
0.00220728
0.00224103
0.00227447
0.00230761
0.00234048
0.00237308
0.00240544
0.00243757
0.00246948
0.0025012
0.00253273
0.00256407
0.00259523
0.0026262
0.00265698
0.00268756
0.00271793
0.00274808
0.00277798
0.00280761
0.00283695
0.00286598
0.00289466
0.00292296
0.00295086
0.00297831
0.00300529
0.00303175
0.00305766
0.00308299
0.0031077
0.00313175
0.00315511
0.00317775
0.00319962
0.00322072
0.00324099
0.00326044
0.00327904
0.00329677
0.00331364
0.00332964
0.00334478
0.00335907
0.00337254
0.0033852
0.00339708
0.00340817
0.00341848
0.00342802
0.00343675
0.00344463
0.00345157
0.00345742
0.00346195
0.00346483
0.0034656
0.00346375
0.00345875
0.00345017
0.003438
0.00342169
0.00339992
0.00337084
0.00333383
0.00328723
0.0032295
0.0031594
0.00307712
0.00298277
0.00287691
0.00276205
0.00264218
0.00252074
0.00240365
0.00230369
0.00222234
0.00216083
0.0021215
0.00211297
0.00214805
0.00221674
0.00225368
0.00224846
0.00221673
0.00213921
0.00200448
0.00188892
0.00187836
0.00199572
0.00225763
0.00263422
0.00298274
0.00325547
0.00345716
0.0035912
0.00368029
0.00373432
0.00376054
0.00376504
0.00375064
0.00372228
0.00368915
0.00364649
0.00359967
0.00355075
0.00350117
0.00345193
0.0034038
0.0033573
0.00331283
0.00327063
0.00323079
0.00319329
0.00315789
0.00312433
0.00309161
0.00305851
0.00302144
0.00297881
2.17154e-05
0.00013544
0.000303795
0.000451079
0.000580717
0.000695559
0.000797079
0.000887226
0.000967
0.00103758
0.00109971
0.00115418
0.00120138
0.00124205
0.00127674
0.00130596
0.00133024
0.00135013
0.0013662
0.00137899
0.00138906
0.00139712
0.00140412
0.00141096
0.00141805
0.00142572
0.00143459
0.00144517
0.00145778
0.0014726
0.00148971
0.0015091
0.00153063
0.00155408
0.00157922
0.00160567
0.00163304
0.00166106
0.00168959
0.00171867
0.00174839
0.00177879
0.00180892
0.00183842
0.00186756
0.00189724
0.00192751
0.00195839
0.00198991
0.00202202
0.00205466
0.00208775
0.00212121
0.00215494
0.00218885
0.00222287
0.00225691
0.00229094
0.00232489
0.00235875
0.00239248
0.00242609
0.00245956
0.0024929
0.0025261
0.00255919
0.00259216
0.00262502
0.00265777
0.00269043
0.00272298
0.00275543
0.00278778
0.00282001
0.00285212
0.0028841
0.00291593
0.00294759
0.00297906
0.00301031
0.00304133
0.00307208
0.00310253
0.00313265
0.00316241
0.00319176
0.00322068
0.00324912
0.00327705
0.00330444
0.00333123
0.00335741
0.00338292
0.00340774
0.00343182
0.00345514
0.00347767
0.00349937
0.00352024
0.00354024
0.00355936
0.0035776
0.00359495
0.00361142
0.00362701
0.00364173
0.0036556
0.00366865
0.0036809
0.00369235
0.00370301
0.00371284
0.00372176
0.00372964
0.00373629
0.00374139
0.00374454
0.00374515
0.00374231
0.00373429
0.00372257
0.00370728
0.00368776
0.0036629
0.003631
0.00359002
0.00353806
0.00347361
0.00339575
0.0033052
0.00320073
0.00308409
0.00295864
0.00282731
0.00269879
0.00258767
0.00249973
0.00244232
0.00242222
0.00244568
0.00250379
0.00255769
0.00255619
0.00250879
0.00242166
0.00228529
0.00213923
0.00207017
0.00209686
0.0023009
0.00265102
0.00304641
0.00337162
0.00362122
0.00378238
0.00389616
0.00397952
0.00402218
0.0040334
0.00402233
0.00399341
0.00395364
0.00390838
0.00385587
0.00380067
0.00374476
0.00368929
0.00363511
0.00358286
0.00353296
0.00348569
0.00344119
0.00339948
0.00336057
0.00332421
0.00329019
0.00325756
0.00322543
0.00319086
0.00315335
2.22757e-05
0.000139309
0.000315397
0.000470338
0.000607254
0.000728988
0.000837067
0.000933468
0.00101925
0.00109564
0.00116349
0.00122366
0.00127681
0.00132339
0.00136429
0.00139994
0.00143102
0.00145801
0.0014815
0.0015022
0.00152077
0.0015377
0.00155339
0.00156834
0.00158297
0.00159768
0.00161282
0.00162868
0.00164547
0.00166332
0.0016823
0.00170241
0.00172352
0.00174567
0.00176883
0.00179294
0.00181801
0.00184412
0.00187074
0.00189737
0.00192372
0.00194984
0.00197637
0.00200356
0.00203137
0.00205983
0.00208892
0.00211864
0.00214894
0.00217979
0.00221112
0.00224287
0.00227499
0.00230741
0.00234006
0.00237289
0.00240585
0.00243891
0.00247204
0.0025052
0.00253839
0.00257159
0.00260479
0.002638
0.0026712
0.00270441
0.00273761
0.00277081
0.00280401
0.00283721
0.00287041
0.00290359
0.00293675
0.00296989
0.00300298
0.00303602
0.00306899
0.00310186
0.00313461
0.00316722
0.00319966
0.0032319
0.00326391
0.00329565
0.00332709
0.00335819
0.00338891
0.00341922
0.00344907
0.00347843
0.00350726
0.00353551
0.00356315
0.00359013
0.00361643
0.003642
0.00366681
0.00369082
0.00371401
0.00373636
0.00375783
0.00377843
0.00379815
0.00381698
0.00383496
0.0038521
0.00386843
0.00388399
0.0038988
0.00391289
0.0039263
0.00393902
0.00395103
0.00396224
0.00397251
0.00398161
0.00398921
0.0039949
0.00399815
0.00399851
0.00399561
0.00398813
0.00397614
0.00395923
0.00393562
0.00390324
0.00386021
0.00380499
0.00373617
0.00365363
0.00355707
0.00344596
0.00332328
0.00319021
0.00305786
0.00293938
0.00284479
0.00278613
0.00277273
0.00280469
0.00284618
0.00284066
0.00278237
0.00267963
0.00254044
0.0023837
0.00227464
0.00222926
0.00236138
0.00265231
0.00304769
0.00341966
0.00370769
0.00390085
0.00403664
0.00414638
0.00422857
0.00425988
0.00425671
0.00423106
0.00418918
0.00413846
0.00408173
0.00401993
0.00395687
0.00389454
0.00383362
0.00377482
0.00371869
0.00366554
0.00361555
0.00356881
0.00352533
0.00348512
0.00344794
0.00341363
0.00338128
0.00335029
0.00331818
0.00328502
2.23841e-05
0.000141345
0.000321269
0.000481109
0.000623268
0.000750332
0.000863708
0.000965338
0.00105625
0.00113769
0.00121053
0.00127567
0.00133382
0.00138553
0.0014317
0.00147291
0.0015099
0.00154321
0.00157335
0.00160071
0.00162574
0.0016489
0.00167062
0.00169127
0.00171116
0.00173059
0.00174977
0.00176895
0.00178835
0.00180813
0.00182843
0.0018494
0.00187113
0.00189342
0.00191609
0.001939
0.00196194
0.00198481
0.00200788
0.00203146
0.00205568
0.0020805
0.00210593
0.002132
0.00215869
0.00218599
0.00221389
0.00224236
0.00227137
0.00230087
0.00233083
0.0023612
0.00239193
0.00242299
0.00245432
0.00248591
0.00251771
0.00254969
0.00258184
0.00261414
0.00264658
0.00267914
0.00271182
0.00274461
0.00277752
0.00281054
0.00284367
0.00287691
0.00291025
0.00294369
0.00297722
0.00301085
0.00304456
0.00307833
0.00311216
0.00314602
0.00317991
0.0032138
0.00324765
0.00328146
0.00331519
0.0033488
0.00338227
0.00341556
0.00344863
0.00348144
0.00351396
0.00354614
0.00357795
0.00360934
0.00364027
0.00367069
0.00370057
0.00372986
0.00375852
0.00378652
0.0038138
0.00384034
0.0038661
0.00389105
0.00391517
0.00393845
0.00396088
0.00398247
0.00400322
0.00402318
0.00404238
0.00406089
0.00407877
0.0040961
0.00411294
0.00412935
0.00414536
0.00416094
0.00417602
0.00419044
0.00420396
0.00421624
0.00422687
0.00423532
0.00424096
0.00424303
0.00424078
0.00423297
0.00421807
0.00419448
0.00416075
0.00411549
0.0040571
0.00398401
0.0038981
0.00379697
0.00368363
0.00355764
0.00343037
0.00331151
0.0032122
0.00314489
0.0031179
0.00312189
0.00310931
0.0030533
0.00294773
0.00279831
0.00262982
0.00249123
0.00239589
0.00246276
0.00268295
0.00303289
0.00341528
0.00373031
0.00396347
0.00412221
0.00424868
0.00435875
0.00443936
0.00446179
0.00444451
0.00440467
0.00435061
0.00428849
0.00422127
0.00415014
0.00407961
0.00401129
0.00394518
0.00388197
0.00382211
0.00376582
0.00371319
0.00366427
0.00361906
0.0035776
0.00353968
0.00350513
0.00347314
0.00344328
0.00341344
0.00338403
2.24267e-05
0.000143037
0.000323992
0.00048651
0.000632211
0.000763274
0.000880837
0.00098671
0.00108183
0.00116742
0.00124434
0.00131354
0.0013756
0.00143133
0.00148159
0.00152702
0.0015682
0.00160568
0.00163995
0.00167145
0.0017006
0.00172778
0.00175333
0.00177759
0.00180091
0.00182361
0.00184588
0.00186779
0.00188942
0.00191083
0.00193204
0.00195302
0.00197379
0.00199456
0.00201546
0.00203661
0.00205817
0.00208014
0.00210254
0.00212544
0.00214885
0.00217281
0.0021973
0.00222235
0.00224794
0.00227407
0.00230072
0.00232787
0.00235549
0.00238357
0.00241206
0.00244095
0.0024702
0.00249979
0.00252969
0.00255988
0.00259034
0.00262106
0.00265203
0.00268323
0.00271466
0.00274632
0.0027782
0.0028103
0.00284263
0.00287517
0.00290794
0.00294093
0.00297413
0.00300756
0.00304119
0.00307503
0.00310906
0.00314327
0.00317766
0.00321219
0.00324686
0.00328163
0.00331649
0.00335141
0.00338635
0.00342128
0.00345618
0.00349099
0.00352569
0.00356022
0.00359456
0.00362866
0.00366247
0.00369594
0.00372905
0.00376173
0.00379394
0.00382564
0.00385679
0.00388732
0.00391721
0.00394641
0.00397488
0.00400259
0.00402953
0.00405567
0.00408101
0.00410558
0.00412941
0.00415254
0.00417505
0.00419702
0.00421854
0.00423973
0.00426071
0.0042816
0.00430248
0.00432338
0.00434427
0.00436504
0.00438545
0.00440514
0.0044236
0.00444016
0.00445401
0.00446418
0.00446951
0.00446863
0.00446007
0.00444244
0.00441441
0.00437477
0.00432249
0.00425681
0.00417884
0.00408774
0.00398508
0.00387126
0.00375594
0.00364518
0.00354586
0.00346418
0.00340787
0.00336331
0.00330908
0.00322309
0.00309103
0.00292222
0.00275592
0.00261661
0.00261529
0.00276593
0.00304525
0.00339851
0.00372601
0.00399393
0.00417885
0.00431878
0.00444287
0.00455397
0.00462887
0.00463515
0.00460241
0.00454845
0.00448214
0.00440871
0.00433198
0.00425131
0.00417406
0.00410011
0.00402914
0.00396183
0.00389852
0.00383933
0.00378425
0.00373329
0.00368649
0.0036439
0.00360535
0.00357067
0.00353908
0.00351031
0.00348257
0.00345646
2.2324e-05
0.000142851
0.000324078
0.000488633
0.000637087
0.000771171
0.000891813
0.00100074
0.00109882
0.00118726
0.00126688
0.00133844
0.00140271
0.00146077
0.00151324
0.00156085
0.00160426
0.00164399
0.00168048
0.00171416
0.00174545
0.00177478
0.00180256
0.00182901
0.00185425
0.00187837
0.00190147
0.00192378
0.00194549
0.00196676
0.00198772
0.00200853
0.00202924
0.00204996
0.00207076
0.00209172
0.00211292
0.00213441
0.00215622
0.00217841
0.002201
0.00222401
0.00224746
0.00227136
0.0022957
0.00232048
0.0023457
0.00237135
0.00239742
0.00242388
0.00245073
0.00247796
0.00250554
0.00253347
0.00256175
0.00259035
0.00261928
0.00264853
0.00267811
0.00270801
0.00273823
0.00276879
0.00279967
0.0028309
0.00286247
0.00289438
0.00292664
0.00295925
0.00299221
0.00302551
0.00305916
0.00309314
0.00312745
0.00316207
0.00319699
0.00323219
0.00326765
0.00330335
0.00333925
0.00337533
0.00341155
0.00344789
0.00348429
0.00352074
0.00355717
0.00359356
0.00362985
0.003666
0.00370197
0.0037377
0.00377316
0.00380827
0.00384301
0.00387731
0.00391112
0.0039444
0.0039771
0.00400917
0.00404057
0.00407126
0.00410123
0.00413046
0.00415896
0.00418674
0.00421386
0.00424037
0.00426639