/*--------------------------------*- C++ -*----------------------------------*\
| =========                 |                                                 |
| \\      /  F ield         | OpenFOAM: The Open Source CFD Toolbox           |
|  \\    /   O peration     | Version:  v1906                                 |
|   \\  /    A nd           | Web:      www.OpenFOAM.com                      |
|    \\/     M anipulation  |                                                 |
\*---------------------------------------------------------------------------*/
FoamFile
{
    version     2.0;
    format      ascii;
    class       volScalarField;
    location    "1900";
    object      p;
}
// * * * * * * * * * * * * * * * * * * * * * * * * * * * * * * * * * * * * * //

dimensions      [0 2 -2 0 0 0 0];


internalField   nonuniform List<scalar> 
12225
(
-4.86333
-6.12709
-6.13218
-6.16947
-6.32577
-6.45769
-6.56073
-6.65767
-6.74998
-6.83628
-6.9174
-6.99703
-7.07862
-7.16487
-7.256
-7.35858
-7.48198
-7.64345
-6.79814
-7.30751
-7.41249
-7.40375
-7.46264
-7.51314
-7.55439
-7.60282
-7.6564
-7.71123
-7.76712
-7.82509
-7.88818
-7.95647
-8.03176
-8.11658
-8.21076
-8.34992
-5.98908
-6.83428
-6.92666
-6.91125
-6.96394
-7.01567
-7.06037
-7.10954
-7.16137
-7.21345
-7.26619
-7.32037
-7.37855
-7.44038
-7.5084
-7.5801
-7.65766
-7.72013
-6.84902
-7.30534
-7.49473
-7.58315
-7.68484
-7.76033
-7.81594
-7.8683
-7.92019
-7.97122
-8.02252
-8.07546
-8.13169
-8.19184
-8.25621
-8.32543
-8.39703
-8.4831
-6.48015
-6.9751
-7.16123
-7.2252
-7.29453
-7.34794
-7.39141
-7.4356
-7.48053
-7.52541
-7.57073
-7.61732
-7.66595
-7.71752
-7.77004
-7.82546
-7.86837
-7.90361
-7.01321
-7.31356
-7.49953
-7.61343
-7.72812
-7.82013
-7.89482
-7.96215
-8.02484
-8.08421
-8.14176
-8.19898
-8.25681
-8.31615
-8.37588
-8.43743
-8.49673
-8.56406
-6.81372
-7.07601
-7.26164
-7.36071
-7.4491
-7.5161
-7.57069
-7.6211
-7.66912
-7.71544
-7.76082
-7.80606
-7.85128
-7.89702
-7.94078
-7.98338
-8.01168
-8.02841
-7.17116
-7.35993
-7.52188
-7.63559
-7.74826
-7.84314
-7.92544
-8.00027
-8.06953
-8.13461
-8.19676
-8.25711
-8.31619
-8.37457
-8.43144
-8.48735
-8.54206
-8.59876
-7.05771
-7.18576
-7.33998
-7.44165
-7.53533
-7.61012
-7.67364
-7.73074
-7.78345
-7.83301
-7.88023
-7.92578
-7.96955
-8.01174
-8.05015
-8.08494
-8.10703
-8.11953
-7.30649
-7.42464
-7.55755
-7.66038
-7.76495
-7.85668
-7.93994
-8.01674
-8.08826
-8.15553
-8.21937
-8.28047
-8.33916
-8.39566
-8.44986
-8.50152
-8.55285
-8.60156
-7.24073
-7.3003
-7.41728
-7.50731
-7.59649
-7.67239
-7.73999
-7.80119
-7.85741
-7.90972
-7.95873
-8.0049
-8.04811
-8.08839
-8.12422
-8.15574
-8.17758
-8.19351
-7.403
-7.47758
-7.58349
-7.67195
-7.76498
-7.84947
-7.92858
-8.00248
-8.0718
-8.13712
-8.19885
-8.25736
-8.31281
-8.36519
-8.41469
-8.46061
-8.50555
-8.54505
-7.36817
-7.39867
-7.4868
-7.56351
-7.6444
-7.71751
-7.78531
-7.84787
-7.90587
-7.95987
-8.01023
-8.05721
-8.10074
-8.14079
-8.17668
-8.20846
-8.2345
-8.25667
-7.50369
-7.55521
-7.6382
-7.71374
-7.79555
-7.87339
-7.94831
-8.01955
-8.08704
-8.15087
-8.21113
-8.26789
-8.32124
-8.37102
-8.41744
-8.4597
-8.49879
-8.53131
-7.4783
-7.49404
-7.55545
-7.61759
-7.68671
-7.75393
-7.81879
-7.88038
-7.93844
-7.99299
-8.0441
-8.09181
-8.13622
-8.17729
-8.21536
-8.25022
-8.28359
-8.31415
-7.58511
-7.61679
-7.67662
-7.73701
-7.8037
-7.8703
-7.93573
-7.99888
-8.05905
-8.11588
-8.1691
-8.21857
-8.26405
-8.30549
-8.34222
-8.37454
-8.40019
-8.42174
-7.58605
-7.60355
-7.6512
-7.70562
-7.7678
-7.83259
-7.89779
-7.96201
-8.02438
-8.0844
-8.1419
-8.19671
-8.2491
-8.29878
-8.347
-8.39226
-8.43904
-8.48019
-7.58934
-7.6011
-7.6377
-7.67991
-7.72712
-7.7757
-7.82341
-7.86902
-7.9116
-7.95063
-7.98566
-8.01665
-8.0431
-8.06559
-8.0827
-8.09714
-8.1037
-8.11264
-7.69214
-7.72675
-7.7888
-7.85713
-7.93378
-8.01487
-8.09775
-8.18105
-8.26372
-8.345
-8.42455
-8.5019
-8.57712
-8.64938
-8.71952
-8.78489
-8.84921
-8.90373
-7.43348
-7.42851
-7.4547
-7.48654
-7.52078
-7.55409
-7.58434
-7.61088
-7.63333
-7.65165
-7.66582
-7.67618
-7.68263
-7.68625
-7.68633
-7.68626
-7.68237
-7.68586
-7.58969
-7.64836
-7.73229
-7.81515
-7.90421
-7.99426
-8.08288
-8.16935
-8.2531
-8.33394
-8.41206
-8.48764
-8.56132
-8.63295
-8.70402
-8.77221
-8.84219
-8.90249
-7.26246
-7.26698
-7.32313
-7.37167
-7.41688
-7.4554
-7.48678
-7.51242
-7.53314
-7.5495
-7.56182
-7.57034
-7.57473
-7.5753
-7.5704
-7.56225
-7.54477
-7.53095
-7.44125
-7.53699
-7.65636
-7.76087
-7.86781
-7.96989
-8.06449
-8.15256
-8.2347
-8.31152
-8.38392
-8.4528
-8.51947
-8.58483
-8.65163
-8.71975
-8.79753
-8.8748
-7.01538
-7.08321
-7.19707
-7.26562
-7.31989
-7.36098
-7.39115
-7.41533
-7.43571
-7.45298
-7.46747
-7.47935
-7.4882
-7.49364
-7.49326
-7.48663
-7.46321
-7.43002
-7.25511
-7.41986
-7.58718
-7.71268
-7.83395
-7.9414
-8.0318
-8.11059
-8.18097
-8.24442
-8.3025
-8.35656
-8.4079
-8.45753
-8.5083
-8.562
-8.63142
-8.71636
-6.64679
-6.90717
-7.07452
-7.13357
-7.17777
-7.21202
-7.23625
-7.25805
-7.2796
-7.30008
-7.31915
-7.33689
-7.35302
-7.36729
-7.37806
-7.38405
-7.37284
-7.33871
-7.05281
-7.34449
-7.56241
-7.68617
-7.80015
-7.88973
-7.95287
-8.00436
-8.05031
-8.09176
-8.12997
-8.16599
-8.20047
-8.23366
-8.26684
-8.30111
-8.34806
-8.41867
-6.07802
-6.74004
-6.86438
-6.84879
-6.87509
-6.91123
-6.93925
-6.96824
-6.99949
-7.03004
-7.05915
-7.08709
-7.11376
-7.139
-7.16237
-7.18372
-7.19498
-7.18445
-6.95232
-7.32962
-7.51017
-7.51795
-7.55954
-7.59472
-7.61712
-7.64273
-7.67317
-7.70468
-7.7362
-7.76772
-7.79889
-7.82937
-7.85904
-7.88823
-7.92245
-7.97396
-4.89834
-6.0783
-6.10337
-6.10714
-6.23032
-6.34637
-6.43377
-6.51242
-6.58675
-6.65459
-6.71631
-6.77321
-6.82591
-6.8746
-6.91943
-6.96012
-6.99525
-7.0229
-7.8199
-7.837
-7.85362
-7.8787
-7.9092
-7.94215
-7.97577
-8.01028
-8.04503
-8.0798
-8.11413
-8.14769
-8.18004
-8.2108
-8.23952
-8.2658
-8.28925
-8.30951
-8.32638
-8.33962
-8.3487
-8.3542
-8.35685
-8.35647
-8.35287
-8.34645
-8.33803
-8.32869
-8.31966
-8.31205
-8.30669
-8.30413
-8.30431
-8.30686
-8.31141
-8.3176
-8.32497
-8.33282
-8.34029
-8.34677
-8.3518
-8.35525
-8.35687
-8.35581
-8.3519
-8.34642
-8.34252
-8.34334
-8.34969
-8.36156
-8.37998
-8.40629
-8.43999
-8.47849
-8.52067
-8.56622
-8.61443
-8.66475
-8.71622
-8.76784
-8.81889
-8.86895
-8.91764
-8.96477
-9.01016
-9.05376
-9.0955
-9.13542
-9.17349
-9.20977
-9.24425
-9.27698
-9.30794
-9.33715
-9.36456
-9.39018
-9.41392
-9.43576
-9.45561
-9.47342
-9.48905
-9.50244
-9.51344
-9.52194
-9.52778
-9.53081
-9.53082
-9.52764
-9.52099
-9.51064
-9.49632
-9.47769
-9.45437
-9.42593
-9.39185
-9.35155
-9.30438
-9.24955
-9.18619
-9.11324
-9.02947
-8.93375
-8.82513
-8.70189
-8.55972
-8.39553
-8.20784
-7.99482
-7.75425
-7.48339
-7.17945
-6.83975
-6.4617
-6.04317
-5.58255
-5.07901
-4.53323
-3.94754
-3.3237
-2.66443
-1.97651
-1.27077
-0.556637
0.155985
0.85458
1.52648
2.1638
2.75301
3.2745
3.72808
4.12387
4.44339
4.6555
4.74367
4.69835
4.51827
4.2143
3.81652
3.37204
2.9387
2.59174
2.43544
2.50144
2.73124
3.07376
3.46927
3.83572
4.08143
4.18506
4.22025
4.27197
4.40395
4.44539
4.15439
3.58114
3.00301
2.57464
2.35796
2.36501
2.5783
2.95011
3.42863
3.98146
4.58673
5.22518
5.87992
6.54008
7.19786
7.84829
8.48741
9.11326
9.72199
10.3143
10.8805
11.4305
11.956
12.4712
12.9459
13.4322
13.8543
-7.86902
-7.9137
-7.93708
-7.97516
-8.00798
-8.04249
-8.07458
-8.10806
-8.14032
-8.1727
-8.20407
-8.23465
-8.26382
-8.29148
-8.31718
-8.3407
-8.36168
-8.38005
-8.3958
-8.40939
-8.42075
-8.42865
-8.43212
-8.43074
-8.42394
-8.41194
-8.39619
-8.37907
-8.36301
-8.34982
-8.34039
-8.33494
-8.33335
-8.33498
-8.33917
-8.34544
-8.35312
-8.3616
-8.37015
-8.37796
-8.38433
-8.38894
-8.39178
-8.39271
-8.39112
-8.38712
-8.38478
-8.38869
-8.39959
-8.41746
-8.44303
-8.47668
-8.5174
-8.56369
-8.61451
-8.66878
-8.72538
-8.78335
-8.84165
-8.89946
-8.95623
-9.01159
-9.06529
-9.11723
-9.16734
-9.21563
-9.26213
-9.30688
-9.34994
-9.39136
-9.43115
-9.46937
-9.50601
-9.54107
-9.57454
-9.60638
-9.63655
-9.665
-9.69165
-9.71645
-9.73928
-9.76006
-9.77868
-9.79502
-9.80893
-9.82029
-9.82891
-9.83461
-9.83718
-9.83639
-9.832
-9.8237
-9.81114
-9.79392
-9.77156
-9.7435
-9.70909
-9.66752
-9.61786
-9.55895
-9.48951
-9.40791
-9.31189
-9.19889
-9.06977
-8.92469
-8.76116
-8.57652
-8.36742
-8.13052
-7.86263
-7.56073
-7.22208
-6.84419
-6.42491
-5.96269
-5.4571
-4.909
-4.31995
-3.6953
-3.04266
-2.36957
-1.68364
-0.994509
-0.312613
0.351672
0.987138
1.58276
2.12386
2.59365
2.96041
3.22764
3.3974
3.45513
3.3929
3.21231
2.93003
2.57788
2.20052
1.85484
1.58361
1.42314
1.44849
1.73107
2.25904
2.9188
3.52771
3.92728
4.09442
4.13027
4.14917
4.25085
4.25418
3.83683
3.13974
2.49209
2.03393
1.81314
1.82658
2.02596
2.36351
2.81335
3.3458
3.93638
4.5666
5.2182
5.87911
6.54023
7.19575
7.84101
8.47421
9.09097
9.69275
10.2705
10.8303
11.3511
11.8593
12.3269
12.806
13.2186
-7.88163
-7.94938
-7.96014
-8.00154
-8.02015
-8.0547
-8.07863
-8.10916
-8.13634
-8.16673
-8.19539
-8.22455
-8.25215
-8.27878
-8.30332
-8.32553
-8.34456
-8.36017
-8.37225
-8.38164
-8.3892
-8.39558
-8.4006
-8.40355
-8.40336
-8.39926
-8.39144
-8.38112
-8.37004
-8.35991
-8.35194
-8.3467
-8.34428
-8.3444
-8.34665
-8.35084
-8.35675
-8.36405
-8.37219
-8.38048
-8.3884
-8.3957
-8.40207
-8.40753
-8.41261
-8.41806
-8.4256
-8.43669
-8.45227
-8.47305
-8.49943
-8.53137
-8.56822
-8.60904
-8.65285
-8.69874
-8.74592
-8.79375
-8.84166
-8.88922
-8.9361
-8.98209
-9.02703
-9.07085
-9.11345
-9.15481
-9.19489
-9.23367
-9.27114
-9.30727
-9.34205
-9.37545
-9.40745
-9.438
-9.46705
-9.49457
-9.52049
-9.54474
-9.56724
-9.58792
-9.60667
-9.6234
-9.63798
-9.65031
-9.66025
-9.66763
-9.6723
-9.67407
-9.67272
-9.66803
-9.65976
-9.64761
-9.63125
-9.6103
-9.58431
-9.5528
-9.51516
-9.47075
-9.41878
-9.35836
-9.28852
-9.20823
-9.11596
-9.0095
-8.88752
-8.74808
-8.58829
-8.40579
-8.19838
-7.96345
-7.69826
-7.39986
-7.06543
-6.69244
-6.27894
-5.8236
-5.32625
-4.78834
-4.21172
-3.59932
-2.95977
-2.30035
-1.63006
-0.959173
-0.299228
0.339894
0.946674
1.50656
2.01059
2.44768
2.8133
3.09506
3.28084
3.3551
3.30832
3.14234
2.87205
2.52904
2.16005
1.81709
1.5582
1.43886
1.48422
1.69804
2.09304
2.68757
3.36959
3.88373
4.10336
4.11334
4.04387
4.03031
3.94541
3.57919
3.03476
2.5106
2.11964
1.91737
1.91802
2.09818
2.42571
2.86881
3.39796
3.98547
4.61073
5.2572
5.91304
6.56903
7.21939
7.85902
8.48616
9.09585
9.69016
10.2589
10.8143
11.3379
11.8476
12.3171
12.7991
13.2007
-7.88293
-7.97226
-7.9842
-8.03752
-8.05143
-8.09246
-8.11407
-8.15112
-8.17785
-8.21133
-8.23977
-8.27063
-8.29836
-8.32612
-8.35131
-8.37474
-8.39497
-8.41206
-8.42582
-8.43714
-8.44657
-8.45453
-8.46075
-8.46436
-8.46403
-8.45901
-8.44961
-8.43729
-8.42392
-8.41122
-8.40038
-8.39213
-8.38683
-8.38453
-8.38505
-8.38806
-8.39303
-8.39947
-8.40697
-8.41501
-8.42325
-8.43165
-8.44057
-8.45046
-8.46134
-8.47362
-8.4887
-8.50768
-8.53084
-8.55818
-8.5898
-8.6255
-8.66484
-8.70728
-8.75226
-8.79925
-8.84773
-8.89723
-8.94728
-8.9975
-9.04757
-9.09722
-9.14624
-9.19448
-9.24182
-9.28816
-9.33345
-9.37764
-9.4207
-9.46259
-9.50328
-9.54275
-9.58096
-9.61787
-9.65343
-9.68759
-9.72029
-9.75147
-9.78103
-9.80891
-9.83501
-9.85922
-9.88144
-9.90154
-9.91939
-9.93485
-9.94775
-9.95791
-9.96513
-9.96919
-9.96985
-9.96682
-9.95976
-9.9483
-9.93198
-9.91028
-9.88258
-9.84818
-9.80621
-9.75568
-9.69546
-9.62432
-9.54088
-9.44366
-9.33146
-9.20273
-9.0548
-8.88554
-8.69188
-8.47089
-8.21949
-7.93457
-7.61315
-7.25245
-6.85016
-6.4047
-5.91559
-5.38399
-4.81266
-4.20595
-3.57038
-2.91381
-2.24529
-1.57476
-0.913367
-0.272235
0.337147
0.901873
1.41285
1.85878
2.22843
2.51178
2.69798
2.77342
2.72797
2.56224
2.29177
1.94955
1.58331
1.24718
0.987636
0.843632
0.880591
1.13178
1.56913
2.21892
2.99444
3.59918
3.87002
3.87554
3.78166
3.68643
3.47106
3.04486
2.48781
1.95662
1.57113
1.38794
1.41428
1.62066
1.96847
2.42586
2.96664
3.56569
4.19993
4.85444
5.51747
6.18003
6.83662
7.48199
8.11491
8.72991
9.32985
9.90439
10.4629
10.9886
11.5029
11.971
12.4513
12.8394
-7.84431
-7.95858
-7.97153
-8.03165
-8.04296
-8.08403
-8.10289
-8.13707
-8.1621
-8.19466
-8.22205
-8.25156
-8.27826
-8.30509
-8.32955
-8.35246
-8.37232
-8.3891
-8.40247
-8.41356
-8.42295
-8.43116
-8.43812
-8.44339
-8.44621
-8.44603
-8.44279
-8.43707
-8.42983
-8.42218
-8.41511
-8.40938
-8.40545
-8.40356
-8.40377
-8.40614
-8.41069
-8.41734
-8.42589
-8.4361
-8.44769
-8.46041
-8.47413
-8.48896
-8.505
-8.5224
-8.54162
-8.56314
-8.58721
-8.61402
-8.64366
-8.67611
-8.71117
-8.74856
-8.78792
-8.82885
-8.87098
-8.91395
-8.95741
-9.0011
-9.04475
-9.08816
-9.13118
-9.17365
-9.21548
-9.25656
-9.29683
-9.3362
-9.37462
-9.41203
-9.44837
-9.48359
-9.51763
-9.55044
-9.58195
-9.61209
-9.64079
-9.66798
-9.69358
-9.71749
-9.73963
-9.75988
-9.77815
-9.79432
-9.80825
-9.81981
-9.82883
-9.83516
-9.83861
-9.83896
-9.83601
-9.82948
-9.81909
-9.8045
-9.78531
-9.76109
-9.7313
-9.69533
-9.65247
-9.60186
-9.54254
-9.47333
-9.39277
-9.29923
-9.19112
-9.0666
-8.92443
-8.76139
-8.57476
-8.36162
-8.11881
-7.84319
-7.5316
-7.1812
-6.78956
-6.35503
-5.87703
-5.35651
-4.79586
-4.19949
-3.57445
-2.92864
-2.27189
-1.61478
-0.968495
-0.344492
0.245478
0.792031
1.28707
1.72242
2.08876
2.37416
2.56522
2.64733
2.60894
2.44869
2.18105
1.84031
1.47596
1.14131
0.895719
0.793397
0.840474
1.0237
1.34489
1.87815
2.58359
3.18746
3.49483
3.51934
3.41773
3.24468
2.96427
2.55786
2.09386
1.67582
1.38905
1.27702
1.34885
1.58133
1.9477
2.41985
2.97116
3.57738
4.21574
4.8722
5.53552
6.19714
6.85208
7.49519
8.12547
8.73744
9.33424
9.90695
10.4657
10.9924
11.5086
11.9772
12.4588
12.843
-7.79249
-7.9341
-7.95319
-8.02339
-8.0358
-8.08076
-8.10026
-8.13608
-8.16103
-8.19371
-8.22184
-8.25302
-8.28108
-8.30919
-8.3351
-8.35991
-8.38222
-8.40241
-8.41955
-8.43397
-8.44576
-8.45517
-8.46218
-8.46671
-8.46857
-8.46777
-8.46455
-8.45949
-8.45336
-8.44696
-8.44104
-8.43628
-8.43319
-8.43215
-8.43343
-8.43714
-8.44318
-8.4514
-8.46159
-8.47359
-8.48722
-8.50235
-8.5189
-8.53689
-8.55638
-8.57748
-8.60048
-8.62563
-8.65312
-8.68308
-8.71557
-8.75053
-8.78782
-8.82725
-8.86855
-8.91144
-8.95563
-9.00081
-9.04672
-9.0931
-9.13971
-9.18636
-9.23286
-9.27907
-9.32486
-9.37013
-9.41478
-9.45874
-9.50193
-9.54428
-9.58573
-9.62623
-9.6657
-9.70409
-9.74132
-9.77733
-9.81204
-9.84536
-9.87722
-9.90751
-9.93615
-9.96301
-9.988
-10.011
-10.0318
-10.0504
-10.0665
-10.08
-10.0907
-10.0984
-10.1029
-10.1038
-10.1009
-10.0939
-10.0823
-10.0656
-10.0435
-10.0151
-9.97975
-9.93666
-9.8848
-9.82307
-9.75018
-9.66465
-9.56489
-9.44848
-9.31278
-9.15582
-8.97501
-8.7674
-8.52984
-8.25905
-7.95175
-7.60488
-7.21581
-6.78272
-6.30493
-5.78336
-5.22066
-4.62155
-3.99292
-3.34311
-2.68227
-2.0213
-1.37174
-0.745215
-0.152157
0.397976
0.896469
1.33465
1.70347
1.99237
2.18846
2.27671
2.24364
2.08517
1.81456
1.46683
1.09333
0.74765
0.475531
0.330359
0.384223
0.619022
0.98236
1.49852
2.13511
2.69757
3.00448
3.05003
2.91775
2.66751
2.3197
1.88808
1.43395
1.04752
0.803312
0.7385
0.857834
1.13802
1.54528
2.05103
2.62905
3.25565
3.91025
4.5795
5.25323
5.92362
6.58624
7.23617
7.87278
8.49105
9.09408
9.6721
10.235
10.7645
11.2841
11.7511
12.2331
12.6079
-7.73333
-7.89636
-7.92014
-7.99694
-8.00938
-8.05549
-8.07415
-8.10856
-8.13171
-8.16206
-8.18771
-8.21608
-8.24219
-8.26873
-8.29311
-8.31628
-8.33751
-8.3571
-8.37468
-8.39036
-8.40408
-8.41591
-8.42581
-8.43373
-8.43957
-8.44337
-8.44528
-8.44566
-8.44501
-8.44394
-8.44308
-8.44302
-8.44424
-8.44712
-8.45194
-8.45881
-8.46771
-8.47856
-8.49121
-8.50553
-8.52139
-8.53868
-8.55733
-8.57735
-8.59875
-8.62159
-8.64603
-8.67217
-8.70011
-8.72992
-8.76159
-8.79509
-8.83031
-8.86713
-8.90535
-8.94479
-8.98524
-9.02649
-9.06834
-9.11061
-9.15313
-9.19573
-9.23829
-9.28067
-9.32275
-9.36445
-9.40565
-9.44628
-9.48624
-9.52547
-9.56388
-9.60139
-9.63794
-9.67345
-9.70784
-9.74103
-9.77295
-9.8035
-9.8326
-9.86015
-9.88607
-9.91025
-9.93257
-9.95293
-9.9712
-9.98725
-10.0009
-10.0121
-10.0205
-10.0261
-10.0286
-10.0277
-10.0233
-10.0149
-10.0024
-9.98516
-9.96283
-9.93481
-9.90045
-9.85897
-9.80945
-9.7508
-9.68177
-9.6009
-9.50663
-9.3979
-9.27223
-9.12678
-8.95855
-8.76438
-8.54091
-8.28465
-7.99209
-7.65984
-7.28501
-6.86546
-6.40024
-5.89006
-5.33747
-4.74738
-4.12699
-3.4853
-2.83295
-2.18146
-1.5427
-0.927847
-0.345993
0.19378
0.683023
1.11467
1.48067
1.77069
1.9721
2.06951
2.04803
1.90089
1.63958
1.30051
0.935857
0.603567
0.361868
0.230972
0.245414
0.412411
0.714368
1.15098
1.69044
2.17997
2.4598
2.493
2.32224
2.02663
1.65879
1.25641
0.877209
0.589042
0.442568
0.462328
0.646478
0.970021
1.41124
1.94343
2.54136
3.18156
3.84592
4.52154
5.19919
5.87164
6.53512
7.18554
7.82252
8.44109
9.04447
9.62385
10.1886
10.72
11.2424
11.7102
12.1951
12.5667
-7.69148
-7.86559
-7.89587
-7.97848
-7.99208
-8.04052
-8.05921
-8.09418
-8.11656
-8.14628
-8.17086
-8.19854
-8.2238
-8.24976
-8.27413
-8.29789
-8.31974
-8.33994
-8.3582
-8.37463
-8.38904
-8.40155
-8.41215
-8.42094
-8.42803
-8.43359
-8.4379
-8.4413
-8.44422
-8.44712
-8.45042
-8.45453
-8.45977
-8.4664
-8.47457
-8.48436
-8.49585
-8.50904
-8.52388
-8.54028
-8.55817
-8.5775
-8.59826
-8.62047
-8.64415
-8.66936
-8.69617
-8.72463
-8.7548
-8.78672
-8.82036
-8.8557
-8.89267
-8.93114
-8.971
-9.0121
-9.05428
-9.09737
-9.1412
-9.18562
-9.23046
-9.27559
-9.32086
-9.36615
-9.41133
-9.45632
-9.50099
-9.54527
-9.58905
-9.63227
-9.67482
-9.71664
-9.75764
-9.79773
-9.83685
-9.87489
-9.91178
-9.94742
-9.98173
-10.0146
-10.0459
-10.0756
-10.1035
-10.1295
-10.1534
-10.1752
-10.1947
-10.2117
-10.2261
-10.2376
-10.246
-10.2511
-10.2527
-10.2504
-10.2439
-10.2328
-10.2166
-10.1948
-10.1668
-10.1317
-10.0886
-10.0366
-9.97423
-9.90019
-9.81256
-9.70843
-9.58626
-9.44381
-9.27845
-9.08719
-8.86669
-8.6134
-8.32368
-7.99393
-7.62099
-7.20246
-6.73717
-6.22569
-5.6706
-5.07703
-4.45254
-3.8066
-3.15043
-2.49633
-1.85603
-1.24027
-0.658695
-0.119766
0.368613
0.799609
1.16684
1.46138
1.67179
1.78314
1.77929
1.65017
1.40383
1.07599
0.719131
0.386262
0.128962
-0.00309816
0.0312834
0.20267
0.472013
0.835837
1.27758
1.67948
1.89702
1.87386
1.65112
1.30973
0.914297
0.513853
0.167454
-0.0678239
-0.151791
-0.0655164
0.184229
0.569422
1.06189
1.63478
2.26417
2.92804
3.61064
4.3
4.9882
5.66936
6.34038
6.9973
7.64017
8.26434
8.87286
9.45677
10.0255
10.5597
11.0849
11.5521
12.0388
12.4034
-7.66009
-7.83972
-7.87257
-7.95767
-7.97127
-8.02027
-8.03816
-8.07245
-8.09317
-8.12112
-8.14322
-8.16832
-8.19077
-8.21417
-8.23597
-8.2576
-8.27805
-8.29778
-8.31614
-8.33333
-8.34926
-8.36391
-8.37727
-8.38942
-8.4004
-8.41036
-8.41945
-8.42793
-8.43605
-8.44411
-8.4524
-8.46121
-8.47078
-8.48132
-8.49297
-8.50585
-8.52001
-8.5355
-8.55233
-8.57051
-8.59003
-8.61089
-8.63308
-8.6566
-8.68147
-8.7077
-8.73533
-8.76437
-8.79483
-8.82673
-8.86003
-8.89471
-8.93069
-8.96791
-9.00627
-9.04565
-9.08595
-9.12704
-9.16878
-9.21107
-9.25377
-9.29676
-9.33994
-9.38317
-9.42637
-9.46942
-9.51223
-9.5547
-9.59674
-9.63826
-9.67917
-9.71938
-9.7588
-9.79735
-9.83494
-9.87149
-9.90689
-9.94107
-9.97393
-10.0054
-10.0353
-10.0636
-10.0902
-10.1149
-10.1377
-10.1584
-10.1768
-10.1929
-10.2064
-10.2172
-10.2252
-10.23
-10.2315
-10.2294
-10.2233
-10.213
-10.198
-10.1778
-10.1519
-10.1194
-10.0796
-10.0316
-9.97408
-9.90573
-9.82532
-9.73154
-9.62151
-9.49247
-9.34142
-9.1651
-8.95994
-8.72217
-8.4478
-8.13291
-7.77391
-7.36804
-6.91378
-6.41148
-5.86365
-5.27554
-4.65506
-4.01252
-3.36005
-2.70988
-2.07409
-1.46371
-0.888177
-0.355307
0.128297
0.556268
0.923452
1.22282
1.44463
1.57561
1.59976
1.50417
1.29232
0.996139
0.667756
0.367887
0.137827
-0.00269368
-0.0163746
0.0976854
0.299431
0.58319
0.92564
1.22024
1.33607
1.23087
0.95139
0.578035
0.180546
-0.18403
-0.460818
-0.606886
-0.596588
-0.422986
-0.106678
0.332028
0.867329
1.47348
2.12736
2.8085
3.50338
4.20141
4.89559
5.58076
6.25466
6.91402
7.55898
8.18527
8.79589
9.38231
9.95351
10.49
11.018
11.4862
11.9757
12.3374
-7.65114
-7.83485
-7.86555
-7.95298
-7.96525
-8.01588
-8.0329
-8.06801
-8.08798
-8.11603
-8.13731
-8.162
-8.18347
-8.20611
-8.22698
-8.24791
-8.26749
-8.28649
-8.30442
-8.32161
-8.33765
-8.35272
-8.36689
-8.38022
-8.39281
-8.40479
-8.4163
-8.42751
-8.43859
-8.44974
-8.46116
-8.47304
-8.48554
-8.49882
-8.513
-8.5282
-8.54451
-8.56198
-8.58067
-8.60061
-8.6218
-8.64428
-8.66806
-8.69315
-8.71958
-8.74736
-8.77651
-8.80704
-8.83898
-8.8723
-8.907
-8.94304
-8.98038
-9.01896
-9.0587
-9.09952
-9.14131
-9.18398
-9.22741
-9.2715
-9.31612
-9.36118
-9.40655
-9.45213
-9.49782
-9.5435
-9.58909
-9.63448
-9.67958
-9.72429
-9.76852
-9.81219
-9.85519
-9.89744
-9.93884
-9.97931
-10.0187
-10.0571
-10.0941
-10.1299
-10.1642
-10.197
-10.2281
-10.2574
-10.2848
-10.3102
-10.3334
-10.3542
-10.3725
-10.3881
-10.4009
-10.4105
-10.4169
-10.4197
-10.4187
-10.4135
-10.4037
-10.3888
-10.3682
-10.3413
-10.3072
-10.2648
-10.2131
-10.1505
-10.0748
-9.98401
-9.87636
-9.74958
-9.60098
-9.42746
-9.22552
-8.99133
-8.7208
-8.40973
-8.05417
-7.65094
-7.19811
-6.69571
-6.146
-5.5545
-4.93002
-4.28323
-3.62645
-2.97284
-2.33485
-1.72351
-1.14802
-0.615858
-0.132424
0.297197
0.668645
0.977147
1.21541
1.37269
1.43426
1.38489
1.22147
0.966687
0.664841
0.377034
0.152189
0.0261978
-0.00189002
0.0700563
0.213447
0.415773
0.649078
0.80685
0.791607
0.583871
0.236465
-0.176719
-0.585595
-0.931135
-1.16297
-1.24663
-1.16289
-0.911782
-0.519898
-0.0151366
0.572875
1.21913
1.903
2.60679
3.31829
4.02858
4.73222
5.425
6.10521
6.7701
7.42002
8.05099
8.66579
9.25609
9.83059
10.3696
10.8998
11.3682
11.8593
12.2166
-7.65289
-7.83724
-7.86259
-7.94999
-7.95966
-8.01051
-8.02558
-8.06049
-8.07876
-8.10615
-8.12578
-8.14944
-8.16944
-8.1911
-8.21085
-8.2311
-8.25018
-8.26912
-8.28712
-8.30485
-8.3219
-8.33836
-8.35411
-8.36945
-8.38434
-8.39885
-8.41303
-8.42704
-8.44095
-8.45492
-8.46909
-8.48361
-8.49861
-8.51425
-8.53061
-8.54782
-8.56596
-8.5851
-8.60529
-8.6266
-8.64905
-8.67267
-8.69749
-8.72353
-8.75081
-8.77934
-8.80912
-8.84017
-8.87249
-8.90606
-8.94086
-8.97688
-9.01406
-9.05235
-9.0917
-9.13203
-9.17325
-9.2153
-9.25807
-9.30146
-9.34539
-9.38975
-9.43444
-9.47937
-9.52442
-9.56951
-9.61453
-9.65938
-9.70397
-9.7482
-9.79198
-9.83521
-9.87779
-9.91963
-9.96064
-10.0007
-10.0398
-10.0778
-10.1145
-10.1499
-10.184
-10.2165
-10.2474
-10.2765
-10.3038
-10.3292
-10.3524
-10.3734
-10.3919
-10.408
-10.4213
-10.4317
-10.4389
-10.4429
-10.4432
-10.4396
-10.4316
-10.419
-10.4011
-10.3772
-10.3467
-10.3086
-10.2618
-10.205
-10.1374
-10.0567
-9.96044
-9.84588
-9.71005
-9.54967
-9.36108
-9.14025
-8.88282
-8.58411
-8.23971
-7.84609
-7.40097
-6.90418
-6.35821
-5.76832
-5.14334
-4.49511
-3.83664
-3.18155
-2.54284
-1.93174
-1.35718
-0.825934
-0.342616
0.0896181
0.467369
0.787585
1.04582
1.23471
1.34232
1.35349
1.25943
1.07046
0.821214
0.568889
0.347828
0.205901
0.139382
0.15581
0.232774
0.342512
0.436699
0.431571
0.269048
-0.0473297
-0.464767
-0.911472
-1.31875
-1.62934
-1.7979
-1.79828
-1.62113
-1.28674
-0.826291
-0.26541
0.366773
1.04628
1.7544
2.47593
3.20008
3.91935
4.62931
5.3267
6.01049
6.67847
7.33111
7.9648
8.58211
9.17509
9.75196
10.2932
10.8254
11.2949
11.7878
12.143
-7.67115
-7.85141
-7.87179
-7.95856
-7.96593
-8.01736
-8.03086
-8.06629
-8.08345
-8.11107
-8.12985
-8.15348
-8.17272
-8.19407
-8.21312
-8.23293
-8.25143
-8.27014
-8.28797
-8.30564
-8.32259
-8.33939
-8.35581
-8.37187
-8.38752
-8.40308
-8.41855
-8.43398
-8.44943
-8.46503
-8.48087
-8.49708
-8.51375
-8.53102
-8.54896
-8.56768
-8.58726
-8.60778
-8.62929
-8.65186
-8.67552
-8.70033
-8.72631
-8.7535
-8.78192
-8.81158
-8.8425
-8.8747
-8.90817
-8.9429
-8.97889
-9.0161
-9.05451
-9.09406
-9.13471
-9.17639
-9.21904
-9.26257
-9.30691
-9.35195
-9.39762
-9.44382
-9.49045
-9.53741
-9.58461
-9.63194
-9.6793
-9.72661
-9.77375
-9.82064
-9.86717
-9.91325
-9.95877
-10.0037
-10.0478
-10.0911
-10.1334
-10.1748
-10.215
-10.2539
-10.2915
-10.3277
-10.3623
-10.3952
-10.4262
-10.4554
-10.4824
-10.5072
-10.5297
-10.5495
-10.5667
-10.581
-10.5922
-10.6001
-10.6045
-10.605
-10.6013
-10.593
-10.5795
-10.5603
-10.5344
-10.501
-10.459
-10.4065
-10.3416
-10.2628
-10.1682
-10.0552
-9.92129
-9.76313
-9.5772
-9.35944
-9.10537
-8.81023
-8.46926
-8.07834
-7.63474
-7.13774
-6.58975
-5.99625
-5.36616
-4.71156
-4.04648
-3.38545
-2.74197
-2.12743
-1.55049
-1.01705
-0.530881
-0.093531
0.293578
0.628461
0.909327
1.13245
1.28956
1.3676
1.35409
1.24585
1.06352
0.854394
0.654221
0.511984
0.415767
0.372452
0.361275
0.345856
0.273076
0.0924388
-0.223733
-0.654159
-1.14756
-1.63519
-2.05025
-2.33667
-2.45342
-2.38273
-2.12464
-1.71125
-1.17758
-0.556483
0.122882
0.838423
1.57359
2.31477
3.05295
3.78247
4.50014
5.2036
5.89238
6.56477
7.22132
7.85873
8.47931
9.07545
9.65484
10.1983
10.7319
11.202
11.6953
12.0483
-7.69715
-7.86798
-7.88347
-7.9676
-7.97239
-8.02315
-8.03451
-8.06967
-8.0851
-8.11244
-8.12988
-8.15317
-8.17146
-8.19259
-8.21112
-8.23094
-8.24926
-8.26804
-8.28601
-8.30417
-8.32174
-8.33922
-8.35628
-8.37339
-8.3904
-8.40725
-8.42395
-8.44079
-8.45762
-8.47464
-8.49188
-8.50951
-8.52758
-8.54619
-8.56543
-8.58539
-8.60615
-8.62778
-8.65035
-8.67391
-8.69852
-8.72422
-8.75105
-8.77905
-8.80824
-8.83865
-8.87028
-8.90314
-8.93724
-8.97257
-9.00911
-9.04683
-9.08571
-9.12571
-9.16677
-9.20884
-9.25185
-9.29573
-9.34041
-9.3858
-9.43181
-9.47836
-9.52535
-9.57268
-9.62026
-9.66799
-9.71576
-9.76349
-9.81106
-9.85839
-9.90536
-9.95188
-9.99785
-10.0432
-10.0877
-10.1315
-10.1743
-10.216
-10.2567
-10.2961
-10.3341
-10.3707
-10.4058
-10.4392
-10.4708
-10.5006
-10.5283
-10.5539
-10.5771
-10.5979
-10.6162
-10.6316
-10.6441
-10.6535
-10.6594
-10.6617
-10.66
-10.6539
-10.6429
-10.6263
-10.6034
-10.5733
-10.5351
-10.4878
-10.4298
-10.3589
-10.2726
-10.1684
-10.0432
-9.89382
-9.71657
-9.50736
-9.26154
-8.97417
-8.6402
-8.25505
-7.81549
-7.32042
-6.77174
-6.17496
-5.53957
-4.87849
-4.20668
-3.53948
-2.89101
-2.27276
-1.69307
-1.15704
-0.667214
-0.224228
0.173146
0.524043
0.828439
1.0863
1.2935
1.44129
1.51697
1.50944
1.4266
1.28686
1.12136
0.970074
0.828723
0.69932
0.561786
0.386297
0.133187
-0.226675
-0.693562
-1.23766
-1.80556
-2.32866
-2.74113
-2.99157
-3.04686
-2.89503
-2.55271
-2.06457
-1.46448
-0.788972
-0.0676619
0.678995
1.43694
2.19402
2.94325
3.68051
4.40374
5.11136
5.80341
6.47871
7.13779
7.77771
8.40048
8.99885
9.57993
10.1251
10.6595
11.1306
11.624
11.9762
-7.72851
-7.88765
-7.89958
-7.98059
-7.98376
-8.03394
-8.04379
-8.07905
-8.09328
-8.12082
-8.13735
-8.16078
-8.1784
-8.19955
-8.21757
-8.23735
-8.25544
-8.27438
-8.29225
-8.3105
-8.32824
-8.34614
-8.36365
-8.3812
-8.39852
-8.41605
-8.43371
-8.45138
-8.46901
-8.48698
-8.50515
-8.52373
-8.54278
-8.56238
-8.5826
-8.60353
-8.62525
-8.64784
-8.67136
-8.69588
-8.72145
-8.74812
-8.77594
-8.80495
-8.83517
-8.86663
-8.89936
-8.93335
-8.96861
-9.00514
-9.04292
-9.08193
-9.12213
-9.16351
-9.20599
-9.24954
-9.29409
-9.33956
-9.38589
-9.43299
-9.48077
-9.52915
-9.57804
-9.62734
-9.67694
-9.72676
-9.77669
-9.82664
-9.87649
-9.92615
-9.97552
-10.0245
-10.073
-10.1209
-10.168
-10.2144
-10.2599
-10.3045
-10.3479
-10.3901
-10.4311
-10.4706
-10.5086
-10.545
-10.5796
-10.6123
-10.643
-10.6716
-10.6978
-10.7216
-10.7428
-10.7613
-10.7768
-10.7891
-10.7981
-10.8035
-10.805
-10.802
-10.7943
-10.7811
-10.7617
-10.735
-10.6997
-10.6542
-10.5972
-10.5268
-10.4409
-10.3368
-10.2119
-10.0628
-9.88611
-9.67757
-9.43247
-9.14556
-8.81148
-8.42535
-7.98355
-7.48464
-6.93035
-6.32624
-5.68213
-5.01164
-4.33065
-3.65533
-3.00033
-2.37717
-1.79377
-1.25447
-0.760504
-0.311504
0.0956545
0.462161
0.788723
1.07832
1.33076
1.54215
1.70164
1.79602
1.82254
1.76896
1.66357
1.51251
1.31682
1.0736
0.779383
0.42429
-0.0115104
-0.53979
-1.14611
-1.79575
-2.43301
-2.99101
-3.40533
-3.62782
-3.63219
-3.40839
-2.98792
-2.42094
-1.7528
-1.02332
-0.260791
0.516515
1.29638
2.0686
2.82837
3.57318
4.30201
5.01411
5.70978
6.38824
7.05005
7.69255
8.31745
8.91791
9.50047
10.0471
10.5815
11.0529
11.5452
11.8969
-7.76002
-7.90578
-7.91435
-7.99115
-7.9926
-8.04145
-8.04954
-8.08446
-8.0972
-8.12474
-8.1402
-8.16377
-8.18073
-8.20211
-8.21985
-8.23997
-8.25803
-8.27737
-8.29562
-8.3145
-8.33268
-8.35122
-8.36939
-8.38775
-8.40595
-8.42423
-8.44264
-8.46131
-8.47988
-8.49862
-8.51768
-8.53724
-8.55724
-8.57776
-8.59893
-8.62077
-8.64341
-8.6669
-8.69133
-8.71676
-8.74325
-8.77085
-8.79961
-8.82957
-8.86078
-8.89324
-8.92697
-8.96199
-8.9983
-9.03589
-9.07474
-9.11484
-9.15614
-9.19862
-9.24222
-9.28689
-9.33257
-9.37918
-9.42664
-9.47487
-9.52379
-9.57331
-9.62332
-9.67374
-9.72446
-9.77538
-9.8264
-9.87742
-9.92833
-9.97902
-10.0294
-10.0794
-10.1288
-10.1776
-10.2257
-10.2729
-10.3192
-10.3645
-10.4087
-10.4517
-10.4933
-10.5336
-10.5723
-10.6093
-10.6446
-10.678
-10.7095
-10.7388
-10.7658
-10.7905
-10.8126
-10.8321
-10.8487
-10.8622
-10.8724
-10.8792
-10.8821
-10.8806
-10.8744
-10.8627
-10.8449
-10.8204
-10.7881
-10.7464
-10.6937
-10.6277
-10.5461
-10.4461
-10.3249
-10.179
-10.0049
-9.79828
-9.55444
-9.26793
-8.9332
-8.54507
-8.09968
-7.59539
-7.03387
-6.42091
-5.76688
-5.08626
-4.39584
-3.71254
-3.05135
-2.42378
-1.83717
-1.2951
-0.797643
-0.342909
0.0729622
0.454138
0.801831
1.12066
1.4142
1.68268
1.91798
2.10833
2.23719
2.26512
2.21128
2.05393
1.7952
1.43153
0.975801
0.440786
-0.171895
-0.858025
-1.59464
-2.34216
-3.04229
-3.62903
-4.03943
-4.22706
-4.1684
-3.8625
-3.36301
-2.72169
-1.99147
-1.21433
-0.416537
0.386952
1.18475
1.96905
2.73694
3.48737
4.22037
4.93569
5.63355
6.3138
6.97734
7.6216
8.2479
8.84984
9.43319
9.98102
10.5155
10.9878
11.4788
11.8311
-7.79152
-7.92261
-7.92921
-8.00147
-8.00215
-8.04975
-8.0568
-8.09165
-8.10345
-8.13133
-8.14611
-8.17014
-8.18674
-8.20859
-8.22621
-8.24682
-8.26506
-8.28496
-8.30344
-8.32286
-8.34159
-8.36081
-8.37958
-8.39864
-8.41752
-8.4366
-8.45567
-8.47484
-8.49428
-8.51417
-8.53413
-8.55441
-8.57537
-8.59676
-8.61877
-8.64156
-8.66516
-8.68968
-8.71517
-8.7417
-8.76933
-8.79814
-8.82815
-8.85942
-8.89199
-8.92588
-8.9611
-8.99765
-9.03553
-9.07475
-9.11527
-9.15708
-9.20015
-9.24442
-9.28986
-9.33639
-9.38397
-9.43251
-9.48193
-9.53214
-9.58306
-9.63459
-9.68664
-9.7391
-9.79188
-9.84487
-9.89796
-9.95106
-10.004
-10.0568
-10.1093
-10.1614
-10.2129
-10.2638
-10.314
-10.3633
-10.4118
-10.4592
-10.5054
-10.5505
-10.5943
-10.6366
-10.6774
-10.7165
-10.7539
-10.7894
-10.8229
-10.8543
-10.8834
-10.91
-10.9341