/*--------------------------------*- C++ -*----------------------------------*\
| =========                 |                                                 |
| \\      /  F ield         | OpenFOAM: The Open Source CFD Toolbox           |
|  \\    /   O peration     | Version:  v1906                                 |
|   \\  /    A nd           | Web:      www.OpenFOAM.com                      |
|    \\/     M anipulation  |                                                 |
\*---------------------------------------------------------------------------*/
FoamFile
{
    version     2.0;
    format      ascii;
    class       surfaceScalarField;
    location    "1900";
    object      phi;
}
// * * * * * * * * * * * * * * * * * * * * * * * * * * * * * * * * * * * * * //

dimensions      [0 3 -1 0 0 0 0];
oriented        oriented;


internalField   nonuniform List<scalar> 
24170
(
3.08264e-06
1.05767e-07
2.99009e-06
9.25453e-08
2.92431e-06
6.57877e-08
2.86863e-06
5.5673e-08
2.82045e-06
4.81855e-08
2.77823e-06
4.22197e-08
2.74061e-06
3.76204e-08
2.70679e-06
3.38167e-08
2.67635e-06
3.04442e-08
2.64893e-06
2.74193e-08
2.62412e-06
2.48028e-08
2.60155e-06
2.25733e-08
2.58107e-06
2.04776e-08
2.56274e-06
1.83347e-08
2.54691e-06
1.58316e-08
2.53404e-06
1.28639e-08
2.52531e-06
8.73761e-09
-3.15524e-09
2.52846e-06
3.44175e-06
8.12701e-08
3.44162e-06
9.26664e-08
3.42978e-06
7.76288e-08
3.41578e-06
6.96721e-08
3.40091e-06
6.30598e-08
3.38623e-06
5.69021e-08
3.37206e-06
5.1787e-08
3.35847e-06
4.74065e-08
3.34546e-06
4.34572e-08
3.33304e-06
3.98416e-08
3.32124e-06
3.65944e-08
3.31014e-06
3.3676e-08
3.29967e-06
3.09452e-08
3.28985e-06
2.81619e-08
3.28053e-06
2.51534e-08
3.2718e-06
2.1585e-08
3.26421e-06
1.63286e-08
6.57201e-09
3.25449e-06
3.67699e-06
6.67993e-08
3.67934e-06
9.03097e-08
3.67351e-06
8.34661e-08
3.66575e-06
7.74301e-08
3.65793e-06
7.08769e-08
3.65056e-06
6.42751e-08
3.64367e-06
5.86735e-08
3.63721e-06
5.38739e-08
3.63111e-06
4.95536e-08
3.62535e-06
4.5605e-08
3.61993e-06
4.20126e-08
3.61489e-06
3.87183e-08
3.61025e-06
3.55829e-08
3.60602e-06
3.23866e-08
3.6022e-06
2.89761e-08
3.5989e-06
2.4885e-08
3.59489e-06
2.03423e-08
1.29876e-08
3.58847e-06
3.93503e-06
5.71581e-08
3.94208e-06
8.32612e-08
3.94423e-06
8.13133e-08
3.94425e-06
7.74089e-08
3.94288e-06
7.22528e-08
3.94062e-06
6.65312e-08
3.93794e-06
6.13573e-08
3.93509e-06
5.67186e-08
3.93222e-06
5.24273e-08
3.92939e-06
4.84326e-08
3.92668e-06
4.47224e-08
3.92416e-06
4.12436e-08
3.92187e-06
3.78689e-08
3.91985e-06
3.44071e-08
3.91812e-06
3.07015e-08
3.91666e-06
2.63506e-08
3.91582e-06
2.11826e-08
1.32699e-08
3.91554e-06
4.2187e-06
4.55869e-08
4.22808e-06
7.38786e-08
4.23189e-06
7.75064e-08
4.23318e-06
7.61177e-08
4.23328e-06
7.21498e-08
4.23277e-06
6.70417e-08
4.23201e-06
6.21225e-08
4.23114e-06
5.75814e-08
4.23024e-06
5.33302e-08
4.22933e-06
4.93424e-08
4.22845e-06
4.55985e-08
4.22766e-06
4.20373e-08
4.22698e-06
3.8551e-08
4.22642e-06
3.4962e-08
4.22592e-06
3.12065e-08
4.22539e-06
2.68811e-08
4.22395e-06
2.26262e-08
1.72102e-08
4.22e-06
4.51692e-06
3.77498e-08
4.52528e-06
6.55262e-08
4.53109e-06
7.16921e-08
4.5354e-06
7.1812e-08
4.53855e-06
6.89916e-08
4.54078e-06
6.48191e-08
4.54237e-06
6.05331e-08
4.54355e-06
5.63958e-08
4.54447e-06
5.24095e-08
4.54523e-06
4.85891e-08
4.54589e-06
4.49309e-08
4.54654e-06
4.13879e-08
4.54722e-06
3.78748e-08
4.54793e-06
3.42516e-08
4.5487e-06
3.04353e-08
4.54942e-06
2.6167e-08
4.55059e-06
2.14558e-08
1.57797e-08
4.55202e-06
4.84014e-06
3.03299e-08
4.84856e-06
5.71079e-08
4.85446e-06
6.57875e-08
4.85855e-06
6.77283e-08
4.86144e-06
6.60998e-08
4.86354e-06
6.27154e-08
4.8652e-06
5.88741e-08
4.86662e-06
5.49814e-08
4.86788e-06
5.11468e-08
4.86904e-06
4.74241e-08
4.87015e-06
4.38235e-08
4.87123e-06
4.03065e-08
4.87229e-06
3.68139e-08
4.87331e-06
3.32303e-08
4.87419e-06
2.95575e-08
4.87476e-06
2.56019e-08
4.87436e-06
2.18487e-08
1.77291e-08
4.87241e-06
5.18539e-06
2.45246e-08
5.19283e-06
4.96662e-08
5.19925e-06
5.93698e-08
5.20475e-06
6.22261e-08
5.20943e-06
6.1421e-08
5.21336e-06
5.87789e-08
5.21674e-06
5.5499e-08
5.21971e-06
5.20131e-08
5.22237e-06
4.84801e-08
5.22482e-06
4.49782e-08
5.22711e-06
4.15324e-08
5.22929e-06
3.81216e-08
5.2314e-06
3.47041e-08
5.23343e-06
3.12014e-08
5.23541e-06
2.75818e-08
5.23727e-06
2.37445e-08
5.23942e-06
1.96912e-08
1.55141e-08
5.24164e-06
5.55572e-06
2.01414e-08
5.56238e-06
4.30067e-08
5.56854e-06
5.32082e-08
5.57371e-06
5.70626e-08
5.57795e-06
5.71773e-08
5.58146e-06
5.52697e-08
5.58447e-06
5.24886e-08
5.58715e-06
4.93318e-08
5.5896e-06
4.60291e-08
5.59188e-06
4.26959e-08
5.59404e-06
3.93805e-08
5.59608e-06
3.60799e-08
5.598e-06
3.2782e-08
5.59977e-06
2.94335e-08
5.60127e-06
2.60768e-08
5.60238e-06
2.26406e-08
5.60262e-06
1.94439e-08
1.61314e-08
5.60201e-06
5.95404e-06
1.58786e-08
5.96041e-06
3.66384e-08
5.96671e-06
4.6901e-08
5.97261e-06
5.11637e-08
5.97799e-06
5.17989e-08
5.98283e-06
5.04336e-08
5.9872e-06
4.81115e-08
5.99121e-06
4.53263e-08
5.99491e-06
4.23258e-08
5.99837e-06
3.92379e-08
6.00163e-06
3.61218e-08
6.00472e-06
3.29899e-08
6.00766e-06
2.98391e-08
6.01045e-06
2.66434e-08
6.01312e-06
2.34054e-08
6.01565e-06
2.01117e-08
6.01832e-06
1.67795e-08
1.36856e-08
6.02076e-06
6.37928e-06
1.34056e-08
6.38437e-06
3.15498e-08
6.39011e-06
4.11622e-08
6.39559e-06
4.56871e-08
6.40054e-06
4.68517e-08
6.40493e-06
4.60405e-08
6.40887e-06
4.41739e-08
6.41245e-06
4.17446e-08
6.41575e-06
3.90267e-08
6.41882e-06
3.61704e-08
6.42168e-06
3.32556e-08
6.42436e-06
3.03126e-08
6.42683e-06
2.73643e-08
6.42908e-06
2.44013e-08
6.431e-06
2.148e-08
6.43254e-06
1.8576e-08
6.43342e-06
1.58919e-08
1.3273e-08
6.43384e-06
5.74347e-06
1.07661e-08
5.74802e-06
2.70063e-08
5.75302e-06
3.61594e-08
5.75801e-06
4.07012e-08
5.76278e-06
4.20783e-08
5.76724e-06
4.15754e-08
5.77141e-06
4.00109e-08
5.77529e-06
3.78575e-08
5.77894e-06
3.53861e-08
5.78236e-06
3.27493e-08
5.78558e-06
3.00317e-08
5.78862e-06
2.72733e-08
5.79149e-06
2.4499e-08
5.79417e-06
2.17172e-08
5.7967e-06
1.89509e-08
5.79905e-06
1.62252e-08
5.80138e-06
1.35564e-08
1.12057e-08
5.80345e-06
6.9996e-06
9.31929e-09
7.00351e-06
2.30998e-08
7.00855e-06
3.11147e-08
7.01384e-06
3.54182e-08
7.01895e-06
3.69655e-08
7.02373e-06
3.67922e-08
7.02817e-06
3.55727e-08
7.03229e-06
3.37389e-08
7.03612e-06
3.15546e-08
7.03969e-06
2.91774e-08
7.04302e-06
2.67021e-08
7.04612e-06
2.41802e-08
7.04896e-06
2.16504e-08
7.05155e-06
1.9131e-08
7.05384e-06
1.666e-08
7.05582e-06
1.42486e-08
7.05743e-06
1.19467e-08
9.61432e-09
7.05902e-06
8.53356e-06
6.60308e-09
8.5387e-06
1.79629e-08
8.54479e-06
2.50293e-08
8.55122e-06
2.89797e-08
8.55767e-06
3.05227e-08
8.56393e-06
3.05331e-08
8.56992e-06
2.95776e-08
8.57562e-06
2.80385e-08
8.58102e-06
2.61563e-08
8.58612e-06
2.40788e-08
8.59092e-06
2.1897e-08
8.59544e-06
1.9666e-08
8.59966e-06
1.74247e-08
8.60359e-06
1.52013e-08
8.60722e-06
1.30288e-08
8.61053e-06
1.09454e-08
8.61349e-06
8.98426e-09
7.35904e-09
8.61575e-06
1.04003e-05
5.52226e-09
1.04042e-05
1.40569e-08
1.04099e-05
1.93697e-08
1.04164e-05
2.24727e-08
1.04231e-05
2.37838e-08
1.04298e-05
2.38855e-08
1.04362e-05
2.31789e-08
1.04422e-05
2.19558e-08
1.0448e-05
2.04129e-08
1.04534e-05
1.86795e-08
1.04584e-05
1.68393e-08
1.04632e-05
1.49475e-08
1.04675e-05
1.30383e-08
1.04716e-05
1.11402e-08
1.04754e-05
9.26099e-09
1.04789e-05
7.4255e-09
1.04823e-05
5.61262e-09
3.78858e-09
1.04858e-05
1.26792e-05
3.06647e-09
1.26846e-05
8.73295e-09
1.26914e-05
1.25063e-08
1.26991e-05
1.47693e-08
1.27072e-05
1.57447e-08
1.27152e-05
1.58251e-08
1.27231e-05
1.52954e-08
1.27307e-05
1.43695e-08
1.27379e-05
1.31975e-08
1.27447e-05
1.18805e-08
1.27511e-05
1.04882e-08
1.2757e-05
9.06799e-09
1.27623e-05
7.65878e-09
1.27672e-05
6.28964e-09
1.27714e-05
4.99772e-09
1.27751e-05
3.80165e-09
1.2778e-05
2.73013e-09
1.86103e-09
1.27799e-05
1.54548e-05
1.42982e-09
1.54597e-05
3.88519e-09
1.54668e-05
5.38675e-09
1.54754e-05
6.18348e-09
1.54847e-05
6.37173e-09
1.54944e-05
6.12951e-09
1.55042e-05
5.58391e-09
1.55137e-05
4.83285e-09
1.55229e-05
3.94794e-09
1.55318e-05
2.9808e-09
1.55404e-05
1.96486e-09
1.55485e-05
9.28432e-10
1.55563e-05
-1.1816e-10
1.55637e-05
-1.14974e-09
1.55709e-05
-2.17901e-09
1.55779e-05
-3.16424e-09
1.55847e-05
-4.14626e-09
-5.02286e-09
1.55916e-05
1.88389e-05
1.84773e-10
1.88432e-05
-4.81845e-10
1.88498e-05
-1.17633e-09
1.88577e-05
-1.71592e-09
1.88662e-05
-2.15394e-09
1.88749e-05
-2.52813e-09
1.88833e-05
-2.86926e-09
1.88914e-05
-3.19307e-09
1.88988e-05
-3.50509e-09
1.89056e-05
-3.80649e-09
1.89117e-05
-4.09398e-09
1.8917e-05
-4.36542e-09
1.89215e-05
-4.61503e-09
1.89252e-05
-4.8466e-09
1.8928e-05
-5.05727e-09
1.89301e-05
-5.2471e-09
1.89314e-05
-5.45156e-09
-5.6519e-09
1.89321e-05
2.29683e-05
-4.75955e-09
2.29787e-05
-1.08925e-08
2.29925e-05
-1.49597e-08
2.30085e-05
-1.77516e-08
2.3026e-05
-1.95976e-08
2.30442e-05
-2.07453e-08
2.30627e-05
-2.14062e-08
2.30813e-05
-2.17361e-08
2.30996e-05
-2.18438e-08
2.31176e-05
-2.18007e-08
2.31351e-05
-2.16513e-08
2.31522e-05
-2.1416e-08
2.31687e-05
-2.11016e-08
2.31845e-05
-2.06983e-08
2.31997e-05
-2.01933e-08
2.3214e-05
-1.95571e-08
2.32273e-05
-1.87907e-08
-1.75648e-08
2.32392e-05
1.681e-05
-4.06688e-09
1.6812e-05
-1.28545e-08
1.6816e-05
-1.89752e-08
1.6821e-05
-2.2795e-08
1.68263e-05
-2.4887e-08
1.68314e-05
-2.58204e-08
1.6836e-05
-2.60235e-08
1.68401e-05
-2.57774e-08
1.68435e-05
-2.52591e-08
1.68462e-05
-2.45793e-08
1.68484e-05
-2.38031e-08
1.685e-05
-2.29741e-08
1.6851e-05
-2.21142e-08
1.68515e-05
-2.12545e-08
1.68517e-05
-2.04042e-08
1.68518e-05
-1.96219e-08
1.68519e-05
-1.89039e-08
-1.86773e-08
1.6853e-05
1.46398e-05
-9.34385e-09
1.46492e-05
-2.22282e-08
1.46604e-05
-3.01226e-08
1.46724e-05
-3.48665e-08
1.46849e-05
-3.73598e-08
1.46974e-05
-3.83067e-08
1.47097e-05
-3.82883e-08
1.47216e-05
-3.76948e-08
1.47331e-05
-3.67743e-08
1.47442e-05
-3.56848e-08
1.47549e-05
-3.45271e-08
1.47653e-05
-3.33589e-08
1.47754e-05
-3.22194e-08
1.47853e-05
-3.11162e-08
1.47949e-05
-3.00673e-08
1.48043e-05
-2.9019e-08
1.48134e-05
-2.79993e-08
-2.64132e-08
1.48212e-05
1.27405e-05
-9.72236e-09
1.27443e-05
-2.60621e-08
1.27497e-05
-3.54942e-08
1.27552e-05
-4.0356e-08
1.27602e-05
-4.23099e-08
1.27644e-05
-4.25219e-08
1.27679e-05
-4.17928e-08
1.27708e-05
-4.05743e-08
1.27731e-05
-3.91038e-08
1.27749e-05
-3.75155e-08
1.27763e-05
-3.5881e-08
1.27771e-05
-3.4238e-08
1.27775e-05
-3.25921e-08
1.27774e-05
-3.0952e-08
1.27766e-05
-2.9284e-08
1.27752e-05
-2.76314e-08
1.27731e-05
-2.59159e-08
-2.48498e-08
1.27715e-05
1.10974e-05
-1.62261e-08
1.11078e-05
-3.64691e-08
1.1119e-05
-4.66497e-08
1.11302e-05
-5.15111e-08
1.11409e-05
-5.3082e-08
1.1151e-05
-5.26354e-08
1.11604e-05
-5.117e-08
1.11691e-05
-4.92454e-08
1.11771e-05
-4.71369e-08
1.11846e-05
-4.49979e-08
1.11916e-05
-4.29177e-08
1.11983e-05
-4.09431e-08
1.12049e-05
-3.91115e-08
1.12114e-05
-3.74429e-08
1.12181e-05
-3.60014e-08
1.12252e-05
-3.4776e-08
1.12332e-05
-3.39319e-08
-3.26543e-08
1.1241e-05
9.65931e-06
-2.03194e-08
9.66691e-06
-4.40684e-08
9.67395e-06
-5.36877e-08
9.67945e-06
-5.70115e-08
9.68352e-06
-5.71573e-08
9.68649e-06
-5.56062e-08
9.68872e-06
-5.33947e-08
9.69046e-06
-5.09854e-08
9.69185e-06
-4.85309e-08
9.69296e-06
-4.61108e-08
9.69382e-06
-4.37702e-08
9.6944e-06
-4.15264e-08
9.69465e-06
-3.93652e-08
9.69448e-06
-3.72711e-08
9.69363e-06
-3.51456e-08
9.6918e-06
-3.29494e-08
9.68818e-06
-3.03165e-08
-2.79373e-08
9.68347e-06
8.41372e-06
-2.86914e-08
8.42534e-06
-5.56871e-08
8.43601e-06
-6.43552e-08
8.4455e-06
-6.65051e-08
8.45372e-06
-6.5377e-08
8.46059e-06
-6.24752e-08
8.4663e-06
-5.91046e-08
8.4711e-06
-5.57861e-08
8.4752e-06
-5.26231e-08
8.47874e-06
-4.96543e-08
8.48187e-06
-4.68989e-08
8.48469e-06
-4.43522e-08
8.48734e-06
-4.20124e-08
8.48995e-06
-3.98786e-08
8.49283e-06
-3.80278e-08
8.49639e-06
-3.65054e-08
8.50186e-06
-3.57891e-08
-3.53415e-08
8.50926e-06
7.32838e-06
-3.9782e-08
7.33975e-06
-6.70581e-08
7.34587e-06
-7.04819e-08
7.34875e-06
-6.9379e-08
7.34992e-06
-6.65486e-08
7.35017e-06
-6.27233e-08
7.34999e-06
-5.89277e-08
7.34963e-06
-5.54279e-08
7.34916e-06
-5.21562e-08
7.3486e-06
-4.90922e-08
7.34795e-06
-4.62424e-08
7.34719e-06
-4.35978e-08
7.34631e-06
-4.11339e-08
7.34527e-06
-3.88394e-08
7.34386e-06
-3.66169e-08
7.34177e-06
-3.44172e-08
7.33753e-06
-3.154e-08
-2.79919e-08
7.33018e-06
6.38075e-06
-5.04669e-08
6.39207e-06
-7.83774e-08
6.39907e-06
-7.74847e-08
6.40345e-06
-7.37522e-08
6.40564e-06
-6.87404e-08
6.40612e-06
-6.3206e-08
6.40553e-06
-5.83369e-08
6.40431e-06
-5.42083e-08
6.40273e-06
-5.0572e-08
6.40093e-06
-4.73001e-08
6.39903e-06
-4.43382e-08
6.39707e-06
-4.16407e-08
6.39511e-06
-3.91748e-08
6.39319e-06
-3.6913e-08
6.39147e-06
-3.48989e-08
6.39018e-06
-3.3124e-08
6.39092e-06
-3.22879e-08
-3.24628e-08
6.3954e-06
5.5641e-06
-6.91049e-08
5.57022e-06
-8.44972e-08
5.56585e-06
-7.31132e-08
5.55845e-06
-6.63481e-08
5.55069e-06
-6.09807e-08
5.54327e-06
-5.579e-08
5.53636e-06
-5.14214e-08
5.52988e-06
-4.77332e-08
5.52376e-06
-4.44495e-08
5.51793e-06
-4.14677e-08
5.51234e-06
-3.87543e-08
5.50698e-06
-3.6276e-08
5.5018e-06
-3.40007e-08
5.49681e-06
-3.19237e-08
5.49191e-06
-2.99951e-08
5.48704e-06
-2.82539e-08
5.48074e-06
-2.59856e-08
-2.24986e-08
5.47077e-06
4.85182e-06
-9.33135e-08
4.85532e-06
-8.80011e-08
4.84524e-06
-6.30372e-08
4.83344e-06
-5.45432e-08
4.82069e-06
-4.8227e-08
4.80821e-06
-4.33141e-08
4.79641e-06
-3.96178e-08
4.78529e-06
-3.66199e-08
4.77479e-06
-3.39468e-08
4.76481e-06
-3.14903e-08
4.75529e-06
-2.92322e-08
4.74617e-06
-2.71582e-08
4.73743e-06
-2.52592e-08
4.72904e-06
-2.35312e-08
4.72105e-06
-2.20084e-08
4.71351e-06
-2.07148e-08
4.70791e-06
-2.03788e-08
-2.10968e-08
4.7065e-06
4.10936e-06
4.02136e-06
3.95832e-06
3.90378e-06
3.85555e-06
3.81224e-06
3.77262e-06
3.736e-06
3.70206e-06
3.67057e-06
3.64133e-06
3.61417e-06
3.58892e-06
3.56538e-06
3.54338e-06
3.52266e-06
3.50228e-06
3.48119e-06
6.24318e-08
-6.24276e-08
1.46952e-07
-8.45199e-08
2.39176e-07
-9.22195e-08
3.20092e-07
-8.09187e-08
3.92834e-07
-7.27376e-08
4.56941e-07
-6.41094e-08
5.1501e-07
-5.80636e-08
5.67633e-07
-5.26254e-08
6.1598e-07
-4.83404e-08
6.60275e-07
-4.42985e-08
7.00825e-07
-4.05427e-08
7.37597e-07
-3.67751e-08
7.70603e-07
-3.2998e-08
7.99701e-07
-2.91021e-08
8.2479e-07
-2.50787e-08
8.45682e-07
-2.08988e-08
8.62303e-07
-1.66085e-08
8.74507e-07
-1.22117e-08
8.82243e-07
-7.72307e-09
8.85202e-07
-2.96796e-09
8.82674e-07
2.54113e-09
8.73866e-07
8.79951e-09
8.58207e-07
1.56695e-08
8.35192e-07
2.30113e-08
8.0475e-07
3.04493e-08
7.67432e-07
3.7319e-08
7.24556e-07
4.28824e-08
6.7796e-07
4.66005e-08
6.29684e-07
4.82819e-08
5.81624e-07
4.8066e-08
5.35333e-07
4.62972e-08
4.92006e-07
4.33323e-08
4.52629e-07
3.93868e-08
4.17781e-07
3.48516e-08
3.87717e-07
3.00787e-08
3.62552e-07
2.51667e-08
3.41989e-07
2.05821e-08
3.24828e-07
1.71588e-08
3.09206e-07
1.5641e-08
2.92971e-07
1.62272e-08
2.74099e-07
1.88823e-08
2.50622e-07
2.34698e-08
2.20708e-07
2.99095e-08
1.82036e-07
3.8682e-08
1.32037e-07
4.99832e-08
6.97703e-08
6.22988e-08
-3.17539e-09
7.29303e-08
-8.46888e-08
8.15437e-08
-1.73821e-07
8.91238e-08
-2.69151e-07
9.53442e-08
-3.68951e-07
9.97975e-08
-4.71283e-07
1.02331e-07
-5.74727e-07
1.03447e-07
-6.78345e-07
1.0361e-07
-7.81012e-07
1.02673e-07
-8.81617e-07
1.00596e-07
-9.7921e-07
9.75992e-08
-1.07318e-06
9.39546e-08
-1.16316e-06
8.99921e-08
-1.24912e-06
8.59511e-08
-1.33109e-06
8.19779e-08
-1.40927e-06
7.81759e-08
-1.48389e-06
7.46258e-08
-1.55526e-06
7.13643e-08
-1.62366e-06
6.84137e-08
-1.68943e-06
6.57663e-08
-1.75283e-06
6.34115e-08
-1.81415e-06
6.1321e-08
-1.87362e-06
5.94712e-08
-1.93145e-06
5.78287e-08
-1.98781e-06
5.63685e-08
-2.04287e-06
5.50598e-08
-2.09675e-06
5.38811e-08
-2.14956e-06
5.2807e-08
-2.20137e-06
5.18211e-08
-2.25228e-06
5.09035e-08
-2.30232e-06
5.0042e-08
-2.35154e-06
4.92214e-08
-2.39997e-06
4.84329e-08
-2.44763e-06
4.76635e-08
-2.49453e-06
4.6907e-08
-2.54068e-06
4.61524e-08
-2.58607e-06
4.53945e-08
-2.63069e-06
4.46223e-08
-2.67452e-06
4.38312e-08
-2.71753e-06
4.30097e-08
-2.75967e-06
4.2153e-08
-2.80091e-06
4.12474e-08
-2.84118e-06
4.02839e-08
-2.8804e-06
3.92483e-08
-2.9185e-06
3.81219e-08
-2.95538e-06
3.6888e-08
-2.99089e-06
3.55255e-08
-3.02489e-06
3.40099e-08
-3.05718e-06
3.23096e-08
-3.08756e-06
3.0388e-08
-3.11575e-06
2.8202e-08
-3.14145e-06
2.57064e-08
-3.16429e-06
2.28542e-08
-3.18388e-06
1.95999e-08
-3.19977e-06
1.58947e-08
-3.21145e-06
1.16736e-08
-3.21832e-06
6.87353e-09
-3.22e-06
1.66815e-09
-3.21676e-06
-3.2455e-09
-3.20887e-06
-7.90702e-09
-3.19586e-06
-1.30147e-08
-3.17722e-06
-1.86516e-08
-3.15225e-06
-2.49583e-08
-3.12014e-06
-3.21158e-08
-3.07989e-06
-4.02254e-08
-3.03051e-06
-4.93674e-08
-2.9709e-06
-5.95818e-08
-2.9e-06
-7.08696e-08
-2.81679e-06
-8.31689e-08
-2.72035e-06
-9.63856e-08
-2.60996e-06
-1.10327e-07
-2.48522e-06
-1.24681e-07
-2.34611e-06
-1.39048e-07
-2.19284e-06
-1.5321e-07
-2.02509e-06
-1.67672e-07
-1.84317e-06
-1.8182e-07
-1.64754e-06
-1.95517e-07
-1.43852e-06
-2.0889e-07
-1.21671e-06
-2.21693e-07
-9.83237e-07
-2.33362e-07
-7.38725e-07
-2.44435e-07
-4.83318e-07
-2.55353e-07
-2.18628e-07
-2.64671e-07
5.88146e-08
-2.77424e-07
3.62418e-07
-3.03639e-07
6.92165e-07
-3.29759e-07
1.03778e-06
-3.45683e-07
1.39455e-06
-3.56818e-07
1.75617e-06
-3.61686e-07
2.11338e-06
-3.57252e-07
2.45454e-06
-3.4116e-07
2.76691e-06
-3.12396e-07
3.03636e-06
-2.69485e-07
3.24945e-06
-2.13167e-07
3.38813e-06
-1.38783e-07
3.40422e-06
-1.62104e-08
3.25134e-06
1.52736e-07
2.91848e-06
3.32665e-07
2.43109e-06
4.87245e-07
1.86682e-06
5.64279e-07
1.35097e-06
5.15927e-07
9.86453e-07
3.64422e-07
8.00591e-07
1.85549e-07
7.52247e-07
4.833e-08
7.04544e-07
4.81598e-08
4.62812e-07
2.42493e-07
-3.28844e-08
4.96035e-07
-6.07104e-07
5.7415e-07
-1.08506e-06
4.77847e-07
-1.43026e-06
3.45303e-07
-1.65013e-06
2.20086e-07
-1.76468e-06
1.1475e-07
-1.79769e-06
3.3168e-08
-1.77585e-06
-2.1818e-08
-1.72089e-06
-5.49803e-08
-1.64357e-06
-7.74286e-08
-1.55017e-06
-9.3505e-08
-1.44438e-06
-1.05923e-07
-1.32982e-06
-1.14652e-07
-1.20917e-06
-1.20746e-07
-1.08389e-06
-1.25349e-07
-9.54929e-07
-1.29018e-07
-8.22718e-07
-1.32245e-07
-6.87703e-07
-1.35039e-07
-5.49498e-07
-1.38206e-07
-4.08993e-07
-1.405e-07
-2.64859e-07
-1.44122e-07
-1.18703e-07
-1.46138e-07
3.29263e-08
-1.51603e-07
1.85779e-07
-1.52814e-07
3.45151e-07
-1.59361e-07
4.94476e-07
-1.49324e-07
6.35767e-07
-1.41322e-07
-9.98586e-08
7.35644e-07
8.96375e-08
-1.52062e-07
1.51838e-07
-1.46719e-07
2.02619e-07
-1.42999e-07
2.42192e-07
-1.20491e-07
2.82974e-07
-1.13517e-07
3.21504e-07
-1.0264e-07
3.61259e-07
-9.78161e-08
3.99942e-07
-9.13089e-08
4.37987e-07
-8.63823e-08
4.73913e-07
-8.02255e-08
5.07464e-07
-7.40905e-08
5.37889e-07
-6.72007e-08
5.6499e-07
-6.00954e-08
5.88385e-07
-5.24982e-08
6.07907e-07
-4.45974e-08
6.2341e-07
-3.64022e-08
6.35042e-07
-2.82363e-08
6.43287e-07
-2.04566e-08
6.48925e-07
-1.33567e-08
6.52878e-07
-6.92191e-09
6.56107e-07
-6.83382e-10
6.5851e-07
6.3956e-09
6.58597e-07
1.55858e-08
6.5385e-07
2.77583e-08
6.41663e-07
4.26399e-08
6.20408e-07
5.85758e-08
5.90075e-07
7.32193e-08
5.52102e-07
8.45758e-08
5.08801e-07
9.15864e-08
4.62708e-07
9.41618e-08
4.16138e-07
9.28706e-08
3.70881e-07
8.8592e-08
3.27881e-07
8.23896e-08
2.87232e-07
7.55035e-08
2.48179e-07
6.91351e-08
2.09056e-07
6.42921e-08
1.67661e-07
6.19813e-08
1.2166e-07
6.3161e-08
6.89422e-08
6.83628e-08
7.69484e-09
7.74751e-08
-6.35492e-08
9.01276e-08
-1.45758e-07
1.05678e-07
-2.39127e-07
1.23278e-07
-3.42384e-07
1.4194e-07
-4.52699e-07
1.60298e-07
-5.6731e-07
1.76912e-07
-6.84919e-07
1.9054e-07
-8.03881e-07
2.00507e-07
-9.21365e-07
2.06609e-07
-1.03511e-06
2.09092e-07
-1.14343e-06
2.08113e-07
-1.24509e-06
2.03997e-07
-1.33911e-06
1.97464e-07
-1.42465e-06
1.89149e-07
-1.50152e-06
1.79541e-07
-1.57007e-06
1.69141e-07
-1.63092e-06
1.58453e-07
-1.68487e-06
1.47905e-07
-1.73272e-06
1.37845e-07
-1.77526e-06
1.28485e-07
-1.81321e-06
1.19934e-07
-1.84727e-06
1.12228e-07
-1.878e-06
1.0536e-07
-1.90592e-06
9.92837e-08
-1.93144e-06
9.39342e-08
-1.9549e-06
8.92331e-08
-1.97659e-06
8.51022e-08
-1.99673e-06
8.14622e-08
-2.0155e-06
7.82427e-08
-2.03305e-06
7.53774e-08
-2.04949e-06
7.28114e-08
-2.06493e-06
7.04947e-08
-2.07943e-06
6.83877e-08
-2.09308e-06
6.64547e-08
-2.10593e-06
6.46688e-08
-2.11803e-06
6.30053e-08
-2.12943e-06
6.14464e-08
-2.14018e-06
5.9975e-08
-2.15033e-06
5.85792e-08
-2.15991e-06
5.72468e-08
-2.16897e-06
5.59702e-08
-2.17756e-06
5.47403e-08
-2.18571e-06
5.35519e-08
-2.19348e-06
5.23974e-08
-2.20092e-06
5.12735e-08
-2.20808e-06
5.01734e-08
-2.21502e-06
4.9094e-08
-2.2218e-06
4.80273e-08
-2.22847e-06
4.6969e-08
-2.23512e-06
4.59087e-08
-2.24182e-06
4.48379e-08
-2.24867e-06
4.37474e-08
-2.25576e-06
4.26244e-08
-2.2632e-06
4.14535e-08
-2.27109e-06
4.02128e-08
-2.27958e-06
3.88759e-08
-2.28878e-06
3.74083e-08
-2.29883e-06
3.57695e-08
-2.30988e-06
3.39058e-08
-2.32203e-06
3.17487e-08
-2.33533e-06
2.91995e-08
-2.34979e-06
2.61294e-08
-2.36533e-06
2.24071e-08
-2.38158e-06
1.79068e-08
-2.39707e-06
1.22383e-08
-2.41024e-06
5.25794e-09
-2.41998e-06
-3.29041e-09
-2.4249e-06
-1.37316e-08
-2.42387e-06
-2.59956e-08
-2.41586e-06
-4.01227e-08
-2.39988e-06
-5.61912e-08
-2.37496e-06
-7.42801e-08
-2.34013e-06
-9.4397e-08
-2.29447e-06
-1.16504e-07
-2.23712e-06
-1.405e-07
-2.16722e-06
-1.66248e-07
-2.08404e-06
-1.93473e-07
-1.98703e-06
-2.21654e-07
-1.87589e-06
-2.50149e-07
-1.75005e-06
-2.79016e-07
-1.60898e-06
-3.08685e-07
-1.4528e-06
-3.37945e-07
-1.28174e-06
-3.66502e-07
-1.09608e-06
-3.94478e-07
-8.96159e-07
-4.21542e-07
-6.81917e-07
-4.47549e-07
-4.52724e-07
-4.73575e-07
-2.05397e-07
-5.02652e-07
6.62233e-08
-5.36275e-07
3.63408e-07
-5.74615e-07
6.71676e-07
-6.11922e-07
9.86404e-07
-6.44518e-07
1.3112e-06
-6.70522e-07
1.64332e-06
-6.88986e-07
1.97673e-06
-6.9515e-07
2.30146e-06
-6.82004e-07
2.60471e-06
-6.44431e-07
2.87287e-06
-5.80562e-07
3.09392e-06
-4.90576e-07
3.25575e-06
-3.75052e-07
3.35806e-06
-2.41153e-07
3.43875e-06
-9.6919e-08
3.51084e-06
8.05731e-08
3.50708e-06
3.36346e-07
3.33288e-06
6.61385e-07
2.96051e-06
9.3673e-07
2.4774e-06
9.99113e-07
2.00339e-06
8.38437e-07
1.62527e-06
5.63568e-07
1.31229e-06
3.61326e-07
8.70857e-07
4.89848e-07
2.31605e-07
8.82072e-07
-3.73374e-07
1.10118e-06
-7.78763e-07
9.79539e-07
-1.02053e-06
7.19619e-07
-1.16068e-06
4.85503e-07
-1.24625e-06
3.05758e-07
-1.30367e-06
1.72229e-07
-1.34135e-06
7.08739e-08
-1.35308e-06
-1.01338e-08
-1.33364e-06
-7.45008e-08
-1.28748e-06
-1.2369e-07
-1.22043e-06
-1.60652e-07
-1.13829e-06
-1.88157e-07
-1.0451e-06
-2.07924e-07
-9.43756e-07
-2.22154e-07
-8.36317e-07
-2.32838e-07
-7.24048e-07
-2.41328e-07
-6.07577e-07
-2.48743e-07
-4.87201e-07
-2.55434e-07
-3.62738e-07
-2.62679e-07
-2.33723e-07
-2.69519e-07
-9.96128e-08
-2.78234e-07
4.03279e-08
-2.86077e-07
1.86105e-07
-2.97372e-07
3.35863e-07
-3.0256e-07
4.88953e-07
-3.12442e-07
6.39669e-07
-3.00037e-07
7.91496e-07
-2.93152e-07
-2.40575e-07
9.32237e-07
4.95451e-08
-2.01605e-07
6.90256e-08
-1.66198e-07
9.19439e-08
-1.65916e-07
1.14634e-07
-1.43181e-07
1.42107e-07
-1.4099e-07
1.72039e-07
-1.32572e-07
2.05526e-07
-1.31302e-07
2.39997e-07
-1.2578e-07
2.74878e-07
-1.21261e-07
3.07848e-07
-1.13196e-07
3.38425e-07
-1.04666e-07
3.65819e-07
-9.45954e-08
3.89915e-07
-8.41891e-08
4.10136e-07
-7.27206e-08
4.25931e-07
-6.03896e-08
4.36464e-07
-4.69359e-08
4.41108e-07
-3.28778e-08
4.39717e-07
-1.90661e-08
4.33262e-07
-6.89885e-09
4.23197e-07
3.14307e-09
4.10615e-07
1.19005e-08
3.9579e-07
2.12207e-08
3.7838e-07
3.29976e-08
3.57627e-07
4.85124e-08
3.3289e-07
6.73791e-08
3.04057e-07
8.74101e-08
2.71639e-07
1.05639e-07
2.36532e-07
1.19686e-07
1.99653e-07
1.28467e-07
1.61622e-07
1.32194e-07
1.22539e-07
1.31956e-07
8.18247e-08
1.29308e-07
3.81931e-08
1.26024e-07
-1.01506e-08
1.23849e-07
-6.51966e-08
1.24184e-07
-1.2881e-07
1.27907e-07
-2.02222e-07
1.35395e-07
-2.85637e-07
1.46577e-07
-3.78261e-07
1.60988e-07
-4.78615e-07
1.77829e-07
-5.84665e-07
1.96178e-07
-6.9398e-07
2.14994e-07
-8.0392e-07
2.33218e-07
-9.11731e-07
2.49752e-07
-1.01489e-06
2.63453e-07
-1.11136e-06
2.73384e-07
-1.19973e-06
2.78919e-07
-1.27918e-06
2.79955e-07
-1.34945e-06
2.76876e-07
-1.41054e-06
2.70182e-07
-1.46286e-06
2.60434e-07
-1.50726e-06
2.48401e-07
-1.54471e-06
2.34918e-07
-1.5763e-06
2.20731e-07
-1.60321e-06
2.06456e-07
-1.62666e-06
1.92587e-07
-1.6477e-06
1.79496e-07
-1.66723e-06
1.67429e-07
-1.6859e-06
1.5652e-07
-1.70422e-06
1.46803e-07
-1.72253e-06
1.38241e-07
-1.74106e-06
1.30759e-07
-1.75996e-06
1.24256e-07
-1.77929e-06
1.18622e-07
-1.79911e-06
1.1375e-07
-1.81941e-06
1.09533e-07
-1.84018e-06
1.05876e-07
-1.86141e-06
1.02692e-07
-1.88308e-06
9.99079e-08
-1.90516e-06
9.74573e-08
-1.92763e-06
9.52858e-08
-1.95048e-06
9.33462e-08
-1.97369e-06
9.15998e-08
-1.99725e-06
9.00132e-08
-2.02114e-06
8.85594e-08
-2.04535e-06
8.7215e-08
-2.06986e-06
8.59611e-08
-2.09467e-06
8.47807e-08
-2.11974e-06
8.366e-08
-2.14508e-06
8.25861e-08
-2.17066e-06
8.15485e-08
-2.19645e-06
8.05366e-08
-2.22244e-06
7.95415e-08
-2.2486e-06
7.85535e-08
-2.27489e-06
7.75646e-08
-2.30128e-06
7.65646e-08
-2.32773e-06
7.55443e-08
-2.35419e-06
7.44916e-08
-2.38061e-06
7.33936e-08
-2.40692e-06
7.22333e-08
-2.43307e-06
7.09919e-08
-2.45896e-06
6.96472e-08
-2.48451e-06
6.81736e-08
-2.50959e-06
6.65374e-08
-2.53407e-06
6.46986e-08
-2.5578e-06
6.26055e-08
-2.58059e-06
6.01968e-08
-2.60221e-06
5.73951e-08
-2.62241e-06
5.41084e-08
-2.64089e-06
5.02217e-08
-2.65727e-06
4.55859e-08
-2.67115e-06
4.00011e-08
-2.68198e-06
3.32279e-08
-2.68907e-06
2.49951e-08
-2.69179e-06
1.49416e-08
-2.68947e-06
2.9382e-09
-2.68178e-06
-1.09902e-08
-2.6685e-06
-2.70146e-08
-2.64903e-06
-4.54713e-08
-2.62258e-06
-6.65674e-08
-2.58827e-06
-9.05008e-08
-2.54513e-06
-1.17409e-07
-2.49216e-06
-1.47364e-07
-2.42831e-06
-1.80336e-07
-2.35258e-06
-2.16211e-07
-2.26405e-06
-2.54759e-07
-2.16189e-06
-2.95608e-07
-2.04531e-06
-3.38207e-07
-1.91346e-06
-3.81977e-07
-1.76582e-06
-4.26625e-07
-1.60272e-06
-4.7174e-07
-1.42432e-06
-5.16308e-07
-1.23086e-06
-5.59899e-07
-1.02292e-06
-6.0237e-07
-8.00804e-07
-6.43601e-07
-5.64416e-07
-6.83894e-07
-3.13684e-07
-7.24261e-07
-4.94715e-08
-7.66839e-07
2.27042e-07
-8.12761e-07
5.13971e-07
-8.6154e-07
8.12229e-07
-9.10176e-07
1.12265e-06
-9.54966e-07
1.44445e-06
-9.92345e-07
1.77318e-06
-1.01775e-06
2.1014e-06
-1.02341e-06
2.41902e-06
-9.99646e-07
2.71328e-06
-9.38702e-07
2.97062e-06
-8.37916e-07
3.1796e-06
-6.99561e-07
3.32945e-06
-5.24929e-07
3.40632e-06
-3.18028e-07
3.40931e-06
-9.99157e-08
3.37213e-06
1.17737e-07
3.32512e-06
3.83306e-07
3.22971e-06
7.56798e-07
3.00717e-06
1.15935e-06
2.61859e-06
1.38779e-06
2.14451e-06
1.31254e-06
1.67771e-06
1.0303e-06
1.11943e-06
9.19586e-07
4.01622e-07
1.20775e-06
-2.56777e-07
1.54062e-06
-6.94676e-07
1.53913e-06
-9.91568e-07
1.27636e-06
-1.22921e-06
9.57162e-07
-1.41771e-06
6.73979e-07
-1.55148e-06
4.39543e-07
-1.62829e-06
2.49078e-07
-1.65273e-06
9.53469e-08
-1.63502e-06
-2.78306e-08
-1.58595e-06
-1.23575e-07
-1.51351e-06
-1.96159e-07
-1.42378e-06
-2.50411e-07
-1.32173e-06
-2.90247e-07
-1.21022e-06
-3.19455e-07
-1.09153e-06
-3.40872e-07
-9.67199e-07
-3.57183e-07
-8.38212e-07
-3.70327e-07
-7.05025e-07
-3.81936e-07
-5.67811e-07
-3.9265e-07
-4.26718e-07
-4.03771e-07
-2.81464e-07
-4.14769e-07
-1.32788e-07
-4.26906e-07
1.95729e-08
-4.38432e-07
1.74007e-07
-4.51799e-07
3.29915e-07
-4.58462e-07
4.84322e-07
-4.66847e-07
6.38628e-07
-4.54348e-07
7.93303e-07
-4.47838e-07
-3.92759e-07
9.45485e-07
1.49938e-08
-2.16597e-07
1.35005e-08
-1.64704e-07
1.91643e-08
-1.71578e-07
2.86621e-08
-1.52679e-07
3.69372e-08
-1.49263e-07
4.69108e-08
-1.42546e-07
5.71071e-08
-1.41497e-07
6.98802e-08
-1.38554e-07
8.32362e-08
-1.34616e-07
9.71853e-08
-1.27146e-07
1.10187e-07
-1.17666e-07
1.21943e-07
-1.06352e-07
1.31902e-07
-9.41471e-08
1.39899e-07
-8.07183e-08
1.45377e-07
-6.58658e-08
1.47815e-07
-4.93746e-08
1.46425e-07
-3.14869e-08
1.40351e-07
-1.29917e-08
1.2883e-07
4.624e-09
1.11727e-07
2.02463e-08
8.90712e-08
3.45581e-08
6.14715e-08
4.88202e-08
3.03844e-08
6.40865e-08
-2.02052e-09
8.09175e-08
-3.35982e-08
9.89585e-08
-6.3113e-08
1.16926e-07
-9.06884e-08
1.33216e-07
-1.17645e-07
1.46643e-07
-1.46046e-07
1.56871e-07
-1.78271e-07
1.64421e-07
-2.16699e-07
1.70386e-07
-2.6344e-07
1.7605e-07
-3.19973e-07
1.82558e-07
-3.86806e-07
1.90683e-07
-4.63372e-07
2.00751e-07
-5.48174e-07
2.1271e-07
-6.39026e-07
2.26249e-07
-7.33327e-07
2.40878e-07
-8.28325e-07
2.55987e-07
-9.21359e-07
2.70865e-07
-1.00993e-06
2.84754e-07
-1.09186e-06
2.96921e-07
-1.16532e-06
3.06681e-07
-1.22904e-06
3.13466e-07
-1.28248e-06
3.16897e-07
-1.32586e-06
3.16767e-07
-1.36e-06
3.13063e-07
-1.38617e-06
3.06123e-07
-1.40581e-06
2.96515e-07
-1.42045e-06
2.84821e-07
-1.43171e-06
2.71694e-07
-1.44111e-06
2.57803e-07
-1.44993e-06
2.43737e-07
-1.45917e-06
2.29971e-07
-1.46956e-06
2.16847e-07
-1.48156e-06
2.04589e-07
-1.49539e-06
1.93327e-07
-1.51108e-06
1.83115e-07
-1.52851e-06
1.73953e-07
-1.54751e-06
1.65798e-07
-1.56785e-06
1.58581e-07
-1.58931e-06
1.5222e-07
-1.61169e-06
1.4663e-07
-1.63479e-06
1.41723e-07
-1.65845e-06
1.37415e-07
-1.68255e-06
1.33629e-07
-1.70697e-06
1.30292e-07
-1.73161e-06
1.2734e-07
-1.75642e-06
1.24714e-07
-1.78133e-06
1.22365e-07
-1.80629e-06
1.20248e-07
-1.83126e-06
1.18323e-07
-1.85622e-06
1.1656e-07
-1.88114e-06
1.1493e-07
-1.90599e-06
1.13408e-07
-1.93074e-06
1.11975e-07
-1.9554e-06
1.10614e-07
-1.97992e-06
1.09309e-07
-2.00431e-06
1.08048e-07
-2.02854e-06
1.06818e-07
-2.0526e-06
1.0561e-07
-2.07648e-06
1.04413e-07
-2.10015e-06
1.03218e-07
-2.12361e-06
1.02014e-07
-2.14684e-06
1.00792e-07
-2.16981e-06
9.95399e-08
-2.19251e-06
9.82446e-08
-2.21491e-06
9.68912e-08
-2.23697e-06
9.54624e-08
-2.25867e-06
9.39353e-08
-2.27996e-06
9.22843e-08
-2.30079e-06
9.04774e-08
-2.32109e-06
8.84762e-08
-2.34078e-06
8.62325e-08
-2.35977e-06
8.36877e-08
-2.37793e-06
8.07689e-08
-2.39512e-06
7.7389e-08
-2.41117e-06
7.34419e-08
-2.42586e-06
6.88015e-08
-2.43896e-06
6.33156e-08
-2.45018e-06
5.68018e-08
-2.45923e-06
4.90462e-08
-2.46581e-06
3.98039e-08
-2.46961e-06
2.87817e-08
-2.4703e-06
1.56197e-08
-2.46741e-06
4.19464e-11
-2.46012e-06
-1.82899e-08
-2.4476e-06
-3.95299e-08
-2.42909e-06
-6.39853e-08
-2.40372e-06
-9.19374e-08
-2.37058e-06
-1.23645e-07
-2.32868e-06
-1.59302e-07
-2.277e-06
-1.99034e-07
-2.21448e-06
-2.42847e-07