/*--------------------------------*- C++ -*----------------------------------*\
| =========                 |                                                 |
| \\      /  F ield         | OpenFOAM: The Open Source CFD Toolbox           |
|  \\    /   O peration     | Version:  v1906                                 |
|   \\  /    A nd           | Web:      www.OpenFOAM.com                      |
|    \\/     M anipulation  |                                                 |
\*---------------------------------------------------------------------------*/
FoamFile
{
    version     2.0;
    format      ascii;
    class       volSymmTensorField;
    location    "1900";
    object      R;
}
// * * * * * * * * * * * * * * * * * * * * * * * * * * * * * * * * * * * * * //

dimensions      [0 2 -2 0 0 0 0];


internalField   nonuniform List<symmTensor> 
12225
(
(1.62959 -0.334084 0 1.36039 0 1.52762)
(1.99802 -0.598249 0 0.914521 0 1.54288)
(2.15299 -0.586753 0 0.685966 0 1.49058)
(2.16727 -0.54882 0 0.594976 0 1.4288)
(2.13576 -0.521683 0 0.550033 0 1.37425)
(2.09115 -0.502112 0 0.522027 0 1.32781)
(2.04495 -0.486812 0 0.50155 0 1.2881)
(2.00116 -0.474129 0 0.485215 0 1.25368)
(1.9606 -0.463216 0 0.471554 0 1.22351)
(1.92424 -0.453762 0 0.459953 0 1.19706)
(1.89041 -0.445253 0 0.449774 0 1.17338)
(1.86177 -0.438293 0 0.441006 0 1.15275)
(1.83913 -0.433027 0 0.433959 0 1.13621)
(1.82135 -0.428706 0 0.428157 0 1.12248)
(1.80492 -0.424836 0 0.423068 0 1.11044)
(1.79339 -0.422306 0 0.419467 0 1.10128)
(1.7798 -0.418561 0 0.41486 0 1.09126)
(1.77454 -0.419136 0 0.413945 0 1.08669)
(1.52344 -0.0379094 0 1.46191 0 1.51644)
(1.578 -0.141082 0 1.19699 0 1.51298)
(1.59297 -0.192969 0 0.943721 0 1.4613)
(1.58111 -0.213911 0 0.791871 0 1.4054)
(1.55692 -0.224328 0 0.694787 0 1.35245)
(1.53234 -0.231709 0 0.628756 0 1.3072)
(1.50961 -0.237841 0 0.580899 0 1.26872)
(1.48871 -0.243049 0 0.544286 0 1.23505)
(1.47085 -0.247766 0 0.515628 0 1.20652)
(1.45483 -0.251726 0 0.492316 0 1.18098)
(1.44221 -0.255736 0 0.473518 0 1.1601)
(1.43013 -0.258693 0 0.457163 0 1.13991)
(1.42208 -0.262595 0 0.444542 0 1.12516)
(1.4136 -0.264604 0 0.43205 0 1.10851)
(1.40872 -0.268652 0 0.424258 0 1.09897)
(1.40323 -0.269401 0 0.413261 0 1.08437)
(1.39921 -0.273184 0 0.409441 0 1.07872)
(1.39407 -0.272306 0 0.398952 0 1.0644)
(1.51181 -0.00788031 0 1.49346 0 1.51042)
(1.53548 -0.0360149 0 1.38414 0 1.51933)
(1.54926 -0.0631 0 1.23406 0 1.50758)
(1.54705 -0.0823797 0 1.11541 0 1.48422)
(1.53464 -0.0967994 0 1.02224 0 1.45589)
(1.5185 -0.108863 0 0.947679 0 1.42712)
(1.50132 -0.119424 0 0.887055 0 1.39971)
(1.48395 -0.128733 0 0.836779 0 1.37377)
(1.46765 -0.137183 0 0.794619 0 1.35013)
(1.4523 -0.144747 0 0.758623 0 1.32815)
(1.43858 -0.151871 0 0.727829 0 1.30865)
(1.4258 -0.158109 0 0.700712 0 1.29012)
(1.41456 -0.164283 0 0.677653 0 1.27438)
(1.40472 -0.169365 0 0.656142 0 1.25859)
(1.39468 -0.174747 0 0.639467 0 1.24647)
(1.38964 -0.178759 0 0.619831 0 1.23216)
(1.37505 -0.183045 0 0.612655 0 1.22472)
(1.38894 -0.18572 0 0.582435 0 1.20896)
(1.5116 -0.00601886 0 1.49403 0 1.51117)
(1.52773 -0.0162325 0 1.42122 0 1.52216)
(1.54107 -0.0301953 0 1.31213 0 1.5241)
(1.54454 -0.0430816 0 1.21287 0 1.51624)
(1.54025 -0.0537783 0 1.12925 0 1.50246)
(1.53182 -0.0631045 0 1.05898 0 1.48594)
(1.52128 -0.0715186 0 0.99978 0 1.46854)
(1.50956 -0.0791352 0 0.949413 0 1.45093)
(1.49766 -0.086169 0 0.906181 0 1.4339)
(1.48587 -0.092614 0 0.868675 0 1.41747)
(1.47462 -0.0986689 0 0.835998 0 1.40211)
(1.46386 -0.104181 0 0.807106 0 1.38741)
(1.45377 -0.109452 0 0.78184 0 1.37404)
(1.44455 -0.114092 0 0.758903 0 1.36107)
(1.43534 -0.1186 0 0.739306 0 1.34971)
(1.42836 -0.122313 0 0.719932 0 1.33815)
(1.41873 -0.125788 0 0.706051 0 1.32906)
(1.41546 -0.128567 0 0.686211 0 1.31833)
(1.50983 -0.00439281 0 1.49831 0 1.50971)
(1.52114 -0.00869994 0 1.44935 0 1.51893)
(1.53287 -0.0152759 0 1.37318 0 1.52498)
(1.53875 -0.0226368 0 1.29835 0 1.52441)
(1.53911 -0.0295571 0 1.23157 0 1.51891)
(1.53588 -0.0361365 0 1.17265 0 1.51043)
(1.53037 -0.0424643 0 1.12086 0 1.50028)
(1.52336 -0.0484607 0 1.07526 0 1.48918)
(1.51556 -0.0541533 0 1.03492 0 1.47775)
(1.50735 -0.0595091 0 0.999066 0 1.46626)
(1.49909 -0.0645877 0 0.967102 0 1.45504)
(1.49088 -0.0693234 0 0.938388 0 1.44405)
(1.48286 -0.0738074 0 0.912641 0 1.4336)
(1.47522 -0.0778792 0 0.889246 0 1.42347)
(1.46771 -0.0816652 0 0.868297 0 1.41406)
(1.46105 -0.084973 0 0.848697 0 1.40487)
(1.4542 -0.0878191 0 0.831774 0 1.39681)
(1.44927 -0.0904457 0 0.813434 0 1.38857)
(1.50979 -0.0040668 0 1.49851 0 1.5098)
(1.51871 -0.00574943 0 1.46038 0 1.51781)
(1.52878 -0.00862105 0 1.40194 0 1.52491)
(1.53537 -0.0126203 0 1.34145 0 1.52775)
(1.53809 -0.016825 0 1.28485 0 1.52677)
(1.53788 -0.0210974 0 1.23323 0 1.52309)
(1.53555 -0.0254041 0 1.18669 0 1.51758)
(1.53168 -0.0296349 0 1.14489 0 1.51084)
(1.52681 -0.0337542 0 1.1073 0 1.50338)
(1.52128 -0.0377219 0 1.07341 0 1.49549)
(1.51538 -0.0415359 0 1.04281 0 1.48745)
(1.50929 -0.0451509 0 1.01506 0 1.47936)
(1.50313 -0.0485753 0 0.989865 0 1.47141)
(1.49706 -0.0517298 0 0.966863 0 1.4636)
(1.49105 -0.0546189 0 0.945894 0 1.4561)
(1.4854 -0.0571866 0 0.926458 0 1.44883)
(1.4798 -0.0593968 0 0.908788 0 1.44203)
(1.47488 -0.061509 0 0.891067 0 1.4353)
(1.50944 -0.003288 0 1.49943 0 1.50951)
(1.51647 -0.00423144 0 1.46902 0 1.51619)
(1.52479 -0.00521993 0 1.42386 0 1.52294)
(1.53111 -0.00701666 0 1.37558 0 1.52703)
(1.53476 -0.0092234 0 1.32894 0 1.52833)
(1.53614 -0.011732 0 1.28533 0 1.5274)
(1.53573 -0.0144742 0 1.24516 0 1.52481)
(1.53394 -0.0173256 0 1.20837 0 1.52101)
(1.53113 -0.0202096 0 1.17474 0 1.51637)
(1.52761 -0.0230684 0 1.14397 0 1.51115)
(1.5236 -0.0258662 0 1.1158 0 1.50559)
(1.51926 -0.0285572 0 1.08996 0 1.49981)
(1.51473 -0.0311146 0 1.06622 0 1.49395)
(1.51012 -0.0334894 0 1.04434 0 1.48809)
(1.50551 -0.0356532 0 1.02413 0 1.48234)
(1.50104 -0.0375956 0 1.00533 0 1.47672)
(1.49677 -0.0392764 0 0.987844 0 1.47139)
(1.49266 -0.0409436 0 0.970966 0 1.46615)
(1.50952 -0.00295751 0 1.4993 0 1.50963)
(1.51545 -0.00353809 0 1.47333 0 1.5155)
(1.52239 -0.00358637 0 1.43684 0 1.52164)
(1.52819 -0.00415229 0 1.3969 0 1.52615)
(1.53217 -0.0051416 0 1.35725 0 1.52867)
(1.53444 -0.00648939 0 1.31934 0 1.52942)
(1.53523 -0.00812381 0 1.28378 0 1.52875)
(1.53482 -0.00993455 0 1.25073 0 1.52694)
(1.53347 -0.0118424 0 1.22011 0 1.52429)
(1.5314 -0.0137889 0 1.19179 0 1.52102)
(1.52881 -0.0157292 0 1.16561 0 1.5173)
(1.52582 -0.0176193 0 1.14137 0 1.51328)
(1.52257 -0.019423 0 1.11892 0 1.50907)
(1.51916 -0.0211042 0 1.09806 0 1.50475)
(1.51567 -0.0226349 0 1.07865 0 1.50041)
(1.51219 -0.0240156 0 1.0605 0 1.49612)
(1.50871 -0.0252646 0 1.04352 0 1.49193)
(1.50513 -0.0265026 0 1.02746 0 1.48781)
(1.50947 -0.00238169 0 1.49951 0 1.50959)
(1.51447 -0.00296985 0 1.47711 0 1.5147)
(1.52021 -0.00262557 0 1.44716 0 1.5201)
(1.52534 -0.0024471 0 1.414 0 1.52453)
(1.52922 -0.00258436 0 1.38047 0 1.52753)
(1.53182 -0.00306303 0 1.34788 0 1.52917)
(1.53325 -0.00384378 0 1.31686 0 1.52963)
(1.53367 -0.00484117 0 1.28765 0 1.52911)
(1.53327 -0.00598147 0 1.26029 0 1.52782)
(1.53222 -0.00720552 0 1.23471 0 1.52592)
(1.53065 -0.0084642 0 1.21082 0 1.52356)
(1.5287 -0.00971353 0 1.18852 0 1.52087)
(1.52645 -0.0109157 0 1.16769 0 1.51793)
(1.52401 -0.0120414 0 1.14818 0 1.51484)
(1.52145 -0.0130682 0 1.1299 0 1.51166)
(1.51884 -0.014003 0 1.1127 0 1.50847)
(1.51619 -0.0148525 0 1.09654 0 1.50533)
(1.51323 -0.0157475 0 1.08144 0 1.5022)
(1.50951 -0.00207298 0 1.49943 0 1.50965)
(1.51394 -0.00266852 0 1.47934 0 1.51429)
(1.5188 -0.00216363 0 1.45393 0 1.51909)
(1.5233 -0.00160411 0 1.42576 0 1.52326)
(1.52694 -0.00125647 0 1.39684 0 1.52644)
(1.52965 -0.00119997 0 1.36833 0 1.52858)
(1.53143 -0.00142009 0 1.34082 0 1.52976)
(1.53239 -0.00185457 0 1.3146 0 1.53012)
(1.53264 -0.00244178 0 1.28979 0 1.52978)
(1.53231 -0.00312872 0 1.26638 0 1.52889)
(1.53151 -0.00386963 0 1.24434 0 1.52754)
(1.53033 -0.00462489 0 1.2236 0 1.52586)
(1.52886 -0.00536099 0 1.20409 0 1.52391)
(1.52718 -0.00605489 0 1.18572 0 1.52177)
(1.52534 -0.00669304 0 1.1684 0 1.51951)
(1.52338 -0.0072863 0 1.15206 0 1.51718)
(1.52124 -0.00786881 0 1.13671 0 1.51482)
(1.51875 -0.00847883 0 1.12243 0 1.51246)
(1.50948 -0.0016326 0 1.49956 0 1.50962)
(1.51341 -0.00225518 0 1.48142 0 1.51383)
(1.51753 -0.00175213 0 1.45957 0 1.51807)
(1.52143 -0.00101182 0 1.43543 0 1.52189)
(1.52474 -0.000357351 0 1.41044 0 1.52502)
(1.52736 8.20836e-05 0 1.38552 0 1.52735)
(1.52926 0.000287313 0 1.36122 0 1.52893)
(1.5305 0.000293081 0 1.33783 0 1.52981)
(1.53115 0.000145497 0 1.31549 0 1.5301)
(1.5313 -0.000110526 0 1.29423 0 1.5299)
(1.53103 -0.000434094 0 1.27406 0 1.52928)
(1.53042 -0.00078992 0 1.25495 0 1.52834)
(1.52953 -0.00114888 0 1.23685 0 1.52713)
(1.52843 -0.00149206 0 1.2197 0 1.52574)
(1.52717 -0.00180935 0 1.20346 0 1.5242)
(1.52575 -0.00211052 0 1.18808 0 1.52258)
(1.52412 -0.00240962 0 1.1736 0 1.52089)
(1.52206 -0.00278926 0 1.16017 0 1.51914)
(1.50945 -0.00139583 0 1.49965 0 1.5096)
(1.51308 -0.00201746 0 1.48273 0 1.51355)
(1.51671 -0.00155673 0 1.46324 0 1.5174)
(1.52015 -0.000772211 0 1.44191 0 1.52093)
(1.52316 7.68143e-06 0 1.41973 0 1.52392)
(1.52564 0.000633967 0 1.39743 0 1.52631)
(1.52756 0.00106883 0 1.3755 0 1.52809)
(1.52893 0.00132842 0 1.3542 0 1.52929)
(1.52982 0.00144617 0 1.33369 0 1.52998)
(1.53027 0.00145857 0 1.31404 0 1.53023)
(1.53035 0.00140014 0 1.29528 0 1.5301)
(1.53012 0.00130056 0 1.27739 0 1.52967)
(1.52964 0.00118364 0 1.26037 0 1.529)
(1.52894 0.00106357 0 1.24416 0 1.52812)
(1.52807 0.000945952 0 1.22876 0 1.5271)
(1.52701 0.000820896 0 1.21415 0 1.52597)
(1.5257 0.000665429 0 1.20039 0 1.52474)
(1.52398 0.000467467 0 1.18762 0 1.52345)
(1.50938 -0.00110892 0 1.49983 0 1.50953)
(1.51274 -0.00168817 0 1.48402 0 1.51324)
(1.51594 -0.00128997 0 1.46648 0 1.51674)
(1.51897 -0.000516757 0 1.44748 0 1.51997)
(1.52168 0.000323755 0 1.42771 0 1.5228)
(1.52399 0.00107283 0 1.4077 0 1.52516)
(1.52585 0.0016764 0 1.38788 0 1.52702)
(1.52727 0.0021331 0 1.36849 0 1.5284)
(1.52829 0.00246357 0 1.34968 0 1.52935)
(1.52894 0.00269538 0 1.33155 0 1.52992)
(1.52927 0.00285643 0 1.31412 0 1.53016)
(1.52933 0.00297122 0 1.29743 0 1.53012)
(1.52915 0.00305902 0 1.28145 0 1.52984)
(1.52877 0.00313196 0 1.26618 0 1.52938)
(1.5282 0.0031944 0 1.25162 0 1.52876)
(1.52745 0.0032428 0 1.23778 0 1.52803)
(1.52643 0.00326854 0 1.22472 0 1.5272)
(1.52499 0.00322565 0 1.21258 0 1.52627)
(1.50929 -0.000910766 0 1.50005 0 1.50945)
(1.51241 -0.00144228 0 1.48517 0 1.51295)
(1.51527 -0.00111557 0 1.46926 0 1.51616)
(1.51794 -0.000402213 0 1.45231 0 1.51911)
(1.52035 0.00042574 0 1.43469 0 1.52175)
(1.52245 0.00121434 0 1.41678 0 1.52403)
(1.52421 0.00190147 0 1.39891 0 1.52591)
(1.52564 0.00247335 0 1.3813 0 1.52742)
(1.52674 0.00293956 0 1.36409 0 1.52857)
(1.52753 0.00331872 0 1.34738 0 1.52939)
(1.52806 0.00363132 0 1.33122 0 1.52992)
(1.52835 0.00389552 0 1.31565 0 1.53021)
(1.52842 0.00412534 0 1.30068 0 1.53028)
(1.52831 0.00432826 0 1.28631 0 1.53017)
(1.52801 0.00450589 0 1.27257 0 1.52991)
(1.52751 0.00465333 0 1.25948 0 1.52953)
(1.52675 0.00475906 0 1.24708 0 1.52905)
(1.52565 0.00485289 0 1.2355 0 1.52848)
(1.50918 -0.00060535 0 1.50035 0 1.50934)
(1.51205 -0.000982168 0 1.48642 0 1.5126)
(1.51458 -0.000696999 0 1.47199 0 1.51553)
(1.5169 -5.81365e-05 0 1.45686 0 1.51821)
(1.51902 0.00072484 0 1.44119 0 1.52063)
(1.5209 0.00151829 0 1.42523 0 1.52278)
(1.52253 0.00225842 0 1.40919 0 1.52463)
(1.52391 0.00292178 0 1.39328 0 1.52618)
(1.52503 0.00350727 0 1.37762 0 1.52745)
(1.52591 0.00402419 0 1.36231 0 1.52844)
(1.52657 0.0044853 0 1.34741 0 1.5292)
(1.52702 0.00490318 0 1.33297 0 1.52973)
(1.5273 0.00528763 0 1.31901 0 1.53008)
(1.52739 0.00564537 0 1.30557 0 1.53026)
(1.52731 0.00597844 0 1.29267 0 1.53029)
(1.52703 0.0062847 0 1.28033 0 1.5302)
(1.5265 0.00655777 0 1.26864 0 1.53)
(1.52564 0.00674686 0 1.25766 0 1.52969)
(1.50903 -0.000446048 0 1.50069 0 1.5092)
(1.51169 -0.000717576 0 1.48754 0 1.51226)
(1.51397 -0.000491516 0 1.47424 0 1.51496)
(1.51603 2.83811e-05 0 1.46053 0 1.51742)
(1.51789 0.000689104 0 1.44643 0 1.51966)
(1.51958 0.00138527 0 1.43206 0 1.52167)
(1.52107 0.00206052 0 1.41757 0 1.52346)
(1.52237 0.0026893 0 1.4031 0 1.52501)
(1.52347 0.00326457 0 1.38877 0 1.52633)
(1.52439 0.00378858 0 1.37467 0 1.52744)
(1.52513 0.00426741 0 1.36086 0 1.52834)
(1.5257 0.00470742 0 1.34742 0 1.52905)
(1.52611 0.00511382 0 1.33436 0 1.5296)
(1.52636 0.00548957 0 1.32173 0 1.52999)
(1.52646 0.00583612 0 1.30955 0 1.53025)
(1.52638 0.00615583 0 1.29787 0 1.5304)
(1.5261 0.00645073 0 1.28673 0 1.53044)
(1.52557 0.00676757 0 1.27619 0 1.53039)
(1.50889 -0.000112617 0 1.50103 0 1.50906)
(1.51135 -9.34219e-05 0 1.48859 0 1.51192)
(1.51343 0.000199162 0 1.47618 0 1.51444)
(1.51527 0.000679392 0 1.46355 0 1.51671)
(1.51694 0.00126781 0 1.45063 0 1.51879)
(1.51846 0.00190218 0 1.43748 0 1.52068)
(1.51983 0.00254502 0 1.42417 0 1.52239)
(1.52104 0.00317613 0 1.41083 0 1.52391)
(1.52211 0.00378658 0 1.39755 0 1.52525)
(1.52303 0.00437388 0 1.38442 0 1.5264)
(1.5238 0.00493842 0 1.37151 0 1.52738)
(1.52442 0.00548154 0 1.35887 0 1.52819)
(1.5249 0.0060038 0 1.34656 0 1.52885)
(1.52525 0.00650468 0 1.33461 0 1.52938)
(1.52544 0.00698146 0 1.32306 0 1.52977)
(1.52547 0.00742755 0 1.31196 0 1.53005)
(1.52532 0.00783355 0 1.30133 0 1.53022)
(1.52497 0.00815421 0 1.29122 0 1.53029)
(1.50878 -2.83153e-05 0 1.50131 0 1.50894)
(1.5111 0.000118669 0 1.4893 0 1.51167)
(1.51309 0.000381292 0 1.47737 0 1.51409)
(1.51484 0.000720075 0 1.4653 0 1.51627)
(1.51642 0.00110775 0 1.45301 0 1.51827)
(1.51786 0.00152329 0 1.44051 0 1.5201)
(1.51916 0.0019527 0 1.42787 0 1.52176)
(1.52034 0.00238684 0 1.41517 0 1.52325)
(1.52139 0.00282007 0 1.40249 0 1.52458)
(1.52232 0.00324895 0 1.38992 0 1.52575)
(1.52311 0.00367129 0 1.37753 0 1.52677)
(1.52379 0.00408576 0 1.36536 0 1.52763)
(1.52434 0.00449167 0 1.35347 0 1.52836)
(1.52477 0.00488945 0 1.34189 0 1.52896)
(1.52507 0.00528041 0 1.33066 0 1.52945)
(1.52525 0.00567077 0 1.31981 0 1.52982)
(1.52528 0.00606699 0 1.30937 0 1.53009)
(1.52513 0.00650888 0 1.29939 0 1.53025)
(1.50878 0.000463035 0 1.50126 0 1.50895)
(1.51112 0.00113004 0 1.48916 0 1.5117)
(1.51312 0.00163618 0 1.47711 0 1.51413)
(1.5149 0.00206227 0 1.4649 0 1.51633)
(1.5165 0.00246491 0 1.45246 0 1.51834)
(1.51795 0.00287869 0 1.43981 0 1.52017)
(1.51926 0.00332159 0 1.42702 0 1.52183)
(1.52043 0.00379979 0 1.41418 0 1.52331)
(1.52146 0.00431221 0 1.40138 0 1.52462)
(1.52236 0.00485363 0 1.3887 0 1.52576)
(1.52312 0.00541658 0 1.37621 0 1.52674)
(1.52375 0.00599246 0 1.36396 0 1.52757)
(1.52426 0.00657201 0 1.352 0 1.52825)
(1.52464 0.00714535 0 1.34036 0 1.52879)
(1.52492 0.00770184 0 1.32907 0 1.52922)
(1.52509 0.00822853 0 1.31813 0 1.52955)
(1.52516 0.00871101 0 1.30757 0 1.52978)
(1.52515 0.00911689 0 1.29739 0 1.52994)
(1.50906 0.000512096 0 1.50074 0 1.50919)
(1.51177 0.00119798 0 1.48773 0 1.51225)
(1.5141 0.00155317 0 1.47462 0 1.51494)
(1.51619 0.00172013 0 1.46117 0 1.51738)
(1.5181 0.00181099 0 1.44737 0 1.5196)
(1.51983 0.001902 0 1.43333 0 1.52161)
(1.52137 0.00203501 0 1.41918 0 1.52339)
(1.52274 0.00222702 0 1.40504 0 1.52495)
(1.52392 0.0024799 0 1.39103 0 1.52629)
(1.52491 0.00278715 0 1.37723 0 1.52741)
(1.52574 0.00313813 0 1.36371 0 1.52834)
(1.52639 0.00352059 0 1.35053 0 1.52907)
(1.52689 0.00392267 0 1.33773 0 1.52964)
(1.52725 0.00433379 0 1.32534 0 1.53004)
(1.52745 0.00474711 0 1.31337 0 1.5303)
(1.52752 0.0051607 0 1.30186 0 1.53043)
(1.52744 0.00558262 0 1.2908 0 1.53042)
(1.5272 0.00604894 0 1.28022 0 1.53029)
(1.50921 0.000955608 0 1.50029 0 1.50936)
(1.51225 0.00197843 0 1.48608 0 1.51272)
(1.51498 0.00238943 0 1.47131 0 1.51575)
(1.51749 0.00251897 0 1.45585 0 1.51852)
(1.51977 0.00256735 0 1.43987 0 1.52101)
(1.5218 0.00264773 0 1.42362 0 1.52321)
(1.52357 0.00281215 0 1.40733 0 1.52509)
(1.52506 0.00307462 0 1.39116 0 1.52666)
(1.5263 0.00343012 0 1.37527 0 1.52794)
(1.52727 0.00386574 0 1.35975 0 1.52894)
(1.52801 0.0043664 0 1.34467 0 1.52967)
(1.52854 0.00491796 0 1.33008 0 1.53018)
(1.52886 0.00550868 0 1.31599 0 1.53048)
(1.52901 0.00613028 0 1.30244 0 1.53059)
(1.52901 0.00677695 0 1.28941 0 1.53054)
(1.52887 0.00744538 0 1.27691 0 1.53036)
(1.52863 0.00812789 0 1.26491 0 1.53007)
(1.52836 0.00879245 0 1.25338 0 1.52972)
(1.50944 0.00112679 0 1.49987 0 1.50954)
(1.51288 0.0022003 0 1.48432 0 1.51323)
(1.51613 0.00250242 0 1.46733 0 1.51667)
(1.5192 0.00250485 0 1.44909 0 1.51984)
(1.52197 0.00245397 0 1.43014 0 1.52262)
(1.52436 0.0024796 0 1.41097 0 1.52496)
(1.52636 0.00263678 0 1.39194 0 1.52685)
(1.52795 0.00293351 0 1.37328 0 1.52829)
(1.52916 0.00335622 0 1.35513 0 1.52933)
(1.53003 0.00388379 0 1.33758 0 1.53001)
(1.5306 0.00449335 0 1.32067 0 1.53038)
(1.5309 0.00516275 0 1.30442 0 1.53047)
(1.53097 0.00587152 0 1.28884 0 1.53032)
(1.53084 0.00660013 0 1.27393 0 1.52998)
(1.53055 0.00733069 0 1.25967 0 1.52947)
(1.5301 0.00804565 0 1.24605 0 1.52881)
(1.52951 0.00873666 0 1.23307 0 1.52803)
(1.52872 0.00943078 0 1.22074 0 1.52709)
(1.50957 0.00177225 0 1.49945 0 1.50967)
(1.51359 0.00307435 0 1.48166 0 1.51387)
(1.51769 0.00341104 0 1.46087 0 1.51798)
(1.52157 0.00355346 0 1.43811 0 1.52169)
(1.52494 0.00376428 0 1.41451 0 1.52479)
(1.52771 0.00413691 0 1.39088 0 1.52719)
(1.52985 0.00469084 0 1.36769 0 1.52892)
(1.53139 0.00540319 0 1.34524 0 1.53003)
(1.5324 0.00623976 0 1.32368 0 1.53058)
(1.53294 0.00716876 0 1.30307 0 1.53068)
(1.53307 0.0081632 0 1.28345 0 1.53037)
(1.53286 0.00920109 0 1.2648 0 1.52973)
(1.53236 0.0102658 0 1.24709 0 1.52882)
(1.53161 0.0113471 0 1.23031 0 1.52768)
(1.53065 0.012441 0 1.21442 0 1.52635)
(1.52952 0.0135546 0 1.19938 0 1.52488)
(1.52825 0.0146993 0 1.18513 0 1.52329)
(1.52702 0.0158689 0 1.17159 0 1.52168)
(1.50959 0.00202729 0 1.49947 0 1.50966)
(1.51425 0.00342044 0 1.47919 0 1.51433)
(1.51942 0.0039441 0 1.4533 0 1.51915)
(1.52422 0.0044424 0 1.42465 0 1.52329)
(1.52811 0.00509898 0 1.39541 0 1.52636)
(1.531 0.00596795 0 1.3667 0 1.52834)
(1.53293 0.00705689 0 1.33906 0 1.52935)
(1.53402 0.00832626 0 1.31274 0 1.52952)
(1.53439 0.00972591 0 1.28782 0 1.52901)
(1.53417 0.011214 0 1.2643 0 1.52795)
(1.53348 0.0127578 0 1.24213 0 1.52645)
(1.53241 0.0143313 0 1.22124 0 1.52461)
(1.53105 0.0159149 0 1.20157 0 1.52251)
(1.52947 0.017492 0 1.18303 0 1.52023)
(1.52774 0.0190458 0 1.16554 0 1.51781)
(1.52591 0.0205482 0 1.14903 0 1.51531)
(1.52405 0.0219616 0 1.13344 0 1.51277)
(1.52199 0.0232527 0 1.11876 0 1.51014)
(1.50979 0.00302519 0 1.4989 0 1.50984)
(1.51584 0.00468191 0 1.47339 0 1.51561)
(1.5228 0.00597359 0 1.43822 0 1.52153)
(1.52879 0.00769686 0 1.39969 0 1.52599)
(1.53312 0.00969105 0 1.36125 0 1.5286)
(1.53581 0.011844 0 1.32432 0 1.52956)
(1.5371 0.0141196 0 1.28952 0 1.52915)
(1.53721 0.0164639 0 1.25702 0 1.52765)
(1.53639 0.0188258 0 1.22681 0 1.52532)
(1.53485 0.0211737 0 1.19877 0 1.52238)
(1.53277 0.0234886 0 1.17276 0 1.51898)
(1.53028 0.0257554 0 1.14861 0 1.51526)
(1.52749 0.0279636 0 1.12617 0 1.51133)
(1.52448 0.0301044 0 1.1053 0 1.50725)
(1.52131 0.0321711 0 1.08588 0 1.50309)
(1.51801 0.0341703 0 1.06779 0 1.49888)
(1.51453 0.0361237 0 1.05096 0 1.49461)
(1.51116 0.0381132 0 1.03531 0 1.49045)
(1.50952 0.00321289 0 1.49949 0 1.5095)
(1.51714 0.00616102 0 1.46761 0 1.51621)
(1.52631 0.00960377 0 1.41936 0 1.52273)
(1.5331 0.0135328 0 1.36872 0 1.52616)
(1.53688 0.017519 0 1.32042 0 1.52657)
(1.53814 0.0214635 0 1.27561 0 1.52465)
(1.53748 0.0254001 0 1.23447 0 1.52105)
(1.5354 0.0292921 0 1.19684 0 1.51628)
(1.53229 0.0330807 0 1.16245 0 1.51072)
(1.52846 0.0367364 0 1.131 0 1.50467)
(1.52416 0.0402516 0 1.10217 0 1.49831)
(1.51955 0.0436237 0 1.0757 0 1.49182)
(1.51478 0.0468558 0 1.05133 0 1.48528)
(1.50994 0.0499545 0 1.02885 0 1.4788)
(1.50512 0.0529281 0 1.00807 0 1.47243)
(1.5004 0.055783 0 0.988803 0 1.46623)
(1.49601 0.0585047 0 0.970858 0 1.46029)
(1.49177 0.0609224 0 0.954218 0 1.45462)
(1.51082 0.00499028 0 1.49634 0 1.51062)
(1.52253 0.0112726 0 1.44727 0 1.5197)
(1.53509 0.0202941 0 1.37185 0 1.52587)
(1.5421 0.0292231 0 1.29729 0 1.52588)
(1.54387 0.0370421 0 1.23002 0 1.52122)
(1.54182 0.0438177 0 1.17055 0 1.51351)
(1.53729 0.0499297 0 1.11821 0 1.50398)
(1.5312 0.0555488 0 1.07213 0 1.49347)
(1.52415 0.0607226 0 1.03144 0 1.48251)
(1.51657 0.0655089 0 0.995326 0 1.47146)
(1.50875 0.069967 0 0.963091 0 1.46051)
(1.50093 0.0741358 0 0.934172 0 1.44984)
(1.49321 0.0780405 0 0.908109 0 1.43951)
(1.48571 0.0817077 0 0.884521 0 1.4296)
(1.47842 0.085142 0 0.863077 0 1.42007)
(1.47146 0.0883639 0 0.843535 0 1.41102)
(1.46438 0.0913301 0 0.825618 0 1.40217)
(1.45753 0.0941515 0 0.809506 0 1.39382)
(1.51 0.0055633 0 1.4981 0 1.5093)
(1.5277 0.025459 0 1.42338 0 1.51813)
(1.54389 0.0465887 0 1.31195 0 1.51718)
(1.54826 0.0624079 0 1.21465 0 1.50611)
(1.54439 0.074653 0 1.13331 0 1.48972)
(1.53542 0.0845469 0 1.06493 0 1.47073)
(1.52417 0.0931722 0 1.00677 0 1.45108)
(1.51197 0.100848 0 0.957015 0 1.43177)
(1.49944 0.107687 0 0.914077 0 1.41316)
(1.48705 0.113835 0 0.876664 0 1.39547)
(1.47504 0.119422 0 0.843801 0 1.37876)
(1.46366 0.124546 0 0.814723 0 1.36312)
(1.45286 0.12925 0 0.788817 0 1.34844)
(1.44281 0.133616 0 0.765625 0 1.33481)
(1.43339 0.137674 0 0.744687 0 1.32202)
(1.42467 0.141458 0 0.725851 0 1.3102)
(1.41677 0.145129 0 0.708523 0 1.29908)
(1.41027 0.148329 0 0.693374 0 1.28946)
(1.51865 0.0283652 0 1.47424 0 1.51456)
(1.56412 0.112022 0 1.27057 0 1.51897)
(1.58667 0.16239 0 1.05051 0 1.48931)
(1.58149 0.184501 0 0.902882 0 1.44758)
(1.56503 0.196161 0 0.801486 0 1.40547)
(1.54328 0.20338 0 0.728658 0 1.3654)
(1.52258 0.209491 0 0.674152 0 1.33031)
(1.50319 0.214831 0 0.631974 0 1.29943)
(1.48526 0.219621 0 0.598195 0 1.27199)
(1.46902 0.223978 0 0.570444 0 1.24758)
(1.45428 0.227914 0 0.547257 0 1.22567)
(1.44132 0.231543 0 0.527615 0 1.20621)
(1.42955 0.234841 0 0.510728 0 1.18852)
(1.41946 0.237906 0 0.496123 0 1.1729)
(1.41012 0.240723 0 0.483319 0 1.15843)
(1.40235 0.243318 0 0.472056 0 1.14576)
(1.3948 0.245776 0 0.462087 0 1.13371)
(1.3875 0.247781 0 0.45295 0 1.12268)
(1.59295 0.292544 0 1.39559 0 1.521)
(1.91798 0.579352 0 0.967325 0 1.53352)
(2.07148 0.586087 0 0.732464 0 1.49029)
(2.10687 0.553475 0 0.628571 0 1.43742)
(2.09685 0.526193 0 0.57444 0 1.38866)
(2.0697 0.5061 0 0.541319 0 1.34608)
(2.03645 0.490694 0 0.518312 0 1.3093)
(2.00228 0.478297 0 0.500726 0 1.27732)
(1.96926 0.467874 0 0.486442 0 1.24922)
(1.93818 0.458846 0 0.4744 0 1.22429)
(1.90925 0.450871 0 0.463998 0 1.20197)
(1.88246 0.443739 0 0.454874 0 1.1819)
(1.85776 0.437311 0 0.446775 0 1.16372)
(1.83488 0.431476 0 0.439526 0 1.14718)
(1.81392 0.426148 0 0.432988 0 1.13213)
(1.79429 0.421292 0 0.427082 0 1.11828)
(1.7765 0.41675 0 0.421648 0 1.10569)
(1.75939 0.412561 0 0.416804 0 1.09385)
(0.00491089 0.00172796 0 0.0195176 0 0.0150764)
(0.0121398 -0.000217076 0 0.0266161 0 0.0282649)
(0.0200133 -0.00163383 0 0.0337924 0 0.0394628)
(0.0266264 -0.0047273 0 0.037728 0 0.0459974)
(0.0329119 -0.00691832 0 0.039014 0 0.050748)
(0.0384494 -0.00843094 0 0.0385712 0 0.053934)
(0.0433049 -0.0095043 0 0.0376619 0 0.0561834)
(0.0474821 -0.0103819 0 0.0365012 0 0.0577115)
(0.0511783 -0.0111419 0 0.0353033 0 0.0587939)
(0.054495 -0.0118451 0 0.0340714 0 0.0595494)
(0.0575437 -0.0124981 0 0.0328394 0 0.0600886)
(0.0603869 -0.0131001 0 0.0316058 0 0.060469)
(0.0630744 -0.0136408 0 0.0303852 0 0.0607371)
(0.0656319 -0.0141108 0 0.0291841 0 0.0609181)
(0.0680668 -0.0145032 0 0.0280133 0 0.0610269)
(0.0703751 -0.0148089 0 0.0268777 0 0.0610616)
(0.0725261 -0.0150344 0 0.0258003 0 0.061035)
(0.0745246 -0.0151628 0 0.0247537 0 0.0608852)
(0.0761797 -0.0152776 0 0.0238873 0 0.0607543)
(0.078215 -0.01527 0 0.0226995 0 0.0601978)
(0.0790114 -0.0152204 0 0.0220892 0 0.0598033)
(0.0794975 -0.0150203 0 0.021383 0 0.0591719)
(0.079523 -0.0146329 0 0.0205116 0 0.058138)
(0.0789502 -0.0140909 0 0.0195732 0 0.0567682)
(0.077772 -0.0133985 0 0.0185739 0 0.0550752)
(0.0759926 -0.0125564 0 0.0175127 0 0.0530636)
(0.0736548 -0.0115802 0 0.0164053 0 0.0507718)
(0.070874 -0.0105042 0 0.0152812 0 0.048286)
(0.0678579 -0.00937415 0 0.0141803 0 0.0457457)
(0.0649245 -0.0082374 0 0.0131524 0 0.0433534)
(0.062409 -0.00712816 0 0.0122483 0 0.0413168)
(0.0606413 -0.00607787 0 0.0115196 0 0.0398416)
(0.0598612 -0.00512302 0 0.0110318 0 0.039104)
(0.0593021 -0.0039313 0 0.010739 0 0.0388472)
(0.0593966 -0.00327936 0 0.0107001 0 0.0390548)
(0.0600172 -0.00267292 0 0.010797 0 0.0396753)
(0.061243 -0.00213849 0 0.0110615 0 0.0407897)
(0.0626397 -0.00180002 0 0.0113875 0 0.0419984)
(0.0639478 -0.00158231 0 0.0116968 0 0.0430815)
(0.0649955 -0.00138662 0 0.0119299 0 0.0438979)
(0.0655899 -0.00105098 0 0.0120178 0 0.0442802)
(0.0655888 -0.000691481 0 0.0119526 0 0.0441802)
(0.0649926 -0.000229357 0 0.0117454 0 0.0436363)
(0.0626467 0.000262514 0 0.0113377 0 0.0421097)
(0.0578582 0.000714662 0 0.0106531 0 0.0392648)
(0.0523212 0.00108183 0 0.00994607 0 0.0361703)
(0.0480267 0.00132674 0 0.00957947 0 0.0341116)
(0.0473449 0.00193222 0 0.0097423 0 0.0341731)
(0.0499202 0.00310622 0 0.0104545 0 0.0361176)
(0.0546081 0.00456137 0 0.011791 0 0.0395558)
(0.0613942 0.00615269 0 0.0136874 0 0.0444396)
(0.0709335 0.00789086 0 0.016134 0 0.0511931)
(0.0844498 0.00982157 0 0.0190972 0 0.0605784)
(0.0978843 0.0118133 0 0.0220246 0 0.0699229)
(0.110881 0.013836 0 0.0249322 0 0.0790201)
(0.123535 0.0158561 0 0.0278138 0 0.0879065)
(0.1359 0.0178553 0 0.030664 0 0.0965862)
(0.148065 0.0198553 0 0.0334752 0 0.105078)
(0.160197 0.021938 0 0.036247 0 0.11344)
(0.172004 0.0240086 0 0.0389524 0 0.121555)
(0.183463 0.0260149 0 0.0416004 0 0.129436)
(0.194631 0.0279678 0 0.0441952 0 0.137116)
(0.205554 0.0298712 0 0.0467449 0 0.144626)
(0.21627 0.0317316 0 0.0492562 0 0.151994)
(0.226822 0.0335561 0 0.0517373 0 0.159249)
(0.237247 0.0353516 0 0.054196 0 0.16642)
(0.24758 0.0371246 0 0.0566397 0 0.17353)
(0.257853 0.038881 0 0.0590756 0 0.180604)
(0.268092 0.0406264 0 0.0615104 0 0.187661)
(0.278324 0.0423653 0 0.0639503 0 0.19472)
(0.28857 0.0441019 0 0.0664006 0 0.201798)
(0.29885 0.0458397 0 0.0688665 0 0.20891)
(0.309178 0.0475818 0 0.0713525 0 0.216067)
(0.319571 0.0493307 0 0.0738627 0 0.223282)
(0.33004 0.0510886 0 0.0764008 0 0.230565)
(0.340597 0.0528576 0 0.0789705 0 0.237925)
(0.351249 0.0546391 0 0.0815751 0 0.245369)
(0.362006 0.0564347 0 0.0842177 0 0.252907)
(0.372875 0.0582457 0 0.0869014 0 0.260545)
(0.383863 0.060073 0 0.0896297 0 0.26829)
(0.394975 0.0619178 0 0.0924055 0 0.276149)
(0.406217 0.063781 0 0.0952323 0 0.284129)
(0.417594 0.0656635 0 0.0981138 0 0.292238)
(0.429112 0.0675661 0 0.101054 0 0.300482)
(0.440775 0.0694897 0 0.104056 0 0.308868)
(0.452588 0.0714352 0 0.107126 0 0.317406)
(0.464555 0.0734033 0 0.110269 0 0.326103)
(0.47668 0.075395 0 0.113489 0 0.334969)
(0.488966 0.0774106 0 0.116795 0 0.344013)
(0.501417 0.0794506 0 0.120192 0 0.353245)
(0.514033 0.0815151 0 0.123689 0 0.362675)
(0.526815 0.0836048 0 0.127295 0 0.372314)
(0.53976 0.0857197 0 0.131021 0 0.382172)
(0.552862 0.0878593 0 0.134877 0 0.392258)
(0.566113 0.0900227 0 0.138879 0 0.402583)
(0.579499 0.0922078 0 0.14304 0 0.413153)
(0.593 0.094411 0 0.147378 0 0.423975)
(0.606587 0.096627 0 0.151913 0 0.43505)
(0.620223 0.0988483 0 0.156664 0 0.446374)
(0.63386 0.101065 0 0.161658 0 0.457941)
(0.647443 0.103265 0 0.166924 0 0.469737)
(0.660907 0.10543 0 0.172493 0 0.481744)
(0.674176 0.107547 0 0.178399 0 0.493934)
(0.687148 0.10961 0 0.184677 0 0.50626)
(0.699753 0.111601 0 0.191399 0 0.5187)
(0.712099 0.11358 0 0.198677 0 0.531356)
(0.724096 0.115538 0 0.206569 0 0.544196)
(0.735651 0.117439 0 0.215116 0 0.557161)
(0.746618 0.119279 0 0.224358 0 0.57017)
(0.756839 0.121035 0 0.234337 0 0.583125)
(0.766166 0.122702 0 0.245097 0 0.595941)
(0.774554 0.124258 0 0.256713 0 0.60862)
(0.782069 0.125586 0 0.269314 0 0.621269)
(0.78843 0.126608 0 0.28293 0 0.633711)
(0.793343 0.12723 0 0.297624 0 0.645798)
(0.796323 0.127306 0 0.3135 0 0.657303)
(0.796469 0.126555 0 0.330781 0 0.667827)
(0.79261 0.124175 0 0.347989 0 0.675719)
(0.785293 0.119747 0 0.362287 0 0.68013)
(0.773124 0.111361 0 0.375528 0 0.682724)
(0.74877 0.0939038 0 0.394316 0 0.683857)
(0.731726 0.0770562 0 0.408843 0 0.684384)
(0.713833 0.0579328 0 0.42362 0 0.684365)
(0.697853 0.0371807 0 0.437753 0 0.684226)
(0.68383 0.0148922 0 0.450947 0 0.683869)
(0.673237 -0.00786057 0 0.461918 0 0.683275)
(0.664051 -0.0326941 0 0.473275 0 0.683259)
(0.660029 -0.0587525 0 0.484602 0 0.684257)
(0.661105 -0.0878137 0 0.495999 0 0.686568)
(0.673526 -0.120792 0 0.495493 0 0.691257)
(0.694197 -0.14208 0 0.484032 0 0.700147)
(0.710079 -0.157876 0 0.485963 0 0.708809)
(0.723835 -0.172609 0 0.491437 0 0.716018)
(0.735518 -0.186553 0 0.496059 0 0.720913)
(0.747054 -0.200889 0 0.494163 0 0.721136)
(0.753062 -0.209975 0 0.488559 0 0.718946)
(0.758686 -0.217968 0 0.475367 0 0.713133)
(0.760806 -0.222246 0 0.451894 0 0.700487)
(0.757487 -0.221543 0 0.419348 0 0.680716)
(0.747408 -0.215485 0 0.379766 0 0.653565)
(0.733127 -0.205432 0 0.336716 0 0.621748)
(0.711689 -0.190645 0 0.292133 0 0.58394)
(0.671903 -0.168834 0 0.244689 0 0.532478)
(0.615884 -0.142491 0 0.198805 0 0.471846)
(0.540435 -0.112106 0 0.154751 0 0.40045)
(0.438327 -0.0794945 0 0.113832 0 0.316198)
(0.312905 -0.0509146 0 0.0779121 0 0.224678)
(0.199169 -0.0310667 0 0.0496812 0 0.1446)
(0.171014 -0.0207153 0 0.0385996 0 0.119838)
(0.191744 -0.0205635 0 0.0403245 0 0.1302)
(0.202731 -0.0230216 0 0.0400795 0 0.133732)
(0.167637 -0.0176866 0 0.032059 0 0.109217)
(0.100334 -0.00317604 0 0.0222536 0 0.0742808)
(0.137888 0.0103601 0 0.0428674 0 0.116292)
(0.324477 0.0295846 0 0.0808725 0 0.247878)
(0.449588 0.0480409 0 0.110892 0 0.340199)
(0.541575 0.0623067 0 0.138489 0 0.41146)
(0.605409 0.0719233 0 0.163923 0 0.464413)
(0.636342 0.0750847 0 0.18368 0 0.494711)
(0.639015 0.0651887 0 0.201293 0 0.511308)
(0.640066 0.0543751 0 0.214398 0 0.520219)
(0.636543 0.0450003 0 0.223125 0 0.524096)