/*--------------------------------*- C++ -*----------------------------------*\
| =========                 |                                                 |
| \\      /  F ield         | OpenFOAM: The Open Source CFD Toolbox           |
|  \\    /   O peration     | Version:  v1906                                 |
|   \\  /    A nd           | Web:      www.OpenFOAM.com                      |
|    \\/     M anipulation  |                                                 |
\*---------------------------------------------------------------------------*/
FoamFile
{
    version     2.0;
    format      ascii;
    class       volVectorField;
    location    "1900";
    object      U;
}
// * * * * * * * * * * * * * * * * * * * * * * * * * * * * * * * * * * * * * //

dimensions      [0 1 -1 0 0 0 0];


internalField   nonuniform List<vector> 
12225
(
(9.79813 -0.086323 0)
(9.51348 -0.307475 0)
(9.27224 -0.419748 0)
(9.0772 -0.461209 0)
(8.91711 -0.474587 0)
(8.77747 -0.477969 0)
(8.65264 -0.477435 0)
(8.54075 -0.475111 0)
(8.44022 -0.471824 0)
(8.34963 -0.467918 0)
(8.26812 -0.463497 0)
(8.19391 -0.458507 0)
(8.12638 -0.453338 0)
(8.06526 -0.448255 0)
(8.0114 -0.443542 0)
(7.96588 -0.440399 0)
(7.93075 -0.434596 0)
(7.91269 -0.454413 0)
(10.05 0.146798 0)
(10.0863 0.250768 0)
(10.0598 0.305944 0)
(10.017 0.343316 0)
(9.97418 0.365733 0)
(9.93104 0.378645 0)
(9.88854 0.386405 0)
(9.8478 0.390994 0)
(9.80893 0.393315 0)
(9.77167 0.394038 0)
(9.73621 0.393657 0)
(9.70266 0.392489 0)
(9.67114 0.390573 0)
(9.6414 0.38805 0)
(9.6136 0.384431 0)
(9.58677 0.380719 0)
(9.56323 0.372029 0)
(9.53871 0.366042 0)
(10.0185 0.00426297 0)
(10.0533 -0.0206645 0)
(10.0427 -0.0638333 0)
(10.0195 -0.101937 0)
(9.99791 -0.133038 0)
(9.9774 -0.157269 0)
(9.95784 -0.175451 0)
(9.93961 -0.189282 0)
(9.92249 -0.200104 0)
(9.90634 -0.208767 0)
(9.89101 -0.215724 0)
(9.87676 -0.221384 0)
(9.86342 -0.226062 0)
(9.85145 -0.230372 0)
(9.84025 -0.234426 0)
(9.83061 -0.239615 0)
(9.82183 -0.244971 0)
(9.8067 -0.259631 0)
(10.0096 0.0630297 0)
(10.0374 0.104591 0)
(10.0478 0.125947 0)
(10.0489 0.147308 0)
(10.047 0.166004 0)
(10.0422 0.181098 0)
(10.0356 0.193299 0)
(10.0285 0.203055 0)
(10.0211 0.210781 0)
(10.0138 0.216911 0)
(10.0067 0.221798 0)
(10 0.225683 0)
(9.99383 0.228629 0)
(9.98836 0.230635 0)
(9.98353 0.231598 0)
(9.97951 0.231257 0)
(9.97624 0.229189 0)
(9.97498 0.224461 0)
(10.0105 0.0166186 0)
(10.0426 0.0212273 0)
(10.057 0.0117713 0)
(10.0612 -0.00148485 0)
(10.0625 -0.0167215 0)
(10.0619 -0.0320618 0)
(10.0602 -0.0459479 0)
(10.0582 -0.0581358 0)
(10.056 -0.0688679 0)
(10.0539 -0.0783656 0)
(10.0517 -0.0868239 0)
(10.0497 -0.0944577 0)
(10.048 -0.101518 0)
(10.0464 -0.10834 0)
(10.0453 -0.115176 0)
(10.0439 -0.122737 0)
(10.043 -0.130583 0)
(10.0357 -0.141989 0)
(10.0059 0.0365515 0)
(10.0279 0.0671688 0)
(10.0436 0.0812051 0)
(10.0541 0.092076 0)
(10.0624 0.101546 0)
(10.0682 0.109972 0)
(10.0723 0.117724 0)
(10.0753 0.124695 0)
(10.0776 0.13081 0)
(10.0794 0.136119 0)
(10.0809 0.1407 0)
(10.0823 0.144598 0)
(10.0838 0.147802 0)
(10.0853 0.150217 0)
(10.087 0.151787 0)
(10.0887 0.152235 0)
(10.0903 0.151609 0)
(10.0939 0.150143 0)
(10.005 0.0137883 0)
(10.025 0.0241912 0)
(10.0402 0.0248139 0)
(10.0498 0.0212126 0)
(10.0569 0.0147716 0)
(10.0619 0.00675185 0)
(10.0656 -0.00162971 0)
(10.0687 -0.00986443 0)
(10.0715 -0.0177814 0)
(10.074 -0.0253156 0)
(10.0763 -0.0324739 0)
(10.0786 -0.0393318 0)
(10.0808 -0.0460112 0)
(10.0829 -0.0527098 0)
(10.085 -0.0595282 0)
(10.0865 -0.0668704 0)
(10.0875 -0.0742697 0)
(10.0844 -0.0836809 0)
(10.0034 0.0223696 0)
(10.0185 0.0471252 0)
(10.0323 0.0601436 0)
(10.0435 0.0685953 0)
(10.0534 0.0748282 0)
(10.0617 0.0799579 0)
(10.0686 0.0846454 0)
(10.0747 0.0889976 0)
(10.0801 0.0929885 0)
(10.085 0.0966062 0)
(10.0896 0.0998394 0)
(10.0939 0.102658 0)
(10.098 0.105019 0)
(10.102 0.106832 0)
(10.1059 0.108063 0)
(10.1096 0.108604 0)
(10.1131 0.108478 0)
(10.118 0.108652 0)
(10.002 0.0101043 0)
(10.0135 0.0207914 0)
(10.0259 0.0246767 0)
(10.0359 0.0248056 0)
(10.0444 0.0223061 0)
(10.0513 0.0181222 0)
(10.0571 0.0130821 0)
(10.0622 0.00761078 0)
(10.0668 0.00193772 0)
(10.071 -0.00380761 0)
(10.075 -0.00956889 0)
(10.0788 -0.0153544 0)
(10.0824 -0.0212017 0)
(10.0857 -0.0272079 0)
(10.0887 -0.0333887 0)
(10.0911 -0.0399398 0)
(10.0928 -0.0465249 0)
(10.0918 -0.0545221 0)
(10.0019 0.0139693 0)
(10.0121 0.0335301 0)
(10.0233 0.0454515 0)
(10.0335 0.0531928 0)
(10.0431 0.058482 0)
(10.0516 0.0624418 0)
(10.0593 0.0657688 0)
(10.0663 0.0687302 0)
(10.0728 0.0714227 0)
(10.0788 0.0738783 0)
(10.0844 0.0760975 0)
(10.0898 0.078054 0)
(10.0948 0.0797203 0)
(10.0997 0.0810451 0)
(10.1042 0.082033 0)
(10.1087 0.0826917 0)
(10.1127 0.0830435 0)
(10.1177 0.0842005 0)
(10.0006 0.00708366 0)
(10.007 0.0162513 0)
(10.0164 0.020728 0)
(10.0252 0.0221922 0)
(10.0335 0.0214128 0)
(10.0408 0.0191061 0)
(10.0473 0.0158446 0)
(10.0531 0.0119619 0)
(10.0585 0.00766768 0)
(10.0635 0.00308968 0)
(10.0681 -0.00170127 0)
(10.0725 -0.00668252 0)
(10.0765 -0.0118503 0)
(10.0803 -0.017238 0)
(10.0836 -0.0228339 0)
(10.0863 -0.0287395 0)
(10.0885 -0.034712 0)
(10.089 -0.0417981 0)
(10.001 0.0088544 0)
(10.008 0.0233015 0)
(10.0168 0.0330573 0)
(10.0255 0.0396992 0)
(10.0341 0.044171 0)
(10.0422 0.0473227 0)
(10.0497 0.049715 0)
(10.0567 0.0516492 0)
(10.0632 0.0532844 0)
(10.0694 0.0546995 0)
(10.0752 0.0559301 0)
(10.0806 0.0569803 0)
(10.0858 0.0578559 0)
(10.0906 0.058542 0)
(10.0951 0.0590843 0)
(10.0994 0.0595214 0)
(10.1033 0.0599079 0)
(10.1076 0.0612488 0)
(10.0001 0.005147 0)
(10.004 0.0125019 0)
(10.0111 0.0165146 0)
(10.0185 0.0182617 0)
(10.0261 0.0181591 0)
(10.0332 0.0167603 0)
(10.0398 0.0144517 0)
(10.0459 0.0114966 0)
(10.0516 0.0080688 0)
(10.0568 0.00427982 0)
(10.0618 0.000198172 0)
(10.0664 -0.00414023 0)
(10.0706 -0.00871771 0)
(10.0745 -0.0135292 0)
(10.078 -0.0185775 0)
(10.0811 -0.0238909 0)
(10.0837 -0.0293868 0)
(10.0857 -0.0359504 0)
(10.0006 0.00594572 0)
(10.0056 0.017036 0)
(10.0126 0.0254318 0)
(10.02 0.0317877 0)
(10.0276 0.0364831 0)
(10.0351 0.0400955 0)
(10.0423 0.0430152 0)
(10.0492 0.0455043 0)
(10.0557 0.047723 0)
(10.0618 0.0497636 0)
(10.0676 0.0516806 0)
(10.0731 0.0534996 0)
(10.0782 0.0552499 0)
(10.083 0.0569446 0)
(10.0874 0.0586429 0)
(10.0915 0.0604132 0)
(10.0952 0.0622234 0)
(10.0985 0.0650773 0)
(9.99991 0.00281237 0)
(10.0022 0.0068177 0)
(10.0072 0.00868494 0)
(10.0132 0.00901583 0)
(10.0197 0.00798731 0)
(10.0262 0.00593771 0)
(10.0325 0.00309351 0)
(10.0385 -0.000370078 0)
(10.0442 -0.00432878 0)
(10.0495 -0.00869573 0)
(10.0545 -0.0134135 0)
(10.0593 -0.0184411 0)
(10.0636 -0.0237598 0)
(10.0677 -0.0293449 0)
(10.0714 -0.0352041 0)
(10.075 -0.041339 0)
(10.0782 -0.0476205 0)
(10.0815 -0.0548502 0)
(10.0003 0.0036558 0)
(10.0035 0.0111201 0)
(10.0086 0.017595 0)
(10.0144 0.0231929 0)
(10.0207 0.027964 0)
(10.0271 0.0321531 0)
(10.0334 0.0359539 0)
(10.0395 0.039521 0)
(10.0454 0.0429646 0)
(10.0509 0.0463565 0)
(10.0561 0.0497455 0)
(10.061 0.05316 0)
(10.0654 0.056628 0)
(10.0695 0.0601618 0)
(10.0731 0.063786 0)
(10.0762 0.0675422 0)
(10.0788 0.0712592 0)
(10.0807 0.0758275 0)
(10.0001 0.000195281 0)
(10.0021 -0.000228979 0)
(10.0062 -0.00178392 0)
(10.0113 -0.00420592 0)
(10.0172 -0.0074363 0)
(10.0235 -0.0113398 0)
(10.0298 -0.0158202 0)
(10.036 -0.0207992 0)
(10.0421 -0.0262147 0)
(10.048 -0.0320161 0)
(10.0537 -0.0381639 0)
(10.0591 -0.0446192 0)
(10.0642 -0.0513537 0)
(10.0691 -0.0583179 0)
(10.0738 -0.065475 0)
(10.0785 -0.0727911 0)
(10.0828 -0.0800438 0)
(10.0875 -0.0879091 0)
(9.99998 0.00195657 0)
(10.0014 0.00622812 0)
(10.0045 0.0107264 0)
(10.0084 0.0153991 0)
(10.0128 0.0202049 0)
(10.0174 0.0251601 0)
(10.022 0.0302774 0)
(10.0264 0.0355698 0)
(10.0305 0.0410445 0)
(10.0343 0.0467012 0)
(10.0378 0.0525325 0)
(10.0408 0.0585254 0)
(10.0434 0.0646582 0)
(10.0456 0.0709037 0)
(10.0473 0.0772024 0)
(10.0486 0.0835643 0)
(10.0496 0.0896998 0)
(10.0498 0.0963493 0)
(10.0004 -0.00316231 0)
(10.0038 -0.00987807 0)
(10.0093 -0.016729 0)
(10.0159 -0.0236495 0)
(10.0233 -0.0306833 0)
(10.0311 -0.0378843 0)
(10.0391 -0.0453033 0)
(10.0472 -0.0529718 0)
(10.0553 -0.0609006 0)
(10.0632 -0.0690835 0)
(10.071 -0.0775013 0)
(10.0785 -0.0861248 0)
(10.0858 -0.0949165 0)
(10.0929 -0.103832 0)
(10.0996 -0.112813 0)
(10.1061 -0.121814 0)
(10.112 -0.130662 0)
(10.1178 -0.13965 0)
(9.9996 -0.00140442 0)
(9.9997 -0.00285926 0)
(10.0017 -0.00275376 0)
(10.0045 -0.00144702 0)
(10.0077 0.000892641 0)
(10.0108 0.00408634 0)
(10.0137 0.00796409 0)
(10.0163 0.0123841 0)
(10.0185 0.0172308 0)
(10.0204 0.0224129 0)
(10.0219 0.0278641 0)
(10.023 0.0335385 0)
(10.0237 0.0394152 0)
(10.0242 0.0454807 0)
(10.0244 0.0517536 0)
(10.0244 0.0582378 0)
(10.0246 0.0649077 0)
(10.0244 0.0720872 0)
(10.0008 -0.00557405 0)
(10.0062 -0.0165144 0)
(10.0136 -0.0257809 0)
(10.0216 -0.0337195 0)
(10.03 -0.0407036 0)
(10.0386 -0.0470947 0)
(10.0471 -0.0531721 0)
(10.0554 -0.0591014 0)
(10.0634 -0.0649674 0)
(10.0711 -0.0708091 0)
(10.0786 -0.0766414 0)
(10.0858 -0.0824714 0)
(10.0928 -0.0883124 0)
(10.0996 -0.0941866 0)
(10.1062 -0.100151 0)
(10.1128 -0.106269 0)
(10.119 -0.112625 0)
(10.1254 -0.11959 0)
(9.99962 -0.00389093 0)
(10.0011 -0.00914068 0)
(10.0053 -0.0113904 0)
(10.0097 -0.0114229 0)
(10.0139 -0.00962821 0)
(10.0175 -0.00641701 0)
(10.0205 -0.0022133 0)
(10.023 0.00264527 0)
(10.025 0.00790657 0)
(10.0267 0.013384 0)
(10.0279 0.0189458 0)
(10.0288 0.0245084 0)
(10.0293 0.0300313 0)
(10.0294 0.0355117 0)
(10.0291 0.0410087 0)
(10.0281 0.0466226 0)
(10.027 0.0525349 0)
(10.0247 0.0592723 0)
(10.0015 -0.0108155 0)
(10.01 -0.0287711 0)
(10.0202 -0.0415583 0)
(10.0303 -0.0514018 0)
(10.0402 -0.0595908 0)
(10.0497 -0.0668762 0)
(10.0585 -0.0737136 0)
(10.0666 -0.0802819 0)
(10.0742 -0.0866147 0)
(10.0811 -0.0927042 0)
(10.0877 -0.098533 0)
(10.0938 -0.104087 0)
(10.0997 -0.109359 0)
(10.1056 -0.114365 0)
(10.1114 -0.119163 0)
(10.1178 -0.12387 0)
(10.1242 -0.128736 0)
(10.1324 -0.134416 0)
(10.0008 -0.00657564 0)
(10.0076 -0.0140712 0)
(10.0162 -0.0159217 0)
(10.0226 -0.0141113 0)
(10.0275 -0.00957108 0)
(10.0311 -0.00316345 0)
(10.0337 0.00419767 0)
(10.0357 0.011894 0)
(10.0373 0.0195649 0)
(10.0386 0.0269856 0)
(10.0396 0.0340213 0)
(10.0403 0.0406006 0)
(10.0408 0.0466875 0)
(10.0409 0.0522705 0)
(10.0405 0.0573748 0)
(10.039 0.0620818 0)
(10.0369 0.0666623 0)
(10.0313 0.071918 0)
(10.0028 -0.0223568 0)
(10.0166 -0.0495406 0)
(10.0305 -0.0656024 0)
(10.0423 -0.0781021 0)
(10.0529 -0.0892484 0)
(10.0619 -0.0995395 0)
(10.0694 -0.109231 0)
(10.0756 -0.118301 0)
(10.0808 -0.12664 0)
(10.0853 -0.134212 0)
(10.0892 -0.141035 0)
(10.0928 -0.14714 0)
(10.096 -0.152554 0)
(10.0991 -0.157302 0)
(10.1022 -0.161387 0)
(10.106 -0.164839 0)
(10.1105 -0.167784 0)
(10.1194 -0.170895 0)
(10.005 -0.00896288 0)
(10.0242 -0.0144875 0)
(10.0367 -0.00928549 0)
(10.0418 0.00106573 0)
(10.0442 0.014349 0)
(10.045 0.0287194 0)
(10.0449 0.0425512 0)
(10.0445 0.0551656 0)
(10.0439 0.0664363 0)
(10.0432 0.0763946 0)
(10.0424 0.0851269 0)
(10.0414 0.0927425 0)
(10.0403 0.0993391 0)
(10.039 0.104989 0)
(10.0375 0.109716 0)
(10.035 0.113513 0)
(10.0319 0.116425 0)
(10.0228 0.119003 0)
(10.0055 -0.0480258 0)
(10.0268 -0.0880859 0)
(10.0417 -0.110826 0)
(10.0498 -0.132513 0)
(10.0548 -0.152513 0)
(10.0568 -0.169624 0)
(10.0565 -0.18409 0)
(10.0549 -0.196186 0)
(10.0526 -0.206142 0)
(10.05 -0.214281 0)
(10.047 -0.220917 0)
(10.044 -0.226298 0)
(10.0409 -0.230605 0)
(10.0378 -0.233988 0)
(10.0348 -0.236502 0)
(10.0326 -0.238165 0)
(10.0308 -0.238811 0)
(10.0359 -0.238369 0)
(10.0144 -0.000911398 0)
(10.0466 0.015776 0)
(10.0451 0.0507214 0)
(10.0306 0.0850667 0)
(10.0162 0.115052 0)
(10.0027 0.13957 0)
(9.98977 0.158655 0)
(9.97765 0.173338 0)
(9.96633 0.184744 0)
(9.95559 0.193661 0)
(9.94531 0.200615 0)
(9.93544 0.205997 0)
(9.92595 0.210088 0)
(9.91676 0.2131 0)
(9.90795 0.215133 0)
(9.89894 0.216263 0)
(9.8903 0.216282 0)
(9.87488 0.215327 0)
(10.0327 -0.124098 0)
(10.0632 -0.217275 0)
(10.0515 -0.267657 0)
(10.0252 -0.303982 0)
(9.99884 -0.327344 0)
(9.97288 -0.341621 0)
(9.94755 -0.350643 0)
(9.92371 -0.356305 0)
(9.90138 -0.359568 0)
(9.88022 -0.361067 0)
(9.86004 -0.361244 0)
(9.84075 -0.360406 0)
(9.82225 -0.358761 0)
(9.80452 -0.356492 0)
(9.78748 -0.353686 0)
(9.77152 -0.350563 0)
(9.75639 -0.34681 0)
(9.74974 -0.342177 0)
(9.86209 0.0595895 0)
(9.66861 0.235285 0)
(9.49444 0.336687 0)
(9.34893 0.379491 0)
(9.22837 0.39547 0)
(9.12136 0.400438 0)
(9.02304 0.400512 0)
(8.93233 0.398268 0)
(8.84848 0.394859 0)
(8.77072 0.390774 0)
(8.69853 0.386225 0)
(8.63149 0.381324 0)
(8.56918 0.376137 0)
(8.51119 0.370719 0)
(8.45711 0.365033 0)
(8.40636 0.359205 0)
(8.35845 0.352211 0)
(8.30858 0.344674 0)
(-0.00985852 -0.0845517 -2.83488e-19)
(0.0934505 -0.131698 1.65513e-19)
(0.173293 -0.156614 0)
(0.248669 -0.15309 0)
(0.317961 -0.144455 0)
(0.378931 -0.134326 -7.36313e-20)
(0.433025 -0.125215 0)
(0.482159 -0.11674 0)
(0.527152 -0.109248 0)
(0.568533 -0.10243 0)
(0.606525 -0.0962478 5.47626e-20)
(0.641229 -0.0905273 0)
(0.672622 -0.0851932 0)
(0.70064 -0.0801282 0)
(0.725157 -0.0752556 0)
(0.746062 -0.0704757 4.81173e-20)
(0.763152 -0.0657395 0)
(0.776496 -0.0608723 0)
(0.785686 -0.0557965 0)
(0.791002 -0.0501397 0)
(0.792014 -0.0433073 0)
(0.787295 -0.0348987 0)
(0.776801 -0.0252413 0)
(0.760019 -0.0148609 4.82007e-20)
(0.73647 -0.00449815 -4.93086e-20)
(0.706301 0.00486202 5.07854e-20)
(0.670361 0.0122428 5.26537e-20)
(0.630118 0.0170205 0)
(0.587383 0.019105 0)
(0.543981 0.0188463 -6.04406e-20)
(0.501544 0.0168017 -6.35782e-20)
(0.461124 0.0135098 0)
(0.42399 0.00903976 0)
(0.390735 0.00412016 -7.37779e-20)
(0.361668 -0.000530481 0)
(0.336943 -0.00511599 0)
(0.316577 -0.00950003 8.33488e-20)
(0.300143 -0.013454 0)
(0.286046 -0.0167688 8.83608e-20)
(0.272331 -0.0195357 1.81529e-19)
(0.257154 -0.0217361 0)
(0.238462 -0.0234454 0)
(0.214609 -0.024718 0)
(0.184772 -0.0239112 0)
(0.145563 -0.0187437 0)
(0.0956577 -0.0109357 2.7034e-19)
(0.0334299 -0.00699947 3.16354e-19)
(-0.0389287 -0.00297661 3.02695e-19)
(-0.116133 0.00490238 0)
(-0.200304 0.0111958 -1.97767e-19)
(-0.289573 0.0154277 0)
(-0.382953 0.0178233 1.42934e-19)
(-0.476905 0.0192768 1.25252e-19)
(-0.571402 0.0201586 0)
(-0.666245 0.0197905 0)
(-0.759632 0.0179556 0)
(-0.850847 0.0148149 8.52827e-20)
(-0.939108 0.0106682 0)
(-1.02387 0.00591076 0)
(-1.10505 0.000788446 0)
(-1.18268 -0.00456922 0)
(-1.25685 -0.0100316 0)
(-1.32774 -0.0154944 0)
(-1.39561 -0.0208958 0)
(-1.46074 -0.0261951 0)
(-1.5234 -0.031382 -5.608e-20)
(-1.58386 -0.036455 0)
(-1.64239 -0.0414304 0)
(-1.69921 -0.0463248 5.17168e-20)
(-1.75452 -0.0511646 5.04924e-20)
(-1.8085 -0.0559717 0)
(-1.8613 -0.060773 -4.82943e-20)
(-1.91305 -0.0655894 4.72987e-20)
(-1.96386 -0.0704444 0)
(-2.0138 -0.0753556 -4.54734e-20)
(-2.06297 -0.0803421 0)
(-2.1114 -0.0854179 0)
(-2.15915 -0.0905983 4.30634e-20)
(-2.20624 -0.0958943 0)
(-2.2527 -0.101319 -4.16261e-20)
(-2.29855 -0.106881 0)
(-2.34378 -0.11259 4.02958e-20)
(-2.38841 -0.118455 3.96648e-20)
(-2.43241 -0.124485 3.9054e-20)
(-2.47578 -0.130687 7.69233e-20)
(-2.51848 -0.137071 -7.57721e-20)
(-2.5605 -0.143641 0)
(-2.60178 -0.150411 0)
(-2.64228 -0.157387 0)
(-2.68193 -0.16458 -7.1449e-20)
(-2.72065 -0.172003 -7.04264e-20)
(-2.75836 -0.179663 6.9423e-20)
(-2.79496 -0.187569 0)
(-2.83029 -0.19573 -6.74662e-20)
(-2.86421 -0.204152 -6.65093e-20)
(-2.89651 -0.212838 -6.55647e-20)
(-2.92697 -0.221782 0)
(-2.95531 -0.230961 0)
(-2.98121 -0.240325 0)
(-3.00431 -0.249795 -6.18761e-20)
(-3.02418 -0.259257 0)
(-3.04037 -0.268545 0)
(-3.05242 -0.27736 5.91464e-20)
(-3.05973 -0.285177 0)
(-3.06175 -0.291574 0)
(-3.05974 -0.297403 5.61664e-20)
(-3.05305 -0.303252 0)
(-3.04132 -0.309556 0)
(-3.0239 -0.316616 -5.25353e-20)
(-3.00005 -0.3246 -5.11323e-20)
(-2.96889 -0.333617 0)
(-2.92942 -0.343737 4.79654e-20)
(-2.8806 -0.354993 0)
(-2.82135 -0.367396 -4.41164e-20)
(-2.75062 -0.380868 0)
(-2.66739 -0.395227 -3.93558e-20)
(-2.57086 -0.410185 -3.65538e-20)
(-2.46049 -0.425459 0)
(-2.33584 -0.441274 0)
(-2.19694 -0.458416 0)
(-2.044 -0.477388 0)
(-1.87708 -0.498018 0)
(-1.69583 -0.519915 0)
(-1.50098 -0.543597 0)
(-1.29305 -0.569279 2.59278e-21)
(-1.07294 -0.596934 -1.11607e-20)
(-0.839872 -0.628991 0)
(-0.59635 -0.664648 0)
(-0.344328 -0.699857 0)
(-0.0825851 -0.71922 0)
(0.200719 -0.700998 -1.43892e-19)
(0.513142 -0.665639 0)
(0.846584 -0.63571 1.07068e-19)
(1.19401 -0.611487 -9.26351e-20)
(1.55143 -0.589971 0)
(1.91025 -0.569736 0)
(2.26046 -0.548391 0)
(2.58978 -0.525023 4.69891e-20)
(2.88529 -0.498893 3.85857e-20)
(3.13111 -0.470111 0)
(3.3143 -0.443529 2.69755e-20)
(3.4195 -0.408215 2.48789e-20)
(3.36167 -0.322309 -2.55199e-20)
(3.12308 -0.194877 0)
(2.70644 -0.0658217 0)
(2.15902 0.0172107 -5.76857e-20)
(1.58889 0.0363217 0)
(1.12795 0.00308696 0)
(0.844782 -0.0550505 0)
(0.750651 -0.0953108 0)
(0.751052 -0.101725 1.56841e-19)
(0.692845 -0.0671298 1.68456e-19)
(0.300453 0.0224174 0)
(-0.378887 0.0394737 1.5752e-19)
(-0.907995 -0.0446499 0)
(-1.31623 -0.142009 0)
(-1.59867 -0.227602 4.76542e-20)
(-1.76409 -0.291614 0)
(-1.83563 -0.331251 3.82921e-20)
(-1.8351 -0.34989 0)
(-1.79676 -0.361351 0)
(-1.7301 -0.370774 5.6025e-20)
(-1.64485 -0.379846 0)
(-1.54397 -0.389277 8.05708e-20)
(-1.4324 -0.397847 0)
(-1.31302 -0.406114 0)
(-1.18788 -0.414562 0)
(-1.05803 -0.423532 -1.56434e-19)
(-0.924177 -0.433347 0)
(-0.786756 -0.444262 2.11208e-19)
(-0.645588 -0.456663 0)
(-0.501312 -0.47072 0)
(-0.352111 -0.487211 0)
(-0.203623 -0.504361 0)
(-0.0431848 -0.517471 0)
(0.110327 -0.512228 0)
(0.286829 -0.489927 0)
(0.435009 -0.471628 -7.98712e-19)
(0.622931 -0.457194 0)
(0.704859 -0.445206 0)
(-0.0230621 -0.203994 5.05562e-19)
(0.13004 -0.228847 -2.72616e-19)
(0.154738 -0.222114 0)
(0.198774 -0.179192 9.31062e-20)
(0.23288 -0.153526 0)
(0.268842 -0.127822 3.60882e-20)
(0.303097 -0.111641 -6.77444e-20)
(0.338565 -0.0975744 -6.43998e-20)
(0.372848 -0.0871064 0)
(0.406147 -0.0771104 -5.99432e-20)
(0.437351 -0.0678339 -2.90352e-20)
(0.466136 -0.0583134 0)
(0.492034 -0.0486718 0)
(0.514823 -0.0386353 0)
(0.534243 -0.0282926 0)
(0.550122 -0.0176728 -2.63395e-20)
(0.562457 -0.00703046 0)
(0.571429 0.00337348 5.14439e-20)
(0.577791 0.0133596 0)
(0.582001 0.0230016 0)
(0.585282 0.0332368 -5.09013e-20)
(0.58839 0.0441096 0)
(0.590256 0.0558424 5.10966e-20)
(0.589117 0.0685228 -2.55788e-20)
(0.582433 0.0817548 2.56773e-20)
(0.568013 0.0944795 -2.5754e-20)
(0.545009 0.105267 -2.57851e-20)
(0.514147 0.112852 0)
(0.477282 0.116544 0)
(0.436752 0.116365 2.53874e-20)
(0.394824 0.112882 -2.5263e-20)
(0.353413 0.106807 0)
(0.313739 0.0987875 0)
(0.276373 0.0893736 2.49049e-20)
(0.240875 0.0790029 0)
(0.206248 0.0682159 0)
(0.170577 0.0583335 -2.60798e-20)
(0.131734 0.0514594 0)
(0.0876572 0.049352 2.77882e-20)
(0.0365948 0.0525775 -5.75241e-20)
(-0.0229594 0.0610758 0)
(-0.0922402 0.0744771 0)
(-0.171875 0.0922078 -1.08258e-19)
(-0.261586 0.113369 -1.03598e-19)
(-0.359206 0.135998 -9.8784e-20)
(-0.461553 0.157828 4.72215e-20)
(-0.567608 0.177414 -4.45885e-20)
(-0.67621 0.194274 -1.28103e-19)
(-0.784604 0.207537 8.18961e-20)
(-0.89061 0.217149 3.90743e-20)
(-0.992588 0.223131 0)
(-1.08908 0.225477 -3.65372e-20)
(-1.17912 0.224916 3.61237e-20)
(-1.26185 0.222089 0)
(-1.33671 0.217393 0)
(-1.40383 0.211258 0)
(-1.46369 0.204238 -3.2675e-20)
(-1.51696 0.196844 0)
(-1.56436 0.189543 6.36014e-20)
(-1.60662 0.182655 0)
(-1.64443 0.176377 6.17161e-20)
(-1.67844 0.170815 0)
(-1.70921 0.166027 -6.01295e-20)
(-1.73725 0.162012 0)
(-1.76296 0.158746 5.87793e-20)
(-1.78669 0.156178 -2.92482e-20)
(-1.80871 0.154252 0)
(-1.82926 0.152899 -5.7083e-20)
(-1.84852 0.152062 -2.81435e-20)
(-1.86663 0.151678 -2.7909e-20)
(-1.88371 0.151699 0)
(-1.89985 0.152075 -2.77581e-20)
(-1.91514 0.15277 -2.72618e-20)
(-1.92964 0.153747 0)
(-1.94341 0.154982 2.68644e-20)
(-1.9565 0.156448 -5.36386e-20)
(-1.96896 0.158129 0)
(-1.98082 0.160007 -2.62996e-20)
(-1.99213 0.16207 0)
(-2.00292 0.164305 7.81135e-20)
(-2.01325 0.166703 0)
(-2.02314 0.169254 -7.70405e-20)
(-2.03263 0.171951 -2.53922e-20)
(-2.04178 0.174782 2.55445e-20)
(-2.05062 0.177742 5.07368e-20)
(-2.05921 0.180818 -5.03811e-20)
(-2.06759 0.184004 0)
(-2.07581 0.187284 0)
(-2.08394 0.190647 0)
(-2.09204 0.194075 1.45122e-19)
(-2.10018 0.197545 4.76946e-20)
(-2.10844 0.201035 -4.72606e-20)
(-2.11691 0.204513 0)
(-2.12569 0.207944 -4.72252e-20)
(-2.13488 0.21128 4.58475e-20)
(-2.14459 0.214463 4.53312e-20)
(-2.15495 0.217418 0)
(-2.16609 0.220057 0)
(-2.17814 0.22227 0)
(-2.19123 0.223924 4.29699e-20)
(-2.20545 0.224853 0)
(-2.22084 0.224859 -8.43966e-20)
(-2.23733 0.223749 -1.23789e-19)
(-2.2547 0.221455 8.14518e-20)
(-2.27281 0.218059 0)
(-2.28895 0.213751 3.98496e-20)
(-2.30263 0.208016 0)
(-2.31233 0.201253 7.43089e-20)
(-2.31688 0.193686 -3.70518e-20)
(-2.31525 0.185271 -3.60067e-20)
(-2.3065 0.175973 0)
(-2.28963 0.165755 -9.64359e-20)
(-2.2637 0.154632 6.235e-20)
(-2.22775 0.142629 2.82497e-20)
(-2.1809 0.129781 0)
(-2.12228 0.116091 2.4505e-20)
(-2.05107 0.101645 7.05726e-20)
(-1.96658 0.0867619 0)
(-1.86829 0.0722236 3.89746e-20)
(-1.75606 0.0584732 3.38194e-20)
(-1.62903 0.0445119 2.83467e-20)
(-1.4868 0.0313156 0)
(-1.32971 0.0187166 0)
(-1.1579 0.00636131 0)
(-0.971772 -0.00568078 -4.77698e-21)
(-0.771245 -0.0172468 4.8949e-21)
(-0.556314 -0.0293148 0)
(-0.325332 -0.0456838 1.85131e-20)
(-0.0740212 -0.0703819 2.62778e-20)
(0.206381 -0.105652 0)
(0.505862 -0.131032 4.13799e-20)
(0.811676 -0.145344 6.92993e-20)
(1.12692 -0.155095 -4.15984e-20)
(1.45257 -0.161435 -2.67728e-20)
(1.78395 -0.162043 0)
(2.11371 -0.152517 0)
(2.42978 -0.130562 0)
(2.71896 -0.095292 -2.78105e-20)
(2.96717 -0.0460483 1.38944e-20)
(3.16531 0.0168045 3.23103e-20)
(3.2976 0.100341 -1.8533e-20)
(3.37559 0.215447 8.66298e-21)
(3.46778 0.328769 1.78342e-20)
(3.53274 0.427925 0)
(3.47411 0.513639 0)
(3.19751 0.560815 -2.23827e-20)
(2.73863 0.514154 0)
(2.23229 0.384495 0)
(1.7853 0.237919 1.06309e-19)
(1.4763 0.115846 0)
(1.15881 0.117916 5.45481e-20)
(0.604303 0.309475 -6.12984e-20)
(-0.115093 0.505339 0)
(-0.649236 0.531925 4.34691e-20)
(-0.951962 0.468902 0)
(-1.12905 0.397969 0)
(-1.23439 0.336849 -2.38066e-20)
(-1.30472 0.2848 3.64392e-20)
(-1.35375 0.238217 -1.94771e-20)
(-1.38616 0.19566 0)
(-1.38353 0.16337 0)
(-1.35075 0.140321 2.21052e-20)
(-1.29359 0.124151 0)
(-1.21758 0.112418 3.149e-20)
(-1.1286 0.104333 0)
(-1.02945 0.098841 0)
(-0.922851 0.0949672 0)
(-0.810365 0.092084 6.28961e-20)
(-0.692868 0.0896784 0)
(-0.570897 0.0875932 -7.85806e-20)
(-0.444146 0.0851052 0)
(-0.313104 0.082802 0)
(-0.175075 0.0790817 2.05812e-19)
(-0.0336536 0.0749226 -2.24445e-19)
(0.119967 0.0678604 0)
(0.270788 0.0659975 0)
(0.439332 0.060112 0)
(0.591873 0.0679271 7.55085e-19)
(0.76659 0.0741437 0)
(0.908199 0.105506 -5.23629e-19)
(-0.097036 -0.35933 2.40876e-22)
(0.110316 -0.315568 3.15241e-19)
(0.0448523 -0.301758 0)
(0.105623 -0.257479 -1.48701e-19)
(0.105081 -0.253001 0)
(0.143207 -0.236409 0)
(0.16487 -0.232107 -1.19202e-22)
(0.199238 -0.220025 4.53254e-20)
(0.228339 -0.210491 4.29866e-20)
(0.260161 -0.196579 4.10462e-20)
(0.288014 -0.182444 0)
(0.314403 -0.166299 0)
(0.337344 -0.149956 -3.72113e-20)
(0.357477 -0.132695 -7.23603e-20)
(0.373801 -0.115092 7.04567e-20)
(0.38593 -0.0971047 0)
(0.393002 -0.0795342 6.73478e-20)
(0.394591 -0.0632303 -3.31246e-20)
(0.390961 -0.0489169 0)
(0.383433 -0.0365556 6.55716e-20)
(0.373319 -0.0256023 3.26821e-20)
(0.36123 -0.0131381 -6.54365e-20)
(0.347105 0.00439011 -3.26962e-20)
(0.330372 0.0294912 0)
(0.310282 0.0614972 6.58184e-20)
(0.286421 0.096198 6.61072e-20)
(0.258953 0.127887 0)
(0.228569 0.152055 6.71997e-20)
(0.196166 0.166601 0)
(0.162499 0.171626 6.91571e-20)
(0.127944 0.168559 3.50685e-20)
(0.0923193 0.159511 0)
(0.0547568 0.147168 0)
(0.0138181 0.134703 0)
(-0.0323014 0.125154 0)
(-0.0854406 0.120818 0)
(-0.147141 0.123076 0)
(-0.218103 0.132346 6.89009e-20)
(-0.298013 0.148137 -1.00023e-19)
(-0.385759 0.169294 0)
(-0.479828 0.19445 0)
(-0.578118 0.221939 0)
(-0.678297 0.25003 -1.65881e-22)
(-0.777942 0.276897 5.56401e-20)
(-0.87453 0.300576 1.07988e-19)
(-0.965919 0.319316 -1.04907e-19)
(-1.0507 0.331726 -5.12599e-20)
(-1.12764 0.337201 4.97413e-20)
(-1.19638 0.336209 3.78059e-22)
(-1.25683 0.329519 4.82126e-20)
(-1.30907 0.31771 0)
(-1.35373 0.301783 4.66651e-20)
(-1.39167 0.282943 3.94351e-22)
(-1.42378 0.262303 0)
(-1.45111 0.240796 0)
(-1.4748 0.21925 -4.4044e-20)
(-1.49588 0.198341 0)
(-1.51526 0.178567 0)
(-1.53364 0.16025 4.25228e-20)
(-1.55153 0.14353 8.34417e-20)
(-1.56933 0.128418 -4.09832e-20)
(-1.58728 0.11484 0)
(-1.60555 0.102675 4.00262e-20)
(-1.62424 0.0917696 0)
(-1.64339 0.0819646 3.94633e-20)
(-1.66303 0.0730995 3.87276e-20)
(-1.68316 0.0650271 -7.6949e-20)
(-1.70375 0.0576122 -3.82279e-20)
(-1.72479 0.0507385 0)
(-1.74626 0.0443037 7.46747e-20)
(-1.76815 0.0382235 0)
(-1.79044 0.0324253 1.09751e-19)
(-1.81312 0.0268509 7.25778e-20)
(-1.83617 0.0214506 7.1906e-20)
(-1.85958 0.0161856 -7.12443e-20)
(-1.88334 0.0110225 1.05738e-19)
(-1.90744 0.00593587 0)
(-1.93187 0.000903432 0)
(-1.95661 -0.00409142 -6.86731e-20)
(-1.98165 -0.00906357 -1.01904e-19)
(-2.00698 -0.0140231 0)
(-2.03258 -0.0189796 3.3229e-20)
(-2.05842 -0.0239386 0)
(-2.08449 -0.0289056 -9.8164e-20)
(-2.11077 -0.0338817 3.65557e-22)
(-2.13721 -0.0388694 -3.75069e-22)
(-2.16379 -0.0438669 6.37179e-20)
(-2.19046 -0.0488744 0)
(-2.21719 -0.0538892 -6.24882e-20)
(-2.24391 -0.0589097 4.17294e-22)
(-2.27057 -0.0639312 0)
(-2.2971 -0.0689468 0)
(-2.32342 -0.0739482 0)
(-2.34942 -0.0789269 5.88983e-20)
(-2.37499 -0.0838737 0)
(-2.4 -0.0887799 0)
(-2.42428 -0.0936362 0)
(-2.44764 -0.0984347 0)
(-2.46985 -0.10317 0)
(-2.49064 -0.107845 5.53679e-20)
(-2.5097 -0.112482 0)
(-2.52666 -0.117162 5.33034e-20)
(-2.54107 -0.122022 5.25156e-20)
(-2.55231 -0.127247 -5.16904e-20)
(-2.55975 -0.133119 0)
(-2.56274 -0.139654 -4.99275e-20)
(-2.56061 -0.146749 0)
(-2.55341 -0.155335 -4.7712e-20)
(-2.54064 -0.16556 4.64461e-20)
(-2.5216 -0.177469 1.37098e-19)
(-2.49546 -0.191121 0)
(-2.4613 -0.206564 1.27804e-19)
(-2.41813 -0.223792 4.22527e-20)
(-2.36495 -0.242727 0)
(-2.30071 -0.263217 7.40229e-20)
(-2.22444 -0.285051 6.92211e-20)
(-2.13524 -0.307922 -9.46303e-20)
(-2.03239 -0.33144 0)
(-1.91496 -0.355388 -2.46172e-20)
(-1.78197 -0.379887 -2.12631e-20)
(-1.63359 -0.404423 -5.62396e-20)
(-1.47003 -0.42832 0)
(-1.29121 -0.451204 0)
(-1.09762 -0.472901 0)
(-0.889846 -0.493158 -5.91467e-21)
(-0.667664 -0.512067 0)
(-0.430879 -0.529879 0)
(-0.179894 -0.547828 -1.06229e-20)
(0.0845952 -0.566914 -1.44946e-20)
(0.360625 -0.588773 0)
(0.647453 -0.614392 0)
(0.946869 -0.638836 -4.13884e-20)
(1.25936 -0.658506 0)
(1.58242 -0.671319 4.28452e-20)
(1.91009 -0.673606 3.7509e-20)
(2.2339 -0.66065 0)
(2.5423 -0.62881 0)
(2.82165 -0.577283 -2.78346e-20)
(3.05886 -0.507207 -3.74389e-21)
(3.24375 -0.420395 -3.77106e-21)
(3.36489 -0.331278 0)
(3.4064 -0.251122 -3.56107e-20)
(3.3811 -0.129835 0)
(3.34214 0.0794992 0)
(3.29626 0.365326 0)
(3.16455 0.622068 3.95772e-20)
(2.86568 0.722689 0)
(2.39122 0.649408 -1.17838e-19)
(1.91227 0.460269 -6.82333e-20)
(1.45641 0.334922 0)
(0.790141 0.474477 -7.31712e-20)
(0.0206543 0.728396 0)
(-0.532995 0.775078 0)
(-0.877323 0.619775 -1.45132e-19)
(-1.14111 0.411593 7.34223e-20)
(-1.35943 0.232457 0)
(-1.52644 0.0954644 4.3379e-20)
(-1.63539 -0.00479445 -2.07189e-20)
(-1.68732 -0.0768683 0)
(-1.69053 -0.127903 0)
(-1.65669 -0.166572 0)
(-1.5956 -0.196056 -8.09603e-20)
(-1.51343 -0.217922 0)
(-1.41647 -0.23347 -3.91045e-20)
(-1.30819 -0.244279 0)
(-1.19107 -0.251635 0)
(-1.06708 -0.256722 0)
(-0.937464 -0.260368 0)
(-0.802837 -0.263244 0)
(-0.663609 -0.265574 0)
(-0.519425 -0.267974 -1.80634e-19)
(-0.371317 -0.269982 0)
(-0.216812 -0.272428 -1.10509e-19)
(-0.0613435 -0.274501 3.54566e-19)
(0.103541 -0.278576 0)
(0.262798 -0.280262 0)
(0.434234 -0.283034 -2.66867e-19)
(0.588355 -0.277043 -2.79191e-19)
(0.766851 -0.274792 2.83946e-19)
(0.913698 -0.253944 3.00065e-19)
(-0.161212 -0.411799 -7.34783e-19)
(0.0975893 -0.313426 -4.31199e-19)
(-0.0337399 -0.320888 -1.72661e-19)
(0.0514415 -0.27689 -6.42283e-20)
(0.00994065 -0.268928 0)
(0.0496477 -0.251385 8.96447e-20)
(0.0376386 -0.247371 -4.02022e-20)
(0.0612529 -0.236875 0)
(0.0646434 -0.226987 -3.47632e-20)
(0.0824128 -0.209472 0)
(0.0912069 -0.190723 6.36841e-20)
(0.104561 -0.169275 0)
(0.112928 -0.147265 2.98507e-20)
(0.121963 -0.123178 5.82165e-20)
(0.127546 -0.0970745 -5.69639e-20)
(0.131683 -0.0682777 0)
(0.132115 -0.0377756 -5.52009e-20)
(0.129302 -0.00762784 0)
(0.121448 0.0183107 0)
(0.108793 0.0385916 -5.47265e-20)
(0.0909489 0.0556317 0)
(0.0682988 0.0726671 -1.17384e-22)
(0.0415664 0.0922111 0)
(0.0126415 0.11567 0)
(-0.0164287 0.14228 1.44908e-22)
(-0.0438875 0.169153 -5.69088e-20)
(-0.0693063 0.192638 -5.69603e-20)
(-0.0933987 0.209962 -5.67089e-20)
(-0.117807 0.220154 0)
(-0.144586 0.224098 -1.13238e-19)
(-0.175927 0.224004 0)
(-0.213926 0.222686 -5.60099e-20)
(-0.260306 0.222847 0)
(-0.31603 0.226478 0)
(-0.381074 0.234564 5.3121e-20)
(-0.45448 0.247214 0)
(-0.534514 0.26396 -5.03622e-20)
(-0.61901 0.283978 1.54936e-22)
(-0.705465 0.306207 9.51177e-20)
(-0.791403 0.32934 -9.27647e-20)
(-0.8745 0.352017 0)
(-0.952572 0.372904 0)
(-1.02384 0.390722 -4.30099e-20)
(-1.0868 0.404305 0)
(-1.14053 0.412745 -4.05225e-20)
(-1.18499 0.415522 3.96079e-20)
(-1.22067 0.412504 3.88112e-20)
(-1.2485 0.40416 0)
(-1.26975 0.391366 -3.74585e-20)
(-1.28577 0.374995 -3.68772e-20)
(-1.29801 0.35614 7.32976e-20)
(-1.30794 0.33595 -3.58367e-20)
(-1.31684 0.315477 -3.53461e-20)
(-1.32574 0.295572 0)
(-1.33544 0.276848 0)
(-1.34649 0.259695 3.39437e-20)
(-1.35917 0.24432 0)
(-1.37361 0.23078 0)
(-1.38974 0.219031 -6.53298e-20)
(-1.40743 0.208958 -6.45317e-20)
(-1.42648 0.200406 0)
(-1.44669 0.193206 0)
(-1.46788 0.187195 0)
(-1.48984 0.182216 0)
(-1.51244 0.17813 -6.09865e-20)
(-1.53552 0.174813 6.06939e-20)
(-1.55899 0.172157 5.97584e-20)
(-1.58275 0.170069 1.1868e-19)
(-1.60673 0.168469 0)
(-1.63088 0.16729 3.23941e-22)
(-1.65514 0.166476 0)