# vtk DataFile Version 2.0
track0
ASCII
DATASET POLYDATA
POINTS 11249 double
-0.0205 0.001 1e-05
-0.0202034 0.00100002 1e-05
-0.0199069 0.00100023 1e-05
-0.0196103 0.00100066 1e-05
-0.0193137 0.0010013 1e-05
-0.0190172 0.00100215 1e-05
-0.0187132 0.00100341 1e-05
-0.0184093 0.00100432 1e-05
-0.0181054 0.00100523 1e-05
-0.0178015 0.00100615 1e-05
-0.0174976 0.00100706 1e-05
-0.0172058 0.00100824 1e-05
-0.016914 0.00100896 1e-05
-0.0166222 0.00100963 1e-05
-0.0163305 0.00101026 1e-05
-0.0160387 0.00101084 1e-05
-0.0157586 0.00101169 1e-05
-0.0154784 0.00101211 1e-05
-0.0151983 0.00101249 1e-05
-0.0149182 0.00101284 1e-05
-0.0146381 0.00101315 1e-05
-0.0143692 0.00101377 1e-05
-0.0141002 0.00101397 1e-05
-0.0138313 0.00101415 1e-05
-0.0135624 0.00101431 1e-05
-0.0132934 0.00101443 1e-05
-0.0130353 0.00101488 1e-05
-0.0127771 0.00101493 1e-05
-0.0125189 0.00101497 1e-05
-0.0122607 0.00101499 1e-05
-0.0120025 0.00101498 1e-05
-0.0117547 0.00101531 1e-05
-0.0115068 0.00101526 1e-05
-0.0112589 0.0010152 1e-05
-0.0110111 0.00101512 1e-05
-0.0107632 0.00101503 1e-05
-0.0105252 0.00101528 1e-05
-0.0102873 0.00101516 1e-05
-0.0100493 0.00101502 1e-05
-0.00981133 0.00101488 1e-05
-0.00957337 0.00101472 1e-05
-0.00934491 0.00101492 1e-05
-0.00911645 0.00101474 1e-05
-0.008888 0.00101454 1e-05
-0.00865954 0.00101434 1e-05
-0.00843108 0.00101412 1e-05
-0.00821175 0.00101429 1e-05
-0.00799242 0.00101406 1e-05
-0.00777309 0.00101381 1e-05
-0.00755376 0.00101356 1e-05
-0.00733443 0.00101329 1e-05
-0.00712387 0.00101343 1e-05
-0.0069133 0.00101315 1e-05
-0.00670273 0.00101286 1e-05
-0.00649217 0.00101256 1e-05
-0.0062816 0.00101225 1e-05
-0.00607944 0.00101236 1e-05
-0.00587729 0.00101204 1e-05
-0.00567514 0.00101171 1e-05
-0.00547298 0.00101137 1e-05
-0.00527083 0.00101101 1e-05
-0.00507675 0.00101111 1e-05
-0.00488268 0.00101075 1e-05
-0.0046886 0.00101037 1e-05
-0.00449452 0.00100999 1e-05
-0.00430044 0.00100958 1e-05
-0.00411412 0.00100966 1e-05
-0.0039278 0.00100925 1e-05
-0.00374147 0.00100883 1e-05
-0.00355515 0.00100839 1e-05
-0.00336883 0.00100794 1e-05
-0.00318995 0.00100799 1e-05
-0.00301107 0.00100753 1e-05
-0.00283219 0.00100705 1e-05
-0.00265331 0.00100655 1e-05
-0.00247443 0.00100603 1e-05
-0.0023027 0.00100605 1e-05
-0.00213097 0.00100552 1e-05
-0.00195924 0.00100496 1e-05
-0.00178751 0.00100438 1e-05
-0.00161577 0.00100378 1e-05
-0.0014509 0.00100375 1e-05
-0.00128603 0.00100312 1e-05
-0.00112116 0.00100246 1e-05
-0.000956293 0.00100176 1e-05
-0.000791418 0.00100102 1e-05
-0.000633135 0.00100089 1e-05
-0.000474853 0.0010001 1e-05
-0.000316571 0.000999265 1e-05
-0.00015829 0.000998391 1e-05
0 0.000997474 1e-05
0.000105677 0.000997303 1e-05
0.000211353 0.000996643 1e-05
0.000317028 0.000995955 1e-05
0.000422704 0.00099524 1e-05
0.000528387 0.000994496 1e-05
0.000634886 0.000994319 1e-05
0.000741383 0.000993556 1e-05
0.000847879 0.000992774 1e-05
0.000954375 0.000991974 1e-05
0.00106088 0.000991155 1e-05
0.00116821 0.000991008 1e-05
0.00127553 0.000990194 1e-05
0.00138286 0.000989363 1e-05
0.00149018 0.000988515 1e-05
0.00159752 0.00098765 1e-05
0.00170568 0.00098753 1e-05
0.00181384 0.000986691 1e-05
0.001922 0.000985836 1e-05
0.00203015 0.000984966 1e-05
0.00213833 0.000984079 1e-05
0.00224733 0.000983984 1e-05
0.00235633 0.000983141 1e-05
0.00246533 0.000982282 1e-05
0.00257433 0.000981408 1e-05
0.00268334 0.000980517 1e-05
0.00279319 0.000980439 1e-05
0.00290303 0.000979627 1e-05
0.00301288 0.00097877 1e-05
0.00312273 0.000977895 1e-05
0.00323259 0.000977092 1e-05
0.00334329 0.000977017 1e-05
0.00345399 0.000976286 1e-05
0.00356469 0.000975431 1e-05
0.00367539 0.000974559 1e-05
0.00378611 0.000973827 1e-05
0.00389767 0.000973744 1e-05
0.00400923 0.000973073 1e-05
0.0041208 0.00097222 1e-05
0.00423236 0.000971349 1e-05
0.00434393 0.000970669 1e-05
0.00445636 0.00097057 1e-05
0.00456879 0.000969941 1e-05
0.00468122 0.000969086 1e-05
0.00479365 0.000968212 1e-05
0.00490609 0.000967569 1e-05
0.0050194 0.000967445 1e-05
0.0051327 0.000966842 1e-05
0.005246 0.000965978 1e-05
0.00535931 0.000965096 1e-05
0.00547262 0.000964474 1e-05
0.00558681 0.000964317 1e-05
0.00570099 0.000963726 1e-05
0.00581518 0.000962849 1e-05
0.00592936 0.000961953 1e-05
0.00604356 0.000961339 1e-05
0.00615863 0.000961145 1e-05
0.00627371 0.000960555 1e-05
0.00638878 0.00095966 1e-05
0.00650385 0.000958747 1e-05
0.00661893 0.000958132 1e-05
0.0067349 0.000957895 1e-05
0.00685087 0.000957298 1e-05
0.00696683 0.000956383 1e-05
0.0070828 0.000955449 1e-05
0.00719878 0.000954825 1e-05
0.00731565 0.000954542 1e-05
0.00743252 0.000953931 1e-05
0.00754939 0.000952995 1e-05
0.00766625 0.000952048 1e-05
0.00778313 0.000951408 1e-05
0.00790091 0.000951077 1e-05
0.00801869 0.000950445 1e-05
0.00813647 0.000949517 1e-05
0.00825425 0.000948577 1e-05
0.00837203 0.000947916 1e-05
0.00849073 0.000947534 1e-05
0.00860942 0.000946877 1e-05
0.00872812 0.000945949 1e-05
0.00884681 0.000945009 1e-05
0.00896551 0.000944322 1e-05
0.00908513 0.000943887 1e-05
0.00920475 0.000943201 1e-05
0.00932436 0.000942267 1e-05
0.00944398 0.00094132 1e-05
0.0095636 0.000940603 1e-05
0.00968415 0.000940115 1e-05
0.0098047 0.000939396 1e-05
0.00992524 0.000938449 1e-05
0.0100458 0.000937491 1e-05
0.0101663 0.00093674 1e-05
0.0102878 0.000936197 1e-05
0.0104093 0.000935442 1e-05
0.0105308 0.000934478 1e-05
0.0106523 0.000933503 1e-05
0.0107738 0.000932716 1e-05
0.0108962 0.000932117 1e-05
0.0110186 0.000931324 1e-05
0.0111411 0.000930339 1e-05
0.0112635 0.000929342 1e-05
0.0113859 0.000928517 1e-05
0.0115093 0.000927862 1e-05
0.0116327 0.000927028 1e-05
0.0117561 0.000926017 1e-05
0.0118794 0.000924996 1e-05
0.0120028 0.00092413 1e-05
0.0121272 0.000923418 1e-05
0.0122515 0.000922541 1e-05
0.0123759 0.000921502 1e-05
0.0125002 0.000920452 1e-05
0.0126245 0.000919543 1e-05
0.0127498 0.000918773 1e-05
0.0128752 0.000917852 1e-05
0.0130005 0.000916794 1e-05
0.0131258 0.00091573 1e-05
0.0132511 0.000914777 1e-05
0.0133774 0.000913949 1e-05
0.0135036 0.000912982 1e-05
0.0136299 0.000911905 1e-05
0.0137562 0.000910821 1e-05
0.0138825 0.000909823 1e-05
0.0140098 0.000908937 1e-05
0.014137 0.000907922 1e-05
0.0142643 0.000906821 1e-05
0.0143915 0.000905713 1e-05
0.0145188 0.000904668 1e-05
0.0146471 0.000903723 1e-05
0.0147753 0.00090266 1e-05
0.0149036 0.000901531 1e-05
0.0150318 0.000900395 1e-05
0.0151601 0.000899302 1e-05
0.0152893 0.000898299 1e-05
0.0154186 0.000897187 1e-05
0.0155478 0.000896026 1e-05
0.0156771 0.000894859 1e-05
0.0158063 0.000893716 1e-05
0.0159366 0.000892655 1e-05
0.0160668 0.000891493 1e-05
0.0161971 0.000890298 1e-05
0.0163273 0.000889096 1e-05
0.0164576 0.000887904 1e-05
0.0165889 0.000886785 1e-05
0.0167201 0.000885572 1e-05
0.0168514 0.00088434 1e-05
0.0169827 0.0008831 1e-05
0.0171139 0.000881859 1e-05
0.0172462 0.000880682 1e-05
0.0173785 0.000879417 1e-05
0.0175108 0.000878146 1e-05
0.0176431 0.000876866 1e-05
0.0177754 0.00087558 1e-05
0.0179087 0.000874345 1e-05
0.018042 0.000873038 1e-05
0.0181753 0.000871724 1e-05
0.0183087 0.000870403 1e-05
0.018442 0.000869074 1e-05
0.0185763 0.000867781 1e-05
0.0187107 0.000866431 1e-05
0.018845 0.000865073 1e-05
0.0189794 0.000863708 1e-05
0.0191137 0.000862335 1e-05
0.0192491 0.000860984 1e-05
0.0193845 0.000859588 1e-05
0.0195199 0.000858184 1e-05
0.0196553 0.000856773 1e-05
0.0197907 0.000855354 1e-05
0.0199272 0.000853945 1e-05
0.0200636 0.000852502 1e-05
0.0202001 0.000851051 1e-05
0.0203365 0.000849593 1e-05
0.020473 0.000848127 1e-05
0.0206105 0.00084666 1e-05
0.020748 0.000845169 1e-05
0.0208855 0.00084367 1e-05
0.021023 0.000842163 1e-05
0.0211606 0.000840649 1e-05
0.0212991 0.000839124 1e-05
0.0214377 0.000837583 1e-05
0.0215763 0.000836035 1e-05
0.0217149 0.000834479 1e-05
0.0218535 0.000832916 1e-05
0.021884 0.00083257 1e-05
0.0219145 0.000832224 1e-05
0.021945 0.000831877 1e-05
0.0219755 0.000831531 1e-05
0.0220057 0.000831186 1e-05
0.0221149 0.000829942 1e-05
0.0222241 0.000828693 1e-05
0.0223333 0.000827439 1e-05
0.0224425 0.000826181 1e-05
0.0225517 0.000824918 1e-05
0.0226925 0.000823281 1e-05
0.0228332 0.000821639 1e-05
0.022974 0.000819989 1e-05
0.0231147 0.000818331 1e-05
0.0232555 0.000816666 1e-05
0.0233973 0.000814972 1e-05
0.0235391 0.000813277 1e-05
0.023681 0.000811574 1e-05
0.0238228 0.000809864 1e-05
0.0239647 0.000808145 1e-05
0.0241076 0.000806395 1e-05
0.0242505 0.000804647 1e-05
0.0243935 0.000802892 1e-05
0.0245364 0.000801129 1e-05
0.0246794 0.000799358 1e-05
0.0248234 0.000797556 1e-05
0.0249675 0.000795756 1e-05
0.0251115 0.000793949 1e-05
0.0252556 0.000792135 1e-05
0.0253996 0.000790312 1e-05
0.0255448 0.000788455 1e-05
0.02569 0.000786601 1e-05
0.0258351 0.000784739 1e-05
0.0259803 0.000782869 1e-05
0.0261255 0.00078099 1e-05
0.0262718 0.000779075 1e-05
0.0264181 0.000777164 1e-05
0.0265644 0.000775244 1e-05
0.0267107 0.000773315 1e-05
0.026857 0.000771376 1e-05
0.0270044 0.000769402 1e-05
0.0271519 0.00076743 1e-05
0.0272993 0.00076545 1e-05
0.0274468 0.000763461 1e-05
0.0275942 0.000761462 1e-05
0.0277428 0.000759429 1e-05
0.0278914 0.000757396 1e-05
0.0280399 0.000755356 1e-05
0.0281885 0.000753308 1e-05
0.0283371 0.000751248 1e-05
0.0284869 0.000749157 1e-05
0.0286366 0.000747064 1e-05
0.0287863 0.000744965 1e-05
0.0289361 0.000742857 1e-05
0.0290858 0.000740738 1e-05
0.0292367 0.00073859 1e-05
0.0293876 0.000736437 1e-05
0.0295385 0.000734279 1e-05
0.0296894 0.000732113 1e-05
0.0298403 0.000729935 1e-05
0.0299924 0.00072773 1e-05
0.0301445 0.000725519 1e-05
0.0302966 0.000723302 1e-05
0.0304486 0.000721076 1e-05
0.0306007 0.000718841 1e-05
0.030754 0.000716578 1e-05
0.0309072 0.000714309 1e-05
0.0310605 0.000712033 1e-05
0.0312138 0.000709748 1e-05
0.031367 0.000707455 1e-05
0.0315215 0.000705135 1e-05
0.0316759 0.000702808 1e-05
0.0318304 0.000700472 1e-05
0.0319848 0.000698128 1e-05
0.0321393 0.000695776 1e-05
0.0322949 0.000693399 1e-05
0.0324506 0.000691012 1e-05
0.0326062 0.000688616 1e-05
0.0327619 0.000686212 1e-05
0.0329175 0.000683801 1e-05
[...]
POINT_DATA 11249
 FIELD attributes 1
U 3 11249 float
10.0023 	0.000538649 	0 10.008 	0.0073277 	0 10.0136 	0.0144268 	0 10.0192 	0.0215427 	0 10.0248 	0.0286754 	0 10.0314 	0.0416966 	0 10.035 	0.0301229 	0 10.038 	0.0301149 	0 10.041 	0.0301067 	0 10.044 	0.0300984 	0 10.0461 	0.0407424 	0 10.0442 	0.0247141 	0 10.043 	0.0231528 	0 10.0419 	0.0215678 	0 10.0408 	0.019959 	0 10.0394 	0.0307674 	0 10.0361 	0.0148629 	0 10.0339 	0.0136808 	0 10.0316 	0.0124762 	0 10.0294 	0.0112488 	0 10.0272 	0.0230306 	0 10.024 	0.00757305 	0 10.0216 	0.00665423 	0 10.0192 	0.00571529 	0 10.0168 	0.0047558 	0 10.0144 	0.0172742 	0 10.0113 	0.00209795 	0 10.0088 	0.00138506 	0 10.0062 	0.000655179 	0 10.0036 	-9.2096e-05 	0 10.001 	0.0132589 	0 9.99812 	-0.00200563 	0 9.99553 	-0.00256544 	0 9.99293 	-0.00313923 	0 9.99034 	-0.00372736 	0 9.9876 	0.0106231 	0 9.98495 	-0.00517433 	0 9.98242 	-0.00567168 	0 9.97989 	-0.00618174 	0 9.97736 	-0.00670485 	0 9.97451 	0.00879311 	0 9.97216 	-0.007911 	0 9.96972 	-0.00840206 	0 9.96727 	-0.00890577 	0 9.96482 	-0.00942246 	0 9.96184 	0.00741269 	0 9.95981 	-0.0105091 	0 9.95744 	-0.011014 	0 9.95507 	-0.0115318 	0 9.9527 	-0.012063 	0 9.94956 	0.00634062 	0 9.94789 	-0.0130796 	0 9.94564 	-0.0136079 	0 9.94337 	-0.0141497 	0 9.94111 	-0.0147051 	0 9.93779 	0.00550019 	0 9.93655 	-0.0156945 	0 9.93442 	-0.0162646 	0 9.93228 	-0.016849 	0 9.93014 	-0.0174479 	0 9.92662 	0.00477891 	0 9.92586 	-0.0184736 	0 9.92388 	-0.0191285 	0 9.9219 	-0.0197994 	0 9.91991 	-0.0204866 	0 9.91618 	0.00395789 	0 9.91598 	-0.0216646 	0 9.91415 	-0.0224509 	0 9.91232 	-0.0232559 	0 9.91048 	-0.0240799 	0 9.90644 	0.0028299 	0 9.90683 	-0.0255303 	0 9.90516 	-0.0265518 	0 9.90349 	-0.0275968 	0 9.90181 	-0.0286658 	0 9.89743 	0.000944003 	0 9.89853 	-0.0306712 	0 9.89703 	-0.0320062 	0 9.89551 	-0.0333709 	0 9.89399 	-0.034766 	0 9.88914 	-0.00200421 	0 9.89077 	-0.0376294 	0 9.88908 	-0.0397846 	0 9.88737 	-0.0419861 	0 9.88565 	-0.0442348 	0 9.87972 	-0.00833031 	0 9.88122 	-0.0492955 	1.53548e-21 9.87929 	-0.0518803 	3.88677e-21 9.87735 	-0.05452 	6.23671e-21 9.87539 	-0.057216 	8.58526e-21 9.86882 	-0.0159705 	1.03411e-20 9.87084 	-0.0616842 	-5.10352e-21 9.8688 	-0.0642227 	-8.96612e-21 9.86675 	-0.0667971 	-1.28412e-20 9.86468 	-0.0694081 	-1.67288e-20 9.8563 	-0.016419 	-9.24133e-22 9.86152 	-0.0706445 	-3.2305e-21 9.85971 	-0.0723493 	-5.42575e-21 9.8579 	-0.0740773 	-7.61995e-21 9.85607 	-0.075829 	-9.81308e-21 9.84417 	-0.0134783 	-1.11914e-20 9.85416 	-0.0747056 	-9.82059e-21 9.85237 	-0.0762588 	-6.79765e-21 9.85056 	-0.0778322 	-3.77405e-21 9.84875 	-0.079426 	-7.4976e-22 9.83104 	-0.0108929 	-3.99735e-21 9.84649 	-0.0763664 	-2.06982e-21 9.84442 	-0.0777831 	-1.16019e-20 9.84234 	-0.079217 	-2.11319e-20 9.84026 	-0.0806681 	-3.06598e-20 9.81521 	-0.00852403 	-3.91789e-20 9.83688 	-0.0761045 	-5.84407e-20 9.83457 	-0.0774941 	-5.29738e-20 9.83225 	-0.0788991 	-4.75104e-20 9.82992 	-0.0803197 	-4.20505e-20 9.79679 	-0.00695632 	-1.15711e-20 9.82432 	-0.0726108 	-1.13148e-20 9.82297 	-0.0766763 	-3.02456e-21 9.8204 	-0.0781511 	5.60509e-21 9.81365 	-0.0717613 	1.44095e-20 9.7758 	-0.00659513 	2.45192e-20 9.80644 	-0.0648157 	7.59243e-20 9.80907 	-0.0757231 	8.17104e-20 9.80615 	-0.0772422 	7.84445e-20 9.79393 	-0.0648049 	6.26604e-20 9.7518 	-0.00718408 	6.34315e-21 9.78515 	-0.0588879 	-6.03161e-20 9.79238 	-0.0748919 	-8.39582e-20 9.78908 	-0.0764338 	-9.01811e-20 9.77069 	-0.0595095 	-7.51168e-20 9.72473 	-0.00853942 	-2.08262e-20 9.76044 	-0.0545964 	-1.33403e-20 9.77278 	-0.0743701 	-1.65469e-20 9.76909 	-0.075937 	-2.71607e-20 9.74401 	-0.0557466 	-4.20242e-20 9.69465 	-0.0105914 	-6.18007e-20 9.73238 	-0.0517808 	-7.26712e-20 9.75026 	-0.0743176 	-7.5655e-20 9.74616 	-0.0759031 	-6.98293e-20 9.71398 	-0.0533546 	-5.58789e-20 9.66168 	-0.0132367 	-3.60488e-20 9.70111 	-0.0501915 	-2.4462e-20 9.72488 	-0.0747063 	-1.33439e-20 9.72036 	-0.0762831 	-3.14406e-21 9.68081 	-0.0520476 	-1.84773e-21 9.62598 	-0.0162867 	-4.50936e-21 9.66678 	-0.0495182 	-1.95343e-21 9.69668 	-0.0753936 	0 9.69176 	-0.076944 	0 9.64469 	-0.0515563 	-2.15047e-21 9.58774 	-0.0196006 	-4.81349e-21 9.62961 	-0.0495375 	-2.25771e-21 9.66581 	-0.0762844 	-1.10165e-21 9.6605 	-0.077802 	-1.08566e-20 9.60588 	-0.0517022 	-1.97033e-20 9.54723 	-0.0231026 	-2.85133e-20 9.58988 	-0.0501194 	-5.08682e-20 9.63211 	-0.0771592 	-7.31768e-20 9.62506 	-0.0779804 	-7.4843e-20 9.5647 	-0.0523755 	-6.15931e-20 9.50475 	-0.0267459 	-4.83613e-20 9.54789 	-0.0511627 	-9.19685e-20 9.59063 	-0.0756007 	-1.35556e-19 9.5828 	-0.0764426 	-1.21593e-19 9.52152 	-0.0534674 	-6.02555e-20 9.46062 	-0.03047 	1.12208e-21 9.50401 	-0.0525599 	1.65008e-21 9.54702 	-0.0746694 	2.14459e-21 9.53851 	-0.0755144 	4.49528e-21 9.47662 	-0.0548782 	1.05181e-20 9.41509 	-0.0342219 	1.65609e-20 9.45848 	-0.0542282 	1.02674e-20 9.50151 	-0.0742525 	3.95456e-21 9.49241 	-0.0750894 	-9.86769e-22 9.43022 	-0.0565386 	-3.61318e-21 9.36836 	-0.0379697 	-6.23251e-21 9.41153 	-0.0561105 	-3.72987e-21 9.45436 	-0.0742677 	-1.23458e-21 9.44477 	-0.0750899 	-3.03469e-21 9.38254 	-0.0583992 	-9.05812e-21 9.32063 	-0.0416922 	-1.5098e-20 9.36339 	-0.0581587 	-8.79307e-21 9.40584 	-0.0746402 	-2.47209e-21 9.39585 	-0.0754425 	-8.63035e-21 9.33384 	-0.0604147 	-2.70935e-20 9.27211 	-0.0453724 	-4.55695e-20 9.3143 	-0.0603331 	-1.20567e-19 9.35619 	-0.0753074 	-1.95552e-19 9.3459 	-0.0760858 	-1.94194e-19 9.28431 	-0.0625494 	-1.12774e-19 9.22298 	-0.049 	-3.1344e-20 9.26445 	-0.0626059 	-1.90252e-20 9.30564 	-0.0762243 	-6.70976e-21 9.29514 	-0.076976 	0 9.23415 	-0.0647775 	0 9.17341 	-0.0525673 	0 9.21404 	-0.0649548 	0 9.25441 	-0.0773537 	0 9.24379 	-0.0780771 	0 9.18355 	-0.067078 	0 9.12354 	-0.0560683 	0 9.16323 	-0.0673612 	0 9.19783 	-0.0776288 	6.65673e-22 9.18593 	-0.0780299 	7.68049e-21 9.13269 	-0.0694294 	1.92397e-20 9.07354 	-0.0594943 	3.14673e-20 9.11221 	-0.0697999 	1.1193e-19 9.13968 	-0.0779378 	1.74318e-19 9.12796 	-0.0783425 	1.72432e-19 9.08172 	-0.0718072 	1.12305e-19 9.02354 	-0.0628354 	3.17774e-20 9.06112 	-0.072249 	1.96448e-20 9.08163 	-0.0785546 	1.20485e-20 9.07007 	-0.0789599 	1.30456e-20 9.03073 	-0.0741907 	1.89377e-20 8.97361 	-0.0660836 	2.79784e-20 9.01004 	-0.0746905 	7.99507e-20 9.02382 	-0.0794218 	1.04339e-19 9.01242 	-0.079825 	9.79502e-20 8.97984 	-0.0765635 	6.69544e-20 8.92385 	-0.0692335 	8.66053e-21 8.9591 	-0.0771118 	-5.40633e-20 8.96637 	-0.0804934 	-8.84003e-20 8.95514 	-0.0808927 	-1.0392e-19 8.92915 	-0.0789142 	-1.00808e-19 8.87434 	-0.0722818 	-6.1241e-20 8.90838 	-0.0795027 	-1.31691e-19 8.90942 	-0.0817299 	-1.45576e-19 8.89835 	-0.0821241 	-1.38699e-19 8.87874 	-0.0812348 	-1.17819e-19 8.82516 	-0.0752294 	-4.11446e-20 8.85799 	-0.0818579 	-2.70136e-20 8.85307 	-0.0831009 	-1.7354e-20 8.84216 	-0.0834904 	-8.40339e-21 8.82871 	-0.0835239 	0 8.77639 	-0.0780829 	0 8.80799 	-0.0841782 	0 8.7974 	-0.0845842 	2.31001e-21 8.78665 	-0.0849699 	4.62842e-21 8.77588 	-0.0853557 	6.94702e-21 8.72809 	-0.0808497 	9.27352e-21 8.75312 	-0.0857783 	7.38621e-21 8.74254 	-0.0861607 	7.50982e-21 8.73194 	-0.0865431 	7.63381e-21 8.72133 	-0.0869255 	7.75819e-21 8.68034 	-0.0835341 	9.59511e-21 8.69897 	-0.0874323 	9.23382e-21 8.68853 	-0.0878111 	1.38957e-20 8.67808 	-0.0881899 	1.85583e-20 8.66762 	-0.0885688 	2.32217e-20 8.63317 	-0.0861389 	3.22593e-20 8.6457 	-0.089142 	7.71388e-20 8.63541 	-0.0895165 	7.51148e-20 8.62511 	-0.089891 	7.30844e-20 8.61479 	-0.0902656 	7.10476e-20 8.5866 	-0.088664 	3.27859e-20 8.59336 	-0.090889 	2.5199e-20 8.58321 	-0.0912574 	2.08694e-20 8.57304 	-0.0916258 	1.65406e-20 8.56286 	-0.0919944 	1.22126e-20 8.54066 	-0.0911047 	1.009e-20 8.54196 	-0.092652 	4.16074e-21 8.53194 	-0.0930123 	-3.54675e-21 8.52191 	-0.0933727 	-1.12545e-20 8.51186 	-0.0937332 	-1.89625e-20 8.49537 	-0.0934543 	-2.58036e-20 8.49152 	-0.0944112 	-3.25162e-20 8.48163 	-0.0947622 	-3.52939e-20 8.47173 	-0.0951132 	-3.80705e-20 8.46181 	-0.0954644 	-4.08459e-20 8.45075 	-0.0957091 	-4.27609e-20 8.44967 	-0.0958853 	-3.97358e-20 8.44754 	-0.0959602 	-3.84984e-20 8.44541 	-0.096035 	-3.72613e-20 8.44328 	-0.0961099 	-3.60245e-20 8.44116 	-0.0961841 	-3.47983e-20 8.43334 	-0.096454 	-3.01673e-20 8.42551 	-0.0967239 	-2.55394e-20 8.41767 	-0.0969939 	-2.09145e-20 8.40981 	-0.097264 	-1.62927e-20 8.40073 	-0.0977317 	-5.66713e-21 8.39239 	-0.0979011 	-7.16196e-21 8.38252 	-0.0982554 	-1.0167e-20 8.37263 	-0.0986097 	-1.31716e-20 8.36272 	-0.0989643 	-1.61757e-20 8.35019 	-0.0997094 	-1.93208e-20 8.34376 	-0.09971 	-3.24387e-20 8.33397 	-0.100055 	-3.9038e-20 8.32417 	-0.1004 	-4.56391e-20 8.31435 	-0.100746 	-5.22418e-20 8.30068 	-0.101597 	-4.24428e-20 8.29596 	-0.101456 	-5.3024e-21 8.28622 	-0.101766 	7.96394e-21 8.27647 	-0.102077 	2.12365e-20 8.26671 	-0.102387 	3.45152e-20 8.25198 	-0.103277 	8.10279e-21 8.2488 	-0.103031 	2.57916e-21 8.23914 	-0.103351 	1.89476e-21 8.22946 	-0.10367 	1.21027e-21 8.21977 	-0.10399 	5.25718e-22 8.20417 	-0.104963 	4.20921e-22 8.20246 	-0.104724 	-1.06043e-21 8.19289 	-0.105077 	-7.75588e-21 8.1833 	-0.105431 	-1.44507e-20 8.1737 	-0.105786 	-2.11448e-20 8.15732 	-0.106777 	-2.77724e-20 8.15701 	-0.106567 	-2.07406e-20 8.14754 	-0.106934 	-1.36824e-20 8.13805 	-0.107301 	-6.62351e-21 8.1281 	-0.107702 	0 8.11145 	-0.108606 	0 8.11127 	-0.108504 	0 8.10312 	-0.108805 	-3.20614e-21 8.09373 	-0.109169 	-6.9064e-21 8.08281 	-0.10962 	-1.05247e-20 8.06663 	-0.110371 	-1.38593e-20 8.06623 	-0.110377 	-4.08354e-20 8.0597 	-0.110624 	-5.27168e-20 8.05043 	-0.110979 	-5.78837e-20 8.03864 	-0.111433 	-5.49813e-20 8.02288 	-0.112046 	-3.92989e-20 8.02233 	-0.112145 	-1.13611e-19 8.01734 	-0.112371 	-1.49358e-19 8.00818 	-0.112715 	-1.4892e-19 7.99561 	-0.113142 	-1.10258e-19 7.98026 	-0.113634 	-4.05467e-20 7.97956 	-0.113816 	-7.98241e-20 7.97605 	-0.11405 	-1.04956e-19 7.96702 	-0.114386 	-1.02375e-19 7.95372 	-0.11476 	-6.54872e-20 7.93874 	-0.11515 	-1.51148e-20 7.93793 	-0.115406 	-7.37786e-21 7.93584 	-0.115675 	-7.57903e-22 7.92693 	-0.116005 	-7.81165e-23 7.91295 	-0.11631 	0 7.89831 	-0.116611 	0 7.89742 	-0.116936 	0 7.89651 	-0.117261 	0 7.8876 	-0.117584 	0 7.87328 	-0.117812 	0 7.85894 	-0.11804 	0 7.85798 	-0.118427 	0 7.857 	-0.118815 	0 7.84871 	-0.11912 	0 7.83466 	-0.119288 	0 7.82061 	-0.119455 	0 7.81958 	-0.119901 	0 7.81855 	-0.120347 	0 7.81086 	-0.12064 	0 7.79707 	-0.120758 	0 7.78326 	-0.120876 	0 7.7822 	-0.121377 	0 7.78111 	-0.121879 	0 7.77401 	-0.122164 	0 7.76045 	-0.122243 	0 7.74688 	-0.122323 	0 7.74577 	-0.122876 	0 7.74465 	-0.123428 	0 7.73813 	-0.123711 	0 7.72477 	-0.123761 	0 7.71141 	-0.123812 	0 7.71028 	-0.124413 	0 7.70912 	-0.125015 	0 7.70316 	-0.125299 	-2.94347e-22 7.68999 	-0.125329 	-6.10604e-21 7.67681 	-0.125359 	-1.19175e-20 7.67566 	-0.126008 	-5.67076e-21 7.67404 	-0.126623 	0 7.66808 	-0.126909 	0 7.65605 	-0.126963 	-5.04061e-21 7.64304 	-0.12698 	-1.0892e-20 7.64187 	-0.127675 	-4.59571e-21 7.6394 	-0.128264 	0 7.63349 	-0.128569 	0 7.62292 	-0.128677 	0 7.61006 	-0.128688 	0 7.60887 	-0.129427 	0 7.60557 	-0.129981 	9.9438e-23 7.5997 	-0.130308 	3.20753e-22 7.59055 	-0.130484 	-9.63268e-22 7.57783 	-0.130494 	-3.89355e-21 7.57662 	-0.131276 	-2.68212e-20 7.5725 	-0.131787 	-3.47128e-20 7.56666 	-0.132139 	-3.37671e-20 7.55889 	-0.132395 	-2.9671e-20 7.54629 	-0.13241 	-1.7592e-20 7.54507 	-0.133233 	-2.33461e-21 7.54013 	-0.133694 	-5.03946e-21 7.53431 	-0.134072 	-1.19068e-20 7.52791 	-0.134419 	-1.94974e-20 7.51542 	-0.134442 	-3.47718e-20 7.51417 	-0.135306 	-4.39647e-20 7.50842 	-0.135713 	-4.36e-20 7.50262 	-0.136117 	-4.31907e-20 7.49681 	-0.136522 	-4.278e-20 7.48515 	-0.1366 	-2.44176e-20 7.48308 	-0.137418 	-2.06139e-20 7.47732 	-0.137851 	-1.43941e-20 7.47153 	-0.138284 	-8.17509e-21 7.46573 	-0.138717 	-1.95688e-21 7.45546 	-0.138889 	0 7.45255 	-0.139655 	0 7.44679 	-0.140117 	0 7.44101 	-0.14058 	0 7.43522 	-0.141042 	0 7.42631 	-0.141317 	0 7.42255 	-0.142026 	0 7.41679 	-0.142519 	0 7.41102 	-0.143012 	0 7.40522 	-0.143506 	0 7.39767 	-0.14389 	-2.89962e-21 7.39304 	-0.144539 	-1.18931e-22 7.38729 	-0.145065 	-2.78004e-22 7.38151 	-0.14559 	-4.37099e-22 7.37571 	-0.146116 	-5.96216e-22 7.36948 	-0.146615 	-5.82481e-22 7.368 	-0.146814 	4.32782e-22 7.36626 	-0.146984 	1.36629e-22 7.36452 	-0.147153 	-1.59871e-22 7.36277 	-0.147322 	-4.56719e-22 7.36104 	-0.14749 	-7.50312e-22 7.35688 	-0.147879 	-1.4746e-21 7.35271 	-0.148269 	-2.20085e-21 7.34852 	-0.148659 	-2.92906e-21 7.34433 	-0.149049 	-3.65924e-21 7.33997 	-0.149317 	-1.82591e-22 7.33453 	-0.150024 	4.09295e-21 7.32857 	-0.150618 	9.7246e-21 7.32258 	-0.151211 	1.53553e-20 7.31656 	-0.151805 	2.0985e-20 7.31021 	-0.152111 	2.65943e-20 7.30542 	-0.15301 	2.40339e-20 7.29944 	-0.153641 	2.35656e-20 7.29343 	-0.154272 	2.30953e-20 7.28739 	-0.154902 	2.26229e-20 7.28094 	-0.155085 	2.17719e-20 7.27671 	-0.156173 	2.15912e-20 7.2707 	-0.156842 	2.09018e-20 7.26466 	-0.157512 	2.02101e-20 7.2586 	-0.158181 	1.95163e-20 7.25209 	-0.15825 	2.09093e-20 7.24835 	-0.159521 	1.85234e-20 7.24231 	-0.160231 	1.80456e-20 7.23625 	-0.16094 	1.75654e-20 7.23015 	-0.16165 	1.70829e-20 7.22363 	-0.161613 	1.92001e-20 7.22015 	-0.163017 	1.62873e-20 7.21426 	-0.163815 	1.06132e-20 7.20816 	-0.164568 	4.72653e-21 7.20197 	-0.165173 	-6.38115e-22 7.19553 	-0.165183 	-3.87405e-21 7.19188 	-0.166612 	-9.18539e-22 7.18652 	-0.167606 	0 7.18037 	-0.168402 	0 7.17412 	-0.168896 	0 7.16775 	-0.168967 	0 7.16393 	-0.170424 	0 7.15905 	-0.171608 	0 7.15286 	-0.17245 	0 7.14659 	-0.172838 	-1.97484e-21 7.14027 	-0.172971 	-5.05677e-21 7.13629 	-0.174459 	-2.25491e-21 7.13184 	-0.175829 	9.50914e-22 7.12561 	-0.176717 	5.82865e-21 7.11933 	-0.177005 	8.1821e-21 7.11304 	-0.177201 	1.01514e-20 7.10892 	-0.17872 	-1.45328e-20 7.10475 	-0.180239 	-3.92201e-20 7.09858 	-0.181143 	-3.51536e-20 7.09232 	-0.181403 	-6.02939e-21 7.08604 	-0.181663 	2.30949e-20 7.08179 	-0.183215 	-6.87973e-21 7.07748 	-0.184767 	-3.68595e-20 7.07181 	-0.185714 	-4.10205e-20 7.06554 	-0.186038 	-1.73171e-20 7.05926 	-0.186362 	6.38654e-21 7.05488 	-0.18795 	3.58317e-21 7.05045 	-0.189538 	7.76443e-22 7.04526 	-0.190527 	3.63166e-21 7.03898 	-0.190917 	1.13039e-20 7.03269 	-0.191307 	1.89762e-20 7.02819 	-0.192933 	1.10885e-20 7.02363 	-0.19456 	3.1998e-21 7.01892 	-0.195594 	5.29041e-21 7.01262 	-0.196051 	1.57812e-20 7.00629 	-0.196509 	2.62726e-20 7.00168 	-0.198177 	3.64768e-20 6.99703 	-0.199801 	4.57044e-20 6.99253 	-0.200853 	4.22947e-20 6.98644 	-0.201453 	2.63811e-20 6.98007 	-0.201981 	8.47012e-21 6.97536 	-0.203695 	5.96884e-21 6.97066 	-0.20521 	3.48535e-21 6.96608 	-0.206321 	1.03695e-21 6.96044 	-0.207137 	0 6.95402 	-0.207738 	0 6.94921 	-0.209502 	0 6.94448 	-0.210917 	1.60661e-21 6.93981 	-0.212089 	4.33348e-21 6.93461 	-0.213121 	4.54049e-21 6.92813 	-0.213799 	-1.65304e-21 6.92322 	-0.215616 	5.93393e-21 6.91847 	-0.216938 	9.5816e-21 6.91371 	-0.218175 	1.25708e-20 6.90891 	-0.219413 	1.55627e-20 6.90239 	-0.220182 	2.07801e-20 6.89743 	-0.221984 	1.68349e-20 6.89262 	-0.223292 	1.7336e-20 6.88777 	-0.2246 	1.7841e-20 6.88288 	-0.225908 	1.83498e-20 6.87681 	-0.226906 	2.80145e-20 6.87182 	-0.228617 	1.64395e-20 6.86693 	-0.23 	9.4066e-21 6.86199 	-0.231383 	2.37493e-21 6.857 	-0.232765 	-4.6555e-21 6.85138 	-0.233991 	-1.0067e-20 6.84638 	-0.23562 	-2.47199e-20 6.84139 	-0.237082 	-3.02356e-20 6.83636 	-0.238543 	-3.57401e-20 6.83127 	-0.240004 	-4.12333e-20 6.8261 	-0.241458 	-4.62166e-20 6.82588 	-0.241534 	-4.64684e-20 6.82565 	-0.241603 	-4.62968e-20 6.82543 	-0.241672 	-4.61251e-20 6.82521 	-0.24174 	-4.59535e-20 6.82498 	-0.241809 	-4.57824e-20 6.81983 	-0.243277 	-4.2341e-20 6.81463 	-0.244745 	-3.88925e-20 6.80937 	-0.246212 	-3.54371e-20 6.80407 	-0.247679 	-3.19748e-20 6.79882 	-0.24898 	-3.30219e-20 6.79379 	-0.250754 	-1.81911e-20 6.78824 	-0.252379 	-1.16519e-20 6.78263 	-0.254003 	-5.09849e-21 6.77696 	-0.255626 	1.46904e-21 6.77147 	-0.256907 	-1.24395e-20 6.76682 	-0.258932 	-6.97775e-21 6.76115 	-0.260652 	-4.68187e-21 6.75542 	-0.26237 	-2.38485e-21 6.74962 	-0.264088 	-8.66891e-23 6.74414 	-0.26528 	0 6.73973 	-0.267518 	0 6.73409 	-0.269387 	0 6.72823 	-0.271207 	0 6.72243 	-0.272859 	0 6.71683 	-0.27413 	0 6.71231 	-0.276473 	0 6.70708 	-0.278618 	-8.75885e-22 6.7011 	-0.280549 	-2.70338e-21 6.6953 	-0.282116 	-4.50732e-21 6.68956 	-0.283496 	-6.29905e-21 6.68493 	-0.285953 	1.34858e-20 6.68014 	-0.288387 	3.23067e-20 6.67404 	-0.290424 	3.33718e-20 6.66822 	-0.291925 	9.19467e-21 6.66234 	-0.293424 	-1.49872e-20 6.6576 	-0.296007 	-8.90341e-21 6.65277 	-0.298588 	-2.82154e-21 6.64719 	-0.300704 	2.21321e-21 6.64122 	-0.302335 	5.81223e-21 6.63518 	-0.303965 	9.40957e-21 6.63034 	-0.306686 	5.11511e-21 6.62541 	-0.309405 	8.17202e-22 6.62043 	-0.311632 	4.53486e-21 6.6143 	-0.313417 	1.48523e-20 6.60811 	-0.315201 	2.51705e-20 6.60318 	-0.318086 	3.12839e-20 6.5982 	-0.320859 	3.42355e-20 6.59335 	-0.323189 	2.44836e-20 6.58751 	-0.325265 	9.69811e-21 6.58113 	-0.32721 	-7.66027e-21 6.57611 	-0.330269 	7.84528e-21 6.57112 	-0.332983 	1.23602e-20 6.56612 	-0.335481 	1.00335e-20 6.56081 	-0.337919 	4.59136e-21 6.55423 	-0.340036 	-1.79311e-20 6.5491 	-0.34324 	-1.22205e-20 6.54405 	-0.34593 	-4.24008e-21 6.5389 	-0.348617 	3.74002e-21 6.53365 	-0.351301 	1.17198e-20 6.52744 	-0.35377 	1.52979e-20 6.52228 	-0.356956 	1.60627e-20 6.51708 	-0.359873 	1.68796e-20 6.51179 	-0.362786 	1.7704e-20 6.50638 	-0.365696 	1.85358e-20 6.5008 	-0.368587 	1.95649e-20 6.50032 	-0.368901 	1.92413e-20 6.49984 	-0.369193 	1.8917e-20 6.49936 	-0.369486 	1.85928e-20 6.49888 	-0.369778 	1.82686e-20 6.4984 	-0.370067 	1.79474e-20 6.49396 	-0.372945 	1.3998e-20 6.48944 	-0.375821 	1.00455e-20 6.48483 	-0.378693 	6.08991e-21 6.48013 	-0.381563 	2.1312e-21 6.47486 	-0.384301 	-3.52199e-21 6.47114 	-0.387827 	0 6.46604 	-0.391286 	0 6.46083 	-0.394741 	0 6.45551 	-0.398192 	0 6.44892 	-0.401371 	-7.63648e-21 6.44631 	-0.405283 	-8.06383e-22 6.44132 	-0.409081 	2.83726e-21 6.4359 	-0.412859 	6.05049e-21 6.42981 	-0.416514 	1.25063e-20 6.42274 	-0.419985 	2.39059e-20 6.42001 	-0.424264 	4.25234e-20 6.41651 	-0.428507 	5.72928e-20 6.41084 	-0.432649 	5.99001e-20 6.40364 	-0.436512 	4.56903e-20 6.39617 	-0.440345 	2.99159e-20 6.39326 	-0.445023 	3.19267e-20 6.3902 	-0.449693 	3.39454e-20 6.38472 	-0.454166 	2.73967e-20 6.37696 	-0.458426 	1.21753e-20 6.36905 	-0.462683 	-3.0459e-21 6.36591 	-0.467806 	-2.85151e-20 6.36256 	-0.472916 	-5.35549e-20 6.35733 	-0.477768 	-5.91553e-20 6.34959 	-0.482529 	-4.36621e-20 6.34117 	-0.487267 	-2.35312e-20 6.33773 	-0.492905 	9.75723e-21 6.33294 	-0.498387 	1.91167e-20 6.32724 	-0.503767 	1.3307e-20 6.32128 	-0.509135 	6.56989e-21 6.31224 	-0.5144 	-3.14956e-20 6.30795 	-0.520566 	-6.0166e-20 6.30187 	-0.526549 	-3.90153e-20 6.2956 	-0.532523 	-1.77634e-20 6.28912 	-0.538486 	3.58968e-21 6.28193 	-0.544426 	3.06014e-20 6.28102 	-0.54565 	3.12121e-20 6.27984 	-0.54685 	3.22382e-20 6.27865 	-0.548049 	3.32655e-20 6.27745 	-0.549248 	3.42939e-20 6.27627 	-0.550417 	3.52975e-20 6.2712 	-0.555812 	4.23878e-20 6.26598 	-0.561198 	4.9528e-20 6.26063 	-0.566576 	5.67183e-20 6.25512 	-0.571945 	6.39587e-20 6.24894 	-0.577125 	4.23952e-20 6.24386 	-0.58458 	3.31757e-20 6.23687 	-0.591873 	2.97236e-20 6.22964 	-0.599151 	2.6228e-20 6.2219 	-0.606347 	2.53425e-20 6.21298 	-0.613308 	3.32165e-20 6.20772 	-0.621603 	7.19364e-20 6.20155 	-0.629827 	1.02382e-19 6.19332 	-0.637889 	1.10302e-19 6.18343 	-0.645711 	5.93576e-20 6.17321 	-0.653518 	5.75321e-21 6.167 	-0.662687 	1.7258e-21 6.1605 	-0.671836 	-2.37145e-21 6.15201 	-0.680811 	-1.23622e-20 6.14052 	-0.689544 	-2.69885e-20 6.12872 	-0.698271 	-4.17167e-20 6.12129 	-0.708399 	-8.37415e-20 6.11245 	-0.71845 	-1.01705e-19 6.10234 	-0.728432 	-9.88058e-20 6.09188 	-0.73839 	-9.58702e-20 6.07838 	-0.748116 	-7.43088e-20 6.07197 	-0.755824 	-9.04981e-20 6.06397 	-0.76349 	-8.41752e-20 6.05579 	-0.771144 	-7.78237e-20 6.04743 	-0.778786 	-7.14437e-20 6.03987 