# vtk DataFile Version 2.0
track0
ASCII
DATASET POLYDATA
POINTS 11249 double
-0.0205 0.001 1e-05
-0.0202034 0.00100002 1e-05
-0.0199069 0.00100023 1e-05
-0.0196103 0.00100066 1e-05
-0.0193137 0.0010013 1e-05
-0.0190172 0.00100215 1e-05
-0.0187132 0.00100341 1e-05
-0.0184093 0.00100432 1e-05
-0.0181054 0.00100523 1e-05
-0.0178015 0.00100615 1e-05
-0.0174976 0.00100706 1e-05
-0.0172058 0.00100824 1e-05
-0.016914 0.00100896 1e-05
-0.0166222 0.00100963 1e-05
-0.0163305 0.00101026 1e-05
-0.0160387 0.00101084 1e-05
-0.0157586 0.00101169 1e-05
-0.0154784 0.00101211 1e-05
-0.0151983 0.00101249 1e-05
-0.0149182 0.00101284 1e-05
-0.0146381 0.00101315 1e-05
-0.0143692 0.00101377 1e-05
-0.0141002 0.00101397 1e-05
-0.0138313 0.00101415 1e-05
-0.0135624 0.00101431 1e-05
-0.0132934 0.00101443 1e-05
-0.0130353 0.00101488 1e-05
-0.0127771 0.00101493 1e-05
-0.0125189 0.00101497 1e-05
-0.0122607 0.00101499 1e-05
-0.0120025 0.00101498 1e-05
-0.0117547 0.00101531 1e-05
-0.0115068 0.00101526 1e-05
-0.0112589 0.0010152 1e-05
-0.0110111 0.00101512 1e-05
-0.0107632 0.00101503 1e-05
-0.0105252 0.00101528 1e-05
-0.0102873 0.00101516 1e-05
-0.0100493 0.00101502 1e-05
-0.00981133 0.00101488 1e-05
-0.00957337 0.00101472 1e-05
-0.00934491 0.00101492 1e-05
-0.00911645 0.00101474 1e-05
-0.008888 0.00101454 1e-05
-0.00865954 0.00101434 1e-05
-0.00843108 0.00101412 1e-05
-0.00821175 0.00101429 1e-05
-0.00799242 0.00101406 1e-05
-0.00777309 0.00101381 1e-05
-0.00755376 0.00101356 1e-05
-0.00733443 0.00101329 1e-05
-0.00712387 0.00101343 1e-05
-0.0069133 0.00101315 1e-05
-0.00670273 0.00101286 1e-05
-0.00649217 0.00101256 1e-05
-0.0062816 0.00101225 1e-05
-0.00607944 0.00101236 1e-05
-0.00587729 0.00101204 1e-05
-0.00567514 0.00101171 1e-05
-0.00547298 0.00101137 1e-05
-0.00527083 0.00101101 1e-05
-0.00507675 0.00101111 1e-05
-0.00488268 0.00101075 1e-05
-0.0046886 0.00101037 1e-05
-0.00449452 0.00100999 1e-05
-0.00430044 0.00100958 1e-05
-0.00411412 0.00100966 1e-05
-0.0039278 0.00100925 1e-05
-0.00374147 0.00100883 1e-05
-0.00355515 0.00100839 1e-05
-0.00336883 0.00100794 1e-05
-0.00318995 0.00100799 1e-05
-0.00301107 0.00100753 1e-05
-0.00283219 0.00100705 1e-05
-0.00265331 0.00100655 1e-05
-0.00247443 0.00100603 1e-05
-0.0023027 0.00100605 1e-05
-0.00213097 0.00100552 1e-05
-0.00195924 0.00100496 1e-05
-0.00178751 0.00100438 1e-05
-0.00161577 0.00100378 1e-05
-0.0014509 0.00100375 1e-05
-0.00128603 0.00100312 1e-05
-0.00112116 0.00100246 1e-05
-0.000956293 0.00100176 1e-05
-0.000791418 0.00100102 1e-05
-0.000633135 0.00100089 1e-05
-0.000474853 0.0010001 1e-05
-0.000316571 0.000999265 1e-05
-0.00015829 0.000998391 1e-05
0 0.000997474 1e-05
0.000105677 0.000997303 1e-05
0.000211353 0.000996643 1e-05
0.000317028 0.000995955 1e-05
0.000422704 0.00099524 1e-05
0.000528387 0.000994496 1e-05
0.000634886 0.000994319 1e-05
0.000741383 0.000993556 1e-05
0.000847879 0.000992774 1e-05
0.000954375 0.000991974 1e-05
0.00106088 0.000991155 1e-05
0.00116821 0.000991008 1e-05
0.00127553 0.000990194 1e-05
0.00138286 0.000989363 1e-05
0.00149018 0.000988515 1e-05
0.00159752 0.00098765 1e-05
0.00170568 0.00098753 1e-05
0.00181384 0.000986691 1e-05
0.001922 0.000985836 1e-05
0.00203015 0.000984966 1e-05
0.00213833 0.000984079 1e-05
0.00224733 0.000983984 1e-05
0.00235633 0.000983141 1e-05
0.00246533 0.000982282 1e-05
0.00257433 0.000981408 1e-05
0.00268334 0.000980517 1e-05
0.00279319 0.000980439 1e-05
0.00290303 0.000979627 1e-05
0.00301288 0.00097877 1e-05
0.00312273 0.000977895 1e-05
0.00323259 0.000977092 1e-05
0.00334329 0.000977017 1e-05
0.00345399 0.000976286 1e-05
0.00356469 0.000975431 1e-05
0.00367539 0.000974559 1e-05
0.00378611 0.000973827 1e-05
0.00389767 0.000973744 1e-05
0.00400923 0.000973073 1e-05
0.0041208 0.00097222 1e-05
0.00423236 0.000971349 1e-05
0.00434393 0.000970669 1e-05
0.00445636 0.00097057 1e-05
0.00456879 0.000969941 1e-05
0.00468122 0.000969086 1e-05
0.00479365 0.000968212 1e-05
0.00490609 0.000967569 1e-05
0.0050194 0.000967445 1e-05
0.0051327 0.000966842 1e-05
0.005246 0.000965978 1e-05
0.00535931 0.000965096 1e-05
0.00547262 0.000964474 1e-05
0.00558681 0.000964317 1e-05
0.00570099 0.000963726 1e-05
0.00581518 0.000962849 1e-05
0.00592936 0.000961953 1e-05
0.00604356 0.000961339 1e-05
0.00615863 0.000961145 1e-05
0.00627371 0.000960555 1e-05
0.00638878 0.00095966 1e-05
0.00650385 0.000958747 1e-05
0.00661893 0.000958132 1e-05
0.0067349 0.000957895 1e-05
0.00685087 0.000957298 1e-05
0.00696683 0.000956383 1e-05
0.0070828 0.000955449 1e-05
0.00719878 0.000954825 1e-05
0.00731565 0.000954542 1e-05
0.00743252 0.000953931 1e-05
0.00754939 0.000952995 1e-05
0.00766625 0.000952048 1e-05
0.00778313 0.000951408 1e-05
0.00790091 0.000951077 1e-05
0.00801869 0.000950445 1e-05
0.00813647 0.000949517 1e-05
0.00825425 0.000948577 1e-05
0.00837203 0.000947916 1e-05
0.00849073 0.000947534 1e-05
0.00860942 0.000946877 1e-05
0.00872812 0.000945949 1e-05
0.00884681 0.000945009 1e-05
0.00896551 0.000944322 1e-05
0.00908513 0.000943887 1e-05
0.00920475 0.000943201 1e-05
0.00932436 0.000942267 1e-05
0.00944398 0.00094132 1e-05
0.0095636 0.000940603 1e-05
0.00968415 0.000940115 1e-05
0.0098047 0.000939396 1e-05
0.00992524 0.000938449 1e-05
0.0100458 0.000937491 1e-05
0.0101663 0.00093674 1e-05
0.0102878 0.000936197 1e-05
0.0104093 0.000935442 1e-05
0.0105308 0.000934478 1e-05
0.0106523 0.000933503 1e-05
0.0107738 0.000932716 1e-05
0.0108962 0.000932117 1e-05
0.0110186 0.000931324 1e-05
0.0111411 0.000930339 1e-05
0.0112635 0.000929342 1e-05
0.0113859 0.000928517 1e-05
0.0115093 0.000927862 1e-05
0.0116327 0.000927028 1e-05
0.0117561 0.000926017 1e-05
0.0118794 0.000924996 1e-05
0.0120028 0.00092413 1e-05
0.0121272 0.000923418 1e-05
0.0122515 0.000922541 1e-05
0.0123759 0.000921502 1e-05
0.0125002 0.000920452 1e-05
0.0126245 0.000919543 1e-05
0.0127498 0.000918773 1e-05
0.0128752 0.000917852 1e-05
0.0130005 0.000916794 1e-05
0.0131258 0.00091573 1e-05
0.0132511 0.000914777 1e-05
0.0133774 0.000913949 1e-05
0.0135036 0.000912982 1e-05
0.0136299 0.000911905 1e-05
0.0137562 0.000910821 1e-05
0.0138825 0.000909823 1e-05
0.0140098 0.000908937 1e-05
0.014137 0.000907922 1e-05
0.0142643 0.000906821 1e-05
0.0143915 0.000905713 1e-05
0.0145188 0.000904668 1e-05
0.0146471 0.000903723 1e-05
0.0147753 0.00090266 1e-05
0.0149036 0.000901531 1e-05
0.0150318 0.000900395 1e-05
0.0151601 0.000899302 1e-05
0.0152893 0.000898299 1e-05
0.0154186 0.000897187 1e-05
0.0155478 0.000896026 1e-05
0.0156771 0.000894859 1e-05
0.0158063 0.000893716 1e-05
0.0159366 0.000892655 1e-05
0.0160668 0.000891493 1e-05
0.0161971 0.000890298 1e-05
0.0163273 0.000889096 1e-05
0.0164576 0.000887904 1e-05
0.0165889 0.000886785 1e-05
0.0167201 0.000885572 1e-05
0.0168514 0.00088434 1e-05
0.0169827 0.0008831 1e-05
0.0171139 0.000881859 1e-05
0.0172462 0.000880682 1e-05
0.0173785 0.000879417 1e-05
0.0175108 0.000878146 1e-05
0.0176431 0.000876866 1e-05
0.0177754 0.00087558 1e-05
0.0179087 0.000874345 1e-05
0.018042 0.000873038 1e-05
0.0181753 0.000871724 1e-05
0.0183087 0.000870403 1e-05
0.018442 0.000869074 1e-05
0.0185763 0.000867781 1e-05
0.0187107 0.000866431 1e-05
0.018845 0.000865073 1e-05
0.0189794 0.000863708 1e-05
0.0191137 0.000862335 1e-05
0.0192491 0.000860984 1e-05
0.0193845 0.000859588 1e-05
0.0195199 0.000858184 1e-05
0.0196553 0.000856773 1e-05
0.0197907 0.000855354 1e-05
0.0199272 0.000853945 1e-05
0.0200636 0.000852502 1e-05
0.0202001 0.000851051 1e-05
0.0203365 0.000849593 1e-05
0.020473 0.000848127 1e-05
0.0206105 0.00084666 1e-05
0.020748 0.000845169 1e-05
0.0208855 0.00084367 1e-05
0.021023 0.000842163 1e-05
0.0211606 0.000840649 1e-05
0.0212991 0.000839124 1e-05
0.0214377 0.000837583 1e-05
0.0215763 0.000836035 1e-05
0.0217149 0.000834479 1e-05
0.0218535 0.000832916 1e-05
0.021884 0.00083257 1e-05
0.0219145 0.000832224 1e-05
0.021945 0.000831877 1e-05
0.0219755 0.000831531 1e-05
0.0220057 0.000831186 1e-05
0.0221149 0.000829942 1e-05
0.0222241 0.000828693 1e-05
0.0223333 0.000827439 1e-05
0.0224425 0.000826181 1e-05
0.0225517 0.000824918 1e-05
0.0226925 0.000823281 1e-05
0.0228332 0.000821639 1e-05
0.022974 0.000819989 1e-05
0.0231147 0.000818331 1e-05
0.0232555 0.000816666 1e-05
0.0233973 0.000814972 1e-05
0.0235391 0.000813277 1e-05
0.023681 0.000811574 1e-05
0.0238228 0.000809864 1e-05
0.0239647 0.000808145 1e-05
0.0241076 0.000806395 1e-05
0.0242505 0.000804647 1e-05
0.0243935 0.000802892 1e-05
0.0245364 0.000801129 1e-05
0.0246794 0.000799358 1e-05
0.0248234 0.000797556 1e-05
0.0249675 0.000795756 1e-05
0.0251115 0.000793949 1e-05
0.0252556 0.000792135 1e-05
0.0253996 0.000790312 1e-05
0.0255448 0.000788455 1e-05
0.02569 0.000786601 1e-05
0.0258351 0.000784739 1e-05
0.0259803 0.000782869 1e-05
0.0261255 0.00078099 1e-05
0.0262718 0.000779075 1e-05
0.0264181 0.000777164 1e-05
0.0265644 0.000775244 1e-05
0.0267107 0.000773315 1e-05
0.026857 0.000771376 1e-05
0.0270044 0.000769402 1e-05
0.0271519 0.00076743 1e-05
0.0272993 0.00076545 1e-05
0.0274468 0.000763461 1e-05
0.0275942 0.000761462 1e-05
0.0277428 0.000759429 1e-05
0.0278914 0.000757396 1e-05
0.0280399 0.000755356 1e-05
0.0281885 0.000753308 1e-05
0.0283371 0.000751248 1e-05
0.0284869 0.000749157 1e-05
0.0286366 0.000747064 1e-05
0.0287863 0.000744965 1e-05
0.0289361 0.000742857 1e-05
0.0290858 0.000740738 1e-05
0.0292367 0.00073859 1e-05
0.0293876 0.000736437 1e-05
0.0295385 0.000734279 1e-05
0.0296894 0.000732113 1e-05
0.0298403 0.000729935 1e-05
0.0299924 0.00072773 1e-05
0.0301445 0.000725519 1e-05
0.0302966 0.000723302 1e-05
0.0304486 0.000721076 1e-05
0.0306007 0.000718841 1e-05
0.030754 0.000716578 1e-05
0.0309072 0.000714309 1e-05
0.0310605 0.000712033 1e-05
0.0312138 0.000709748 1e-05
0.031367 0.000707455 1e-05
0.0315215 0.000705135 1e-05
0.0316759 0.000702808 1e-05
0.0318304 0.000700472 1e-05
0.0319848 0.000698128 1e-05
0.0321393 0.000695776 1e-05
0.0322949 0.000693399 1e-05
0.0324506 0.000691012 1e-05
0.0326062 0.000688616 1e-05
0.0327619 0.000686212 1e-05
0.0329175 0.000683801 1e-05
[...]
POINT_DATA 11249
 FIELD attributes 2
p 1 11249 float
-6.36286 -6.41328 -6.47605 -6.53951 -6.60365 -6.74771 -6.81283 -6.89185 -6.97087 -7.04989 -7.13976 -7.13221 -7.1508 -7.16932 -7.18778 -7.22587 -7.21153 -7.22372 -7.23584 -7.2479 -7.28199 -7.27433 -7.28878 -7.30317 -7.31752 -7.35201 -7.34327 -7.35473 -7.36615 -7.37753 -7.40862 -7.39906 -7.40904 -7.41899 -7.42891 -7.4589 -7.44948 -7.45948 -7.46945 -7.4794 -7.51005 -7.5001 -7.51006 -7.51999 -7.5299 -7.56155 -7.5505 -7.56037 -7.57022 -7.58004 -7.61308 -7.6007 -7.61068 -7.62064 -7.63057 -7.66557 -7.65179 -7.6622 -7.67259 -7.68296 -7.72063 -7.70538 -7.71646 -7.7275 -7.73852 -7.77941 -7.76242 -7.7743 -7.78615 -7.79797 -7.8427 -7.82373 -7.83645 -7.84913 -7.86177 -7.9108 -7.88905 -7.90247 -7.91583 -7.92915 -7.98324 -7.95775 -7.97136 -7.9849 -7.99836 -8.05822 -8.01967 -8.02526 -8.03077 -8.03619 -8.09338 -8.02088 -8.01417 -8.00739 -8.00055 -8.07555 -7.99434 -7.9893 -7.98422 -7.9791 -8.06494 -7.99755 -7.99677 -7.99596 -7.99512 -8.07615 -8.01651 -8.01543 -8.01432 -8.01319 -8.08406 -8.03211 -8.03204 -8.03196 -8.03185 -8.09836 -8.05812 -8.05868 -8.06095 -8.06952 -8.12519 -8.09491 -8.09295 -8.09661 -8.11075 -8.15884 -8.13473 -8.13125 -8.13613 -8.15465 -8.19834 -8.17849 -8.17396 -8.18004 -8.20239 -8.24337 -8.22623 -8.22047 -8.22746 -8.25304 -8.29211 -8.27666 -8.26934 -8.27693 -8.30531 -8.3429 -8.32856 -8.31947 -8.32747 -8.35841 -8.39484 -8.38133 -8.37034 -8.37859 -8.41182 -8.44719 -8.4343 -8.42152 -8.43057 -8.46504 -8.49939 -8.4871 -8.47492 -8.48439 -8.51784 -8.55118 -8.53942 -8.52776 -8.5375 -8.56997 -8.60233 -8.59108 -8.57994 -8.5898 -8.62129 -8.65268 -8.64202 -8.63147 -8.64136 -8.67178 -8.70211 -8.6921 -8.6822 -8.69202 -8.72132 -8.75053 -8.74119 -8.73195 -8.74166 -8.76982 -8.79789 -8.78925 -8.7807 -8.79026 -8.81729 -8.84425 -8.83633 -8.8285 -8.83788 -8.86381 -8.88966 -8.88248 -8.87696 -8.88652 -8.90939 -8.93416 -8.92772 -8.92477 -8.93405 -8.95406 -8.97778 -8.97205 -8.97145 -8.98047 -8.99785 -9.02056 -9.01553 -9.01706 -9.02587 -9.04082 -9.06256 -9.05825 -9.06171 -9.07031 -9.08304 -9.10383 -9.10022 -9.10541 -9.11383 -9.12454 -9.14441 -9.1415 -9.14823 -9.15648 -9.1654 -9.18439 -9.18217 -9.19025 -9.19838 -9.20651 -9.22386 -9.22356 -9.23158 -9.2396 -9.24762 -9.26289 -9.26436 -9.27228 -9.28021 -9.28815 -9.30156 -9.30458 -9.31243 -9.32029 -9.32815 -9.3399 -9.3443 -9.3521 -9.35989 -9.3677 -9.37799 -9.38361 -9.39136 -9.39912 -9.40688 -9.41592 -9.42258 -9.43033 -9.43807 -9.44583 -9.4538 -9.45532 -9.45701 -9.4587 -9.46039 -9.46207 -9.46819 -9.47431 -9.48043 -9.48655 -9.49238 -9.50039 -9.50824 -9.51609 -9.52395 -9.53106 -9.53937 -9.54722 -9.55507 -9.56292 -9.56952 -9.57819 -9.5859 -9.59361 -9.60133 -9.60711 -9.61597 -9.62358 -9.63119 -9.63881 -9.64383 -9.65298 -9.66043 -9.66789 -9.67535 -9.67928 -9.68866 -9.69574 -9.70283 -9.70967 -9.71266 -9.72194 -9.72906 -9.73584 -9.74171 -9.74441 -9.75365 -9.76109 -9.76772 -9.77278 -9.77535 -9.78463 -9.79251 -9.79909 -9.80343 -9.80594 -9.81529 -9.8237 -9.83027 -9.83394 -9.83646 -9.8459 -9.85488 -9.86149 -9.86453 -9.86711 -9.87664 -9.88618 -9.89269 -9.89534 -9.898 -9.90764 -9.91728 -9.92372 -9.92648 -9.92923 -9.93897 -9.94872 -9.95512 -9.95798 -9.96085 -9.9707 -9.98055 -9.98693 -9.9899 -9.99287 -10.0028 -10.0128 -10.0192 -10.0222 -10.0253 -10.0354 -10.0454 -10.0518 -10.055 -10.0582 -10.0683 -10.0781 -10.0845 -10.0882 -10.0915 -10.1017 -10.1109 -10.1173 -10.1218 -10.1252 -10.1355 -10.1441 -10.1506 -10.1557 -10.1592 -10.1696 -10.1776 -10.1842 -10.19 -10.1936 -10.204 -10.2114 -10.2181 -10.2246 -10.2283 -10.2387 -10.2455 -10.2523 -10.2591 -10.2632 -10.273 -10.2798 -10.2867 -10.2935 -10.2983 -10.3075 -10.3143 -10.3212 -10.3281 -10.3336 -10.3421 -10.349 -10.3559 -10.3629 -10.369 -10.3768 -10.3838 -10.3907 -10.3977 -10.4045 -10.4068 -10.4089 -10.411 -10.4131 -10.4152 -10.4201 -10.425 -10.4299 -10.4348 -10.4389 -10.4466 -10.4536 -10.4606 -10.4677 -10.4729 -10.4816 -10.4886 -10.4956 -10.5026 -10.5068 -10.5165 -10.5234 -10.5304 -10.5374 -10.5405 -10.5512 -10.5581 -10.565 -10.572 -10.5741 -10.5854 -10.5926 -10.5994 -10.6054 -10.6074 -10.6185 -10.6267 -10.6335 -10.6383 -10.6403 -10.6514 -10.6605 -10.6672 -10.6709 -10.6729 -10.6838 -10.6939 -10.7005 -10.703 -10.705 -10.7157 -10.7265 -10.7328 -10.7347 -10.7366 -10.7471 -10.7577 -10.7639 -10.7657 -10.7675 -10.7779 -10.7884 -10.7945 -10.7962 -10.7979 -10.8081 -10.8183 -10.8243 -10.8259 -10.8275 -10.8375 -10.8472 -10.8528 -10.8549 -10.8563 -10.8661 -10.8745 -10.8799 -10.883 -10.8843 -10.8939 -10.9009 -10.9061 -10.9102 -10.9114 -10.9207 -10.9264 -10.9314 -10.9364 -10.9374 -10.946 -10.9507 -10.9555 -10.9603 -10.9624 -10.9695 -10.974 -10.9785 -10.983 -10.9862 -10.9917 -10.996 -11.0002 -11.0045 -11.0087 -11.0089 -11.0091 -11.0093 -11.0094 -11.0096 -11.0135 -11.0173 -11.0212 -11.0251 -11.0279 -11.0329 -11.0366 -11.0404 -11.0441 -11.0456 -11.0515 -11.0549 -11.0583 -11.0618 -11.0617 -11.0682 -11.0717 -11.0747 -11.0767 -11.0761 -11.0822 -11.0867 -11.0893 -11.0896 -11.0887 -11.0944 -11.0999 -11.102 -11.1006 -11.0993 -11.1045 -11.1097 -11.1113 -11.1095 -11.1077 -11.1124 -11.1171 -11.1184 -11.116 -11.1136 -11.1177 -11.1212 -11.1217 -11.1199 -11.1169 -11.1204 -11.1217 -11.1216 -11.1209 -11.1173 -11.1199 -11.119 -11.1181 -11.1173 -11.1142 -11.1144 -11.1126 -11.1109 -11.1092 -11.1074 -11.1073 -11.107 -11.1068 -11.1065 -11.1063 -11.1038 -11.1013 -11.0989 -11.0965 -11.0924 -11.0905 -11.0866 -11.0828 -11.079 -11.0717 -11.0704 -11.0657 -11.0605 -11.0538 -11.0446 -11.0419 -11.0382 -11.0314 -11.021 -11.0102 -11.0057 -11.0012 -10.9925 -10.9797 -10.9669 -10.9603 -10.9537 -10.9428 -10.9285 -10.9133 -10.9043 -10.8926 -10.8791 -10.8656 -10.8477 -10.8347 -10.8181 -10.8016 -10.7851 -10.768 -10.7649 -10.7613 -10.7576 -10.754 -10.7505 -10.7343 -10.7182 -10.7022 -10.6861 -10.6673 -10.6477 -10.6239 -10.6002 -10.5753 -10.546 -10.5232 -10.499 -10.4705 -10.4364 -10.4021 -10.3742 -10.3464 -10.313 -10.2728 -10.2326 -10.1987 -10.1613 -10.1207 -10.0803 -10.0338 -10.005 -9.97181 -9.93869 -9.90564 -9.87646 -9.86149 -9.84653 -9.83159 -9.81667 -9.79951 -9.74858 -9.69438 -9.64039 -9.58485 -9.523 -9.46782 -9.41286 -9.34884 -9.27834 -9.2078 -9.14372 -9.07775 -9.00545 -8.93208 -8.85238 -8.81054 -8.76513 -8.71922 -8.67342 -8.63273 -8.59796 -8.56327 -8.52865 -8.49352 -8.45531 -8.37597 -8.28944 -8.20336 -8.11066 -8.01503 -7.9261 -7.83755 -7.74032 -7.64086 -7.53689 -7.493 -7.44725 -7.4003 -7.35347 -7.31114 -7.25456 -7.19819 -7.14201 -7.08401 -7.02296 -6.92102 -6.81944 -6.71162 -6.59884 -6.48513 -6.40841 -6.33013 -6.24936 -6.169 -6.10104 -6.06836 -6.03577 -6.00326 -5.96919 -5.93407 -5.82491 -5.71509 -5.60337 -5.48684 -5.36859 -5.30667 -5.24453 -5.18037 -5.11651 -5.06016 -5.00957 -4.95919 -4.90902 -4.85639 -4.80274 -4.6923 -4.58292 -4.47121 -4.35878 -4.243 -4.22852 -4.21407 -4.19932 -4.18458 -4.17024 -4.07391 -3.97838 -3.88363 -3.7862 -3.68623 -3.62932 -3.57276 -3.51549 -3.45839 -3.40703 -3.35537 -3.30394 -3.2525 -3.19965 -3.1458 -3.06083 -2.97661 -2.89145 -2.80658 -2.73365 -2.7107 -2.6878 -2.66475 -2.64117 -2.61734 -2.51475 -2.41314 -2.31063 -2.20833 -2.12217 -2.11649 -2.11082 -2.10508 -2.09921 -2.09333 -1.98855 -1.88463 -1.78016 -1.67503 -1.56308 -1.56116 -1.55924 -1.55729 -1.55532 -1.55335 -1.45018 -1.34781 -1.24649 -1.1462 -1.06053 -1.05293 -1.04534 -1.03769 -1.03001 -1.02229 -0.937238 -0.852669 -0.768377 -0.684028 -0.609658 -0.578195 -0.54678 -0.51592 -0.485198 -0.453555 -0.397811 -0.342242 -0.287011 -0.233167 -0.183261 -0.115096 -0.0470883 0.0199095 0.0867458 0.15821 0.173605 0.188991 0.204367 0.219347 0.234037 0.318489 0.402565 0.483892 0.560426 0.632793 0.672373 0.711748 0.750007 0.788266 0.826929 0.868752 0.910573 0.952392 0.992149 1.03114 1.11842 1.20568 1.28065 1.35194 1.42334 1.4382 1.453 1.46729 1.48157 1.49555 1.55805 1.62034 1.68244 1.73967 1.80147 1.86358 1.92531 1.96518 2.00357 2.037 2.06262 2.08814 2.11099 2.12302 2.13608 2.18508 2.23286 2.28305 2.33373 2.37517 2.38295 2.39053 2.399 2.40808 2.41812 2.45764 2.49532 2.5167 2.50124 2.4857 2.50142 2.51656 2.4954 2.47273 2.44157 2.43333 2.42493 2.41637 2.42066 2.42939 2.36273 2.30106 2.26087 2.26637 2.2709 2.181 2.11863 2.08263 2.0449 2.02626 1.99469 1.98081 1.96842 1.95587 1.93985 1.91109 1.88165 1.85156 1.82083 1.74993 1.74507 1.70648 1.66659 1.60085 1.50465 1.51367 1.52127 1.49332 1.41964 1.34324 1.38024 1.41863 1.41477 1.36645 1.31519 1.38642 1.45908 1.4896 1.4754 1.45813 1.55526 1.65319 1.71851 1.74851 1.77527 1.88825 2.0008 2.08989 2.16636 2.23836 2.36066 2.46642 2.56733 2.66537 2.70214 2.71769 2.7331 2.74836 2.76641 2.78754 2.89784 2.99676 3.09231 3.16095 3.22811 3.26707 3.30446 3.30695 3.30413 3.3007 3.32368 3.34466 3.34697 3.32282 3.2883 3.2714 3.25222 3.22834 3.17586 3.14052 3.08494 3.02204 2.90766 2.75641 2.67647 2.59621 2.51373 2.3986 2.25968 2.12607 2.0365 1.94676 1.83248 1.69793 1.55733 1.46691 1.37677 1.27674 1.15256 1.02144 0.934919 0.845407 0.754004 0.662715 0.547847 0.476324 0.405371 0.334306 0.263132 0.186043 0.177811 0.169578 0.161345 0.15311 0.145221 0.0766798 0.00536126 -0.0664197 -0.138661 -0.205346 -0.247831 -0.313218 -0.379768 -0.444897 -0.505058 -0.549003 -0.601658 -0.669412 -0.733174 -0.795512 -0.848213 -0.904173 -0.979013 -1.04767 -1.11788 -1.18462 -1.25712 -1.34556 -1.43108 -1.52002 -1.60787 -1.70866 -1.81707 -1.92892 -2.05095 -2.09766 -2.14804 -2.19918 -2.25089 -2.28707 -2.37554 -2.46541 -2.55658 -2.64815 -2.7526 -2.92716 -3.10376 -3.26814 -3.42262 -3.64201 -3.73457 -3.82684 -3.90765 -3.98868 -4.05898 -4.19836 -4.33816 -4.47436 -4.58422 -4.74507 -4.87086 -4.9961 -5.10693 -5.20021 -5.28516 -5.44264 -5.59973 -5.71421 -5.81848 -6.01168 -6.02832 -6.04493 -6.06153 -6.0741 -6.08434 -6.19276 -6.29002 -6.38508 -6.4404 -6.47352 -6.52438 -6.57485 -6.58223 -6.54947 -6.51698 -6.50019 -6.4752 -6.41687 -6.33245 -6.24019 -6.16226 -6.08167 -5.97336 -5.8326 -5.69101 -5.56229 -5.43373 -5.28489 -5.11477 -4.94297 -4.78215 -4.6113 -4.4357 -4.26018 -4.08022 -4.0596 -4.03834 -4.01684 -3.99533 -3.97469 -3.81265 -3.65076 -3.48906 -3.32562 -3.15629 -2.97186 -2.78758 -2.60177 -2.41419 -2.22484 -2.11192 -1.99937 -1.8872 -1.77508 -1.6734 -1.59969 -1.52599 -1.45231 -1.37883 -1.30525 -1.12455 -0.944051 -0.764429 -0.586771 -0.408009 -0.28586 -0.164444 -0.0443457 0.0757201 0.188692 0.243379 0.298062 0.35274 0.406716 0.460427 0.630927 0.801072 0.970081 1.1365 1.30369 1.40653 1.50887 1.60987 1.71086 1.80792 1.87114 1.93435 1.99756 2.06014 2.12259 2.2835 2.44438 2.60402 2.76231 2.92126 2.99088 3.06031 3.12905 3.19778 3.26479 3.35259 3.44039 3.52817 3.61482 3.70138 3.85529 4.00918 4.16104 4.31231 4.46389 4.49044 4.51695 4.5431 4.56925 4.59514 4.71905 4.84293 4.96681 5.08966 5.21283 5.33539 5.45781 5.57905 5.70028 5.81625 5.84228 5.8683 5.89432 5.91981 5.9453 6.09073 6.2359 6.3799 6.5218 6.66442 6.71578 6.76713 6.81726 6.86739 6.9166 7.00744 7.09828 7.1891 7.2789 7.36896 7.48251 7.59605 7.70845 7.8208 7.92937 7.95525 7.98112 8.00695 8.03198 8.05704 8.19402 8.33099 8.46465 8.59496 8.72581 8.75303 8.78025 8.80663 8.83291 8.85903 8.96265 9.06626 9.16989 9.27365 9.37755 9.44809 9.51863 9.58763 9.65638 9.725 9.78253 9.84006 9.89695 9.94988 10.0028 10.1122 10.2217 10.3268 10.4312 10.5373 10.5504 10.5636 10.5769 10.5906 10.6044 10.7209 10.8371 10.9517 11.0638 11.175 11.2009 11.2268 11.2551 11.2838 11.313 11.3964 11.4798 11.5628 11.6417 11.72 11.7989 11.8778 11.9368 11.9948 12.0585 12.0894 12.1204 12.1514 12.1809 12.2102 12.2881 12.3656 12.4629 12.5797 12.6941 12.7213 12.7486 12.7707 12.7921 12.8146 12.8904 12.9659 13.0384 13.0761 13.1132 13.1679 13.2225 13.2709 13.3188 13.375 13.39 13.4049 13.4199 13.443 13.4669 13.5286 13.5898 13.6599 13.7394 13.8175 13.8383 13.8607 13.8907 13.9206 13.9567 13.991 14.0252 14.0592 14.0777 14.0893 14.1604 14.2315 14.2717 14.2811 14.2895 14.327 14.3487 14.3567 14.3648 14.3748 14.3803 14.3859 14.3914 14.4006 14.4196 14.4052 14.4081 14.411 14.4379 14.4824 14.4465 14.4091 14.4039 14.4315 14.4599 14.4066 14.3768 14.3624 14.3478 14.3545 14.3176 14.3017 14.2858 14.2699 14.2471 14.2358 14.2244 14.2131 14.2017 14.1688 14.1463 14.1044 14.0625 14.005 13.9043 13.8803 13.8527 13.79 13.6751 13.5583 13.5174 13.4782 13.3923 13.2616 13.1288 13.0708 12.9886 12.8798 12.7643 12.6169 12.5431 12.4196 12.2963 12.1732 12.0224 11.9139 11.7767 11.6397 11.5028 11.35 11.2154 11.0619 10.9086 10.7554 10.5908 10.4339 10.2663 10.0988 9.93135 9.75631 9.57791 9.38816 9.19849 9.00889 8.80923 8.61267 8.41023 8.20781 8.00539 7.79704 7.57423 7.332 7.08986 6.84781 6.58517 6.33943 6.09902 5.85862 5.61822 5.38375 5.10688 4.7645 4.4226 4.0811 3.67535 3.33204 3.07396 2.81655 2.55969 2.38675 2.12089 1.62761 1.13292 0.637036 0