/*--------------------------------*- C++ -*----------------------------------*\
| =========                 |                                                 |
| \\      /  F ield         | OpenFOAM: The Open Source CFD Toolbox           |
|  \\    /   O peration     | Version:  v1906                                 |
|   \\  /    A nd           | Web:      www.OpenFOAM.com                      |
|    \\/     M anipulation  |                                                 |
\*---------------------------------------------------------------------------*/
FoamFile
{
    version     2.0;
    format      ascii;
    class       volScalarField;
    location    "1400";
    object      epsilon;
}
// * * * * * * * * * * * * * * * * * * * * * * * * * * * * * * * * * * * * * //

dimensions      [0 2 -3 0 0 0 0];


internalField   nonuniform List<scalar> 
12225
(
8534.02
8352.95
7991.38
7605.08
7244.29
6922.34
6639.03
6393.36
6174.88
5988.58
5815.41
5676.37
5565.19
5475.61
5394.36
5336.09
5267.27
5241.5
612.84
1496.62
1698.54
1689.07
1643.06
1565
1507.05
1461.03
1422.79
1390.25
1362.84
1338.72
1320.11
1303.87
1290.07
1279.16
1263.83
1255.67
136.092
458.855
618.7
686.923
717.307
720.675
717.576
710.233
700.28
689.726
679.702
669.715
660.623
652.144
644.046
637.466
629.043
625.162
58.494
196.182
292.43
349.17
383.81
402.638
412.978
418.173
419.615
419.07
417.532
414.784
411.59
408.184
404.537
401.321
396.902
395.202
35.983
104.797
162.954
203.263
231.269
250.092
262.829
271.463
277.088
280.627
282.801
283.883
284.087
283.865
283.253
282.438
280.887
280.821
26.8377
65.6337
102.216
130.425
151.688
167.445
179.142
187.872
194.354
199.14
202.685
205.265
207.065
208.307
209.107
209.593
209.7
210.243
22.3043
46.1291
70.0865
90.0242
105.968
118.524
128.395
136.183
142.335
147.195
151.051
154.109
156.515
158.407
159.886
161.039
161.867
162.909
19.7657
35.3024
51.5622
65.8844
77.8829
87.7556
95.842
102.473
107.921
112.403
116.105
119.169
121.704
123.805
125.547
126.993
128.177
129.429
18.2251
28.7915
40.1556
50.6104
59.7073
67.455
74.0054
79.5374
84.2136
88.1733
91.5351
94.3969
96.8374
98.9223
100.707
102.239
103.561
104.857
17.2354
24.6378
32.7696
40.5141
47.4714
53.5696
58.8619
63.4401
67.3993
70.8268
73.7996
76.3836
78.6343
80.5985
82.3166
83.8239
85.1597
86.4244
16.5719
21.8684
27.7958
33.6058
38.9715
43.7935
48.0735
51.8528
55.1844
58.1215
60.7137
63.0049
65.0336
66.833
68.4326
69.8591
71.1434
72.3414
16.15
20.118
24.6283
29.1494
33.4183
37.3327
40.8711
44.0478
46.8914
49.4347
51.7099
53.747
55.5734
57.213
58.6879
60.0184
61.2281
62.351
15.8382
18.8308
22.2847
25.8209
29.2308
32.4185
35.3507
38.0249
40.4534
42.6545
44.648
46.454
48.0911
49.5764
50.9261
52.1557
53.2822
54.3272
15.58
17.7731
20.3481
23.0455
25.7066
28.2473
30.6291
32.8386
34.8764
36.7494
38.4681
40.0438
41.4883
42.8129
44.0286
45.1464
46.1779
47.1366
15.3746
16.94
18.8141
20.827
22.8633
24.8529
26.7572
28.557
30.2445
31.819
33.2833
34.6425
35.9028
37.0707
38.1532
39.1572
40.0904
40.9607
15.2202
16.3202
17.6662
19.1522
20.6973
22.2455
23.7612
25.2225
26.6169
27.9382
29.1842
30.3553
31.4535
32.4817
33.4435
34.3431
35.1846
35.9724
15.1154
15.9034
16.8899
18.0101
19.2076
20.4384
21.6705
22.8817
24.0573
25.1878
26.2678
27.2945
28.2672
29.1862
30.053
30.8695
31.6379
32.36
15.0629
15.6954
16.5005
17.433
18.4493
19.5122
20.5928
21.6692
22.7258
23.7521
24.741
25.6882
26.5915
27.4501
28.2642
29.0347
29.7631
30.4515
15.079
15.7585
16.6172
17.604
18.6719
19.7823
20.9056
22.0203
23.1113
24.1682
25.1846
26.1567
27.0824
27.9613
28.7935
29.58
30.3217
31.0195
15.1988
16.233
17.5007
18.9059
20.3738
21.8523
23.3071
24.7166
26.068
27.3545
28.5729
29.723
30.8057
31.8233
32.7781
33.6728
34.5095
35.2891
15.4072
17.0667
19.0414
21.1513
23.2772
25.3487
27.3278
29.1963
30.9476
32.5817
34.1024
35.5152
36.8268
38.044
39.1733
40.2204
41.1897
42.0816
15.7671
18.5249
21.7122
24.9934
28.1791
31.1793
33.9597
36.5145
38.8517
40.9854
42.9319
44.7081
46.3299
47.8122
49.1687
50.4108
51.5471
52.5763
16.3867
21.0659
26.3183
31.5136
36.362
40.7671
44.7212
48.2515
51.3974
54.2008
56.7016
58.9358
60.9358
62.73
64.344
65.7993
67.1135
68.2785
17.4988
25.6603
34.5308
42.8942
50.3475
56.8494
62.4801
67.3431
71.5443
75.1804
78.335
81.0789
83.4723
85.5657
87.4044
89.0252
90.4662
91.7052
19.6474
34.5755
50.1051
63.8329
75.3834
84.9724
92.9181
99.4893
104.936
109.467
113.245
116.406
119.057
121.283
123.165
124.756
126.144
127.273
24.2998
53.9036
82.4116
105.38
123.266
137.149
147.961
156.309
162.789
167.841
171.772
174.827
177.189
178.994
180.393
181.431
182.29
182.832
36.4922
103.325
158.512
197.273
224.156
242.903
255.959
264.559
270.348
274.152
276.466
277.734
278.213
278.113
277.762
277.014
276.262
275.22
81.6126
262.528
372.082
433.12
466.542
484.623
492.858
493.49
492.259
489.332
485.111
480.458
475.702
470.804
466.211
461.447
457.486
453.125
390.158
975.274
1160.18
1205.51
1197.65
1174.08
1134.76
1094.93
1063.51
1037.62
1015.59
996.477
979.844
965.04
952.179
940.418
930.523
921.079
6457.22
6260.43
5992.31
5735.77
5500.37
5289.62
5101.44
4934.01
4785.21
4652.61
4533.97
4427.27
4331.15
4243.81
4164.89
4092.21
4026.72
3965.07
11.5386
11.2278
18.5016
23.2769
26.8447
29.2854
31.232
32.7063
33.9099
34.897
35.7517
36.5087
37.2028
37.85
38.4613
39.0379
39.5743
40.0602
40.4769
40.8062
41.0441
41.185
41.1985
41.0959
40.7339
39.9313
38.6206
36.7622
34.2383
30.905
26.7891
21.5822
16.2953
12.3255
9.63237
8.10346
7.50214
7.43585
7.52119
7.71799
8.14573
9.34656
11.8295
15.1954
19.412
24.6286
31.1474
39.6079
48.3298
56.8503
65.2613
73.5517
81.7256
89.7632
97.6508
105.393
112.992
120.455
127.789
135.005
142.115
149.137
156.095
163.01
169.889
176.74
183.568
190.378
197.173
203.955
210.726
217.484
224.228
230.955
237.661
244.338
250.98
257.574
264.107
270.561
276.915
283.144
289.226
295.148
300.903
306.461
311.788
316.838
321.54
325.787
329.607
333.701
337.606
341.505
345.334
349.118
352.861
356.561
360.181
363.702
367.1
370.351
373.43
376.309
378.956
381.357
383.588
385.659
387.577
389.346
390.97
392.457
393.828
394.995
396.179
397.069
398.042
398.842
399.57
400.181
400.659
400.808
401.238
401.572
401.941
402.352
402.838
403.285
403.77
404.403
404.928
405.453
405.964
406.851
407.457
408.527
409.559
410.77
411.954
413.054
414.136
415.306
416.64
417.894
418.987
419.975
420.756
421.627
422.225
422.778
423.129
423.311
423.316
423.122
422.741
422.247
421.879
422.37
424.057
426.439
425.993
422.788
419.186
415.354
411.268
406.929
402.373
397.639
392.788
387.847
382.898
377.891
372.928
367.736
362.818
357.326
352.562
346.112
340.617
310.301
34.8561
22.0808
18.5896
17.8806
17.6698
17.7349
17.8837
18.1093
18.338
18.5639
18.7648
18.937
19.0772
19.1891
19.2753
19.3405
19.3906
19.4375
19.4961
19.5803
19.7027
19.8737
20.0978
20.3714
20.6897
21.0535
21.4437
21.9333
22.7258
23.7715
24.9699
26.1527
27.5667
29.4662
31.8681
34.721
37.8678
41.0239
43.812
45.9298
47.3438
48.2419
48.8209
49.2254
49.6115
50.1289
50.8759
51.8851
53.1083
54.5074
56.0035
57.5982
59.2841
61.0487
62.8782
64.7609
66.6873
68.6501
70.6454
72.6723
74.7341
76.8394
78.9645
81.0773
83.1701
85.2428
87.2972
89.335
91.3572
93.3643
95.3562
97.3325
99.2922
101.234
103.157
105.06
106.941
108.799
110.634
112.449
114.25
116.051
117.883
119.757
121.638
123.514
125.377
127.217
129.027
130.812
132.597
134.386
136.142
137.876
139.59
141.288
142.965
144.601
146.188
147.728
149.229
150.701
152.157
153.62
155.137
156.798
158.475
160.131
161.754
163.341
164.889
166.397
167.861
169.281
170.659
171.989
173.282
174.527
175.722
176.863
177.945
178.978
179.984
180.946
181.874
182.77
183.634
184.463
185.272
186.058
186.817
187.565
188.325
189.107
189.896
190.744
191.617
192.533
193.473
194.437
195.434
196.474
197.563
198.656
199.728
200.765
201.755
202.682
203.499
204.19
204.724
205.078
205.235
205.186
204.937
204.521
203.998
203.405
202.53
201.298
199.481
197.141
194.551
191.746
188.753
185.603
182.327
178.957
175.521
172.046
168.554
165.061
161.584
158.16
154.789
151.449
148.129
144.808
140.991
138.221
62.0211
32.6138
25.4804
22.199
20.5568
19.6739
19.1539
18.938
18.8326
18.8183
18.8379
18.8883
18.9563
19.0431
19.1542
19.3064
19.5264
19.8547
20.3513
20.994
21.7514
22.5979
23.5241
24.5408
25.6724
26.9459
28.392
30.0627
32.0202
34.3234
37.0254
40.1729
43.6045
47.1172
50.5427
53.631
56.0895
57.6281
58.1514
57.7977
56.805
55.4882
54.1184
52.8954
51.9462
51.3593
51.1399
51.2441
51.6433
52.2914
53.174
54.2402
55.446
56.7544
58.1351
59.5647
61.0258
62.5063
63.9978
65.4946
66.9934
68.4912
69.985
71.4721
72.9513
74.4226
75.8861
77.342
78.7906
80.2319
81.666
83.093
84.5131
85.9266
87.334
88.7362
90.1344
91.5305
92.9271
94.3279
95.7373
97.1609
98.6046
100.073
101.573
103.116
104.72
106.373
108.042
109.717
111.391
113.062
114.73
116.394
118.056
119.715
121.367
123.004
124.619
126.215
127.796
129.368
130.939
132.515
134.101
135.694
137.277
138.842
140.385
141.903
143.395
144.857
146.289
147.689
149.059
150.397
151.706
152.984
154.229
155.435
156.599
157.72
158.797
159.83
160.818
161.763
162.665
163.527
164.35
165.139
165.895
166.627
167.34
168.04
168.729
169.416
170.098
170.778
171.455
172.131
172.805
173.472
174.126
174.758
175.35
175.888
176.355
176.733
177
177.126
177.113
176.931
176.569
176.019
175.281
174.367
173.299
172.062
170.577
168.781
166.679
164.341
161.827
159.149
156.321
153.364
150.303
147.163
143.967
140.738
137.492
134.255
131.067
128.004
125.034
122.118
119.329
116.544
113.978
112.117
81.5079
40.8928
31.1107
26.7614
24.3066
22.8873
21.9768
21.5067
21.2222
21.1095
21.0809
21.135
21.2512
21.4411
21.7153
22.1035
22.6428
23.3862
24.3598
25.5433
26.9003
28.3937
29.9987
31.6922
33.4386
35.1965
36.9415
38.6758
40.4173
42.184
43.9826
45.8097
47.6531
49.4663
51.1596
52.6145
53.6115
54.0056
53.8422
53.2443
52.4115
51.5337
50.7606
50.1961
49.9168
49.8979
50.1572
50.6689
51.4031
52.3125
53.3573
54.5084
55.7382
57.0236
58.3463
59.6934
61.0559
62.4281
63.8084
65.1962
66.5911
67.993
69.4015
70.8166
72.2382
73.6662
75.1008
76.542
77.99
79.445
80.907
82.3763
83.8529
85.3373
86.8298
88.3311
89.8417
91.3623
92.8936
94.4362
95.9912
97.5596
99.1422
100.74
102.354
103.984
105.632
107.293
108.963
110.642
112.327
114.017
115.708
117.4
119.093
120.787
122.481
124.172
125.855
127.528
129.192
130.85
132.503
134.151
135.794
137.427
139.046
140.648
142.229
143.788
145.323
146.832
148.314
149.768
151.196
152.6
153.989
155.376
156.738
158.063
159.346
160.583
161.771
162.911
164
165.041
166.033
166.978
167.878
168.736
169.554
170.336
171.086
171.807
172.502
173.175
173.825
174.455
175.064
175.652
176.217
176.754
177.255
177.714
178.119
178.457
178.715
178.872
178.917
178.834
178.608
178.222
177.663
176.923
175.992
174.863
173.524
171.959
170.157
168.113
165.834
163.343
160.668
157.825
154.835
151.72
148.504
145.211
141.863
138.483
135.091
131.712
128.373
125.098
121.88
118.73
115.637
112.638
109.75
107.382
108.91
50.4111
37.0169
31.0606
27.9851
26.0808
24.9647
24.2306
23.8103
23.5878
23.5307
23.6112
23.806
24.129
24.6056
25.2452
26.0372
26.9675
28.0264
29.2117
30.524
31.9542
33.4745
35.0332
36.5673
38.0248
39.374
40.5986
41.7026
42.7112
43.6636
44.577
45.4218
46.1514
46.7256
47.0939
47.2763
47.3399
47.3455
47.3329
47.3511
47.4499
47.6692
48.0336
48.5532
49.2248
50.0377
50.9723
52.0178
53.1577
54.3751
55.6519
56.9749
58.3341
59.7225
61.1354
62.5697
64.0237
65.4954
66.9835
68.4875
70.0069
71.5414
73.0909
74.6553
76.2345
77.8283
79.4368
81.0598
82.6972
84.3489
86.0148
87.6947
89.3886
91.0965
92.8186
94.5548
96.3055
98.0708
99.8508
101.645
103.455
105.278
107.115
108.966
110.83
112.706
114.591
116.485
118.386
120.295
122.213
124.141
126.08
128.029
129.983
131.937
133.887
135.832
137.777
139.721
141.664
143.603
145.535
147.457
149.365
151.255
153.125
154.972
156.793
158.586
160.348
162.078
163.774
165.437
167.067
168.663
170.227
171.749
173.226
174.653
176.028
177.35
178.616
179.828
180.984
182.084
183.129
184.119
185.055
185.939
186.77
187.552
188.284
188.969
189.607
190.2
190.747
191.248
191.701
192.104
192.452
192.743
192.97
193.129
193.205
193.195
193.086
192.867
192.522
192.037
191.397
190.586
189.588
188.388
186.969
185.314
183.414
181.273
178.895
176.282
173.444
170.397
167.161
163.764
160.231
156.591
152.872
149.099
145.298
141.496
137.714
133.981
130.309
126.724
123.221
119.858
116.59
113.588
110.678
126.582
58.451
42.218
35.0285
31.5335
29.3457
28.0901
27.2625
26.7731
26.4887
26.384
26.4212
26.6046
26.9256
27.3819
27.9608
28.6456
29.414
30.2485
31.1471
32.1219
33.1744
34.2811
35.3978
36.4763
37.4731
38.3488
39.0847
39.6915
40.1903
40.6015
40.9548
41.2935
41.6484
42.0204
42.411
42.828
43.2749
43.7484
44.259
44.8259
45.4745
46.2297
47.09
48.0508
49.103
50.2369
51.451
52.7375
54.0872
55.4917
56.9433
58.4355
59.9631
61.5221
63.1095
64.7232
66.3619
68.0246
69.7107
71.4199
73.152
74.9067
76.6838
78.4831
80.304
82.1461
84.0093
85.893
87.7973
89.722
91.6673
93.6334
95.6201
97.6276
99.6555
101.704
103.772
105.859
107.965
110.09
112.233
114.392
116.567
118.758
120.963
123.181
125.412
127.656
129.913
132.184
134.469
136.767
139.075
141.39
143.71
146.034
148.363
150.698
153.036
155.372
157.703
160.025
162.333
164.626
166.898
169.146
171.367
173.557
175.713
177.831
179.909
181.943
183.931
185.871
187.762
189.601
191.385
193.11
194.773
196.369
197.898
199.357
200.745
202.059
203.3
204.467
205.558
206.574
207.514
208.379
209.169
209.884
210.526
211.097
211.599
212.033
212.4
212.696
212.923
213.082
213.169
213.184
213.126
212.994
212.779
212.477
212.077
211.569
210.938
210.169
209.245
208.147
206.858
205.356
203.623
201.638
199.389
196.876
194.105
191.081
187.816
184.323
180.625
176.75
172.727
168.588
164.363
160.083
155.776
151.47
147.19
142.963
138.804
134.746
130.787
126.988
123.294
119.846
116.265
143.506
65.2098
46.4937
38.2621
34.4937
32.1211
30.733
29.8187
29.2672
28.9327
28.7742
28.7386
28.812
28.9804
29.2377
29.5758
29.9902
30.4745
31.022
31.6264
32.2854
32.9933
33.7275
34.4522
35.1322
35.7407
36.2706
36.7315
37.1403
37.5227
37.9076
38.3239
38.7991
39.3525
39.9498
40.5738
41.22
41.8925
42.6003
43.3566
44.1758
45.0711
46.0557
47.1395
48.3123
49.5731
50.9205
52.3435
53.832
55.3801
56.9821
58.6331
60.3287
62.0653
63.8401
65.6511
67.4965
69.3752
71.2861
73.2283
75.2009
77.2032
79.2346
81.2947
83.3834
85.5006
87.6466
89.8216
92.0259
94.2597
96.5232
98.8165
101.14
103.492
105.875
108.286
110.726
113.195
115.691
118.213
120.761
123.334
125.93
128.548
131.187
133.845
136.522
139.215
141.925
144.651
147.392
150.148
152.917
155.698
158.49
161.29
164.097
166.909
169.721
172.53
175.33
178.118
180.89
183.642
186.37
189.068
191.733
194.36
196.945
199.482
201.968
204.398
206.769
209.077
211.318
213.489
215.587
217.608
219.549
221.406
223.175
224.854
226.44
227.932
229.327
230.624
231.822
232.919
233.916
234.811
235.603
236.293
236.883
237.375
237.771
238.075
238.289
238.407
238.435
238.374
238.229
238
237.69
237.302
236.833
236.28
235.64
234.903
234.059
233.093
231.99
230.731
229.293
227.654
225.791
223.681
221.304
218.648
215.712
212.498
209.014
205.268
201.278
197.068
192.669
188.112
183.433
178.663
173.838
168.986
164.139
159.321
154.564
149.882
145.311
140.851
136.558
132.363
128.358
124.127
151.475
69.571
49.3209
40.5122
36.4407
33.884
32.3693
31.3632
30.7382
30.3391
30.1126
30.0028
29.9809
30.027
30.1333
30.2935
30.5067
30.7746
31.0991
31.4779
31.8999
32.3496
32.8119
33.2735
33.7244
34.1617
34.5884
35.0125
35.4469
35.909
36.4195
37.0004
37.6563
38.3667
39.1177
39.902
40.7186
41.5698
42.4602
43.3957
44.3847
45.4407
46.5752
47.7981
49.1153
50.531
52.0416
53.6374
55.3099
57.0519
58.8569
60.7193
62.6346
64.5993
66.6107
68.6669
70.7666
72.9087
75.0922
77.3161
79.5795
81.8815
84.2215
86.599
89.014
91.467
93.9586
96.4897
99.061
101.673
104.326
107.019
109.752
112.524
115.336
118.186
121.075
124.001
126.964
129.961
132.991
136.053
139.145
142.264
145.408
148.577
151.768
154.979
158.209
161.458
164.723
168.004
171.299
174.605
177.921
181.242
184.563
187.882
191.196
194.502
197.795
201.07
204.321
207.544
210.731
213.878
216.978
220.026
223.016
225.942
228.799
231.582
234.285
236.904
239.433
241.869
244.208
246.444
248.574
250.595
252.502
254.291
255.962
257.51
258.933
260.231
261.4
262.441
263.353
264.135
264.787
265.31
265.708
265.985
266.142
266.182
266.108
265.923
265.629
265.232
264.738
264.151
263.478
262.72
261.88
260.956
259.945
258.839
257.627
256.296
254.828
253.201
251.393
249.375
247.122
244.607
241.81
238.717
235.324
231.634
227.656
223.402
218.892
214.153
209.217
204.12
198.898
193.586
188.221
182.835
177.461
172.125
166.859
161.68
156.622
151.683
146.91
142.224
137.688
132.877
159.22
72.1954
50.7344
41.5697
37.2915
34.6163
33.0136
31.9447
31.2674
30.8232
30.5514
30.391
30.3144
30.2948
30.3232
30.3958
30.5143
30.6817
30.8986
31.1607
31.4616
31.7901
32.1356
32.4929
32.8635
33.2544
33.6739
34.1297
34.6294
35.1819
35.7984
36.4918
37.2558
38.0764
38.9442
39.8534
40.8008
41.79
42.8279
43.9231
45.0823
46.3097
47.6113
48.9942
50.4673
52.0403
53.7209
55.4977
57.3614
59.3042
61.3192
63.4012
65.5459
67.7505
70.0131
72.3325
74.708
77.1388
79.624
82.1626
84.7536
87.3956
90.0876
92.8287
95.6187
98.4584
101.349
104.291
107.287
110.335
113.438
116.593
119.799
123.058
126.367
129.726
133.135
136.592
140.096
143.644
147.234
150.863
154.528
158.228
161.959
165.719
169.504
173.314
177.144
180.994
184.859
188.737
192.623
196.516
200.411
204.307
208.203
212.094
215.97
219.825
223.654
227.45
231.208
234.921
238.583
242.188
245.729
249.198
252.59
255.896
259.112
262.229
265.242
268.145
270.933
273.599
276.14
278.55
280.825
282.96
284.951
286.795
288.489
290.029
291.414
292.641
293.71
294.62
295.371
295.962
296.395
296.672
296.795
296.776
296.612
296.31
295.872
295.304
294.612
293.803
292.886
291.869
290.759
289.562
288.282
286.919
285.469
283.927
282.282
280.521
278.624
276.568
274.327
271.87
269.168
266.194
262.925
259.348
255.459
251.26
246.761
241.979
236.935
231.66
226.188
220.556
214.803
208.967
203.085
197.193
191.323
185.505
179.77
174.135
168.634
163.26
158.052
152.921
147.914
142.63
158.387
72.3662
50.7904
41.5555
37.2295
34.5148
32.8808
31.787
31.0916
30.6348
30.3557
30.1916
30.1129
30.0906
30.1126
30.1728
30.2715
30.411
30.5949
30.8233
31.0924
31.3953
31.726
32.0823
32.4672
32.8878
33.3516
33.8646
34.4317
35.0579
35.7491
36.512
37.3471
38.2461
39.2038
40.2181
41.29
42.4195
43.6076
44.8569
46.173
47.563
49.0347
50.5966
52.2576
54.0276
55.9068
57.8862
59.9585
62.1174
64.3579
66.6759
69.0687
71.5348
74.0733
76.6838
79.3659
82.1187
84.9415
87.8332
90.7925
93.8178
96.9075
100.061
103.277
106.557
109.902
113.314
116.794
120.341
123.955
127.636
131.382
135.192
139.064
142.997
146.991
151.042
155.148
159.307
163.513
167.765
172.058
176.388
180.753
185.149
189.572
194.019
198.485
202.968
207.463
211.967
216.476
220.986
225.49
229.982
234.455
238.907
243.334
247.728
252.084
256.394
260.651
264.847
268.975
273.026
276.992
280.865
284.636
288.298
291.842
295.261
298.548
301.695
304.696
307.545
310.236
312.764
315.123
317.309
319.317
321.144
322.785
324.24
325.505
326.579
327.461
328.153
328.654
328.964
329.087
329.028
328.794
328.39
327.822
327.094
326.213
325.187
324.025
322.736
321.331
319.821
318.216
316.523
314.749
312.894
310.957
308.929
306.802
304.561
302.186
299.651
296.929
293.987
290.793
287.319
283.543
279.451
275.039
270.311
265.281
259.967
254.394
248.595
242.605
236.465
230.213
223.891
217.536
211.185
204.872
198.627
192.481
186.452
180.569
174.825
169.248
163.746
158.363
152.717
158.841
71.1891
49.9395
40.7698
36.4707
33.7717
32.1486
31.0656
30.3845
29.9473
29.6949
29.5667
29.5289
29.5523
29.6243
29.7351
29.8823
30.0655
30.2869
30.5477
30.8481
31.1864
31.5611
31.9716
32.4192
32.907
33.4392
34.0211
34.6576
35.3533
36.1133
36.9428
37.8465
38.8279
39.8838
41.0089
42.201
43.4608
44.7916
46.198
47.6866
49.2649
50.9422
52.7287
54.6233
56.625
58.7319
60.9407
63.2484
65.6516
68.1479
70.7355
73.4137
76.1823
79.0415
81.9914
85.0315
88.1611
91.3791
94.6845
98.0758
101.551
105.109
108.749
112.47
116.272
120.157
124.124
128.175
132.308
136.523
140.817
145.19
149.638
154.161
158.757
163.422
168.152
172.945
177.796
182.7
187.654
192.652
197.691
202.765
207.87
213
218.152
223.319
228.495
233.675
238.852
244.02
249.174
254.315
259.436
264.529
269.583
274.592
279.548
284.443
289.27
294.02
298.686
303.258
307.728
312.087
316.325
320.432
324.401
328.221
331.884
335.381
338.705
341.848
344.803
347.565
350.126
352.482
354.626
356.554
358.262
359.748
361.008
362.041
362.847
363.425
363.779
363.908
363.815
363.506
362.988
362.271
361.361
360.264
358.991
357.549
355.95
354.205
352.325
350.326
348.219
346.019
343.734
341.372
338.934
336.418
333.818
331.122
328.317
325.383
322.292
319.016
315.521
311.773
307.746
303.417
298.774
293.814
288.545
282.981
277.142
271.057
264.759
258.285
251.677
244.974
238.216
231.444
224.692
217.997
211.387
204.894
198.534
192.334
186.284
180.409
174.613
168.941
163.041
156.172
69.1605
48.4144
39.4506
35.2455
32.6139
31.0453
30.0106
29.3779
28.9915
28.7981
28.7327
28.7636
28.8638
29.0189
29.2166
29.4519
29.7217
30.0262
30.3662
30.7433
31.1574
31.6092
32.101
32.6364
33.2192
33.853
34.5405
35.2846
36.0883
36.9558
37.8911
38.8983
39.9805
41.14
42.3795
43.702
45.1111
46.6108
48.2053
49.8992
51.6972
53.6033
55.6206
57.7507
59.9941
62.3507
64.8195
67.3997
70.0902
72.8908
75.8018
78.824
81.9584
85.2056
88.5655
92.0375
95.6203
99.3124
103.112
107.018
111.028
115.141
119.356
123.674
128.093
132.614
137.235
141.955
146.772
151.683
156.686
161.779
166.959
172.224
177.568
182.988
188.478
194.033
199.647
205.316
211.033
216.793
222.59
228.417
234.27
240.142
246.026
251.916
257.806
263.689
269.557
275.403
281.216
286.989
292.716
298.392
304.009
309.561
315.037
320.431
325.734
330.935
336.026
340.997
345.838
350.537
355.085
359.47
363.682
367.711
371.546
375.178
378.599
381.799
384.772
387.51
390.007
392.256
394.252
395.99
397.466
398.678
399.625
400.304
400.717
400.865
400.753
400.383
399.756
398.885
397.78
396.451
394.908
393.16
391.219
389.099
386.812
384.372
381.795
379.096
376.292
373.398
370.426
367.383
364.272
361.09
357.83
354.483
351.033
347.461
343.742
339.843
335.733
331.378
326.753
321.836
316.618
311.099
305.287
299.2
292.859
286.294
279.539
272.633
265.613
258.521
251.395
244.274
237.194
230.188
223.287
216.519
209.9
203.455
197.172
191.071
185.061
179.19
173.132
151.5
66.2614
46.4427
37.9318
33.8205
31.2794
29.7923
28.8328
28.2743
27.9659
27.8537
27.8706
27.9932
28.1926
28.454
28.7638
29.1153
29.5029
29.925
30.3793
30.8662
31.3902
31.956
32.5674
33.2278
33.9403
34.7068
35.529
36.4098
37.3528
38.3619
39.4415
40.596
41.8298
43.1476
44.554
46.0537
47.6514
49.3519
51.1597
53.0795
55.1154
57.2712
59.5503
61.955
64.4871
67.148
69.9384
72.8593
75.9118
79.0974
82.4181
85.8758
89.4722
93.2077
97.082
101.094
105.241
109.522
113.934
118.475
123.143
127.937
132.857
137.902
143.071
148.36
153.768
159.29
164.921
170.658
176.498
182.435
188.467
194.588
200.793
207.075
213.427
219.843
226.316
232.838
239.404
246.005
252.635
259.286
265.951
272.622
279.289
285.944
292.576
299.175
305.737
312.258
318.728
325.137
331.475
337.731
343.897
349.964
355.924
361.767
367.485
373.069
378.507
383.791
388.909
393.85
398.603
403.155
407.495
411.612
415.494
419.132
422.516
425.637
428.487
431.058
433.343
435.336
437.031
438.425
439.513
440.294
440.767
440.932
440.793
440.353
439.608
438.569
437.244
435.647
433.789
431.683
429.341
426.778
424.009
421.05
417.919
414.631
411.205
407.66
404.015
400.288
396.494
392.641
388.732
384.762
380.726
376.615
372.415
368.108
363.67
359.069
354.274
349.253
343.983
338.447
332.636
326.554
320.211
313.624
306.817
299.819
292.664
285.388
278.028
270.622
263.207
255.818
248.49
241.255
234.141
227.173
220.369
213.75
207.303
201.049
194.898
188.906
182.775
145.033
62.8808
44.1896
36.2482
32.2949
29.8899
28.5203
27.6667
27.212
27.007
26.9951
27.12
27.3574
27.6784
28.0693
28.5154
29.0085
29.5399
30.1066
30.71
31.3534
32.0384
32.7682
33.5451
34.3721
35.2515
36.1867
37.1821
38.2421
39.3701
40.5701
41.8462
43.2034
44.6466
46.1815
47.8138
49.5493
51.3938
53.3533
55.4335
57.6399
59.9779
62.4523
65.0677
67.8277
70.7356
73.7944
77.0065
80.3748
83.9024
87.5924
91.4481
95.4721
99.666
104.03
108.562
113.261
118.124
123.147
128.327
133.66
139.145
144.778
150.56
156.488
162.559
168.769
175.113
181.583
188.173
194.876
201.685
208.595
215.598
222.69
229.861
237.104
244.409
251.767
259.17
266.607
274.072
281.555
289.046
296.537
304.02
311.486
318.925
326.328
333.682
340.973
348.192
355.329
362.376
369.326
376.168
382.894
389.495
395.962
402.286
408.458
414.469
420.308
425.965
431.429
436.689
441.732
446.545
451.117
455.434
459.484
463.256
466.74
469.925
472.803
475.365
477.604
479.511
481.081
482.31
483.193
483.729
483.913
483.754
483.248
482.388
481.185
479.644
477.776
475.592
473.106
470.333
467.288
463.987
460.449
456.693
452.739
448.608
444.319
439.894
435.355
430.725
426.026
421.274
416.479
411.644
406.765
401.836
396.851
391.801
386.669
381.432
376.06
370.523
364.794
358.851
352.68
346.277
339.647
332.801
325.756
318.536
311.168
303.683
296.117
288.501
280.87
273.257
265.693
258.209
250.834
243.592
236.509
229.598
222.879
216.341
210.002
203.78
197.739
191.606
137.741
59.1968
41.7884
34.49
30.7754
28.5588
27.3433
26.6277
26.3066
26.2266
26.3468
26.6087
26.9915
27.4656
28.0168
28.6272
29.2924
30.0077
30.7729
31.5853
32.4454
33.3527
34.3079
35.3132
36.3718
37.4874
38.6647
39.9083
41.2233
42.6138
44.0847
45.6409
47.2871
49.0291
50.8739
52.8281
54.899
57.0936
59.4192
61.8833
64.493
67.2552
70.1766
73.2631
76.5201
79.9526
83.5652
87.3621
91.348
95.5275
99.9052
104.485
109.27
114.262
119.458
124.857
130.454
136.246
142.226
148.391
154.734
161.251
167.938
174.792
181.808
188.982
196.306
203.772
211.371
219.092
226.926
234.861
242.89
251.004
259.191
267.443
275.747
284.094
292.47
300.866
309.27
317.672
326.06
334.425
342.756
351.041
359.268
367.425
375.502
383.49
391.38
399.159
406.814
414.334
421.708
428.927
435.98
442.86
449.557
456.063
462.371
468.47
474.352
480.008
485.425
490.593
495.499
500.131
504.477
508.523
512.257
515.669
518.75
521.489
523.879
525.91
527.576
528.87
529.785
530.324
530.473
530.249
529.637
528.63
527.235
525.455
523.298
520.773
517.889
514.66
511.102
507.231
503.067
498.627
493.935
489.012
483.884
478.575
473.108
467.51
461.806
456.023
450.189
444.322
438.435
432.531
426.607
420.661
414.689
408.689
402.647
396.54
390.34
384.022
377.56
370.936
364.139
357.167
350.028
342.728
335.285
327.721
320.06
312.331
304.565
296.789
289.032
281.32
273.682
266.141
258.723
251.448
244.337
237.403
230.663
224.105
217.749
211.521
205.491
199.415
128.673
55.1657
39.2444
32.6931
29.3179
27.3808
26.3317
25.7843
25.6316
25.7209
26.0219
26.4695
27.0444
27.7162
28.4806
29.3253
30.2462
31.2345
32.2879
33.4025
34.5764
35.8088
37.1017
38.457
39.878
41.3683
42.9331
44.5765
46.3015
48.1116
50.014
52.0146
54.1192
56.3351
58.6705
61.1341
63.7344
66.4797
69.3792
72.4419
75.6771
79.0939
82.7007
86.5053
90.515
94.7362
99.175
103.837
108.728
113.854
119.22
124.83
130.685
136.786
143.129
149.71
156.521
163.555
170.804
178.258
185.91
193.752
201.774
209.971
218.333
226.853
235.519
244.32
253.244
262.275
271.401
280.607
289.881
299.208
308.577
317.973
327.382
336.79
346.184
355.551
364.876
374.151
383.361
392.496
401.546
410.498
419.335
428.043
436.611
445.025
453.276
461.355
469.251
476.953
484.453
491.741
498.809
505.648
512.253
518.615
524.727
530.582
536.172
541.488
546.519
551.255
555.684
559.794
563.573
567.01
570.093
572.814
575.165
577.138
578.723
579.913
580.71
581.097
581.073
580.67
579.831
578.577
576.905
574.813
572.306
569.39
566.071
562.358
558.263
553.8
548.984
543.834
538.369
532.612
526.587
520.32
513.839
507.174
500.352
493.405
486.362
479.258
472.125
464.988
457.862
450.75
443.653
436.573
429.516
422.487
415.473
408.448
401.391
394.279
387.09
379.808
372.423
364.931
357.334
349.646
341.884
334.066
326.212
318.344
310.481
302.647
294.865
287.158
279.547
272.052
264.691
257.48
250.435
243.566
236.886
230.384
224.08
217.908
211.943
205.971
119.487
51.0224
36.7446
30.9804
28.0306
26.4329
25.633
25.3245
25.4048
25.7281
26.2644
26.9602
27.8103
28.7876
29.8861
31.09
32.3967
33.797
35.2879
36.8632
38.5243
40.2712
42.1071
44.0344
46.0565
48.1766
50.3992
52.7261
55.1583
57.6995
60.3525
63.1185
66.0064
69.0306
72.2021
75.5288
79.0178
82.6796
86.5253
90.5668
94.8155
99.2822
103.977
108.909
114.087
119.518
125.208
131.164
137.391
143.892
150.672
157.733
165.073
172.69
180.577
188.726
197.124
205.759
214.617
223.684
232.948
242.394
252.008
261.779
271.693
281.736
291.894
302.15
312.488
322.89
333.34
343.818
354.309
364.796
375.263
385.692
396.069
406.376
416.599
426.722
436.73
446.611
456.349
465.935
475.356
484.603
493.662
502.523
511.175
519.604
527.798
535.749
543.444
550.877
558.037
564.92
571.519
577.829
583.845
589.563
594.978
600.087
604.883
609.361
613.511
617.325
620.794
623.906
626.654
629.028
631.017
632.615
633.824
634.633
635.027
635.008
634.608
633.762
632.498
630.815
628.701
626.156
623.18
619.775
615.945
611.694
607.03
601.961
596.496
590.65
584.438
577.878
570.989
563.795
556.32
548.594
540.648
532.515
524.229
515.824
507.339
498.814
490.29
481.798
473.359
464.974
456.649
448.395
440.224
432.132
424.1
416.132
408.221
400.343
392.477
384.605
376.718
368.811
360.884
352.945
345.001
337.065
329.151
321.273
313.447
305.688
298.015
290.443
282.989
275.664
268.484
261.457
254.595
247.891
241.363
235.002
228.827
222.779
216.938
211.118
109.716
47.145
34.5239
29.5445
27.0728
25.8741
25.4067
25.4102
25.7797
26.4139
27.3048
28.3854
29.6543
31.0805
32.666
34.3938
36.2648
38.2669
40.4045
42.6736
45.0804
47.626
50.3159
53.1513
56.1366
59.2742
62.5681
66.0173
69.621
73.3773
77.2846
81.3384
85.5404
89.9048
94.4395
99.154
104.059
109.165
114.485
120.032
125.816
131.85
138.143
144.707
151.55
158.678
166.096
173.808
181.816
190.119
198.717
207.606
216.782
226.234
235.953
245.922
256.127
266.548
277.165
287.959
298.91
309.998
321.205
332.513
343.902
355.355
366.854
378.377
389.907
401.422
412.903
424.329
435.683
446.945
458.098
469.124
480.007
490.732
501.282
511.646
521.808
531.755
541.474
550.955
560.185
569.154
577.85
586.266
594.392
602.218
609.737
616.943