/*--------------------------------*- C++ -*----------------------------------*\
| =========                 |                                                 |
| \\      /  F ield         | OpenFOAM: The Open Source CFD Toolbox           |
|  \\    /   O peration     | Version:  v1906                                 |
|   \\  /    A nd           | Web:      www.OpenFOAM.com                      |
|    \\/     M anipulation  |                                                 |
\*---------------------------------------------------------------------------*/
FoamFile
{
    version     2.0;
    format      ascii;
    class       volScalarField;
    location    "1400";
    object      k;
}
// * * * * * * * * * * * * * * * * * * * * * * * * * * * * * * * * * * * * * //

dimensions      [0 2 -2 0 0 0 0];


internalField   nonuniform List<scalar> 
12225
(
2.25874
2.22668
2.16195
2.0917
2.02501
1.96456
1.91059
1.86316
1.82046
1.78366
1.74911
1.72112
1.69857
1.68029
1.66362
1.65162
1.63739
1.63204
2.25029
2.13779
1.98564
1.87243
1.78123
1.71368
1.66067
1.61695
1.58113
1.55027
1.52536
1.50222
1.48552
1.4676
1.45719
1.44237
1.43605
1.4218
2.25785
2.21888
2.14361
2.07155
2.00395
1.94414
1.89182
1.84558
1.80506
1.76892
1.73735
1.70851
1.6838
1.66047
1.64126
1.62191
1.60741
1.59155
2.25839
2.23538
2.18791
2.13577
2.08419
2.03588
1.99183
1.95173
1.91551
1.88261
1.85296
1.82579
1.80144
1.77889
1.75882
1.73984
1.72359
1.7066
2.25891
2.24457
2.21501
2.18006
2.14382
2.10823
2.07435
2.04243
2.01264
1.98489
1.95921
1.93532
1.91327
1.89272
1.87383
1.85613
1.84025
1.82448
2.25905
2.24839
2.22761
2.20199
2.17442
2.14647
2.1191
2.09277
2.06769
2.04397
2.02165
2.00065
1.98097
1.9625
1.94524
1.92903
1.91399
1.89926
2.25918
2.25077
2.23561
2.21657
2.1956
2.17389
2.1522
2.13092
2.11033
2.09055
2.07166
2.05368
2.03662
2.02045
2.00517
1.99074
1.9772
1.96409
2.25922
2.25211
2.24034
2.22547
2.20884
2.19132
2.17352
2.15582
2.13846
2.12159
2.10531
2.08967
2.07469
2.06038
2.04675
2.03378
2.02144
2.00954
2.25927
2.2531
2.24365
2.23178
2.2184
2.20416
2.18953
2.17482
2.16025
2.14595
2.13203
2.11853
2.10551
2.09299
2.08098
2.06948
2.0585
2.0479
2.25929
2.25376
2.24586
2.23607
2.22499
2.21312
2.20081
2.18832
2.17584
2.16349
2.15138
2.13956
2.12808
2.11697
2.10625
2.09593
2.086
2.07641
2.25932
2.2543
2.24753
2.23929
2.22998
2.21996
2.20951
2.19884
2.1881
2.17742
2.16687
2.15652
2.14641
2.13658
2.12705
2.11783
2.10893
2.10031
2.25934
2.25466
2.24864
2.24143
2.23332
2.22458
2.21543
2.20605
2.19656
2.18706
2.17764
2.16836
2.15925
2.15035
2.14169
2.13328
2.12512
2.11722
2.25937
2.25498
2.24954
2.24315
2.23601
2.22832
2.22024
2.21192
2.20348
2.195
2.18656
2.1782
2.16997
2.1619
2.15402
2.14635
2.13888
2.13162
2.25939
2.25525
2.25032
2.24464
2.23834
2.23156
2.22443
2.21707
2.20957
2.20201
2.19445
2.18694
2.17951
2.17221
2.16504
2.15804
2.15122
2.14457
2.25943
2.25552
2.25102
2.24594
2.24036
2.23438
2.22809
2.22158
2.21492
2.20819
2.20143
2.19469
2.18801
2.18142
2.17493
2.16857
2.16235
2.15627
2.25946
2.25574
2.25157
2.24697
2.24196
2.23661
2.23099
2.22517
2.2192
2.21315
2.20706
2.20097
2.1949
2.1889
2.18298
2.17716
2.17146
2.16588
2.25949
2.25592
2.252
2.24774
2.24315
2.23826
2.23314
2.22782
2.22237
2.21683
2.21123
2.20562
2.20003
2.19448
2.18899
2.18358
2.17826
2.17306
2.25951
2.25603
2.25225
2.24818
2.24381
2.23919
2.23434
2.22932
2.22416
2.21892
2.21362
2.20829
2.20298
2.19769
2.19246
2.1873
2.18222
2.17722
2.2595
2.25599
2.25218
2.24805
2.24363
2.23894
2.23402
2.22892
2.22368
2.21835
2.21296
2.20756
2.20215
2.19679
2.19148
2.18624
2.1811
2.17608
2.25949
2.25585
2.25179
2.24732
2.24248
2.23731
2.23188
2.22626
2.22051
2.21466
2.20877
2.20287
2.197
2.19118
2.18543
2.17976
2.1742
2.16872
2.25943
2.25553
2.25102
2.24592
2.24031
2.23429
2.22796
2.2214
2.2147
2.20791
2.20109
2.19429
2.18754
2.18088
2.17431
2.16788
2.16159
2.1555
2.25941
2.25519
2.25002
2.24399
2.23727
2.23003
2.22243
2.2146
2.20663
2.19862
2.19062
2.18268
2.17485
2.16716
2.15963
2.15228
2.14512
2.1381
2.25935
2.25456
2.24826
2.24066
2.23209
2.22284
2.21316
2.20324
2.19322
2.1832
2.17326
2.16348
2.15388
2.14451
2.13538
2.12651
2.11791
2.10967
2.25935
2.25385
2.24584
2.23594
2.22475
2.21278
2.20039
2.18783
2.17527
2.16284
2.15065
2.13874
2.12717
2.11597
2.10516
2.09475
2.08478
2.07513
2.25927
2.25242
2.24124
2.22717
2.21139
2.1947
2.17766
2.16062
2.14384
2.12747
2.11162
2.09634
2.08166
2.0676
2.05413
2.04124
2.02886
2.01715
2.25924
2.25041
2.23397
2.21363
2.19147
2.16867
2.14591
2.12362
2.10205
2.08135
2.0616
2.0428
2.02496
2.00806
1.99208
1.97698
1.96286
1.94964
2.25889
2.24472
2.21618
2.18219
2.14678
2.11176
2.07806
2.04624
2.01648
1.98877
1.96302
1.93911
1.91689
1.89627
1.87704
1.85919
1.84219
1.82642
2.25872
2.23436
2.18569
2.13367
2.08299
2.03496
1.99029
1.94961
1.91263
1.87901
1.84841
1.82055
1.79505
1.77177
1.75033
1.73073
1.71262
1.69711
2.25333
2.17275
2.05404
1.95318
1.87048
1.80144
1.74472
1.69879
1.66017
1.62711
1.59839
1.57344
1.55131
1.532
1.51454
1.49939
1.48527
1.47205
2.25474
2.20869
2.14517
2.0835
2.0261
1.974
1.92691
1.88451
1.84643
1.81216
1.78122
1.75317
1.7277
1.70439
1.6832
1.66356
1.64576
1.62892
0.0385765
0.062939
0.0877975
0.102373
0.112581
0.119289
0.124484
0.128332
0.131417
0.133908
0.136038
0.137905
0.139601
0.141172
0.142645
0.144025
0.1453
0.146445
0.147417
0.148174
0.148707
0.14901
0.148999
0.148717
0.147824
0.145884
0.142675
0.138083
0.131727
0.123093
0.111962
0.0970992
0.0803861
0.0665946
0.0563489
0.0500748
0.047482
0.0471881
0.0475494
0.0483512
0.0499956
0.0545484
0.0636982
0.0752491
0.0886072
0.103866
0.121473
0.142533
0.162983
0.181738
0.199321
0.215895
0.231611
0.246537
0.260734
0.274279
0.287232
0.299651
0.311588
0.323092
0.334211
0.344994
0.355498
0.365767
0.375825
0.385692
0.395385
0.404919
0.414303
0.423549
0.432661
0.441646
0.450505
0.459238
0.467845
0.47632
0.484658
0.492848
0.500876
0.508725
0.516373
0.523795
0.530967
0.537881
0.544533
0.550893
0.556925
0.562577
0.567772
0.572389
0.576534
0.580954
0.585126
0.589273
0.59331
0.597275
0.60117
0.604994
0.608703
0.612282
0.615701
0.618936
0.621962
0.624747
0.627261
0.629489
0.631521
0.633366
0.635032
0.636525
0.637849
0.639011
0.640027
0.640914
0.641538
0.642231
0.642664
0.643073
0.643345
0.643489
0.643469
0.643037
0.643033
0.642831
0.642669
0.642526
0.64254
0.642298
0.642416
0.642489
0.642439
0.642451
0.642442
0.642745
0.642759
0.643279
0.643743
0.644377
0.645007
0.645597
0.646174
0.646775
0.647513
0.64826
0.648843
0.649289
0.649573
0.649859
0.649867
0.649878
0.649657
0.649267
0.648688
0.647904
0.646922
0.645803
0.644783
0.644547
0.645534
0.647271
0.646446
0.642608
0.638262
0.633674
0.628811
0.623669
0.618282
0.612688
0.606948
0.60109
0.5952
0.589232
0.583309
0.577119
0.571185
0.564611
0.558781
0.551131
0.544494
0.510909
0.0806468
0.13453
0.186855
0.213111
0.233291
0.247849
0.259559
0.268785
0.276566
0.283219
0.289193
0.294715
0.300013
0.305232
0.310494
0.315853
0.321304
0.326762
0.332077
0.337063
0.341526
0.345316
0.348375
0.350812
0.352912
0.355259
0.358669
0.364031
0.37226
0.384145
0.399982
0.419197
0.440429
0.4627
0.485813
0.509548
0.533427
0.556434
0.576999
0.593768
0.606583
0.616306
0.623711
0.629253
0.633605
0.637521
0.641611
0.646182
0.652
0.659755
0.669709
0.68178
0.695698
0.711112
0.727667
0.745045
0.762971
0.781224
0.799631
0.818057
0.836409
0.854621
0.872655
0.890489
0.908107
0.9255
0.942666
0.959605
0.97632
0.992817
1.0091
1.02518
1.04106
1.05674
1.07224
1.08755
1.10268
1.11765
1.13244
1.14708
1.16155
1.17587
1.19002
1.20398
1.21773
1.23122
1.24436
1.25708
1.26927
1.28084
1.29171
1.30185
1.31137
1.32045
1.32919
1.33767
1.34592
1.35394
1.36172
1.3693
1.37669
1.38392
1.39099
1.3979
1.40465
1.41123
1.41766
1.42395
1.43012
1.43618
1.44213
1.44796
1.45369
1.4593
1.46479
1.47017
1.47542
1.48054
1.48552
1.49035
1.49505
1.49961
1.50408
1.50844
1.5127
1.51686
1.52091
1.52485
1.52869
1.5324
1.53597
1.5394
1.54266
1.54576
1.54865
1.55131
1.55371
1.55579
1.55755
1.559
1.56009
1.56073
1.56095
1.56073
1.55996
1.55861
1.55663
1.55402
1.55068
1.54657
1.54159
1.53566
1.5287
1.5206
1.51127
1.50067
1.48892
1.47666
1.46501
1.45285
1.43868
1.42283
1.40585
1.38797
1.36938
1.35023
1.33068
1.31088
1.29096
1.27103
1.25119
1.23148
1.21202
1.19263
1.17376
1.15485
1.13708
1.11858
1.10015
1.06138
0.118593
0.194613
0.25932
0.290949
0.316502
0.334246
0.349217
0.361264
0.372024
0.381668
0.390836
0.39973
0.408688
0.417931
0.427707
0.438198
0.449554
0.46186
0.475145
0.489334
0.504261
0.519786
0.535922
0.552877
0.570972
0.590507
0.611718
0.634774
0.659725
0.686441
0.71461
0.743788
0.773408
0.802766
0.830971
0.856795
0.878612
0.894841
0.904729
0.908918
0.909281
0.907526
0.905302
0.904093
0.904714
0.907854
0.913859
0.922825
0.934681
0.949229
0.966152
0.985052
1.00549
1.02704
1.04932
1.07201
1.09484
1.11763
1.14024
1.16258
1.1846
1.20626
1.22755
1.24847
1.269
1.28916
1.30894
1.32836
1.34742
1.36611
1.38445
1.40244
1.42007
1.43736
1.4543
1.47091
1.48718
1.50313
1.51876
1.53409
1.54912
1.56387
1.57834
1.59253
1.60644
1.62005
1.63336
1.64633
1.65897
1.67124
1.68317
1.69478
1.70608
1.71711
1.72791
1.73851
1.74895
1.75927
1.76951
1.77965
1.7897
1.79964
1.80947
1.81917
1.82875
1.83822
1.84755
1.85675
1.86582
1.87473
1.8835
1.8921
1.90054
1.90881
1.91689
1.92478
1.93247
1.93994
1.94719
1.9542
1.96098
1.96753
1.97386
1.97997
1.98585
1.99149
1.9969
2.00207
2.007
2.01167
2.01608
2.02022
2.0241
2.02768
2.03097
2.03394
2.03659
2.03889
2.04082
2.04237
2.04358
2.04433
2.0446
2.04432
2.04343
2.04188
2.03963
2.03658
2.03264
2.0277
2.02166
2.01441
2.00584
1.99587
1.98443
1.97149
1.95702
1.94108
1.92376
1.90493
1.88423
1.86175
1.8378
1.81268
1.78669
1.76006
1.73299
1.70565
1.6782
1.65076
1.62347
1.59641
1.56971
1.54336
1.51763
1.49227
1.46804
1.4433
1.41845
1.38213
0.142275
0.242369
0.316717
0.353827
0.38469
0.40721
0.426667
0.442441
0.456607
0.469247
0.481375
0.493216
0.505312
0.517914
0.531379
0.545929
0.561802
0.579167
0.598146
0.618662
0.640411
0.663061
0.6864
0.710229
0.734227
0.758003
0.781307
0.804098
0.82646
0.848488
0.870238
0.891738
0.912946
0.93361
0.953153
0.970753
0.985652
0.997529
1.00673
1.01413
1.02084
1.02789
1.03613
1.0461
1.05815
1.07242
1.08887
1.10737
1.12768
1.1495
1.17255
1.19649
1.22104
1.24595
1.27103
1.2961
1.32107
1.34586
1.37041
1.39469
1.41868
1.44238
1.46578
1.48888
1.51166
1.53414
1.55631
1.57817
1.59972
1.62095
1.64188
1.66249
1.68278
1.70276
1.72243
1.74178
1.76082
1.77954
1.79796
1.81605
1.83384
1.8513
1.86843
1.88523
1.9017
1.91782
1.93362
1.94911
1.96431
1.97924
1.99392
2.00837
2.02258
2.03656
2.05034
2.06396
2.07743
2.09075
2.10392
2.1169
2.12972
2.14236
2.15484
2.16715
2.17931
2.19129
2.2031
2.21473
2.22617
2.23741
2.24844
2.25925
2.26983
2.28016
2.29024
2.30006
2.3096
2.31884
2.32778
2.3364
2.34469
2.35264
2.36025
2.3675
2.37439
2.38091
2.38705
2.39279
2.39813
2.40306
2.40757
2.41165
2.41528
2.41847
2.42119
2.42345
2.42524
2.42654
2.42737
2.42771
2.42753
2.42677
2.42537
2.42329
2.42049
2.41691
2.41247
2.40708
2.40063
2.39299
2.38406
2.37369
2.3618
2.34827
2.33304
2.31609
2.2974
2.27694
2.25464
2.23041
2.2043
2.1765
2.14724
2.11675
2.08529
2.05308
2.02036
1.98731
1.95412
1.92093
1.88789
1.85511
1.82276
1.79088
1.75969
1.72906
1.69942
1.6695
1.63918
1.6004
0.172677
0.290387
0.37284
0.414289
0.448404
0.474436
0.497332
0.516825
0.534409
0.550262
0.565295
0.579903
0.594654
0.609826
0.625701
0.642391
0.659944
0.678306
0.697446
0.717398
0.738232
0.759928
0.7823
0.804932
0.827306
0.848995
0.869706
0.889264
0.907646
0.925006
0.941623
0.95781
0.973822
0.989766
1.00559
1.02118
1.03647
1.05157
1.06675
1.08236
1.09877
1.11626
1.13503
1.15515
1.17663
1.19939
1.2233
1.2482
1.27391
1.30025
1.32708
1.35423
1.38158
1.40902
1.43646
1.46384
1.4911
1.5182
1.54511
1.57182
1.59831
1.62457
1.65058
1.67635
1.70186
1.72711
1.75209
1.77681
1.80124
1.82539
1.84926
1.87282
1.89609
1.91904
1.94169
1.96403
1.98605
2.00776
2.02915
2.05022
2.07097
2.0914
2.11151
2.1313
2.15077
2.16994
2.1888
2.20737
2.22565
2.24366
2.26141
2.27894
2.29628
2.31344
2.33046
2.34731
2.36399
2.38046
2.39672
2.41281
2.42874
2.44449
2.46006
2.47543
2.4906
2.50554
2.52025
2.53471
2.54892
2.56284
2.57648
2.58981
2.60282
2.6155
2.62783
2.63981
2.65141
2.66262
2.67342
2.6838
2.69374
2.70322
2.71222
2.72074
2.72876
2.73627
2.74324
2.74968
2.75557
2.76088
2.76563
2.76978
2.77334
2.77629
2.77863
2.78036
2.7815
2.78203
2.78195
2.78121
2.77977
2.77759
2.77465
2.77093
2.76635
2.76087
2.75439
2.74681
2.73801
2.72788
2.71628
2.70308
2.68816
2.67141
2.65273
2.63205
2.60931
2.5845
2.55765
2.52883
2.49812
2.46563
2.43158
2.39619
2.35974
2.32245
2.28457
2.24629
2.20782
2.16931
2.13094
2.09283
2.05515
2.01797
1.98149
1.94561
1.91059
1.87532
1.83934
1.79702
0.19102
0.324226
0.416309
0.462463
0.500059
0.529211
0.555086
0.577606
0.598195
0.616975
0.634622
0.651434
0.667904
0.684311
0.7009
0.717744
0.734825
0.75203
0.769286
0.786693
0.804522
0.822959
0.841917
0.861069
0.880005
0.898351
0.915838
0.932384
0.948122
0.963335
0.978355
0.993505
1.00908
1.02532
1.04241
1.06043
1.07945
1.0995
1.12061
1.14277
1.16599
1.19023
1.21544
1.24157
1.26854
1.29625
1.32462
1.35352
1.38287
1.41256
1.44249
1.4726
1.50279
1.533
1.56318
1.59328
1.62326
1.65311
1.68281
1.71233
1.74167
1.77083
1.79978
1.82853
1.85706
1.88536
1.91343
1.94125
1.96882
1.99611
2.02314
2.0499
2.07638
2.10258
2.1285
2.15413
2.17947
2.20452
2.22927
2.25373
2.27789
2.30175
2.32531
2.34857
2.37153
2.3942
2.41658
2.43869
2.46054
2.48214
2.50352
2.5247
2.54569
2.56647
2.58705
2.60741
2.62757
2.64753
2.66732
2.68691
2.7063
2.72545
2.74436
2.76299
2.78134
2.79939
2.81712
2.83451
2.85154
2.86821
2.88448
2.90034
2.91577
2.93075
2.94526
2.95929
2.97281
2.98582
2.99829
3.01019
3.02151
3.03223
3.04233
3.0518
3.06062
3.06876
3.07623
3.08299
3.08905
3.09438
3.09897
3.10282
3.10592
3.10827
3.10987
3.11073
3.1109
3.11032
3.10894
3.10675
3.10375
3.09991
3.09522
3.08964
3.08312
3.07558
3.06693
3.05708
3.04589
3.03325
3.019
3.00301
2.98515
2.9653
2.94334
2.9192
2.89278
2.8641
2.83318
2.80015
2.76512
2.72824
2.6897
2.64973
2.60858
2.56651
2.52376
2.48054
2.43708
2.39355
2.35013
2.30697
2.26424
2.22201
2.18048
2.13951
2.09928
2.05868
2.01737
1.97083
0.20784
0.351679
0.450992
0.50056
0.540628
0.572069
0.60006
0.624715
0.647403
0.668229
0.687709
0.706003
0.723408
0.740092
0.75626
0.772049
0.787602
0.803041
0.81847
0.833998
0.849769
0.865884
0.882301
0.898845
0.915297
0.931464
0.947248
0.962694
0.977985
0.993392
1.00921
1.02571
1.04316
1.06174
1.08161
1.10283
1.12539
1.14923
1.17426
1.20038
1.2275
1.25552
1.28437
1.31396
1.34423
1.37511
1.40651
1.43837
1.47059
1.50311
1.53585
1.56873
1.6017
1.63469
1.66768
1.70062
1.73348
1.76625
1.7989
1.83142
1.8638
1.89601
1.92805
1.95991
1.99158
2.02304
2.05429
2.08534
2.11616
2.14677
2.17716
2.20732
2.23725
2.26695
2.29642
2.32564
2.35463
2.38338
2.41188
2.44013
2.46813
2.49587
2.52336
2.55059
2.57755
2.60425
2.63069
2.65688
2.68281
2.70849
2.73393
2.75915
2.78415
2.80892
2.83346
2.85778
2.88186
2.90572
2.92932
2.95264
2.97566
2.99836
3.02073
3.04274
3.06437
3.08561
3.10642
3.12679
3.14668
3.16608
3.18497
3.20332
3.22111
3.23831
3.25491
3.27088
3.2862
3.30086
3.31483
3.32809
3.34061
3.35239
3.36339
3.3736
3.38301
3.39159
3.39934
3.40623
3.41225
3.4174
3.42166
3.42503
3.42751
3.42909
3.42981
3.4297
3.42871
3.4268
3.42398
3.42024
3.41558
3.41
3.40347
3.39597
3.38742
3.37777
3.36692
3.35477
3.34118
3.32603
3.30917
3.29044
3.2697
3.2468
3.22163
3.1941
3.16414
3.13177
3.09705
3.0601
3.02103
2.98001
2.93723
2.89293
2.84737
2.80082
2.75352
2.70571
2.65761
2.60943
2.56135
2.51352
2.46611
2.41921
2.37296
2.32724
2.28209
2.23646
2.18998
2.13876
0.215603
0.36671
0.472533
0.525185
0.567345
0.600531
0.630074
0.656198
0.68029
0.70246
0.72317
0.742499
0.760659
0.777761
0.793969
0.809433
0.824357
0.838966
0.853483
0.868073
0.882829
0.89777
0.912856
0.92803
0.943273
0.958619
0.974139
0.989934
1.00614
1.02294
1.04051
1.05906
1.07875
1.0997
1.12197
1.14557
1.17048
1.19663
1.22394
1.25232
1.28169
1.31198
1.3431
1.37499
1.40759
1.44082
1.47461
1.50889
1.54358
1.57861
1.61388
1.64934
1.68492
1.72056
1.75622
1.79188
1.82751
1.8631
1.89862
1.93406
1.9694
2.00463
2.03974
2.0747
2.10951
2.14416
2.17866
2.213
2.24718
2.2812
2.31506
2.34875
2.38227
2.41561
2.44877
2.48174
2.51453
2.54713
2.57954
2.61174
2.64374
2.67553
2.70709
2.73842
2.76951
2.80036
2.83096
2.86131
2.8914
2.92125
2.95084
2.98018
3.00927
3.0381
3.06666
3.09493
3.12289
3.15052
3.17782
3.20478
3.23136
3.25756
3.28333
3.30865
3.33349
3.35782
3.38161
3.40482
3.42744
3.44944
3.47078
3.49144
3.51139
3.53061
3.54908
3.56676
3.58365
3.59972
3.61493
3.62929
3.64275
3.65531
3.66694
3.67763
3.68736
3.69611
3.70388
3.71065
3.71641
3.72116
3.72489
3.72759
3.72928
3.72999
3.72974
3.72849
3.72624
3.72298
3.71871
3.71345
3.7072
3.69995
3.69168
3.68236
3.67193
3.66032
3.64745
3.63319
3.61742
3.59999
3.58075
3.55954
3.53618
3.51053
3.48245
3.45186
3.41868
3.38295
3.34472
3.30412
3.26129
3.21642
3.1697
3.1214
3.07178
3.02111
2.96966
2.91768
2.86541
2.81305
2.7608
2.70882
2.65728
2.60625
2.55585
2.5059
2.45638
2.40625
2.35518
2.2996
0.222885
0.376724
0.485569
0.539684
0.582677
0.616661
0.646933
0.67384
0.698738
0.72176
0.743332
0.763513
0.782472
0.800288
0.817115
0.833119
0.848509
0.863503
0.878325
0.89314
0.908034
0.923023
0.938094
0.953271
0.968641
0.984347
1.00054
1.01735
1.03487
1.05321
1.07249
1.09283
1.11434
1.13708
1.16108
1.18636
1.21288
1.24062
1.26952
1.29953
1.33057
1.36258
1.39549
1.42922
1.46371
1.49889
1.53468
1.57101
1.6078
1.64498
1.68247
1.72019
1.75809
1.79612
1.83425
1.87246
1.91073
1.94904
1.98738
2.02573
2.06406
2.10237
2.14061
2.17878
2.21686
2.25483
2.29271
2.3305
2.3682
2.40581
2.44332
2.48073
2.51804
2.55522
2.59229
2.62924
2.66607
2.70276
2.73933
2.77574
2.81199
2.84807
2.88395
2.91964
2.95511
2.99035
3.02535
3.0601
3.09458
3.12879
3.16272
3.19634
3.22964
3.26261
3.29523
3.3275
3.35941
3.39095
3.42206
3.4527
3.48285
3.51247
3.54154
3.57003
3.59791
3.62513
3.65168
3.67752
3.70261
3.72692
3.75043
3.77311
3.79492
3.81585
3.83585
3.85493
3.87304
3.89017
3.9063
3.9214
3.93546
3.94846
3.96039
3.97122
3.98095
3.98956
3.99704
4.0034
4.00862
4.01271
4.01565
4.01746
4.01817
4.01781
4.01635
4.0138
4.01015
4.00543
3.99963
3.99277
3.98485
3.97589
3.96585
3.95471
3.94241
3.92888
3.91403
3.89772
3.87984
3.86023
3.83873
3.81514
3.7893
3.76103
3.7302
3.69671
3.66051
3.62162
3.58013
3.53615
3.48985
3.44142
3.3911
3.33914
3.28583
3.23145
3.17629
3.1206
3.06463
3.00861
2.95273
2.89717
2.84207
2.7875
2.73354
2.67997
2.62672
2.57274
2.51777
2.45861
0.222102
0.378703
0.488957
0.543897
0.587559
0.622094
0.652909
0.680376
0.7059
0.729627
0.752002
0.773078
0.793014
0.811865
0.829756
0.846816
0.863237
0.879224
0.89498
0.910667
0.926397
0.942227
0.958189
0.974337
0.990775
1.00765
1.02509
1.04324
1.06218
1.082
1.10278
1.12462
1.14758
1.17172
1.19709
1.22368
1.25149
1.28052
1.31071
1.34204
1.37443
1.40782
1.44216
1.47738
1.5134
1.55017
1.58762
1.62568
1.66428
1.70334
1.74278
1.78254
1.82258
1.86285
1.90334
1.94402
1.98489
2.02591
2.06707
2.10835
2.14971
2.19113
2.23258
2.27403
2.31547
2.35688
2.39827
2.43964
2.481
2.52235
2.56368
2.60497
2.64622
2.68742
2.72855
2.76962
2.81062
2.85154
2.89236
2.93307
2.97364
3.01406
3.0543
3.09435
3.13418
3.17377
3.21311
3.25218
3.29096
3.32942
3.36755
3.40533
3.44274
3.47976
3.51634
3.55245
3.58806
3.62317
3.65774
3.69175
3.72516
3.75794
3.79005
3.82145
3.8521
3.88197
3.91102
3.9392
3.96648
3.99283
4.01822
4.04261
4.06597
4.08828
4.1095
4.12963
4.14863
4.16649
4.18318
4.19868
4.21299
4.22608
4.23795
4.24857
4.25795
4.26608
4.27296
4.27858
4.28296
4.28609
4.28798
4.28867
4.28817
4.28651
4.28368
4.27969
4.27456
4.26831
4.26095
4.2525
4.24297
4.23237
4.22067
4.20784
4.19383
4.17856
4.16192
4.14379
4.12402
4.10246
4.07892
4.0532
4.02511
3.99447
3.96115
3.92503
3.88608
3.84432
3.79985
3.7528
3.70335
3.65172
3.59815
3.54293
3.48634
3.42869
3.37026
3.31133
3.25217
3.19299
3.13401
3.0754
3.0173
2.95975
2.90281
2.84623
2.7899
2.73279
2.67472
2.61279
0.222546
0.380046
0.487753
0.541981
0.58549
0.620059
0.651048
0.678787
0.704708
0.728959
0.752017
0.773944
0.794908
0.814945
0.834158
0.852633
0.870505
0.887925
0.905063
0.922073
0.939082
0.956188
0.973476
0.991029
1.00895
1.02733
1.04631
1.06596
1.08639
1.10766
1.12986
1.15306
1.17734
1.20275
1.22934
1.25712
1.28609
1.31626
1.34759
1.38005
1.41359
1.44816
1.48372
1.52021
1.55758
1.59576
1.63471
1.67434
1.7146
1.7554
1.7967
1.83844
1.88059
1.92311
1.966
2.00922
2.05276
2.09659
2.14069
2.18503
2.22956
2.27426
2.3191
2.36403
2.40905
2.45413
2.49929
2.54452
2.5898
2.63514
2.68053
2.72595
2.77138
2.81683
2.86226
2.90768
2.95306
2.9984
3.04367
3.08884
3.13388
3.17878
3.22351
3.26804
3.31235
3.3564
3.40017
3.44363
3.48675
3.5295
3.57183
3.61371
3.65512
3.69602
3.73642
3.77628
3.81557
3.85422
3.89219
3.92945
3.96597
4.00169
4.03658
4.07061
4.10373
4.1359
4.16708
4.19723
4.22632
4.2543
4.28115
4.30683
4.3313
4.35455
4.37655
4.39728
4.41671
4.43482
4.45161
4.46704
4.48111
4.49381
4.50512
4.51505
4.5236
4.53076
4.53654
4.54095
4.54402
4.54574
4.54615
4.54529
4.54319
4.53985
4.5353
4.52957
4.52268
4.51466
4.50553
4.49531
4.48402
4.47166
4.45822
4.44366
4.42792
4.41091
4.39252
4.37261
4.35103
4.32759
4.30211
4.27437
4.24416
4.2113
4.17564
4.13709
4.09561
4.05124
4.00408
3.95429
3.90204
3.84759
3.79119
3.73313
3.67372
3.61326
3.55205
3.49037
3.42849
3.36665
3.30507
3.2439
3.18329
3.12327
3.06387
3.00481
2.94598
2.88638
2.82591
2.76197
0.220033
0.376334
0.481335
0.534796
0.578094
0.612648
0.643786
0.671775
0.698075
0.722821
0.746516
0.769219
0.791119
0.812249
0.832714
0.852578
0.871956
0.890936
0.909635
0.928172
0.946677
0.965262
0.984034
1.0031
1.02257
1.04252
1.06306
1.08426
1.10618
1.12892
1.15253
1.1771
1.20268
1.22933
1.25709
1.28599
1.31605
1.34726
1.37962
1.4131
1.44769
1.48334
1.52003
1.55771
1.59634
1.63587
1.67625
1.71742
1.75931
1.80188
1.84508
1.88888
1.93323
1.97813
2.02356
2.06948
2.11586
2.16268
2.20989
2.25744
2.30531
2.35346
2.40184
2.45044
2.49923
2.54821
2.59734
2.64663
2.69606
2.74561
2.79525
2.84498
2.89477
2.94462
2.9945
3.04439
3.09427
3.14411
3.19388
3.24354
3.29307
3.34244
3.39161
3.44055
3.48922
3.53759
3.58563
3.6333
3.68056
3.72738
3.77372
3.81954
3.86477
3.90939
3.95333
3.99658
4.0391
4.08087
4.12183
4.16195
4.20118
4.23947
4.2768
4.3131
4.34834
4.38246
4.41543
4.4472
4.47774
4.50699
4.53492
4.5615
4.5867
4.61049
4.63284
4.65374
4.67316
4.69108
4.7075
4.72239
4.73574
4.74756
4.75784
4.76658
4.77379
4.77949
4.78369
4.78641
4.78769
4.78755
4.78605
4.78321
4.77908
4.7737
4.76711
4.75934
4.75043
4.74042
4.72933
4.7172
4.70405
4.68987
4.67466
4.65838
4.64094
4.62226
4.6022
4.58061
4.55731
4.53213
4.50485
4.47525
4.4431
4.40821
4.37044
4.3297
4.28597
4.23928
4.18977
4.13759
4.08295
4.0261
3.96731
3.90688
3.84512
3.78234
3.71884
3.6549
3.5908
3.52677
3.46305
3.39978
3.33711
3.27505
3.21362
3.15256
3.09173
3.03021
2.96797
2.90266
0.215603
0.369233
0.471065
0.523815
0.566919
0.601462
0.632744
0.660977
0.687647
0.712872
0.737187
0.76065
0.783472
0.805686
0.827388
0.84861
0.869424
0.889899
0.910146
0.930258
0.950326
0.970452
0.990755
1.01134
1.03231
1.05376
1.07578
1.09844
1.12182
1.14597
1.17096
1.19687
1.22373
1.25161
1.28055
1.31058
1.34172
1.374
1.4074
1.44194
1.47761
1.51438
1.55225
1.59118
1.63115
1.67211
1.71402
1.75684
1.80052
1.84503
1.89032
1.93637
1.98316
2.03068
2.07888
2.12774
2.17722
2.22727
2.27784
2.32888
2.38035
2.43222
2.48444
2.53699
2.58985
2.643
2.69641
2.75006
2.80391
2.85794
2.91211
2.9664
3.02079
3.07526
3.12978
3.18431
3.23884
3.29331
3.3477
3.40196
3.45605
3.50995
3.56361
3.61699
3.67005
3.72274
3.77503
3.82686
3.87818
3.92893
3.97905
4.02853
4.07734
4.12543
4.17273
4.2192
4.26478
4.30944
4.35311
4.39577
4.43735
4.47783
4.51715
4.55527
4.59214
4.62772
4.66196
4.69482
4.72625
4.7562
4.78466
4.81156
4.8369
4.86063
4.88274
4.9032
4.922
4.93911
4.95452
4.96823
4.98024
4.99054
4.99913
5.00604
5.01128
5.01488
5.01686
5.01727
5.01616
5.01355
5.00951
5.0041
4.99739
4.98943
4.98027
4.96998
4.9586
4.94619
4.93277
4.9184
4.90309
4.88685
4.86967
4.8515
4.83226
4.81181
4.79002
4.76673
4.74174
4.71485
4.68584
4.65447
4.6205
4.58375
4.54406
4.50136
4.45564
4.40696
4.35544
4.30127
4.24467
4.18588
4.12519
4.0629
3.9993
3.93472
3.86944
3.80376
3.73793
3.6722
3.60678
3.54184
3.4775
3.41379
3.35073
3.28805
3.22564
3.16266
3.09915
3.03298
0.209392
0.359339
0.458048
0.510196
0.553169
0.587756
0.61923
0.647746
0.67482
0.700542
0.725476
0.749666
0.773347
0.796543
0.819363
0.841831
0.864016
0.885957
0.907712
0.929342
0.950955
0.972643
0.994491
1.0166
1.03907
1.06199
1.08544
1.10951
1.13427
1.15981
1.18616
1.21339
1.24155
1.27069
1.30085
1.33207
1.36438
1.39782
1.43239
1.46812
1.505
1.54305
1.58227
1.62262
1.66411
1.7067
1.75036
1.79506
1.84077
1.88746
1.93512
1.98372
2.03324
2.08365
2.13493
2.18702
2.23988
2.29344
2.34766
2.40247
2.45783
2.51369
2.57002
2.62678
2.68395
2.74151
2.79942
2.85763
2.91611
2.9748
3.03367
3.09267
3.15179
3.21097
3.2702
3.32944
3.38863
3.44773
3.5067
3.56549
3.62405
3.68235
3.74032
3.79792
3.85511
3.91184
3.96807
4.02373
4.07878
4.13314
4.18675
4.23954
4.29148
4.34251
4.3926
4.44168
4.48973
4.53668
4.58249
4.62711
4.6705
4.7126
4.75338
4.79278
4.83075
4.86724
4.9022
4.93559
4.96736
4.99746
5.02587
5.05253
5.07742
5.10052
5.1218
5.14124
5.15882
5.17453
5.18835
5.2003
5.21036
5.21854
5.22487
5.22935
5.23203
5.23293
5.23213
5.22966
5.22555
5.21989
5.21276
5.20424
5.19441
5.18336
5.17115
5.15787
5.1436
5.12838
5.11229
5.09536
5.07762
5.0591
5.03977
5.01958
4.99842
4.97615
4.95261
4.92762
4.90098
4.87247
4.84184
4.80885
4.77325
4.73485
4.6935
4.64913
4.60175
4.55144
4.49834
4.44262
4.38453
4.3243
4.26224
4.19862
4.13375
4.06791
4.00141
3.93452
3.86748
3.80054
3.73389
3.66771
3.60211
3.53712
3.47277
3.40882
3.34518
3.28111
3.21673
3.15009
0.202284
0.347907
0.443393
0.494912
0.537734
0.572377
0.604066
0.632885
0.660384
0.686613
0.71217
0.73708
0.761603
0.785752
0.809648
0.833299
0.856774
0.880092
0.903314
0.926488
0.949675
0.972944
0.996386
1.02008
1.0441
1.06853
1.09348
1.11903
1.14525
1.17223
1.20002
1.22868
1.25825
1.28877
1.32031
1.35291
1.3866
1.42143
1.45743
1.49462
1.53303
1.57267
1.61355
1.65567
1.69903
1.7436
1.78938
1.83635
1.88448
1.93377
1.98419
2.03574
2.08838
2.1421
2.19684
2.25256
2.30918
2.36664
2.42489
2.48385
2.54347
2.60369
2.66448
2.72579
2.78759
2.84984
2.91249
2.9755
3.03881
3.10236
3.16609
3.22996
3.29392
3.35793
3.42193
3.48588
3.54973
3.61342
3.6769
3.7401
3.80299
3.86549
3.92757
3.98916
4.05021
4.11067
4.17045
4.22951
4.28779
4.34523
4.40179
4.45739
4.51198
4.56548
4.61784
4.66901
4.71893
4.76756
4.81485
4.86075
4.90521
4.94819
4.98965
5.02953
5.06778
5.10436
5.13921
5.1723
5.20357
5.23298
5.26049
5.28607
5.3097
5.33135
5.35099
5.36861
5.38418
5.39771
5.40919
5.41861
5.42599
5.43134
5.43468
5.43605
5.43549
5.43308
5.4288
5.42274
5.415
5.40565
5.39481
5.38256
5.36902
5.35428
5.33846
5.32165
5.30395
5.28545
5.26622
5.24632
5.2258
5.20467
5.18293
5.1605
5.13726
5.11305
5.08769
5.06099
5.03274
5.00269
4.97059
4.93617
4.89917
4.85938
4.81668
4.771
4.72237
4.67087
4.61664
4.55989
4.50082
4.43971
4.37683
4.31246
4.24688
4.18039
4.11325
4.04571
3.97803
3.9104
3.84304
3.77608
3.70965
3.64377
3.57849
3.5136
3.44907
3.38421
3.31925
3.25242
0.193273
0.333953
0.42649
0.47744
0.520161
0.554937
0.586927
0.616116
0.644112
0.670916
0.697168
0.722868
0.748302
0.773462
0.798488
0.823377
0.848208
0.87299
0.897778
0.922597
0.947505
0.972547
0.997772
1.02326
1.04909
1.07535
1.10212
1.12948
1.15751
1.18625
1.2158
1.24622
1.27755
1.30985
1.34317
1.37757
1.41311
1.44983
1.48776
1.52695
1.56743
1.60922
1.65235
1.69683
1.74267
1.78985
1.83838
1.88824
1.93943
1.99194
2.04575
2.10086
2.15723
2.21484
2.27362
2.33351
2.39444
2.45634
2.51912
2.58271
2.64705
2.71207
2.77772
2.84394
2.91068
2.97789
3.04552
3.1135
3.18177
3.25026
3.3189
3.38763
3.45638
3.5251
3.59372
3.66218
3.73043
3.79839
3.86601
3.93321
3.99994
4.06615
4.13177
4.19675
4.26104
4.32456
4.38723
4.44898
4.50975
4.56946
4.62807
4.68551
4.74174
4.79668
4.85028
4.9025
4.95327
5.00254
5.05028
5.09643
5.14094
5.18378
5.2249
5.26424
5.30177
5.33743
5.37118
5.40297
5.43275
5.4605
5.48616
5.50972
5.53115
5.55043
5.56754
5.58246
5.59518
5.60569
5.614
5.6201
5.62402
5.62579
5.62543
5.62305
5.61855
5.61207
5.60365
5.5934
5.5814
5.56777
5.55262
5.53607
5.51825
5.49928
5.47931
5.45845
5.43685
5.4146
5.39181
5.36856
5.34492
5.32091
5.29653
5.27167
5.24622
5.22
5.19281
5.16446
5.13471
5.10331
5.06996
5.03439
4.99631
4.95551
4.91187
4.86533
4.81591
4.76374
4.70893
4.65168
4.59222
4.53079
4.46766
4.40311
4.33742
4.27083
4.20361
4.136
4.06821
4.00045
3.93289
3.86565
3.79885
3.73252
3.66669
3.60121
3.53607
3.47069
3.40537
3.33851
0.183939
0.319532
0.408674
0.458913
0.501499
0.536434
0.568797
0.598457
0.627066
0.654567
0.681641
0.708247
0.734708
0.761003
0.787301
0.813588
0.839954
0.866392
0.892958
0.919664
0.946556
0.973646
1.00102
1.02874
1.05688
1.08551
1.11471
1.14453
1.17503
1.20626
1.23829
1.27115
1.30491
1.33968
1.37554
1.41256
1.45074
1.49016
1.53086
1.57289
1.6163
1.66112
1.70738
1.75509
1.80427
1.85493
1.90705
1.96065
2.01569
2.07219
2.13013
2.18948
2.25021
2.31228
2.37563
2.44018
2.50586
2.57256
2.64021
2.70871
2.77799
2.84796
2.91856
2.98972
3.06136
3.13343
3.20585
3.27856
3.35147
3.42451
3.4976
3.57066
3.64363
3.71643
3.78898
3.86122
3.93307
4.00447
4.07534
4.1456
4.2152
4.28407
4.35213
4.41933
4.48562
4.55092
4.61518
4.67832
4.74028
4.801
4.8604
4.91842
4.97501
5.03009
5.08361
5.13552
5.18578
5.23433
5.28113
5.32614
5.36932
5.41063
5.45003
5.48748
5.52295
5.55637
5.58772
5.61695
5.64402
5.6689
5.69157
5.712
5.73018
5.74607
5.75967
5.77096
5.77993
5.78659
5.79093
5.79298
5.79275
5.79039
5.78571
5.77885
5.76986
5.75882
5.74581
5.73092
5.71426
5.69596
5.67614
5.65496
5.63254
5.60904
5.58464
5.55949
5.53374
5.50755
5.48104
5.45431
5.42745
5.40049
5.37339
5.34611
5.31852
5.29044
5.26165
5.23195
5.20108
5.16876
5.13468
5.09851
5.05996
5.01882
4.97494
4.92826
4.87882
4.82668
4.77202
4.715
4.65587
4.59484
4.53218
4.46815
4.403
4.33699
4.27035
4.2033
4.13604
4.06876
4.00162
3.93471
3.86813
3.80191
3.73607
3.67048
3.60518
3.53966
3.47428
3.40759
0.173752
0.30478
0.391096