/*--------------------------------*- C++ -*----------------------------------*\
| =========                 |                                                 |
| \\      /  F ield         | OpenFOAM: The Open Source CFD Toolbox           |
|  \\    /   O peration     | Version:  v1906                                 |
|   \\  /    A nd           | Web:      www.OpenFOAM.com                      |
|    \\/     M anipulation  |                                                 |
\*---------------------------------------------------------------------------*/
FoamFile
{
    version     2.0;
    format      ascii;
    class       volScalarField;
    location    "1400";
    object      nut;
}
// * * * * * * * * * * * * * * * * * * * * * * * * * * * * * * * * * * * * * //

dimensions      [0 2 -1 0 0 0 0];


internalField   nonuniform List<scalar> 
12225
(
5.38048e-05
5.34216e-05
5.26393e-05
5.17771e-05
5.0945e-05
5.01789e-05
4.94847e-05
4.88666e-05
4.83035e-05
4.78127e-05
4.73473e-05
4.69669e-05
4.66582e-05
4.64064e-05
4.61756e-05
4.60087e-05
4.58099e-05
4.5735e-05
0.000743659
0.000274827
0.000208916
0.000186812
0.000173792
0.000168883
0.000164694
0.000161056
0.000158138
0.000155584
0.000153654
0.000151712
0.000150448
0.000148669
0.000148137
0.000146377
0.000146857
0.000144892
0.00337131
0.000965688
0.000668424
0.000562246
0.00050386
0.000472017
0.000448886
0.000431625
0.000418748
0.000408303
0.000399666
0.000392271
0.000386252
0.000380508
0.000376427
0.000371398
0.000369672
0.00036466
0.00784749
0.00229238
0.00147326
0.00117575
0.00101859
0.000926472
0.000864607
0.000819836
0.000786977
0.00076116
0.000740089
0.00072331
0.000709604
0.000697723
0.00068822
0.000678844
0.000673636
0.000663265
0.0127627
0.00432672
0.00270975
0.00210436
0.00178856
0.00159948
0.00147344
0.00138301
0.0013157
0.00126353
0.00122159
0.00118742
0.00115969
0.00113581
0.00111566
0.00109783
0.00108509
0.00106682
0.0171139
0.006932
0.00436917
0.0033459
0.00280529
0.00247638
0.00225606
0.00209807
0.0019798
0.00188813
0.00181482
0.00175497
0.00170565
0.00166401
0.00162861
0.00159789
0.00157225
0.00154415
0.0205947
0.00988395
0.00641799
0.00491188
0.00409426
0.00358851
0.00324683
0.00300092
0.002816
0.0026722
0.00255715
0.00246309
0.00238509
0.00231933
0.00226327
0.00221482
0.00217362
0.00213117
0.0232407
0.0129306
0.00876067
0.00676558
0.00563802
0.00492468
0.00443623
0.00408185
0.00381366
0.00360403
0.00343578
0.00329788
0.00318304
0.00308602
0.00300307
0.00293136
0.00286917
0.00280805
0.0252064
0.0158686
0.0112825
0.00885741
0.00741814
0.00648209
0.00583018
0.00535204
0.00498733
0.00470051
0.0044693
0.00427913
0.00412017
0.0039855
0.00387005
0.00377006
0.00368252
0.00359966
0.0266541
0.0185549
0.0138527
0.0111073
0.00938573
0.00822874
0.00740581
0.0067936
0.00632178
0.00594779
0.00564446
0.00539375
0.00518331
0.00500434
0.00485039
0.00471661
0.0045987
0.00448986
0.0277221
0.0209147
0.0163559
0.0134292
0.0114841
0.0101279
0.00913961
0.00839183
0.0078084
0.00734159
0.00696022
0.00664318
0.00637576
0.00614739
0.00595024
0.00577832
0.00562641
0.00548808
0.0284467
0.0227416
0.0184776
0.0155118
0.0134326
0.0119303
0.010808
0.0099437
0.00926048
0.00870829
0.00825358
0.00787317
0.0075506
0.0072739
0.0070341
0.00682424
0.00663834
0.00647038
0.0290075
0.024303
0.0204373
0.0175384
0.015394
0.0137849
0.01255
0.0115802
0.010802
0.010166
0.00963745
0.00919209
0.00881223
0.00848477
0.00819979
0.00794952
0.00772742
0.00752742
0.0294889
0.0257556
0.0223979
0.0196766
0.0175408
0.0158665
0.0145394
0.0134715
0.0125988
0.0118749
0.0112666
0.0107493
0.0103047
0.00991906
0.00958167
0.00928411
0.00901936
0.00878141
0.0298837
0.0270285
0.0242392
0.0217978
0.0197579
0.0180792
0.016698
0.0155544
0.0145986
0.0137921
0.0131047
0.0125136
0.0120009
0.0115528
0.0111584
0.0108088
0.0104967
0.010216
0.0301877
0.0280603
0.0258269
0.0237256
0.0218567
0.0202386
0.0188525
0.0176677
0.0166525
0.0157786
0.0150218
0.0143626
0.0137849
0.0132757
0.0128242
0.0124218
0.0120613
0.0117366
0.0303978
0.0288005
0.0270243
0.0252475
0.0235768
0.0220606
0.0207112
0.0195216
0.0184769
0.0175597
0.0167529
0.016041
0.0154105
0.01485
0.0143496
0.0139011
0.0134975
0.0131334
0.0305044
0.0291849
0.027668
0.0260934
0.0245604
0.0231269
0.0218186
0.0206417
0.019591
0.0186562
0.017825
0.0170853
0.0164255
0.0158355
0.0153063
0.0148301
0.0144
0.0140101
0.0304715
0.0290671
0.0274719
0.0258371
0.0242637
0.0228061
0.021486
0.0203053
0.0192559
0.0183256
0.0175007
0.0167681
0.0161157
0.0155332
0.0150114
0.0145426
0.0141202
0.013739
0.030231
0.028214
0.0260761
0.0240423
0.022214
0.0206156
0.0192352
0.0180471
0.0170231
0.0161372
0.0153669
0.0146936
0.0141017
0.0135785
0.0131139
0.0126994
0.0123283
0.0119953
0.0298206
0.0268281
0.0239498
0.0214632
0.0194056
0.0177241
0.0163475
0.0152114
0.0142641
0.0134657
0.012786
0.0122016
0.0116948
0.0112517
0.0108617
0.0105164
0.0102094
0.00993678
0.0291396
0.0247088
0.020985
0.0181325
0.0159864
0.0143548
0.0130898
0.0120883
0.0112796
0.0106148
0.0100599
0.00959041
0.00918842
0.00884069
0.00853716
0.00827021
0.00803416
0.00782543
0.028036
0.0217164
0.0172853
0.0143383
0.0123316
0.0109081
0.00985725
0.00905432
0.00842295
0.00791448
0.00749674
0.00714773
0.00685196
0.00659818
0.00637801
0.00618524
0.00601515
0.00586661
0.0262544
0.0178168
0.013146
0.0104897
0.00884765
0.00775164
0.00697429
0.00639698
0.00595241
0.0056
0.00531405
0.00507753
0.00487873
0.00470936
0.00456329
0.00443601
0.0043239
0.0042261
0.0233814
0.013206
0.00902269
0.00699367
0.00583843
0.00510169
0.00459325
0.00422302
0.00394186
0.00372123
0.00354366
0.00339773
0.00327573
0.0031723
0.00308328
0.00300587
0.00293683
0.00287729
0.0189046
0.00845564
0.00545015
0.00418498
0.00350647
0.00308628
0.00280103
0.00259664
0.00244288
0.00232293
0.00222689
0.00214826
0.00208277
0.00202749
0.00197987
0.00193881
0.00190221
0.00187111
0.0125845
0.00438897
0.00278862
0.0021725
0.00185041
0.00165233
0.00151841
0.00142441
0.00135366
0.00129844
0.00125444
0.00121848
0.00118867
0.00116365
0.00114161
0.00112303
0.00110558
0.00109085
0.00562612
0.00171149
0.00115553
0.000945995
0.000837002
0.000769043
0.000723356
0.0006932
0.000668821
0.00064938
0.000633866
0.000620857
0.00060962
0.000600089
0.000591427
0.000584226
0.000577013
0.000572063
0.00117126
0.000435646
0.000327294
0.000284811
0.000262916
0.000248763
0.000241429
0.000237212
0.000233242
0.000229636
0.000226407
0.000223601
0.000221045
0.000218886
0.000216813
0.000215153
0.000213365
0.000211735
7.08579e-05
7.01306e-05
6.91148e-05
6.81141e-05
6.71692e-05
6.63002e-05
6.55045e-05
6.47799e-05
6.4122e-05
6.35242e-05
6.29796e-05
6.24816e-05
6.20262e-05
6.16064e-05
6.12222e-05
6.0864e-05
6.05376e-05
6.02271e-05
1.16074e-05
3.17533e-05
3.74971e-05
4.05215e-05
4.24925e-05
4.37311e-05
4.46551e-05
4.5319e-05
4.58369e-05
4.62453e-05
4.65872e-05
4.68818e-05
4.71462e-05
4.73884e-05
4.76136e-05
4.78225e-05
4.8013e-05
4.81812e-05
4.83203e-05
4.84239e-05
4.84904e-05
4.85216e-05
4.84983e-05
4.84358e-05
4.8281e-05
4.79672e-05
4.74375e-05
4.66791e-05
4.5612e-05
4.41244e-05
4.21142e-05
3.93167e-05
3.56895e-05
3.23829e-05
2.96675e-05
2.78491e-05
2.70468e-05
2.69511e-05
2.70549e-05
2.72617e-05
2.7617e-05
2.86519e-05
3.08696e-05
3.35376e-05
3.64007e-05
3.94232e-05
4.26366e-05
4.61627e-05
4.94666e-05
5.22878e-05
5.47887e-05
5.70342e-05
5.90746e-05
6.09409e-05
6.26557e-05
6.42413e-05
6.57142e-05
6.70888e-05
6.83772e-05
6.95899e-05
7.07364e-05
7.18256e-05
7.28665e-05
7.38651e-05
7.48256e-05
7.57515e-05
7.66457e-05
7.75108e-05
7.83488e-05
7.91616e-05
7.99505e-05
8.07168e-05
8.14613e-05
8.21847e-05
8.28875e-05
8.35698e-05
8.42315e-05
8.48723e-05
8.54916e-05
8.60883e-05
8.66611e-05
8.72082e-05
8.77284e-05
8.82217e-05
8.86881e-05
8.91255e-05
8.95314e-05
8.9902e-05
9.02308e-05
9.05087e-05
9.07603e-05
9.10265e-05
9.12706e-05
9.15121e-05
9.17417e-05
9.19644e-05
9.21792e-05
9.23868e-05
9.25835e-05
9.27682e-05
9.29389e-05
9.30937e-05
9.3231e-05
9.33483e-05
9.34437e-05
9.35163e-05
9.35736e-05
9.36156e-05
9.36431e-05
9.36564e-05
9.36557e-05
9.36411e-05
9.36123e-05
9.35946e-05
9.34965e-05
9.34885e-05
9.33862e-05
9.33175e-05
9.32262e-05
9.31254e-05
9.30087e-05
9.28493e-05
9.27485e-05
9.26132e-05
9.24816e-05
9.23459e-05
9.22384e-05
9.2067e-05
9.19902e-05
9.18668e-05
9.17337e-05
9.16182e-05
9.15002e-05
9.13869e-05
9.12552e-05
9.11635e-05
9.10651e-05
9.09752e-05
9.08915e-05
9.08151e-05
9.074e-05
9.06525e-05
9.05688e-05
9.05057e-05
9.04318e-05
9.03431e-05
9.02544e-05
9.01471e-05
9.00218e-05
8.99069e-05
8.97714e-05
8.96251e-05
8.94643e-05
8.92891e-05
8.90988e-05
8.88947e-05
8.86916e-05
8.85234e-05
8.84416e-05
8.84215e-05
8.82887e-05
8.79047e-05
8.74649e-05
8.70073e-05
8.65282e-05
8.60265e-05
8.55041e-05
8.49634e-05
8.44087e-05
8.38418e-05
8.32691e-05
8.26891e-05
8.21135e-05
8.1515e-05
8.09294e-05
8.02927e-05
7.97059e-05
7.89834e-05
7.83362e-05
7.57088e-05
1.67934e-05
7.37678e-05
0.000169038
0.000228598
0.000277207
0.000311738
0.000339043
0.000359048
0.000375394
0.000388881
0.000401121
0.000412797
0.000424627
0.000436969
0.000450141
0.000464243
0.000479162
0.000494384
0.000509065
0.000522211
0.0005328
0.000540004
0.000543488
0.000543714
0.00054178
0.000539521
0.000539922
0.00054377
0.000548802
0.000558697
0.000576641
0.00060473
0.0006333
0.000653909
0.000666536
0.000673007
0.000676273
0.000679254
0.000683911
0.000690848
0.000699454
0.000708617
0.00071714
0.000723943
0.000728277
0.000729699
0.00072824
0.000724284
0.000720402
0.000718708
0.000720774
0.000726311
0.00073476
0.00074549
0.000757893
0.000771425
0.000785626
0.000800116
0.000814587
0.000828783
0.000842482
0.000855471
0.000867952
0.000880238
0.000892378
0.000904352
0.000916131
0.000927696
0.00093904
0.000950167
0.000961088
0.000971817
0.000982374
0.000992778
0.00100305
0.00101321
0.00102329
0.0010333
0.00104324
0.00105311
0.00106283
0.00107228
0.00108117
0.00108938
0.00109717
0.00110457
0.00111153
0.00111795
0.00112375
0.00112871
0.00113249
0.00113503
0.00113685
0.00113815
0.0011391
0.00113981
0.00114039
0.00114096
0.00114158
0.00114229
0.00114304
0.0011438
0.00114446
0.00114485
0.00114463
0.00114314
0.00114136
0.00113961
0.00113798
0.00113649
0.00113516
0.001134
0.00113301
0.0011322
0.00113152
0.00113104
0.00113062
0.00113036
0.00113024
0.00113028
0.0011305
0.00113084
0.00113123
0.00113175
0.00113234
0.00113299
0.0011337
0.00113446
0.00113519
0.0011359
0.00113655
0.00113708
0.0011373
0.00113716
0.00113666
0.00113551
0.00113383
0.00113147
0.00112851
0.00112501
0.00112083
0.00111582
0.00110998
0.00110357
0.00109655
0.001089
0.00108091
0.00107236
0.00106347
0.00105426
0.00104475
0.00103494
0.00102479
0.0010142
0.00100301
0.000990999
0.000978052
0.000964809
0.000953744
0.000943719
0.000933827
0.000924204
0.000914291
0.000904228
0.000894119
0.00088404
0.000874059
0.000864216
0.000854559
0.000845097
0.000835892
0.000826905
0.000818211
0.000809394
0.000801051
0.000792551
0.000785576
0.000777643
0.000772605
0.000733516
2.04091e-05
0.000104517
0.000237524
0.000343197
0.000438572
0.000511074
0.000573028
0.000620235
0.000661415
0.00069668
0.000729793
0.000761345
0.000792998
0.000825494
0.000859547
0.000895122
0.000931503
0.00096694
0.000998396
0.0010265
0.00105212
0.00107603
0.00109884
0.00112101
0.00114289
0.00116466
0.00118618
0.00120629
0.00122333
0.00123554
0.00124131
0.00123939
0.00123461
0.00123095
0.00122958
0.00123192
0.00123867
0.00125055
0.00126684
0.00128642
0.00130994
0.00133586
0.00136296
0.00139075
0.00141812
0.00144429
0.00146974
0.00149568
0.00152249
0.00155079
0.00157992
0.00161005
0.00164108
0.00167272
0.0017046
0.00173639
0.00176778
0.00179851
0.00182838
0.0018573
0.00188518
0.00191201
0.00193784
0.00196273
0.0019867
0.00200978
0.00203199
0.00205333
0.00207382
0.00209348
0.0021123
0.00213032
0.00214753
0.00216394
0.00217956
0.00219438
0.00220841
0.00222162
0.00223399
0.00224546
0.00225597
0.00226544
0.00227376
0.00228086
0.0022866
0.00229074
0.00229284
0.00229323
0.00229258
0.00229113
0.00228903
0.00228638
0.00228331
0.00227987
0.00227614
0.00227222
0.00226827
0.00226458
0.00226132
0.00225841
0.00225574
0.00225314
0.00225048
0.00224763
0.00224451
0.00224117
0.00223788
0.00223475
0.00223181
0.00222909
0.00222658
0.00222429
0.00222222
0.00222034
0.00221861
0.002217
0.00221547
0.00221397
0.00221255
0.00221122
0.00221004
0.00220903
0.00220818
0.0022075
0.00220698
0.00220658
0.00220628
0.00220603
0.00220579
0.0022055
0.00220508
0.00220444
0.00220347
0.00220207
0.00220018
0.00219768
0.00219457
0.00219078
0.00218627
0.00218098
0.00217504
0.00216828
0.0021607
0.0021523
0.00214316
0.00213338
0.00212303
0.00211216
0.00210083
0.00208915
0.00207687
0.00206411
0.00205079
0.00203679
0.00202198
0.00200616
0.001989
0.0019708
0.00195266
0.00193499
0.00191703
0.0018982
0.00187839
0.00185815
0.00183791
0.00181791
0.00179832
0.0017792
0.00176062
0.00174261
0.00172525
0.00170844
0.00169194
0.00167476
0.00165787
0.00164119
0.00162544
0.00160867
0.00158873
0.00153345
2.23512e-05
0.000129286
0.000290184
0.000421032
0.000547949
0.000652057
0.000745515
0.000819178
0.000884173
0.000938791
0.000989286
0.00103589
0.00108138
0.00112593
0.00117027
0.00121354
0.00125453
0.00129089
0.00132186
0.00134857
0.00137215
0.00139357
0.0014135
0.00143247
0.00145096
0.00146922
0.00148721
0.0015046
0.00152096
0.00153598
0.00154967
0.00156228
0.00157413
0.00158586
0.00159823
0.00161196
0.00163091
0.00165827
0.00169412
0.00173843
0.00178949
0.00184522
0.00190344
0.00196209
0.00201879
0.00207438
0.00212747
0.00217814
0.00222649
0.00227331
0.00231904
0.00236371
0.0024074
0.00245014
0.00249194
0.00253278
0.00257259
0.00261133
0.00264889
0.00268519
0.00272018
0.00275385
0.0027862
0.00281724
0.00284699
0.00287544
0.00290262
0.00292853
0.00295318
0.00297658
0.00299874
0.00301966
0.00303935
0.00305783
0.00307508
0.00309112
0.00310594
0.00311955
0.00313195
0.00314313
0.00315307
0.00316174
0.00316912
0.0031752
0.00317996
0.0031834
0.0031856
0.00318674
0.00318701
0.00318655
0.00318548
0.00318391
0.00318191
0.00317957
0.00317694
0.00317412
0.0031712
0.00316827
0.0031654
0.00316257
0.00315974
0.00315686
0.0031539
0.00315085
0.00314774
0.00314463
0.00314161
0.00313871
0.00313596
0.00313336
0.00313091
0.0031286
0.00312641
0.00312431
0.00312223
0.00312007
0.00311763
0.0031146
0.0031114
0.00310819
0.00310507
0.00310209
0.00309925
0.00309652
0.00309388
0.00309128
0.00308867
0.00308598
0.00308315
0.00308011
0.00307676
0.00307302
0.00306877
0.00306395
0.00305848
0.00305229
0.00304536
0.00303764
0.00302913
0.00301984
0.00300972
0.0029987
0.00298676
0.00297393
0.00296032
0.00294599
0.00293094
0.0029153
0.00289895
0.00288188
0.00286401
0.00284533
0.00282573
0.00280513
0.00278352
0.00276093
0.0027375
0.00271345
0.00268873
0.00266323
0.00263701
0.00261012
0.00258271
0.00255509
0.00252758
0.00250042
0.00247379
0.0024478
0.00242255
0.00239809
0.00237448
0.00235156
0.00232932
0.00230741
0.00228657
0.00226622
0.00224774
0.00222706
0.00220338
0.00214668
2.46401e-05
0.000150547
0.000337977
0.000497324
0.000646629
0.000776743
0.000891679
0.000992121
0.00107951
0.0011553
0.00122224
0.00128184
0.00133686
0.00138712
0.001432
0.00147117
0.00150543
0.00153551
0.00156205
0.00158565
0.00160689
0.00162652
0.00164541
0.00166449
0.00168454
0.00170603
0.00172894
0.00175305
0.00177792
0.00180297
0.00182758
0.00185221
0.00187905
0.00191039
0.00194775
0.0019929
0.00204509
0.00210227
0.00216314
0.00222753
0.00229471
0.00236342
0.0024323
0.0025002
0.00256629
0.00263015
0.0026916
0.0027509
0.0028078
0.00286242
0.00291497
0.00296582
0.00301515
0.00306304
0.00310951
0.00315454
0.00319809
0.00324011
0.0032806
0.00331957
0.00335702
0.00339294
0.00342735
0.00346024
0.00349163
0.00352153
0.00354993
0.00357686
0.00360231
0.00362631
0.00364886
0.00366997
0.00368965
0.00370792
0.00372479
0.00374027
0.00375439
0.00376715
0.00377859
0.0037887
0.00379752
0.00380509
0.00381144
0.00381662
0.00382066
0.00382365
0.00382567
0.00382684
0.00382724
0.00382696
0.00382608
0.00382465
0.00382275
0.00382045
0.00381785
0.00381504
0.00381211
0.00380912
0.00380606
0.00380289
0.00379963
0.00379629
0.00379288
0.00378945
0.00378603
0.00378266
0.00377938
0.00377619
0.00377311
0.00377015
0.00376731
0.00376456
0.0037619
0.00375929
0.00375669
0.00375403
0.00375124
0.00374829
0.00374527
0.00374223
0.00373918
0.00373613
0.00373304
0.00372989
0.00372663
0.00372323
0.00371963
0.00371579
0.00371164
0.00370713
0.0037022
0.00369679
0.00369085
0.00368432
0.00367717
0.00366937
0.00366092
0.0036518
0.00364205
0.00363151
0.00362012
0.00360791
0.00359487
0.00358098
0.00356624
0.00355072
0.00353425
0.0035168
0.00349829
0.00347866
0.00345784
0.00343577
0.00341241
0.00338775
0.00336183
0.00333474
0.00330664
0.00327764
0.00324782
0.00321725
0.0031861
0.00315457
0.0031229
0.00309137
0.00306022
0.00302963
0.00299974
0.00297062
0.00294234
0.0029149
0.00288829
0.0028624
0.00283717
0.00281253
0.00278849
0.00276483
0.002741
0.00271475
0.00268061
0.00262597
2.59436e-05
0.000161862
0.000369467
0.00054951
0.000713695
0.000858926
0.00098721
0.00110139
0.0012029
0.00129336
0.00137383
0.00144554
0.00150909
0.00156525
0.0016147
0.00165818
0.0016965
0.00173045
0.00176082
0.00178828
0.0018135
0.00183736
0.00186091
0.00188513
0.00191074
0.00193827
0.00196846
0.00200182
0.00203833
0.00207815
0.00212174
0.00216909
0.00221929
0.00227178
0.00232733
0.00238633
0.00244862
0.0025142
0.00258338
0.0026556
0.00272962
0.00280371
0.002876
0.00294616
0.00301405
0.00307975
0.0031434
0.00320463
0.0032635
0.00332016
0.00337476
0.00342743
0.00347825
0.0035273
0.0035746
0.00362018
0.00366404
0.0037062
0.00374667
0.00378546
0.00382258
0.00385805
0.00389189
0.00392412
0.00395474
0.00398379
0.00401126
0.00403719
0.00406158
0.00408444
0.0041058
0.00412566
0.00414405
0.004161
0.00417653
0.00419067
0.00420346
0.00421493
0.00422513
0.0042341
0.00424188
0.00424853
0.0042541
0.00425864
0.00426223
0.00426492
0.0042668
0.00426792
0.00426836
0.00426818
0.00426743
0.00426618
0.00426452
0.00426251
0.00426022
0.0042577
0.00425498
0.00425206
0.00424898
0.00424578
0.00424249
0.00423916
0.00423581
0.00423246
0.00422915
0.00422589
0.0042227
0.0042196
0.00421659
0.00421367
0.00421085
0.00420812
0.00420546
0.00420285
0.00420027
0.00419768
0.00419506
0.0041924
0.00418971
0.004187
0.00418424
0.00418143
0.00417854
0.00417552
0.00417236
0.004169
0.0041654
0.00416154
0.00415735
0.00415281
0.00414786
0.00414247
0.0041366
0.00413022
0.0041233
0.0041158
0.0041078
0.00409918
0.00408985
0.00407975
0.00406882
0.00405711
0.00404455
0.00403108
0.00401658
0.00400099
0.00398418
0.00396608
0.00394657
0.00392558
0.00390302
0.00387884
0.00385305
0.00382567
0.00379679
0.00376654
0.00373511
0.00370268
0.00366943
0.00363555
0.00360126
0.00356678
0.00353241
0.00349838
0.00346492
0.00343217
0.00340026
0.00336924
0.00333916
0.00330999
0.00328171
0.00325424
0.00322748
0.00320135
0.00317563
0.00314999
0.00312332
0.00309371
0.00305624
0.00300673
2.70912e-05
0.000170696
0.000393718
0.000589368
0.000762606
0.000916955
0.00105445
0.00117792
0.00128888
0.00138901
0.00147928
0.00156096
0.00163469
0.00170102
0.00176052
0.00181383
0.00186156
0.0019045
0.00194347
0.00197935
0.00201297
0.0020452
0.00207726
0.00211055
0.00214616
0.0021848
0.00222646
0.00227081
0.00231772
0.00236695
0.00241812
0.00247073
0.00252417
0.00257815
0.00263554
0.00269782
0.00276529
0.0028374
0.00291313
0.00299108
0.00306974
0.0031477
0.00322357
0.00329626
0.00336614
0.00343296
0.00349652
0.00355728
0.00361566
0.00367174
0.00372564
0.00377743
0.00382718
0.00387495
0.00392079
0.00396473
0.00400681
0.00404707
0.00408556
0.00412231
0.00415736
0.00419073
0.00422247
0.00425259
0.00428111
0.00430806
0.00433343
0.00435726
0.00437956
0.00440036
0.00441968
0.00443755
0.004454
0.00446908
0.00448282
0.00449528
0.00450649
0.0045165
0.00452538
0.00453318
0.00453994
0.00454574
0.00455063
0.00455467
0.00455792
0.00456043
0.00456228
0.00456351
0.00456417
0.00456431
0.00456399
0.00456326
0.00456216
0.00456075
0.00455906
0.00455714
0.00455501
0.00455272
0.0045503
0.00454779
0.00454521
0.00454259
0.00453996
0.00453733
0.00453473
0.00453216
0.00452965
0.00452721
0.00452484
0.00452255
0.00452034
0.00451821
0.00451614
0.00451412
0.00451215
0.0045102
0.00450826
0.00450632
0.00450437
0.0045024
0.00450039
0.00449833
0.00449618
0.00449392
0.00449152
0.00448895
0.00448617
0.00448316
0.00447987
0.00447628
0.00447236
0.00446808
0.0044634
0.00445827
0.00445271
0.00444673
0.00444017
0.00443303
0.00442522
0.00441669
0.00440736
0.00439719
0.00438607
0.0043739
0.00436053
0.00434585
0.00432972
0.004312
0.00429258
0.00427136
0.00424826
0.00422323
0.0041963
0.00416752
0.00413702
0.00410498
0.00407161
0.00403717
0.0040019
0.00396605
0.00392988
0.00389365
0.00385765
0.0038221
0.00378722
0.00375314
0.00371999
0.00368781
0.00365664
0.00362647
0.00359724
0.00356888
0.00354128
0.0035143
0.00348758
0.00346068
0.00343235
0.00340094
0.00336279
0.00331668
2.76193e-05
0.000173964
0.000407451
0.000612747
0.000794969
0.000957897
0.0011038
0.00123564
0.00135504
0.0014638
0.00156306
0.00165376
0.00173691
0.00181311
0.00188279
0.0019465
0.00200483
0.00205845
0.00210807
0.00215451
0.0021989
0.00224235
0.00228568
0.00232953
0.00237451
0.002421
0.00246919
0.00251902
0.0025703
0.00262262
0.00267547
0.00272819
0.00278129
0.00283685
0.00289622
0.00296002
0.00302815
0.00310015
0.00317525
0.00325256
0.00333101
0.00340918
0.00348582
0.00355987
0.0036306
0.00369746
0.00376051
0.00382024
0.00387703
0.00393116
0.00398281
0.00403215
0.00407929
0.00412432
0.00416733
0.00420837
0.00424752
0.00428484
0.00432039
0.00435423
0.00438642
0.00441699
0.00444598
0.00447342
0.00449932
0.0045237
0.00454658
0.00456797
0.0045879
0.00460642
0.00462355
0.00463935
0.00465387
0.00466714
0.00467923
0.00469018
0.00470005
0.0047089
0.00471679
0.00472379
0.00472996
0.00473535
0.00474003
0.00474404
0.00474744
0.00475028
0.0047526
0.00475445
0.00475586
0.00475687
0.00475751
0.00475782
0.00475784
0.00475761
0.00475714
0.00475648
0.00475565
0.00475469
0.0047536
0.00475241
0.00475115
0.00474985
0.00474851
0.00474717
0.00474583
0.0047445
0.00474321
0.00474196
0.00474075
0.0047396
0.00473851
0.00473747
0.00473648
0.00473555
0.00473466
0.00473381
0.00473298
0.00473217
0.00473137
0.00473057
0.00472974
0.00472889
0.00472798
0.00472699
0.00472591
0.0047247
0.00472335
0.00472182
0.0047201
0.00471816
0.00471598
0.00471352
0.00471074
0.00470761
0.0047042
0.00470034
0.00469596
0.00469103
0.00468547
0.00467921
0.00467217
0.00466423
0.00465528
0.00464516
0.00463371
0.00462076
0.00460616
0.00458975
0.0045714
0.00455097
0.0045284
0.00450364
0.0044767
0.00444769
0.00441674
0.00438408
0.00434997
0.00431469
0.00427855
0.00424182
0.00420479
0.00416774
0.00413095
0.00409466
0.00405906
0.0040243
0.0039905
0.00395771
0.00392597
0.00389526
0.00386554
0.00383672
0.00380864
0.00378111
0.00375371
0.0037259
0.00369643
0.00366396
0.00362572
0.00358177
2.80807e-05
0.000176921
0.000418255
0.000630586
0.000819386
0.000988679
0.00114096
0.00127925
0.00140533
0.00152107
0.00162771
0.00172636
0.00181774
0.00190268
0.00198168
0.00205515
0.0021235
0.00218721
0.00224706
0.00230396
0.00235866
0.00241199
0.00246461
0.00251702
0.00256953
0.00262235
0.00267558
0.00272927
0.00278335
0.00283762
0.00289178
0.00294546
0.00299972
0.00305609
0.00311549
0.0031784
0.00324498
0.00331475
0.00338687
0.00346035
0.00353436
0.00360823
0.00368116
0.00375232
0.00382072
0.00388545
0.00394578
0.00400242
0.0040559
0.00410657
0.00415469
0.00420046
0.00424403
0.00428549
0.00432494
0.00436248
0.00439817
0.00443211
0.00446436
0.004495
0.00452409
0.00455166
0.00457777
0.00460243
0.00462567
0.00464749
0.00466792
0.00468698
0.00470471
0.00472116
0.00473638
0.00475042
0.00476334
0.0047752
0.00478605
0.00479596
0.00480498
0.00481318
0.00482063
0.00482738
0.00483351
0.00483906
0.00484408
0.00484862
0.00485272
0.00485641
0.00485974
0.00486273
0.00486541
0.0048678
0.00486993
0.00487183
0.00487352
0.00487501
0.00487633
0.00487747
0.00487846
0.0048793
0.00488005
0.00488071
0.0048813
0.00488183
0.00488231
0.00488275
0.00488317
0.00488357
0.00488396
0.00488435
0.00488475
0.00488516
0.00488561
0.00488608
0.00488659
0.00488713
0.00488771
0.00488832
0.00488896
0.00488963
0.00489032
0.00489103
0.00489175
0.00489246
0.00489316
0.00489383
0.00489447
0.00489504
0.00489555
0.00489596
0.00489626
0.00489645
0.00489648
0.00489632
0.00489601
0.00489545
0.00489459
0.00489336
0.00489171
0.00488957
0.00488688
0.00488353
0.00487943
0.00487442
0.00486836
0.00486106
0.00485232
0.00484197
0.00482982
0.00481568
0.0047994
0.00478085
0.00475991
0.00473654
0.00471077
0.00468269
0.00465247
0.00462036
0.00458663
0.00455162
0.00451564
0.004479
0.00444201
0.00440495
0.00436811
0.00433172
0.00429599
0.00426108
0.0042271
0.00419412
0.00416218
0.00413126
0.00410131
0.00407224
0.00404385
0.00401591
0.00398793
0.00395932
0.0039289
0.00389555
0.00385713
0.00381426
2.80303e-05
0.000178362
0.000423645
0.000640689
0.00083456
0.00100914
0.00116683
0.00131066
0.0014424
0.00156397
0.00167664
0.00178157
0.00187954
0.00197142
0.00205776
0.00213897
0.00221548
0.00228776
0.00235624
0.00242149
0.00248418
0.00254501
0.00260453
0.00266315
0.00272112
0.00277858
0.00283565
0.00289244
0.00294905
0.00300547
0.00306167
0.00311757
0.00317359
0.00323078
0.00328976
0.00335084
0.00341393
0.00347894
0.00354565
0.00361361
0.00368212
0.00375033
0.0038174
0.00388243
0.00394458
0.004003
0.00405763
0.00410904
0.00415763
0.00420369
0.00424741
0.00428896
0.00432845
0.00436598
0.00440163
0.0044355
0.00446766
0.00449821
0.00452723
0.00455478
0.00458092
0.00460569
0.00462914
0.00465129
0.00467216
0.00469176
0.00471012
0.00472727
0.00474327
0.00475817
0.00477203
0.00478491
0.00479687
0.00480798
0.0048183
0.00482788
0.0048368
0.00484512
0.00485289
0.00486019
0.00486706
0.00487354
0.00487968
0.00488551
0.00489106
0.00489635
0.0049014
0.00490624
0.00491088
0.00491533
0.00491961
0.00492372
0.00492766
0.00493145
0.00493509
0.00493861
0.004942
0.00494527
0.00494841
0.00495144
0.00495436
0.00495718
0.0049599
0.00496253
0.00496508
0.00496756
0.00496998
0.00497234
0.00497466
0.00497695
0.00497922
0.00498149
0.00498375
0.00498603
0.00498832
0.00499064
0.00499298
0.00499535
0.00499775
0.00500019
0.00500267
0.00500518
0.00500772
0.00501029
0.00501288
0.00501548
0.0050181
0.00502072
0.00502332
0.00502592
0.00502849
0.00503099
0.00503342
0.00503569
0.00503777
0.00503959
0.0050411
0.00504222
0.00504287
0.00504295
0.00504233
0.00504084
0.00503829
0.00503449
0.00502921
0.00502224
0.00501337
0.0050024
0.00498915
0.00497345
0.00495517
0.00493426
0.00491072
0.00488466
0.00485624
0.00482573
0.00479343
0.00475966
0.00472478
0.00468909
0.00465292
0.00461656
0.0045803
0.00454438
0.00450902
0.00447437
0.00444057
0.0044077
0.00437579
0.00434484
0.0043148
0.00428554
0.00425687
0.00422848
0.00419988
0.00417043
0.00413902
0.00410474
0.00406579
0.00402311
2.80619e-05
0.0001826
0.000428743
0.000648444
0.000845934
0.0010246
0.00118661
0.00133484
0.00147099
0.00159695
0.00171402
0.0018233
0.00192588
0.00202259
0.00211393
0.00220038
0.00228229
0.00236008
0.00243414
0.00250493
0.00257289
0.00263854
0.00270235
0.00276472
0.00282602
0.00288654
0.0029465
0.00300592
0.00306487
0.00312337
0.00318144
0.00323906
0.00329627
0.00335315
0.00341027
0.00346829
0.00352748
0.0035878
0.0036489
0.00371029
0.00377132
0.00383125
0.00388928
0.0039446
0.00399727
0.00404736
0.00409496
0.00414022
0.00418329
0.00422427
0.00426327
0.00430036
0.00433564
0.00436916
0.00440101
0.00443128
0.00446005
0.0044874
0.00451341
0.00453813
0.00456163
0.00458394
0.0046051
0.00462513
0.00464406
0.00466192
0.00467874
0.00469457
0.00470947
0.00472351
0.00473674
0.00474922
0.00476103
0.00477221
0.00478283
0.00479295
0.00480262
0.00481192
0.0048209
0.00482958
0.00483803
0.00484626
0.00485431
0.00486219
0.00486992
0.00487752
0.00488499
0.00489234
0.00489958
0.00490671
0.00491372
0.00492063
0.00492743
0.0049341
0.00494062
0.00494699
0.00495322
0.00495931
0.00496527
0.00497107
0.00497674
0.00498225
0.00498761
0.00499282
0.00499789
0.00500281
0.00500761
0.00501228
0.00501684
0.00502131
0.00502571
0.00503004
0.00503433
0.00503859
0.00504283
0.00504706
0.00505131
0.00505557
0.00505987
0.00506421
0.00506861
0.00507307
0.00507759
0.0050822
0.00508689
0.00509167
0.00509655
0.00510152
0.0051066
0.00511177
0.00511705
0.00512241
0.00512779
0.00513315
0.00513847
0.00514368
0.00514872
0.00515352
0.00515798
0.00516199
0.00516541
0.00516805
0.0051697
0.00517013
0.0051691
0.00516636
0.00516168
0.00515484
0.00514562
0.00513383
0.0051193
0.00510195
0.00508175
0.0050588
0.00503327
0.00500542
0.00497554
0.00494398
0.00491107
0.00487713
0.00484251
0.00480749
0.00477237
0.00473739
0.00470278
0.00466871
0.00463533
0.00460271
0.00457092
0.00453996
0.00450976
0.00448022
0.00445109
0.00442208
0.00439263
0.00436215
0.00432956
0.00429411
0.00425426
0.00421098
2.79006e-05
0.000184302
0.000430689
0.000652479
0.000853368
0.00103577
0.00120152
0.00135337
0.00149288
0.00162194
0.00174164
0.00185339
0.00195832
0.00205716
0.00215057
0.00223914
0.00232337
0.0024036
0.00248014
0.00255335
0.00262359
0.00269136
0.00275709
0.00282107
0.00288351
0.00294458
0.00300442
0.00306321
0.00312113
0.00317834
0.00323495
0.00329102
0.00334666
0.00340197
0.0034571
0.00351208
0.00356685
0.00362129
0.00367515
0.00372818
0.00378006
0.00383052
0.0038793
0.00392625
0.00397132
0.0040145
0.00405582
0.00409532
0.00413305
0.00416907
0.00420341
0.00423613
0.00426729
0.00429695
0.0043252
0.00435211
0.00437777
0.00440227
0.00442566
0.00444802
0.00446937
0.00448977
0.00450923
0.00452778
0.00454546
0.00456231
0.00457837
0.00459372
0.0046084
0.00462248
0.00463604
0.00464911
0.00466175
0.00467401
0.00468596
0.00469764
0.0047091
0.00472039
0.00473156
0.00474262
0.0047536
0.00476452
0.00477539
0.00478622
0.004797
0.00480774
0.00481844
0.00482909
0.00483967
0.00485018
0.00486061
0.00487094
0.00488115
0.00489125
0.00490122
0.00491104
0.00492069
0.00493016
0.00493943
0.00494849
0.00495734
0.00496596
0.00497435
0.00498251
0.00499043
0.00499812
0.00500559
0.00501285
0.00501992
0.00502682
0.00503356
0.00504018
0.00504668
0.0050531
0.00505944
0.00506574
0.00507201
0.00507828
0.00508456
0.00509087
0.00509723
0.00510368
0.00511021
0.00511686
0.00512365
0.00513059
0.00513771
0.00514501
0.00515251
0.00516029
0.00516832