/*--------------------------------*- C++ -*----------------------------------*\
| =========                 |                                                 |
| \\      /  F ield         | OpenFOAM: The Open Source CFD Toolbox           |
|  \\    /   O peration     | Version:  v1906                                 |
|   \\  /    A nd           | Web:      www.OpenFOAM.com                      |
|    \\/     M anipulation  |                                                 |
\*---------------------------------------------------------------------------*/
FoamFile
{
    version     2.0;
    format      ascii;
    class       volScalarField;
    location    "1400";
    object      p;
}
// * * * * * * * * * * * * * * * * * * * * * * * * * * * * * * * * * * * * * //

dimensions      [0 2 -2 0 0 0 0];


internalField   nonuniform List<scalar> 
12225
(
-2.8388
-4.0412
-4.09132
-4.0964
-4.23195
-4.36984
-4.47554
-4.56937
-4.65973
-4.74502
-4.82423
-4.90173
-4.98127
-5.06453
-5.15185
-5.24902
-5.36583
-5.5173
-4.59932
-5.11418
-5.27189
-5.2576
-5.31286
-5.37754
-5.42563
-5.47423
-5.52826
-5.58394
-5.63949
-5.69663
-5.75867
-5.8252
-5.89775
-5.97872
-6.06873
-6.2003
-4.01429
-4.79475
-4.93417
-4.90244
-4.93526
-4.98443
-5.02533
-5.068
-5.11537
-5.16423
-5.21347
-5.26405
-5.31861
-5.3765
-5.43971
-5.50623
-5.57776
-5.63193
-4.66948
-5.13605
-5.35375
-5.42778
-5.52018
-5.60374
-5.66523
-5.71923
-5.77259
-5.82493
-5.87656
-5.92909
-5.98449
-6.04308
-6.10515
-6.1705
-6.23673
-6.31144
-4.47857
-4.93719
-5.15237
-5.21298
-5.27517
-5.32999
-5.37135
-5.4104
-5.45109
-5.49247
-5.53423
-5.57722
-5.62233
-5.67002
-5.71861
-5.7692
-5.80946
-5.8396
-4.85594
-5.15785
-5.36393
-5.46669
-5.57019
-5.66234
-5.73739
-5.80412
-5.86691
-5.92653
-5.98386
-6.04039
-6.09716
-6.15482
-6.21224
-6.27001
-6.32382
-6.38216
-4.79054
-5.03805
-5.23798
-5.33627
-5.42295
-5.49379
-5.54935
-5.59828
-5.64454
-5.68895
-5.73213
-5.77493
-5.81771
-5.8607
-5.902
-5.94163
-5.96984
-5.98514
-5.03139
-5.21502
-5.38981
-5.49736
-5.60149
-5.69358
-5.77301
-5.84511
-5.91251
-5.97617
-6.03692
-6.09573
-6.15311
-6.20938
-6.26368
-6.316
-6.36556
-6.41623
-5.01868
-5.14541
-5.30607
-5.40789
-5.50141
-5.57986
-5.64537
-5.7032
-5.75613
-5.80545
-5.85204
-5.89662
-5.93937
-5.98029
-6.01792
-6.05178
-6.07548
-6.08828
-5.18022
-5.28985
-5.42924
-5.52896
-5.62768
-5.7163
-5.79585
-5.86922
-5.9379
-6.00272
-6.06433
-6.12328
-6.17983
-6.23404
-6.28563
-6.33437
-6.38169
-6.42775
-5.19016
-5.25485
-5.37499
-5.46603
-5.55546
-5.6342
-5.70371
-5.76642
-5.82382
-5.87691
-5.92641
-5.9728
-6.01618
-6.05648
-6.09275
-6.12461
-6.14839
-6.1646
-5.29296
-5.35948
-5.46739
-5.55446
-5.64381
-5.72615
-5.80232
-5.87346
-5.94026
-6.00326
-6.06289
-6.11945
-6.17306
-6.2237
-6.27141
-6.31584
-6.35884
-6.39859
-5.31014
-5.34729
-5.43716
-5.51537
-5.59653
-5.67169
-5.74094
-5.80493
-5.86417
-5.9192
-5.97043
-6.01812
-6.06233
-6.10299
-6.13966
-6.17208
-6.1989
-6.22056
-5.39485
-5.43858
-5.52052
-5.59506
-5.67388
-5.74977
-5.82208
-5.89084
-5.95599
-6.01768
-6.07605
-6.13118
-6.18317
-6.23198
-6.27784
-6.3204
-6.36081
-6.39698
-5.41737
-5.43964
-5.50253
-5.56665
-5.63623
-5.70495
-5.771
-5.83383
-5.8931
-5.94877
-6.0009
-6.04953
-6.09472
-6.13641
-6.17467
-6.20933
-6.24101
-6.26922
-5.48473
-5.512
-5.56964
-5.62977
-5.69486
-5.76063
-5.82497
-5.88709
-5.94636
-6.00248
-6.05529
-6.10472
-6.1507
-6.19326
-6.23225
-6.26779
-6.29913
-6.32716
-5.51011
-5.52951
-5.57683
-5.63161
-5.69284
-5.75703
-5.82155
-5.88515
-5.94699
-6.00659
-6.06368
-6.1181
-6.1699
-6.21891
-6.26564
-6.30937
-6.35236
-6.39077
-5.52068
-5.53505
-5.5733
-5.61868
-5.66846
-5.72002
-5.77072
-5.81924
-5.8647
-5.90659
-5.94458
-5.97863
-6.00858
-6.03481
-6.05683
-6.07613
-6.0902
-6.10511
-5.56117
-5.58926
-5.64372
-5.7062
-5.7755
-5.84957
-5.9258
-6.00291
-6.08006
-6.15659
-6.23213
-6.30629
-6.37895
-6.44953
-6.51825
-6.58347
-6.64694
-6.70286
-5.42633
-5.43339
-5.46828
-5.5097
-5.55301
-5.59554
-5.6346
-5.66914
-5.69875
-5.72325
-5.74264
-5.75713
-5.7668
-5.77228
-5.77339
-5.77227
-5.76699
-5.76563
-5.45478
-5.50046
-5.57604
-5.65212
-5.73193
-5.81365
-5.89469
-5.97439
-6.05249
-6.12881
-6.20343
-6.27653
-6.34861
-6.41986
-6.49141
-6.56232
-6.63584
-6.70433
-5.2701
-5.28916
-5.35397
-5.41349
-5.46827
-5.51697
-5.5576
-5.59093
-5.61799
-5.63948
-5.65586
-5.66746
-5.67417
-5.67601
-5.6717
-5.66185
-5.64162
-5.6189
-5.29807
-5.37991
-5.49489
-5.59241
-5.68807
-5.78159
-5.86963
-5.95256
-6.0312
-6.10592
-6.17718
-6.24561
-6.3122
-6.37795
-6.44523
-6.51538
-6.59599
-6.68324
-5.03503
-5.10964
-5.23297
-5.31309
-5.37498
-5.42468
-5.46159
-5.48957
-5.51211
-5.53062
-5.5457
-5.55773
-5.56667
-5.57219
-5.57242
-5.56577
-5.54248
-5.50208
-5.09912
-5.25794
-5.42867
-5.54585
-5.65407
-5.75657
-5.84614
-5.92508
-5.99692
-6.0629
-6.12381
-6.18064
-6.23447
-6.28626
-6.33815
-6.39255
-6.46108
-6.55156
-4.68545
-4.92783
-5.11522
-5.18506
-5.22893
-5.26535
-5.28987
-5.30836
-5.32616
-5.3436
-5.36
-5.37527
-5.38937
-5.40212
-5.41245
-5.41903
-5.41114
-5.37617
-4.87729
-5.17854
-5.40928
-5.52468
-5.62945
-5.72552
-5.79793
-5.8554
-5.90657
-5.95336
-5.99626
-6.03622
-6.0741
-6.11028
-6.14555
-6.1808
-6.22544
-6.29614
-4.14092
-4.74592
-4.91046
-4.89051
-4.89639
-4.92577
-4.94985
-4.9723
-4.99861
-5.02646
-5.05361
-5.07977
-5.10497
-5.12905
-5.15174
-5.17324
-5.18746
-5.17912
-4.76582
-5.15239
-5.37623
-5.38888
-5.42916
-5.47792
-5.51099
-5.54051
-5.57381
-5.60898
-5.64373
-5.67775
-5.71111
-5.74361
-5.77499
-5.80532
-5.83925
-5.89137
-2.89512
-4.01587
-4.08636
-4.06635
-4.16567
-4.28437
-4.37625
-4.45387
-4.5275
-4.59641
-4.65931
-4.71695
-4.77029
-4.81967
-4.86515
-4.90646
-4.94206
-4.97036
-5.61707
-5.65887
-5.70083
-5.75004
-5.80509
-5.86314
-5.9205
-5.97791
-6.03502
-6.09177
-6.14757
-6.20206
-6.25471
-6.3051
-6.35277
-6.39741
-6.43873
-6.47666
-6.51119
-6.5425
-6.57093
-6.59695
-6.62012
-6.6395
-6.6533
-6.66004
-6.65862
-6.64754
-6.62568
-6.59297
-6.55073
-6.50145
-6.45092
-6.40631
-6.37224
-6.34988
-6.33777
-6.33215
-6.32875
-6.32514
-6.32214
-6.32385
-6.33344
-6.35088
-6.37577
-6.40883
-6.4509
-6.50029
-6.55301
-6.60698
-6.66163
-6.71615
-6.76974
-6.82165
-6.87121
-6.91795
-6.96149
-7.00161
-7.03818
-7.07115
-7.10055
-7.12644
-7.14889
-7.16801
-7.18386
-7.19651
-7.20603
-7.21245
-7.21581
-7.21613
-7.21342
-7.20769
-7.19891
-7.18708
-7.17216
-7.15412
-7.13292
-7.10852
-7.08085
-7.04985
-7.01544
-6.97754
-6.93605
-6.89088
-6.84192
-6.78901
-6.73201
-6.67077
-6.60515
-6.53496
-6.45993
-6.37985
-6.29493
-6.20544
-6.11139
-6.01261
-5.90875
-5.79948
-5.68485
-5.56485
-5.43948
-5.30869
-5.17241
-5.0306
-4.88317
-4.73013
-4.57146
-4.40717
-4.23727
-4.06178
-3.88076
-3.69428
-3.50243
-3.30536
-3.10317
-2.89602
-2.68411
-2.46767
-2.24687
-2.02187
-1.79286
-1.55999
-1.32367
-1.08418
-0.841623
-0.596197
-0.34808
-0.0972979
0.156044
0.411828
0.670191
0.931352
1.19546
1.4625
1.733
2.00742
2.28608
2.56967
2.85883
3.15449
3.45711
3.76702
4.08526
4.41269
4.74943
5.0958
5.45196
5.81735
6.19144
6.57346
6.96192
7.35526
7.75154
8.14855
8.54397
8.93531
9.31973
9.69567
10.0637
10.4232
10.7709
11.1033
11.4193
11.7182
11.9998
12.2641
12.5113
12.7418
12.9562
13.1551
13.3393
13.5097
13.6676
13.8135
13.9502
14.0774
14.2038
14.3242
14.4846
14.6553
-5.69561
-5.79351
-5.84204
-5.91158
-5.9688
-6.02831
-6.08183
-6.13725
-6.19019
-6.24313
-6.29441
-6.34445
-6.3924
-6.43811
-6.48108
-6.52109
-6.55792
-6.59158
-6.62215
-6.64995
-6.67564
-6.70003
-6.72359
-6.74701
-6.76971
-6.78735
-6.79443
-6.78653
-6.76074
-6.71726
-6.65965
-6.59298
-6.5237
-6.46003
-6.40938
-6.3753
-6.35704
-6.35031
-6.35086
-6.35483
-6.35921
-6.36816
-6.38634
-6.41392
-6.45078
-6.49669
-6.55082
-6.61108
-6.67495
-6.74067
-6.80686
-6.87224
-6.93577
-6.99661
-7.05416
-7.10804
-7.15806
-7.20414
-7.2463
-7.2846
-7.31918
-7.35015
-7.37764
-7.40178
-7.42267
-7.44038
-7.45499
-7.46652
-7.475
-7.48045
-7.48286
-7.4822
-7.47845
-7.47156
-7.4615
-7.44819
-7.43158
-7.41159
-7.38816
-7.3612
-7.33063
-7.29634
-7.25822
-7.21613
-7.16991
-7.11936
-7.06427
-7.00439
-6.93949
-6.86923
-6.79378
-6.71428
-6.63088
-6.5431
-6.45093
-6.35415
-6.2527
-6.14686
-6.03646
-5.92118
-5.80084
-5.67524
-5.54425
-5.40775
-5.26562
-5.11779
-4.96421
-4.80491
-4.63988
-4.46917
-4.2928
-4.11085
-3.92342
-3.7306
-3.53252
-3.32933
-3.12123
-2.90838
-2.69093
-2.46907
-2.24299
-2.01303
-1.77952
-1.54261
-1.30251
-1.05943
-0.813524
-0.564863
-0.313736
-0.0599862
0.196336
0.455389
0.717036
0.981588
1.24952
1.52096
1.79653
2.07674
2.36232
2.65414
2.9525
3.25816
3.57194
3.89472
4.2268
4.56874
4.92054
5.28199
5.65287
6.03233
6.41928
6.81225
7.2095
7.60894
8.00845
8.40556
8.79735
9.18082
9.55097
9.90666
10.2517
10.5846
10.903
11.2058
11.4924
11.7625
12.0163
12.2541
12.4762
12.6832
12.8758
13.0546
13.2212
13.3757
13.5213
13.6567
13.7915
13.9176
14.074
14.2182
-5.72344
-5.85444
-5.87993
-5.95619
-5.98652
-6.04776
-6.08656
-6.13777
-6.18189
-6.23154
-6.27827
-6.32592
-6.37122
-6.41497
-6.45565
-6.49313
-6.52667
-6.55616
-6.58138
-6.60228
-6.61973
-6.636
-6.65328
-6.67285
-6.69398
-6.71435
-6.73141
-6.74141
-6.73971
-6.723
-6.69094
-6.64597
-6.59279
-6.5379
-6.48818
-6.44949
-6.42539
-6.41488
-6.41416
-6.42052
-6.43173
-6.44744
-6.46857
-6.49546
-6.52795
-6.56592
-6.60881
-6.65553
-6.70476
-6.75528
-6.80604
-6.8562
-6.90509
-6.95216
-6.99704
-7.03943
-7.07915
-7.11608
-7.15013
-7.18126
-7.20947
-7.23475
-7.25711
-7.27657
-7.29313
-7.30683
-7.31767
-7.32566
-7.3308
-7.33309
-7.33253
-7.3291
-7.32277
-7.31352
-7.30132
-7.28611
-7.26787
-7.24653
-7.22203
-7.1943
-7.16326
-7.12881
-7.09084
-7.04922
-7.00381
-6.95444
-6.90096
-6.84323
-6.78118
-6.71473
-6.64392
-6.56893
-6.48966
-6.40611
-6.31816
-6.22564
-6.12838
-6.02564
-5.91717
-5.80336
-5.6842
-5.55969
-5.42976
-5.29436
-5.15343
-5.00692
-4.85478
-4.69699
-4.53354
-4.36444
-4.18973
-4.00947
-3.82373
-3.63264
-3.4363
-3.23486
-3.0285
-2.81739
-2.60169
-2.38157
-2.15724
-1.92899
-1.69711
-1.46178
-1.22324
-0.981681
-0.73725
-0.490079
-0.240334
0.0119524
0.266839
0.524352
0.784552
1.04757
1.31384
1.58355
1.85728
2.13549
2.41875
2.70775
3.00332
3.30617
3.61698
3.93625
4.26468
4.60259
4.95027
5.3074
5.67375
6.04846
6.43048
6.81836
7.21036
7.60441
7.99836
8.38986
8.77678
9.15751
9.52947
9.89077
10.2394
10.5746
10.8955
11.2014
11.4914
11.7653
12.023
12.2646
12.4906
12.7014
12.8977
13.0801
13.25
13.4076
13.5563
13.6938
13.8315
13.9559
14.1114
14.2248
-5.73081
-5.88966
-5.92001
-6.0156
-6.04026
-6.11138
-6.14705
-6.20884
-6.25213
-6.30689
-6.35323
-6.40379
-6.44929
-6.49448
-6.53528
-6.57307
-6.60621
-6.63557
-6.66045
-6.68065
-6.69708
-6.71289
-6.73115
-6.75302
-6.77747
-6.80204
-6.82304
-6.83579
-6.836
-6.82184
-6.79388
-6.75428
-6.7073
-6.65909
-6.61577
-6.5817
-6.55873
-6.54639
-6.54313
-6.54757
-6.55855
-6.57565
-6.59885
-6.62775
-6.66183
-6.7006
-6.74352
-6.78987
-6.83886
-6.88975
-6.94178
-6.99423
-7.0464
-7.09767
-7.14748
-7.19537
-7.24097
-7.28403
-7.32436
-7.36183
-7.39637
-7.42797
-7.4566
-7.48229
-7.50504
-7.52485
-7.54174
-7.55571
-7.56673
-7.5748
-7.57989
-7.58195
-7.58096
-7.57685
-7.56955
-7.55901
-7.54514
-7.52786
-7.50708
-7.4827
-7.45464
-7.42279
-7.38705
-7.3473
-7.30346
-7.25541
-7.20306
-7.1463
-7.08503
-7.01917
-6.94873
-6.87378
-6.79426
-6.71008
-6.6212
-6.52753
-6.42901
-6.32586
-6.21842
-6.10613
-5.98878
-5.86618
-5.73818
-5.60464
-5.46548
-5.32062
-5.17003
-5.01369
-4.85158
-4.68375
-4.51022
-4.33107
-4.14638
-3.95626
-3.76084
-3.56028
-3.35474
-3.1444
-2.92941
-2.71
-2.48641
-2.25891
-2.02777
-1.79321
-1.55545
-1.31472
-1.07118
-0.824992
-0.57631
-0.325146
-0.0715326
0.184612
0.443338
0.704832
0.969481
1.23758
1.50975
1.78641
2.06833
2.35611
2.65025
2.95199
3.26213
3.58108
3.90943
4.24769
4.59611
4.95446
5.32248
5.69934
6.08395
6.47483
6.87022
7.26804
7.66605
8.06182
8.45285
8.83686
9.21124
9.57469
9.92664
10.2657
10.5905
10.9
11.1936
11.4709
11.7321
11.9772
12.2066
12.4208
12.6205
12.8062
12.9794
13.1399
13.2915
13.4309
13.57
13.6921
13.8405
13.9337
-5.68698
-5.87821
-5.91211
-6.01475
-6.03694
-6.10585
-6.13825
-6.1945
-6.23594
-6.28929
-6.33482
-6.38392
-6.42859
-6.47294
-6.51258
-6.54868
-6.57933
-6.60555
-6.6273
-6.64495
-6.65881
-6.67234
-6.68844
-6.70806
-6.72977
-6.75211
-6.77345
-6.79093
-6.80103
-6.80126
-6.79104
-6.7715
-6.74543
-6.71664
-6.68919
-6.66639
-6.65029
-6.64146
-6.63952
-6.64372
-6.6532
-6.66743
-6.68613
-6.70898
-6.73573
-6.76612
-6.79982
-6.83637
-6.87521
-6.91572
-6.95728
-6.99926
-7.0411
-7.08228
-7.12235
-7.16095
-7.19777
-7.23258
-7.26519
-7.29546
-7.3233
-7.34862
-7.37138
-7.39151
-7.409
-7.42381
-7.43592
-7.4453
-7.45193
-7.45578
-7.45683
-7.45505
-7.45039
-7.44283
-7.43233
-7.41882
-7.40229
-7.38266
-7.35989
-7.33393
-7.3047
-7.27214
-7.23614
-7.19662
-7.15345
-7.10651
-7.05566
-7.00078
-6.94177
-6.87854
-6.81104
-6.73927
-6.66318
-6.58272
-6.49777
-6.4082
-6.3138
-6.21431
-6.10928
-5.99894
-5.88325
-5.76216
-5.6356
-5.50352
-5.36582
-5.22245
-5.07337
-4.91853
-4.75792
-4.59157
-4.4195
-4.24176
-4.05844
-3.86964
-3.67548
-3.47612
-3.27171
-3.06243
-2.84849
-2.63008
-2.40746
-2.18087
-1.95057
-1.71683
-1.47987
-1.23993
-0.997207
-0.751879
-0.504106
-0.253974
-0.00151982
0.253271
0.510472
0.770236
1.0329
1.29871
1.5682
1.84189
2.12048
2.40486
2.69549
2.99329
3.29935
3.61418
3.93846
4.27267
4.61712
4.97168
5.33608
5.70956
6.09105
6.47907
6.87185
7.26725
7.66313
8.05727
8.44743
8.8317
9.20776
9.57345
9.92721
10.2678
10.5943
10.9056
11.2012
11.4807
11.7441
11.9915
12.2233
12.4398
12.6418
12.8297
13.005
13.1674
13.3207
13.4611
13.601
13.7212
13.8655
13.9491
-5.63163
-5.85507
-5.8993
-6.0144
-6.03899
-6.11246
-6.14656
-6.20497
-6.24706
-6.30087
-6.34855
-6.40111
-6.44911
-6.49637
-6.53898
-6.57784
-6.61116
-6.64051
-6.66579
-6.6872
-6.7056
-6.72314
-6.7413
-6.76008
-6.77863
-6.79623
-6.81178
-6.82348
-6.82952
-6.82886
-6.82163
-6.80888
-6.79253
-6.77496
-6.75858
-6.74543
-6.73686
-6.7335
-6.73545
-6.74253
-6.75446
-6.77101
-6.79197
-6.81714
-6.84625
-6.87901
-6.91507
-6.95398
-6.99524
-7.03831
-7.08264
-7.12766
-7.17284
-7.21767
-7.26169
-7.30452
-7.34581
-7.38529
-7.42276
-7.45804
-7.49101
-7.52157
-7.54965
-7.57519
-7.59814
-7.61846
-7.63609
-7.65101
-7.66316
-7.6725
-7.67898
-7.68256
-7.68317
-7.68074
-7.67521
-7.6665
-7.65453
-7.63922
-7.62048
-7.59822
-7.57233
-7.54273
-7.50932
-7.472
-7.43068
-7.38528
-7.33571
-7.28192
-7.22383
-7.1614
-7.09456
-7.02326
-6.94739
-6.86688
-6.78161
-6.69151
-6.59658
-6.49696
-6.39229
-6.28252
-6.16745
-6.04697
-5.92095
-5.7893
-5.65193
-5.50877
-5.35978
-5.20493
-5.04423
-4.8777
-4.70538
-4.52734
-4.34366
-4.15445
-3.95985
-3.76002
-3.55511
-3.34533
-3.13086
-2.91194
-2.68881
-2.46173
-2.23098
-1.9968
-1.75944
-1.51915
-1.27612
-1.03054
-0.782565
-0.532289
-0.279763
-0.0249517
0.232253
0.49201
0.754591
1.02039
1.28988
1.56372
1.84247
2.127
2.41811
2.71667
3.02365
3.33972
3.66559
4.00173
4.34849
4.70579
5.07332
5.4503
5.8356
6.22767
6.62463
7.02439
7.42465
7.82298
8.21699
8.60442
8.98307
9.35132
9.70779
10.0511
10.3801
10.6939
10.9918
11.2736
11.5392
11.7888
12.0227
12.2413
12.4454
12.6353
12.8126
12.9766
13.1314
13.272
13.4117
13.5283
13.6669
13.7369
-5.56913
-5.81469
-5.8669
-5.98798
-6.0135
-6.08673
-6.12025
-6.17593
-6.21588
-6.26622
-6.31053
-6.35904
-6.40462
-6.45031
-6.49171
-6.52942
-6.56204
-6.59059
-6.61589
-6.63906
-6.66064
-6.68152
-6.70216
-6.7225
-6.74213
-6.76073
-6.77776
-6.79231
-6.80332
-6.81011
-6.81265
-6.81149
-6.80771
-6.8027
-6.79795
-6.79477
-6.79415
-6.79667
-6.80267
-6.81224
-6.82536
-6.84194
-6.86187
-6.88496
-6.91104
-6.93984
-6.97108
-7.0044
-7.03944
-7.07577
-7.11295
-7.15058
-7.18824
-7.22554
-7.26213
-7.29771
-7.33202
-7.36482
-7.39594
-7.42522
-7.45253
-7.47777
-7.50084
-7.52166
-7.54014
-7.55621
-7.56982
-7.5809
-7.58941
-7.59529
-7.59849
-7.59897
-7.59667
-7.59154
-7.58351
-7.57254
-7.55855
-7.5415
-7.52133
-7.49797
-7.47135
-7.44139
-7.40801
-7.37111
-7.33058
-7.28632
-7.23822
-7.18618
-7.13008
-7.06983
-7.00535
-6.93656
-6.86339
-6.78578
-6.70364
-6.61682
-6.52502
-6.428
-6.32615
-6.219
-6.10656
-5.98865
-5.86519
-5.73608
-5.60121
-5.46053
-5.31397
-5.16149
-5.00308
-4.83876
-4.66856
-4.49253
-4.31075
-4.12334
-3.93042
-3.73215
-3.5287
-3.32026
-3.10705
-2.8893
-2.66728
-2.44126
-2.21151
-1.97831
-1.74194
-1.50267
-1.26073
-1.01634
-0.769692
-0.520921
-0.270112
-0.0172496
0.237729
0.494935
0.754645
1.0173
1.28335
1.55335
1.82812
2.10842
2.39513
2.68923
2.99173
3.30342
3.6251
3.95734
4.30056
4.65472
5.01948
5.39413
5.77763
6.16837
6.56447
6.96379
7.36407
7.76294
8.15804
8.54711
8.92786
9.29832
9.65691
10.0023
10.3335
10.6495
10.9497
11.2338
11.5019
11.7539
11.9903
12.2114
12.4179
12.61
12.7894
12.9551
13.1115
13.2529
13.3928
13.5078
13.643
13.7073
-5.52501
-5.78038
-5.84222
-5.96889
-5.99657
-6.07146
-6.10551
-6.1613
-6.20065
-6.24994
-6.29312
-6.34067
-6.38534
-6.43064
-6.4733
-6.51402
-6.55063
-6.58357
-6.61318
-6.64025
-6.66524
-6.68879
-6.7111
-6.73213
-6.7517
-6.76969
-6.78586
-6.79988
-6.81144
-6.82044
-6.82711
-6.83185
-6.83532
-6.83831
-6.84174
-6.84639
-6.85296
-6.86192
-6.87361
-6.88821
-6.9058
-6.92639
-6.94992
-6.97629
-7.00534
-7.03687
-7.07064
-7.10637
-7.14373
-7.18238
-7.22194
-7.26205
-7.30233
-7.34241
-7.38198
-7.42073
-7.45839
-7.49476
-7.52963
-7.56285
-7.59429
-7.62381
-7.65133
-7.67672
-7.6999
-7.72078
-7.73925
-7.75525
-7.7687
-7.77953
-7.78768
-7.79307
-7.79563
-7.79528
-7.79193
-7.78551
-7.77592
-7.76307
-7.74689
-7.72727
-7.70414
-7.67739
-7.64692
-7.61266
-7.5745
-7.53238
-7.4862
-7.43592
-7.38146
-7.32277
-7.25978
-7.19239
-7.12052
-7.04406
-6.96288
-6.87696
-6.78625
-6.69009
-6.58855
-6.48162
-6.36918
-6.25114
-6.12739
-5.99784
-5.86241
-5.72103
-5.57365
-5.42026
-5.26086
-5.09546
-4.92411
-4.74687
-4.56384
-4.37513
-4.18088
-3.98124
-3.77639
-3.56654
-3.3519
-3.13272
-2.90926
-2.6818
-2.45062
-2.216
-1.97823
-1.73758
-1.49431
-1.24863
-1.00072
-0.750759
-0.49882
-0.24491
0.0110283
0.26915
0.529747
0.793173
1.05995
1.33066
1.60608
1.88706
2.17453
2.46952
2.77305
3.08598
3.40915
3.74311
4.08829
4.44476
4.81219
5.18979
5.57643
5.97056
6.37023
6.7732
7.17709
7.57938
7.97763
8.36948
8.75278
9.12568
9.48664
9.83433
10.1676
10.4856
10.7878
11.0739
11.3438
11.5978
11.8361
12.0591
12.2675
12.4614
12.6426
12.8098
12.9673
13.109
13.2484
13.3606
13.492
13.5486
-5.49495
-5.75023
-5.81772
-5.94514
-5.97388
-6.04783
-6.08127
-6.13524
-6.17252
-6.21891
-6.25867
-6.30236
-6.34318
-6.38503
-6.42457
-6.46313
-6.49962
-6.5344
-6.56665
-6.59688
-6.62539
-6.6524
-6.67809
-6.70258
-6.7258
-6.7476
-6.76776
-6.78607
-6.80243
-6.81691
-6.82976
-6.84129
-6.85193
-6.86218
-6.87261
-6.88376
-6.89608
-6.90995
-6.92562
-6.94325
-6.96296
-6.98476
-7.00862
-7.03448
-7.06222
-7.09171
-7.12276
-7.15518
-7.18874
-7.22317
-7.25821
-7.29357
-7.32896
-7.36409
-7.3987
-7.43255
-7.46545
-7.49722
-7.52769
-7.55674
-7.58424
-7.61008
-7.63414
-7.65631
-7.67645
-7.69446
-7.71024
-7.72368
-7.73473
-7.7433
-7.74935
-7.7528
-7.75359
-7.75164
-7.74685
-7.73915
-7.72847
-7.71473
-7.69788
-7.67784
-7.65452
-7.62784
-7.59772
-7.56404
-7.52672
-7.48564
-7.4407
-7.39181
-7.33886
-7.28175
-7.22039
-7.15469
-7.08453
-7.00984
-6.93048
-6.84617
-6.75713
-6.66357
-6.56497
-6.46115
-6.35193
-6.23714
-6.11663
-5.99028
-5.85798
-5.71965
-5.57523
-5.42467
-5.26797
-5.10514
-4.93622
-4.76126
-4.58035
-4.39362
-4.20119
-4.00323
-3.79993
-3.5915
-3.37816
-3.16019
-2.93785
-2.71145
-2.48128
-2.24767
-2.01092
-1.77132
-1.52917
-1.28471
-1.03817
-0.789743
-0.539572
-0.287674
-0.0339785
0.221648
0.479471
0.739879
1.00337
1.27057
1.5423
1.81944
2.10301
2.39411
2.69384
3.00319
3.32304
3.65405
3.99667
4.35102
4.71686
5.09346
5.47968
5.87388
6.27407
6.67797
7.08313
7.48701
7.8871
8.28101
8.66647
9.04155
9.40464
9.75442
10.0898
10.4099
10.7142
11.0025
11.2747
11.5308
11.7713
11.9965
12.2069
12.4028
12.5857
12.7543
12.9129
13.055
13.1942
13.3048
13.4334
13.4864
-5.49028
-5.74715
-5.81296
-5.94165
-5.96894
-6.04381
-6.07609
-6.13026
-6.16631
-6.21208
-6.25029
-6.29274
-6.33188
-6.37251
-6.41118
-6.44958
-6.48603
-6.52124
-6.55481
-6.58705
-6.61735
-6.64602
-6.67331
-6.69928
-6.72399
-6.74741
-6.76942
-6.78995
-6.80905
-6.82689
-6.84373
-6.85986
-6.8756
-6.89129
-6.9073
-6.92399
-6.94168
-6.9606
-6.98097
-7.00292
-7.02656
-7.05191
-7.07899
-7.10777
-7.13818
-7.17011
-7.20346
-7.23808
-7.27377
-7.31034
-7.34756
-7.38516
-7.42287
-7.46042
-7.49755
-7.53405
-7.56974
-7.60443
-7.638
-7.6703
-7.70121
-7.73062
-7.75842
-7.78446
-7.8086
-7.83069
-7.85061
-7.86826
-7.88356
-7.89642
-7.90678
-7.91455
-7.91965
-7.92198
-7.92142
-7.91787
-7.91124
-7.90144
-7.8884
-7.87203
-7.85222
-7.82887
-7.80189
-7.77119
-7.73667
-7.69824
-7.65583
-7.60938
-7.55881
-7.50404
-7.44505
-7.38169
-7.3139
-7.24161
-7.16465
-7.08271
-6.99529
-6.90235
-6.80391
-6.6999
-6.59019
-6.47469
-6.3533
-6.2259
-6.09241
-5.95277
-5.80692
-5.65484
-5.49653
-5.33202
-5.16135
-4.9846
-4.80185
-4.61324
-4.41889
-4.21899
-4.01371
-3.80329
-3.58794
-3.36794
-3.14357
-2.91513
-2.68293
-2.44729
-2.20854
-1.96699
-1.72295
-1.47666
-1.22835
-0.978271
-0.726552
-0.473207
-0.218171
0.0386787
0.297581
0.55891
0.82318
1.09103
1.36329
1.64089
1.92488
2.21639
2.51658
2.82649
3.14709
3.4791
3.823
4.17897
4.54673
4.92558
5.31431
5.71126
6.11437
6.52123
6.92931
7.33598
7.73867
8.13495
8.52263
8.89979
9.26483
9.61644
9.95352
10.2753
10.5813
10.8712
11.145
11.4029
11.6451
11.8719
12.0841
12.2816
12.466
12.6358
12.7953
12.9375
13.0762
13.1849
13.3108
13.3599
-5.49632
-5.7566
-5.81339
-5.94096
-5.96456
-6.03894
-6.06861
-6.12191
-6.1556
-6.1999
-6.2356
-6.27603
-6.31262
-6.35118
-6.38773
-6.4248
-6.46048
-6.49582
-6.52978
-6.56322
-6.59553
-6.62658
-6.65625
-6.68495
-6.71254
-6.73893
-6.76402
-6.78786
-6.81048
-6.83211
-6.85296
-6.87329
-6.89334
-6.91335
-6.93359
-6.9543
-6.97568
-6.9979
-7.0211
-7.04538
-7.07081
-7.09742
-7.12525
-7.15425
-7.18439
-7.2156
-7.2478
-7.28089
-7.31475
-7.34922
-7.38413
-7.41925
-7.45436
-7.48923
-7.52365
-7.55745
-7.5905
-7.62267
-7.65383
-7.68387
-7.71269
-7.74017
-7.7662
-7.79064
-7.81332
-7.83408
-7.85277
-7.86929
-7.88355
-7.89548
-7.90501
-7.91206
-7.91655
-7.91836
-7.91739
-7.91353
-7.90669
-7.8968
-7.88378
-7.86755
-7.84803
-7.8251
-7.79866
-7.76861
-7.73485
-7.69726
-7.65574
-7.61022
-7.56056
-7.50668
-7.44848
-7.38592
-7.31871
-7.24684
-7.17038
-7.08958
-7.00414
-6.91385
-6.81842
-6.71764
-6.61129
-6.49918
-6.38114
-6.25703
-6.12673
-5.99014
-5.8472
-5.69788
-5.54216
-5.38006
-5.21164
-5.03695
-4.8561
-4.6692
-4.47642
-4.27792
-4.0739
-3.8646
-3.65025
-3.43115
-3.20758
-2.97988
-2.74838
-2.51342
-2.27535
-2.03451
-1.79121
-1.54574
-1.29835
-1.04932
-0.798834
-0.54689
-0.29344
-0.0383829
0.218512
0.477607
0.739424
1.00463
1.27407
1.54874
1.82978
2.11841
2.41587
2.72328
3.04167
3.37181
3.71427
4.06924
4.43652
4.81539
5.20462
5.6025
6.00686
6.41524
6.82501
7.2335
7.63806
8.03624
8.42578
8.80475
9.17153
9.52481
9.86355
10.187
10.4946
10.7862
11.0618
11.3213
11.5652
11.7937
12.0075
12.2065
12.3922
12.563
12.7231
12.8654
13.0035
13.1107
13.2343
13.2811
-5.52524
-5.78225
-5.83066
-5.9569
-5.97712
-6.05201
-6.07958
-6.13333
-6.1655
-6.20983
-6.2442
-6.28417
-6.31936
-6.35701
-6.39214
-6.42814
-6.46261
-6.49724
-6.53073
-6.56383
-6.59577
-6.62731
-6.65803
-6.68773
-6.71627
-6.74397
-6.77069
-6.79644
-6.82125
-6.84539
-6.86897
-6.89227
-6.91547
-6.93877
-6.96237
-6.98644
-7.01113
-7.03659
-7.06291
-7.09019
-7.11848
-7.14781
-7.1782
-7.20964
-7.24209
-7.27552
-7.30987
-7.34507
-7.38104
-7.41763
-7.4547
-7.49203
-7.5294
-7.5666
-7.60343
-7.63973
-7.67538
-7.71026
-7.74424
-7.77722
-7.8091
-7.83976
-7.8691
-7.89696
-7.92317
-7.94753
-7.9699
-7.99014
-8.00817
-8.02389
-8.03723
-8.04812
-8.05645
-8.06211
-8.06497
-8.06491
-8.06182
-8.05563
-8.04623
-8.03354
-8.01745
-7.99787
-7.97467
-7.94776
-7.91705
-7.88241
-7.8438
-7.80115
-7.75438
-7.70335
-7.64822
-7.58866
-7.52474
-7.45595
-7.38204
-7.30284
-7.21829
-7.12826
-7.03265
-6.93133
-6.82416
-6.71102
-6.59175
-6.46626
-6.33444
-6.19621
-6.05153
-5.90037
-5.74274
-5.57867
-5.40822
-5.23147
-5.04851
-4.85948
-4.66453
-4.46384
-4.25761
-4.04606
-3.82946
-3.60809
-3.38225
-3.15228
-2.91851
-2.6813
-2.441
-2.19797
-1.95254
-1.70501
-1.45569
-1.20483
-0.952613
-0.699073
-0.444187
-0.187884
0.0700708
0.330043
0.592552
0.858276
1.12808
1.40298
1.68417
1.97294
2.27057
2.57827
2.89711
3.22791
3.57128
3.92744
4.2962
4.67684
5.06811
5.46819
5.87487
6.28558
6.69762
7.10823
7.51475
7.9147
8.30585
8.68628
9.05441
9.40893
9.74885
10.0734
10.3822
10.675
10.9518
11.2126
11.4579
11.6877
11.9028
12.103
12.2898
12.4615
12.6221
12.7644
12.9018
13.0077
13.1292
13.1738
-5.56566
-5.81191
-5.85145
-5.97387
-5.99003
-6.0639
-6.08833
-6.14154
-6.17124
-6.21497
-6.24732
-6.28656
-6.32015
-6.35713
-6.39114
-6.42672
-6.46051
-6.49483
-6.52799
-6.56131
-6.59372
-6.62575
-6.65684
-6.68765
-6.71784
-6.7471
-6.77537
-6.80305
-6.82985
-6.85612
-6.88194
-6.90756
-6.9331
-6.95875
-6.98464
-7.01092
-7.03772
-7.06512
-7.09322
-7.12208
-7.15173
-7.1822
-7.21349
-7.24558
-7.27846
-7.31209
-7.34643
-7.38143
-7.41702
-7.4531
-7.48953
-7.52614
-7.56273
-7.5991
-7.6351
-7.6706
-7.70549
-7.73968
-7.77307
-7.80553
-7.83698
-7.86732
-7.89641
-7.92411
-7.95023
-7.9746
-7.99704
-8.01742
-8.03563
-8.05159
-8.06521
-8.07641
-8.08508
-8.09111
-8.09436
-8.09473
-8.0921
-8.08639
-8.07751
-8.06535
-8.04983
-8.03081
-8.00819
-7.98186
-7.9517
-7.9176
-7.87944
-7.8372
-7.79068
-7.7398
-7.68454
-7.6248
-7.56078
-7.49244
-7.4196
-7.34209
-7.25972
-7.17224
-7.07944
-6.98108
-6.87695
-6.76682
-6.65051
-6.52786
-6.39875
-6.26307
-6.12076
-5.9718
-5.81618
-5.65394
-5.48512
-5.30983
-5.12815
-4.94024
-4.74624
-4.54634
-4.34074
-4.12971
-3.9135
-3.69242
-3.46677
-3.23692
-3.00323
-2.76606
-2.5258
-2.28281
-2.03746
-1.79009
-1.54098
-1.29042
-1.0386
-0.78561
-0.531447
-0.276021
-0.0191139
0.239642
0.500772
0.764969
1.03312
1.30629
1.58575
1.87285
2.16896
2.47535
2.79312
3.12314
3.46604
3.82209
4.19112
4.57241
4.96464
5.36595
5.77402
6.18621
6.59974
7.01182
7.41973
7.82097
8.21332
8.59485
8.964
9.31949
9.66035
9.98588
10.2957
10.5895
10.8673
11.1293
11.3757
11.6066
11.8228
12.0241
12.2117
12.384
12.5449
12.6871
12.8237
12.9285
13.048
13.091
-5.61363
-5.8456
-5.87794
-5.99638
-6.00962
-6.08303
-6.10514
-6.15865
-6.18658
-6.23063
-6.26163
-6.30097
-6.33342
-6.3702
-6.40318
-6.43836
-6.47133
-6.5054
-6.53806
-6.57102
-6.60299
-6.63501
-6.66622
-6.6971
-6.72719
-6.7571
-6.78661
-6.81541
-6.84341
-6.87122
-6.89861
-6.92594
-6.95331
-6.98084
-7.00866
-7.03691
-7.06569
-7.0951
-7.12522
-7.1561
-7.18777
-7.22025
-7.25354
-7.28763
-7.3225
-7.35812
-7.39447
-7.4315
-7.46915
-7.50734
-7.54594
-7.58479
-7.6237
-7.66249
-7.70099
-7.73908
-7.77666
-7.81361
-7.84984
-7.88522
-7.91966
-7.95305
-7.98526
-8.01615
-8.04555
-8.07327
-8.09914
-8.123
-8.14473
-8.16422
-8.18139
-8.19613
-8.20834
-8.21791
-8.22471
-8.22861
-8.22951
-8.22729
-8.22186
-8.2131
-8.20092
-8.1852
-8.16582
-8.14267
-8.11566
-8.08462
-8.04954
-8.01039
-7.96699
-7.91931
-7.86712
-7.81026
-7.74847
-7.68186
-7.61017
-7.53329
-7.45111
-7.36343
-7.2701
-7.17093
-7.06575
-6.95438
-6.83666
-6.71246
-6.58166
-6.44418
-6.29998
-6.14903
-5.99135
-5.82699
-5.65601
-5.47851
-5.29459
-5.10441
-4.90812
-4.70591
-4.49799
-4.28463
-4.06608
-3.84264
-3.61466
-3.38247
-3.14645
-2.90698
-2.66446
-2.41927
-2.17176
-1.92229
-1.67116
-1.41867
-1.16505
-0.910378
-0.654678
-0.397872
-0.139738
0.120087
0.38213
0.647082
0.915839
1.1895
1.46937
1.75685
2.0534
2.36031
2.67871
3.00949
3.35331
3.71045
4.08076
4.4635
4.85732
5.26027
5.66998
6.08372
6.49867
6.91199
7.32095
7.72307
8.11614
8.49828
8.86793
9.22386
9.56515
9.89114
10.2014
10.4958
10.7743
11.037
11.2841
11.5159
11.733
11.935
12.1233
12.2961
12.4572
12.5992
12.7351
12.8389
12.9566
12.9983
-5.66202
-5.87654
-5.9019
-6.01483
-6.02484
-6.09681
-6.11606
-6.1693
-6.19491
-6.239
-6.26827
-6.30771
-6.33898
-6.3759
-6.40817
-6.44353
-6.47615
-6.51038
-6.54294
-6.57632
-6.60855
-6.64096
-6.67256
-6.7041
-6.73497
-6.76549
-6.7957
-6.82574
-6.85498
-6.88382
-6.91251
-6.94134
-6.97019
-6.99918
-7.02849
-7.05816
-7.08835
-7.11909
-7.15051
-7.18262
-7.21547
-7.24906
-7.28341
-7.31848
-7.35428
-7.39075
-7.42789
-7.46565
-7.50398
-7.54279
-7.58199
-7.62142
-7.66092
-7.70034
-7.73951
-7.7783
-7.81662
-7.85436
-7.89142
-7.92769
-7.96305
-7.99738
-8.03055
-8.06242
-8.0928
-8.12153
-8.14842
-8.17333
-8.19612
-8.21666
-8.23485
-8.25058
-8.26374
-8.27421
-8.28187
-8.28658
-8.28824
-8.28673
-8.28194
-8.27375
-8.26206
-8.24673
-8.22764
-8.20467
-8.17768
-8.14656
-8.11119
-8.07159
-8.02779
-7.97971
-7.92745
-7.87079
-7.80965
-7.74397
-7.67357
-7.59831
-7.51798
-7.43236
-7.34121
-7.24428
-7.14133
-7.03214
-6.91649
-6.79423
-6.66521
-6.52933
-6.38655
-6.23684
-6.08022
-5.91674
-5.74647
-5.56952
-5.386
-5.19608
-4.99991
-4.79771
-4.58968
-4.3761
-4.15726
-3.93346
-3.70502
-3.47233
-3.2358
-2.99579
-2.7527
-2.50694
-2.25885
-2.0088
-1.75717
-1.50423
-1.25021
-0.995227
-0.739314
-0.482393
-0.224244
0.0355004
0.297367
0.562052
0.830459
1.10372
1.38318
1.67032
1.96664
2.27345
2.5919
2.92289
3.26707
3.62475
3.99579
4.3794
4.7742
5.17818
5.58888
6.00352
6.41924
6.83318
7.24262
7.64507
8.03835
8.4206
8.79032
9.14631
9.48767
9.81377
10.1242
10.4189
10.6977
10.9609
11.2086
11.441
11.6586
11.8611
12.0499
12.223
12.384
12.5258
12.6609
12.7638
12.8798
12.9206
-5.70939
-5.90374
-5.92416
-6.03114
-6.03919
-6.10998
-6.12732
-6.18086
-6.20487
-6.24966
-6.27774
-6.31789
-6.34839
-6.38591
-6.41773
-6.4536
-6.48604
-6.52078
-6.55344
-6.58728
-6.61969
-6.6527
-6.68481
-6.717
-6.74849
-6.77985
-6.81068
-6.84112
-6.87143
-6.90192
-6.93185
-6.96167
-6.99193
-7.02224
-7.05286
-7.08395
-7.11559
-7.14789
-7.18089
-7.21465
-7.24921
-7.28458
-7.32074
-7.3577
-7.39544
-7.43393
-7.47314
-7.51303
-7.55356
-7.59465
-7.6362
-7.67808
-7.72013
-7.76221
-7.80414
-7.8458
-7.88705
-7.92779
-7.96789
-8.00724
-8.04572
-8.08319
-8.11952
-8.15456
-8.18815
-8.22011
-8.25027
-8.27847
-8.30456
-8.32842
-8.34991
-8.36892
-8.38534
-8.39906
-8.40994
-8.41786
-8.42272
-8.42438
-8.42273
-8.41766
-8.40906
-8.39681
-8.38077
-8.36081
-8.33684
-8.30867
-8.27605
-8.239
-8.19734
-8.15102
-8.10005
-8.04438
-7.98386
-7.91846
-7.84803
-7.77242
-7.69147
-7.60498
-7.51273
-7.41451
-7.31008
-7.19924
-7.0818
-6.95761