/*--------------------------------*- C++ -*----------------------------------*\
| =========                 |                                                 |
| \\      /  F ield         | OpenFOAM: The Open Source CFD Toolbox           |
|  \\    /   O peration     | Version:  v1906                                 |
|   \\  /    A nd           | Web:      www.OpenFOAM.com                      |
|    \\/     M anipulation  |                                                 |
\*---------------------------------------------------------------------------*/
FoamFile
{
    version     2.0;
    format      ascii;
    class       surfaceScalarField;
    location    "1400";
    object      phi;
}
// * * * * * * * * * * * * * * * * * * * * * * * * * * * * * * * * * * * * * //

dimensions      [0 3 -1 0 0 0 0];
oriented        oriented;


internalField   nonuniform List<scalar> 
24170
(
3.08282e-06
1.05584e-07
2.987e-06
9.58228e-08
2.92069e-06
6.631e-08
2.86467e-06
5.60146e-08
2.81584e-06
4.88359e-08
2.77298e-06
4.28535e-08
2.73489e-06
3.80886e-08
2.70069e-06
3.42082e-08
2.66986e-06
3.08256e-08
2.64206e-06
2.7801e-08
2.61684e-06
2.5219e-08
2.5938e-06
2.30347e-08
2.57286e-06
2.0944e-08
2.55404e-06
1.88157e-08
2.53769e-06
1.63506e-08
2.52425e-06
1.34455e-08
2.51463e-06
9.61203e-09
-2.19812e-09
2.51683e-06
3.44276e-06
8.00752e-08
3.44404e-06
9.45386e-08
3.43233e-06
7.80254e-08
3.41872e-06
6.96186e-08
3.40399e-06
6.35673e-08
3.38919e-06
5.76504e-08
3.37482e-06
5.24562e-08
3.36099e-06
4.8038e-08
3.34773e-06
4.40914e-08
3.33506e-06
4.0468e-08
3.32305e-06
3.72263e-08
3.31175e-06
3.43364e-08
3.30108e-06
3.16186e-08
3.29104e-06
2.88528e-08
3.28151e-06
2.58835e-08
3.27256e-06
2.23938e-08
3.26488e-06
1.72865e-08
6.93707e-09
3.25575e-06
3.67627e-06
6.63208e-08
3.67856e-06
9.22455e-08
3.67279e-06
8.38039e-08
3.66527e-06
7.71376e-08
3.65768e-06
7.11518e-08
3.65052e-06
6.48134e-08
3.64383e-06
5.91426e-08
3.63756e-06
5.43147e-08
3.63162e-06
5.00213e-08
3.626e-06
4.6094e-08
3.62069e-06
4.25335e-08
3.61574e-06
3.92903e-08
3.61115e-06
3.6209e-08
3.60693e-06
3.30658e-08
3.60308e-06
2.97385e-08
3.59975e-06
2.57255e-08
3.59574e-06
2.12924e-08
1.44246e-08
3.58825e-06
3.93546e-06
5.62449e-08
3.94302e-06
8.46906e-08
3.94511e-06
8.17169e-08
3.94512e-06
7.71219e-08
3.94394e-06
7.23317e-08
3.94193e-06
6.68256e-08
3.93944e-06
6.1627e-08
3.93673e-06
5.7024e-08
3.93394e-06
5.2819e-08
3.93113e-06
4.88988e-08
3.9284e-06
4.52631e-08
3.92582e-06
4.18689e-08
3.92345e-06
3.85856e-08
3.9213e-06
3.52139e-08
3.91939e-06
3.16419e-08
3.91767e-06
2.74492e-08
3.91639e-06
2.25768e-08
1.48981e-08
3.91591e-06
4.2181e-06
4.52706e-08
4.22758e-06
7.52103e-08
4.23152e-06
7.77828e-08
4.23288e-06
7.5762e-08
4.23306e-06
7.21496e-08
4.23258e-06
6.73036e-08
4.23179e-06
6.24206e-08
4.23087e-06
5.79375e-08
4.22992e-06
5.37748e-08
4.22895e-06
4.98645e-08
4.22801e-06
4.62001e-08
4.22715e-06
4.2731e-08
4.22639e-06
3.93483e-08
4.22573e-06
3.58726e-08
4.22512e-06
3.22522e-08
4.22447e-06
2.80953e-08
4.22304e-06
2.40106e-08
1.90602e-08
4.21888e-06
4.51709e-06
3.72637e-08
4.52582e-06
6.64854e-08
4.53155e-06
7.20558e-08
4.53559e-06
7.17186e-08
4.53863e-06
6.91123e-08
4.54084e-06
6.50858e-08
4.54247e-06
6.07974e-08
4.5437e-06
5.67044e-08
4.54467e-06
5.28067e-08
4.54545e-06
4.9079e-08
4.54613e-06
4.55216e-08
4.54677e-06
4.20937e-08
4.54741e-06
3.87104e-08
4.54804e-06
3.52351e-08
4.54869e-06
3.16036e-08
4.5492e-06
2.75836e-08
4.55001e-06
2.31995e-08
1.79053e-08
4.55117e-06
4.83986e-06
3.01249e-08
4.84839e-06
5.79561e-08
4.8544e-06
6.60456e-08
4.85856e-06
6.75615e-08
4.86157e-06
6.61013e-08
4.86376e-06
6.28878e-08
4.86545e-06
5.91151e-08
4.86684e-06
5.53139e-08
4.86805e-06
5.15907e-08
4.86916e-06
4.79756e-08
4.87019e-06
4.44861e-08
4.87119e-06
4.10926e-08
4.87217e-06
3.77359e-08
4.87309e-06
3.43088e-08
4.87389e-06
3.08049e-08
4.87441e-06
2.70667e-08
4.87408e-06
2.35313e-08
1.98551e-08
4.87213e-06
5.18533e-06
2.43726e-08
5.19297e-06
5.03185e-08
5.19934e-06
5.96773e-08
5.2046e-06
6.22997e-08
5.20908e-06
6.16257e-08
5.21288e-06
5.90884e-08
5.21615e-06
5.58384e-08
5.21906e-06
5.24104e-08
5.22168e-06
4.89642e-08
5.2241e-06
4.55613e-08
5.22635e-06
4.22292e-08
5.22849e-06
3.89516e-08
5.23054e-06
3.56873e-08
5.23248e-06
3.23662e-08
5.23433e-06
2.89629e-08
5.23599e-06
2.53999e-08
5.23786e-06
2.16687e-08
1.7812e-08
5.2399e-06
5.55573e-06
1.99841e-08
5.56255e-06
4.34959e-08
5.56879e-06
5.3435e-08
5.57402e-06
5.70683e-08
5.57838e-06
5.72632e-08
5.58201e-06
5.54597e-08
5.5851e-06
5.27537e-08
5.58781e-06
4.96967e-08
5.59026e-06
4.65109e-08
5.59253e-06
4.33002e-08
5.59464e-06
4.01154e-08
5.59663e-06
3.69595e-08
5.5985e-06
3.38185e-08
5.60022e-06
3.06495e-08
5.6017e-06
2.74815e-08
5.60282e-06
2.42767e-08
5.60317e-06
2.13192e-08
1.84047e-08
5.60258e-06
5.95382e-06
1.59435e-08
5.9602e-06
3.71139e-08
5.96645e-06
4.71874e-08
5.97216e-06
5.13563e-08
5.97734e-06
5.2085e-08
5.98199e-06
5.0805e-08
5.9862e-06
4.85396e-08
5.99007e-06
4.58277e-08
5.99367e-06
4.29184e-08
5.99703e-06
3.99361e-08
6.0002e-06
3.69424e-08
6.00321e-06
3.39536e-08
6.00606e-06
3.09673e-08
6.00875e-06
2.79639e-08
6.01128e-06
2.49454e-08
6.01365e-06
2.1905e-08
6.01613e-06
1.88392e-08
1.59565e-08
6.01858e-06
6.37948e-06
1.32746e-08
6.3848e-06
3.17985e-08
6.39063e-06
4.13534e-08
6.39618e-06
4.58069e-08
6.40123e-06
4.70321e-08
6.40574e-06
4.62952e-08
6.40978e-06
4.45047e-08
6.41343e-06
4.21732e-08
6.41678e-06
3.95696e-08
6.41988e-06
3.68396e-08
6.42276e-06
3.4063e-08
6.42544e-06
3.12735e-08
6.42791e-06
2.84912e-08
6.43016e-06
2.57155e-08
6.43212e-06
2.29893e-08
6.43371e-06
2.03151e-08
6.43469e-06
1.78584e-08
1.55321e-08
6.43511e-06
5.74324e-06
1.08692e-08
5.74769e-06
2.73441e-08
5.75263e-06
3.64134e-08
5.75751e-06
4.0932e-08
5.76216e-06
4.23843e-08
5.7665e-06
4.19566e-08
5.77053e-06
4.04673e-08
5.7743e-06
3.84018e-08
5.77784e-06
3.60317e-08
5.78117e-06
3.35097e-08
5.78431e-06
3.09214e-08
5.78728e-06
2.83096e-08
5.79007e-06
2.56986e-08
5.79268e-06
2.31002e-08
5.79514e-06
2.05331e-08
5.79743e-06
1.8022e-08
5.79973e-06
1.55669e-08
1.33737e-08
5.80188e-06
6.99986e-06
9.16395e-09
7.00401e-06
2.31993e-08
7.00915e-06
3.12643e-08
7.01451e-06
3.55766e-08
7.01971e-06
3.71862e-08
7.02459e-06
3.70788e-08
7.02911e-06
3.59406e-08
7.03331e-06
3.42056e-08
7.0372e-06
3.21355e-08
7.04083e-06
2.98856e-08
7.0442e-06
2.75495e-08
7.04733e-06
2.51802e-08
7.05021e-06
2.28149e-08
7.05284e-06
2.04766e-08
7.05517e-06
1.82016e-08
7.05718e-06
1.60118e-08
7.05878e-06
1.39651e-08
1.19691e-08
7.06019e-06
8.53319e-06
6.8212e-09
8.53809e-06
1.83029e-08
8.54401e-06
2.5337e-08
8.55029e-06
2.9297e-08
8.55657e-06
3.09139e-08
8.56265e-06
3.09982e-08
8.56846e-06
3.01259e-08
8.57399e-06
2.86771e-08
8.57923e-06
2.68937e-08
8.58419e-06
2.49245e-08
8.58888e-06
2.28613e-08
8.5933e-06
2.07601e-08
8.59746e-06
1.86573e-08
8.60135e-06
1.65798e-08
8.605e-06
1.45517e-08
8.60841e-06
1.26043e-08
8.61162e-06
1.07544e-08
9.16975e-09
8.61442e-06
1.04007e-05
5.36298e-09
1.04049e-05
1.40526e-08
1.04108e-05
1.94904e-08
1.04174e-05
2.26635e-08
1.04243e-05
2.40567e-08
1.0431e-05
2.42303e-08
1.04376e-05
2.36061e-08
1.04438e-05
2.24761e-08
1.04496e-05
2.10381e-08
1.04551e-05
1.94211e-08
1.04603e-05
1.77094e-08
1.04651e-05
1.59586e-08
1.04695e-05
1.4206e-08
1.04736e-05
1.24807e-08
1.04774e-05
1.07991e-08
1.04808e-05
9.18363e-09
1.04839e-05
7.62525e-09
6.11247e-09
1.0487e-05
1.26789e-05
3.25259e-09
1.26839e-05
9.00782e-09
1.26906e-05
1.28064e-08
1.26982e-05
1.50952e-08
1.27061e-05
1.61356e-08
1.27141e-05
1.62837e-08
1.27218e-05
1.58309e-08
1.27293e-05
1.49862e-08
1.27365e-05
1.3898e-08
1.27432e-05
1.26668e-08
1.27496e-05
1.13604e-08
1.27555e-05
1.00249e-08
1.2761e-05
8.6948e-09
1.27661e-05
7.39431e-09
1.27708e-05
6.15175e-09
1.27749e-05
4.98577e-09
1.27787e-05
3.92126e-09
2.99844e-09
1.27818e-05
1.5455e-05
1.47058e-09
1.54599e-05
4.04973e-09
1.54671e-05
5.67378e-09
1.54756e-05
6.56759e-09
1.54849e-05
6.84932e-09
1.54945e-05
6.6825e-09
1.55041e-05
6.20691e-09
1.55136e-05
5.5241e-09
1.55227e-05
4.7095e-09
1.55316e-05
3.81769e-09
1.55401e-05
2.88608e-09
1.55481e-05
1.9439e-09
1.55558e-05
1.0076e-09
1.55631e-05
9.81073e-11
1.55701e-05
-7.86205e-10
1.55767e-05
-1.61629e-09
1.5583e-05
-2.42403e-09
-3.08824e-09
1.55891e-05
1.88392e-05
-5.84386e-11
1.88439e-05
-7.31383e-10
1.8851e-05
-1.36597e-09
1.88594e-05
-1.84943e-09
1.88685e-05
-2.22857e-09
1.88777e-05
-2.53951e-09
1.88867e-05
-2.8097e-09
1.88953e-05
-3.0587e-09
1.89033e-05
-3.29661e-09
1.89107e-05
-3.52832e-09
1.89173e-05
-3.7551e-09
1.89232e-05
-3.97776e-09
1.89284e-05
-4.19496e-09
1.89329e-05
-4.40866e-09
1.89368e-05
-4.61934e-09
1.894e-05
-4.83077e-09
1.89426e-05
-5.06229e-09
-5.37723e-09
1.89449e-05
2.29673e-05
-3.99213e-09
2.29763e-05
-9.741e-09
2.29886e-05
-1.36622e-08
2.30031e-05
-1.6332e-08
2.30189e-05
-1.81099e-08
2.30356e-05
-1.92451e-08
2.30528e-05
-1.99379e-08
2.307e-05
-2.0335e-08
2.30873e-05
-2.05348e-08
2.31044e-05
-2.05997e-08
2.31212e-05
-2.05679e-08
2.31377e-05
-2.04574e-08
2.31537e-05
-2.0273e-08
2.31693e-05
-2.00042e-08
2.31843e-05
-1.9637e-08
2.31986e-05
-1.91362e-08
2.32121e-05
-1.84965e-08
-1.73595e-08
2.32241e-05
1.68112e-05
-4.53025e-09
1.68148e-05
-1.32514e-08
1.68203e-05
-1.92078e-08
1.68269e-05
-2.2889e-08
1.68336e-05
-2.49001e-08
1.68402e-05
-2.57619e-08
1.68461e-05
-2.58909e-08
1.68514e-05
-2.55739e-08
1.68558e-05
-2.49917e-08
1.68595e-05
-2.42548e-08
1.68623e-05
-2.34276e-08
1.68644e-05
-2.25489e-08
1.68658e-05
-2.16374e-08
1.68665e-05
-2.07141e-08
1.68666e-05
-1.97851e-08
1.68664e-05
-1.88987e-08
1.6866e-05
-1.80533e-08
-1.77181e-08
1.68663e-05
1.46387e-05
-8.63776e-09
1.46468e-05
-2.13812e-08
1.46568e-05
-2.91941e-08
1.46677e-05
-3.37753e-08
1.4679e-05
-3.62021e-08
1.46904e-05
-3.71606e-08
1.47017e-05
-3.71943e-08
1.47128e-05
-3.66822e-08
1.47237e-05
-3.58591e-08
1.47343e-05
-3.48701e-08
1.47447e-05
-3.38097e-08
1.47548e-05
-3.27367e-08
1.47649e-05
-3.16926e-08
1.47749e-05
-3.06956e-08
1.47849e-05
-2.97711e-08
1.47949e-05
-2.88856e-08
1.48049e-05
-2.80737e-08
-2.66954e-08
1.48138e-05
1.27416e-05
-1.01142e-08
1.27468e-05
-2.65337e-08
1.27534e-05
-3.58169e-08
1.27601e-05
-4.05033e-08
1.27663e-05
-4.2378e-08
1.27716e-05
-4.25154e-08
1.27761e-05
-4.16875e-08
1.27798e-05
-4.03792e-08
1.27828e-05
-3.88434e-08
1.27852e-05
-3.72098e-08
1.27869e-05
-3.55465e-08
1.2788e-05
-3.38857e-08
1.27886e-05
-3.2228e-08
1.27884e-05
-3.05666e-08
1.27875e-05
-2.88549e-08
1.27857e-05
-2.70964e-08
1.27828e-05
-2.51777e-08
-2.38232e-08
1.278e-05
1.10966e-05
-1.57364e-08
1.11062e-05
-3.61946e-08
1.11166e-05
-4.61663e-08
1.11268e-05
-5.07e-08
1.11366e-05
-5.22357e-08
1.1146e-05
-5.1883e-08
1.11548e-05
-5.05085e-08
1.11631e-05
-4.86781e-08
1.11709e-05
-4.6665e-08
1.11783e-05
-4.46057e-08
1.11854e-05
-4.25843e-08
1.11921e-05
-4.06519e-08
1.11987e-05
-3.88481e-08
1.12054e-05
-3.72028e-08
1.12123e-05
-3.57915e-08
1.12199e-05
-3.46522e-08
1.12287e-05
-3.40253e-08
-3.31455e-08
1.1238e-05
9.65974e-06
-2.02607e-08
9.66817e-06
-4.46253e-08
9.67608e-06
-5.40789e-08
9.68243e-06
-5.7049e-08
9.6873e-06
-5.71077e-08
9.69092e-06
-5.55026e-08
9.69359e-06
-5.31762e-08
9.6956e-06
-5.06837e-08
9.69713e-06
-4.8202e-08
9.69831e-06
-4.57814e-08
9.69918e-06
-4.34522e-08
9.69975e-06
-4.12296e-08
9.70001e-06
-3.91013e-08
9.69985e-06
-3.70458e-08
9.69902e-06
-3.49649e-08
9.69714e-06
-3.27686e-08
9.69311e-06
-2.99946e-08
-2.71399e-08
9.6871e-06
8.41352e-06
-2.8428e-08
8.42509e-06
-5.61992e-08
8.43527e-06
-6.42587e-08
8.44405e-06
-6.58231e-08
8.45177e-06
-6.48307e-08
8.45844e-06
-6.21739e-08
8.46416e-06
-5.88983e-08
8.46912e-06
-5.56389e-08
8.47346e-06
-5.25389e-08
8.47729e-06
-4.96121e-08
8.48071e-06
-4.68754e-08
8.48381e-06
-4.43347e-08
8.4867e-06
-4.19893e-08
8.48949e-06
-3.9836e-08
8.49247e-06
-3.79414e-08
8.49608e-06
-3.63818e-08
8.50183e-06
-3.57454e-08
-3.57824e-08
8.51047e-06
7.32785e-06
-3.8998e-08
7.33968e-06
-6.80207e-08
7.34639e-06
-7.09755e-08
7.34967e-06
-6.91008e-08
7.35111e-06
-6.62693e-08
7.35145e-06
-6.25112e-08
7.3512e-06
-5.86517e-08
7.3507e-06
-5.51416e-08
7.35009e-06
-5.19257e-08
7.3494e-06
-4.89191e-08
7.34863e-06
-4.61089e-08
7.34779e-06
-4.34951e-08
7.34686e-06
-4.1061e-08
7.34582e-06
-3.87997e-08
7.34452e-06
-3.66354e-08
7.34265e-06
-3.45108e-08
7.33856e-06
-3.16545e-08
-2.75515e-08
7.33032e-06
6.38127e-06
-5.02008e-08
6.39312e-06
-7.98707e-08
6.39989e-06
-7.77474e-08
6.40409e-06
-7.32981e-08
6.40653e-06
-6.87119e-08
6.40748e-06
-6.3458e-08
6.40739e-06
-5.85661e-08
6.40665e-06
-5.4397e-08
6.40548e-06
-5.07619e-08
6.40405e-06
-4.74841e-08
6.40244e-06
-4.45012e-08
6.40073e-06
-4.17816e-08
6.39896e-06
-3.92953e-08
6.39717e-06
-3.70108e-08
6.39549e-06
-3.49516e-08
6.39408e-06
-3.3101e-08
6.39463e-06
-3.22065e-08
-3.2852e-08
6.39993e-06
5.563e-06
-6.77355e-08
5.56909e-06
-8.59633e-08
5.56469e-06
-7.33437e-08
5.55726e-06
-6.58681e-08
5.54948e-06
-6.09351e-08
5.54206e-06
-5.60421e-08
5.53521e-06
-5.17163e-08
5.52888e-06
-4.80627e-08
5.52293e-06
-4.48158e-08
5.51729e-06
-4.18434e-08
5.5119e-06
-3.91103e-08
5.50672e-06
-3.66029e-08
5.50173e-06
-3.4299e-08
5.49691e-06
-3.21967e-08
5.49222e-06
-3.02635e-08
5.48768e-06
-2.85616e-08
5.48184e-06
-2.63576e-08
-2.2188e-08
5.47117e-06
4.85296e-06
-9.30923e-08
4.85866e-06
-9.16642e-08
4.84879e-06
-6.3474e-08
4.8377e-06
-5.4774e-08
4.82549e-06
-4.87296e-08
4.81329e-06
-4.3842e-08
4.80158e-06
-4.00039e-08
4.79043e-06
-3.69097e-08
4.77982e-06
-3.42111e-08
4.76972e-06
-3.17358e-08
4.76006e-06
-2.94511e-08
4.7508e-06
-2.73505e-08
4.74193e-06
-2.54285e-08
4.73341e-06
-2.36772e-08
4.72528e-06
-2.21308e-08
4.71751e-06
-2.0792e-08
4.71167e-06
-2.05211e-08
-2.17186e-08
4.7112e-06
4.10958e-06
4.01792e-06
3.95445e-06
3.89967e-06
3.85094e-06
3.8071e-06
3.7671e-06
3.73019e-06
3.69598e-06
3.66424e-06
3.63479e-06
3.60744e-06
3.58201e-06
3.55833e-06
3.5362e-06
3.51541e-06
3.49489e-06
3.47317e-06
1.03008e-07
-1.03003e-07
2.1815e-07
-1.15139e-07
3.36993e-07
-1.18844e-07
4.35382e-07
-9.83935e-08
5.22045e-07
-8.66656e-08
5.96851e-07
-7.48111e-08
6.64335e-07
-6.74848e-08
7.25274e-07
-6.09435e-08
7.81423e-07
-5.61482e-08
8.33145e-07
-5.17244e-08
8.80898e-07
-4.77499e-08
9.24716e-07
-4.38206e-08
9.64683e-07
-3.99639e-08
1.00077e-06
-3.60911e-08
1.03301e-06
-3.2239e-08
1.06144e-06
-2.84325e-08
1.08619e-06
-2.47436e-08
1.10743e-06
-2.12449e-08
1.12547e-06
-1.80348e-08
1.14068e-06
-1.52153e-08
1.15351e-06
-1.28144e-08
1.16423e-06
-1.07313e-08
1.17275e-06
-8.49585e-09
1.17789e-06
-5.13554e-09
1.17711e-06
8.00332e-10
1.16709e-06
1.00404e-08
1.14484e-06
2.22768e-08
1.1078e-06
3.70796e-08
1.05436e-06
5.34623e-08
9.84475e-07
6.99318e-08
8.99637e-07
8.48569e-08
8.02754e-07
9.69245e-08
6.9799e-07
1.04773e-07
5.91296e-07
1.06718e-07
4.89621e-07
1.01669e-07
3.99151e-07
9.048e-08
3.22316e-07
7.68242e-08
2.55682e-07
6.66483e-08
1.91024e-07
6.46467e-08
1.20031e-07
7.10186e-08
3.78231e-08
8.21963e-08
-5.41106e-08
9.19591e-08
-1.52536e-07
9.84101e-08
-2.55681e-07
1.03156e-07
-3.61782e-07
1.06085e-07
-4.68588e-07
1.06805e-07
-5.74181e-07
1.05579e-07
-6.77458e-07
1.03271e-07
-7.78069e-07
1.00599e-07
-8.75567e-07
9.74897e-08
-9.69338e-07
9.37629e-08
-1.05887e-06
8.95204e-08
-1.1438e-06
8.49265e-08
-1.22398e-06
8.01709e-08
-1.2994e-06
7.54233e-08
-1.37023e-06
7.08171e-08
-1.43668e-06
6.64488e-08
-1.49906e-06
6.23756e-08
-1.55768e-06
5.86246e-08
-1.61288e-06
5.51969e-08
-1.66496e-06
5.20774e-08
-1.7142e-06
4.92389e-08
-1.76085e-06
4.66496e-08
-1.80513e-06
4.42763e-08
-1.84722e-06
4.20892e-08
-1.88728e-06
4.00594e-08
-1.92544e-06
3.81611e-08
-1.96181e-06
3.63703e-08
-1.99648e-06
3.46669e-08
-2.02952e-06
3.30329e-08
-2.06097e-06
3.14543e-08
-2.09089e-06
2.99186e-08
-2.11931e-06
2.84163e-08
-2.14625e-06
2.69391e-08
-2.17173e-06
2.5481e-08
-2.19577e-06
2.40356e-08
-2.21837e-06
2.25978e-08
-2.23953e-06
2.11615e-08
-2.25925e-06
1.972e-08
-2.27752e-06
1.82649e-08
-2.2943e-06
1.67861e-08
-2.30957e-06
1.52702e-08
-2.32328e-06
1.37017e-08
-2.33534e-06
1.20636e-08
-2.34568e-06
1.03441e-08
-2.35423e-06
8.54157e-09
-2.3609e-06
6.6712e-09
-2.36566e-06
4.76447e-09
-2.36853e-06
2.86968e-09
-2.36956e-06
1.03946e-09
-2.36897e-06
-5.87095e-10
-2.36714e-06
-1.81536e-09
-2.36435e-06
-2.78315e-09
-2.36061e-06
-3.739e-09
-2.35589e-06
-4.70988e-09
-2.35014e-06
-5.74303e-09
-2.34327e-06
-6.85845e-09
-2.33523e-06
-8.03667e-09
-2.32606e-06
-9.15605e-09
-2.31582e-06
-1.0235e-08
-2.30452e-06
-1.12951e-08
-2.29217e-06
-1.23472e-08
-2.27877e-06
-1.34011e-08
-2.2643e-06
-1.44615e-08
-2.24877e-06
-1.55329e-08
-2.23215e-06
-1.66185e-08
-2.21442e-06
-1.77218e-08
-2.19559e-06
-1.88358e-08
-2.17563e-06
-1.99509e-08
-2.15457e-06
-2.10607e-08
-2.13241e-06
-2.21586e-08
-2.10916e-06
-2.32387e-08
-2.08486e-06
-2.42977e-08
-2.05954e-06
-2.5323e-08
-2.03322e-06
-2.63103e-08
-2.00597e-06
-2.72488e-08
-1.97781e-06
-2.81587e-08
-1.94876e-06
-2.90397e-08
-1.9189e-06
-2.98579e-08
-1.88832e-06
-3.05808e-08
-1.85714e-06
-3.11841e-08
-1.82544e-06
-3.16982e-08
-1.79328e-06
-3.21524e-08
-1.76076e-06
-3.25314e-08
-1.72792e-06
-3.28377e-08
-1.69486e-06
-3.30778e-08
-1.66164e-06
-3.3231e-08
-1.62835e-06
-3.33144e-08
-1.59502e-06
-3.3354e-08
-1.56167e-06
-3.33686e-08
-1.52836e-06
-3.33399e-08
-1.49508e-06
-3.33114e-08
-1.46183e-06
-3.32877e-08
-1.42849e-06
-3.33639e-08
-1.39498e-06
-3.35343e-08
-1.36116e-06
-3.38386e-08
-1.32682e-06
-3.43438e-08
-1.29177e-06
-3.50483e-08
-1.25574e-06
-3.59859e-08
-1.21852e-06
-3.71651e-08
-1.17974e-06
-3.87158e-08
-1.1389e-06
-4.07644e-08
-1.09561e-06
-4.32123e-08
-1.04949e-06
-4.60418e-08
-1.00024e-06
-4.91723e-08
-9.47424e-07
-5.27447e-08
-8.90763e-07
-5.65902e-08
-8.30001e-07
-6.06981e-08
-7.64854e-07
-6.50887e-08
-6.95229e-07
-6.95743e-08
-6.21075e-07
-7.41113e-08
-5.42443e-07
-7.8596e-08
-4.59467e-07
-8.29479e-08
-3.72387e-07
-8.70597e-08
-2.81536e-07
-9.08372e-08
-1.87389e-07
-9.41405e-08
-9.03719e-08
-9.70164e-08
8.76711e-09
-9.91456e-08
1.1165e-07
-1.02894e-07
2.18161e-07
-1.06527e-07
3.25032e-07
-1.0689e-07
4.30924e-07
-1.05914e-07
5.35188e-07
-1.04288e-07
6.37473e-07
-1.02312e-07
7.37511e-07
-1.00065e-07
8.3506e-07
-9.75776e-08
9.29914e-07
-9.48843e-08
1.02189e-06
-9.20056e-08
1.11086e-06
-8.89976e-08
1.19667e-06
-8.58491e-08
1.27929e-06
-8.26441e-08
1.35849e-06
-7.92386e-08
1.4343e-06
-7.58382e-08
1.50618e-06
-7.19155e-08
1.57431e-06
-6.81575e-08
1.63705e-06
-6.27773e-08
1.6941e-06
-5.70768e-08
1.74007e-06
-4.60076e-08
1.75887e-06
-1.88273e-08
3.35909e-08
1.72526e-06
1.08979e-07
-2.11977e-07
1.71237e-07
-1.77394e-07
2.24742e-07
-1.72349e-07
2.6562e-07
-1.39273e-07
3.11268e-07
-1.32314e-07
3.54899e-07
-1.18444e-07
4.01456e-07
-1.14043e-07
4.47331e-07
-1.06819e-07
4.93266e-07
-1.02082e-07
5.37124e-07
-9.55831e-08
5.78611e-07
-8.9236e-08
6.16709e-07
-8.19187e-08
6.51155e-07
-7.44085e-08
6.81521e-07
-6.64582e-08
7.07696e-07
-5.84128e-08
7.29614e-07
-5.03518e-08
7.47458e-07
-4.25867e-08
7.61547e-07
-3.53362e-08
7.72475e-07
-2.896e-08
7.81251e-07
-2.39929e-08
7.8901e-07
-2.05697e-08
7.96791e-07
-1.85119e-08
8.05573e-07
-1.72731e-08
8.15835e-07
-1.53928e-08
8.27025e-07
-1.03812e-08
8.36507e-07
5.68704e-10
8.39489e-07
1.9306e-08
8.30825e-07
4.57595e-08
8.06497e-07
7.78022e-08
7.64276e-07
1.12169e-07
7.03593e-07
1.4555e-07
6.25737e-07
1.74792e-07
5.33979e-07
1.96536e-07
4.32865e-07
2.07836e-07
3.2668e-07
2.07855e-07
2.1771e-07
1.99451e-07
1.05405e-07
1.89128e-07
-1.22187e-08
1.84273e-07
-1.35492e-07
1.8792e-07
-2.61593e-07
1.97122e-07
-3.86872e-07
2.07476e-07
-5.10372e-07
2.15461e-07
-6.31506e-07
2.19544e-07
-7.4786e-07
2.1951e-07
-8.57183e-07
2.15407e-07
-9.58063e-07
2.07683e-07
-1.04964e-06
1.97148e-07
-1.13121e-06
1.8484e-07
-1.2022e-06
1.71593e-07
-1.26263e-06
1.57916e-07
-1.31312e-06
1.44245e-07
-1.35461e-06
1.31006e-07
-1.3882e-06
1.18514e-07
-1.41501e-06
1.06983e-07
-1.43611e-06
9.65199e-08
-1.45245e-06
8.71527e-08
-1.46485e-06
7.88477e-08
-1.474e-06
7.15301e-08
-1.48048e-06
6.51024e-08
-1.48474e-06
5.94558e-08
-1.48715e-06
5.44808e-08
-1.48798e-06
5.00725e-08
-1.48747e-06
4.61376e-08
-1.48579e-06
4.2596e-08
-1.48308e-06
3.93816e-08
-1.47946e-06
3.64389e-08
-1.47502e-06
3.37231e-08
-1.46985e-06
3.11982e-08
-1.46402e-06
2.88366e-08
-1.45761e-06
2.66173e-08
-1.45068e-06
2.4525e-08
-1.44331e-06
2.25485e-08
-1.43557e-06
2.06803e-08
-1.42755e-06
1.89148e-08
-1.41932e-06
1.72496e-08
-1.41097e-06
1.56833e-08
-1.40259e-06
1.42174e-08
-1.39428e-06
1.28541e-08
-1.38616e-06
1.15986e-08
-1.37835e-06
1.04574e-08
-1.37101e-06
9.43965e-09
-1.36429e-06
8.55584e-09
-1.35841e-06
7.81752e-09
-1.35358e-06
7.2354e-09
-1.35006e-06
6.81741e-09
-1.34807e-06
6.55912e-09
-1.34784e-06
6.43791e-09
-1.34948e-06
6.40487e-09
-1.353e-06
6.38967e-09
-1.35825e-06
6.29427e-09
-1.3648e-06
5.96234e-09
-1.37193e-06
5.32296e-09
-1.37922e-06
4.50974e-09
-1.38651e-06
3.55588e-09
-1.3937e-06
2.48425e-09
-1.40079e-06
1.34434e-09
-1.40776e-06
1.17343e-10
-1.41445e-06
-1.33647e-09
-1.42051e-06
-3.09624e-09
-1.42568e-06
-5.06646e-09
-1.42978e-06
-7.19021e-09
-1.4327e-06
-9.42346e-09
-1.43436e-06
-1.17403e-08
-1.4347e-06
-1.41179e-08
-1.43369e-06
-1.65447e-08
-1.4313e-06
-1.90148e-08
-1.4275e-06
-2.15201e-08
-1.42228e-06
-2.40515e-08
-1.41563e-06
-2.65969e-08
-1.40755e-06
-2.91432e-08
-1.39803e-06
-3.16765e-08
-1.38708e-06
-3.41838e-08
-1.37473e-06
-3.66508e-08
-1.36099e-06
-3.9053e-08
-1.34594e-06
-4.13612e-08
-1.32961e-06
-4.35763e-08
-1.31205e-06
-4.57177e-08
-1.29331e-06
-4.77814e-08
-1.27348e-06
-4.96877e-08
-1.25268e-06
-5.13753e-08
-1.23103e-06
-5.28373e-08
-1.20861e-06
-5.41129e-08
-1.18553e-06
-5.523e-08
-1.16192e-06
-5.61482e-08
-1.13789e-06
-5.68676e-08
-1.11358e-06
-5.73956e-08
-1.08911e-06
-5.77053e-08
-1.06464e-06
-5.77958e-08
-1.04026e-06
-5.77523e-08
-1.0161e-06
-5.75423e-08
-9.92254e-07
-5.7198e-08
-9.68819e-07
-5.67627e-08
-9.45815e-07
-5.6308e-08
-9.23228e-07
-5.59664e-08
-9.01068e-07
-5.57074e-08
-8.79192e-07
-5.57232e-08
-8.57461e-07
-5.60783e-08
-8.35654e-07
-5.68478e-08
-8.13499e-07
-5.81238e-08
-7.90666e-07
-5.99714e-08
-7.66654e-07
-6.26965e-08
-7.41071e-07
-6.63125e-08
-7.13556e-07
-7.06936e-08
-6.83608e-07
-7.59556e-08
-6.50681e-07
-8.20659e-08
-6.14306e-07
-8.90875e-08
-5.74043e-07
-9.68223e-08
-5.29403e-07
-1.05311e-07
-4.80135e-07
-1.14332e-07
-4.25953e-07
-1.23735e-07
-3.66727e-07
-1.33318e-07
-3.02427e-07
-1.42882e-07
-2.3311e-07
-1.52253e-07
-1.58887e-07
-1.61275e-07
-7.99114e-08
-1.69808e-07
3.67659e-09
-1.77726e-07
9.13731e-08
-1.84713e-07
1.82651e-07
-1.90427e-07
2.75208e-07
-1.95456e-07
3.68212e-07
-1.99539e-07
4.63483e-07
-2.02169e-07
5.60405e-07
-2.02846e-07
6.57613e-07
-2.01508e-07
7.54068e-07
-1.98779e-07
8.49125e-07
-1.95136e-07
9.42374e-07
-1.90841e-07
1.03352e-06
-1.86045e-07
1.12233e-06
-1.8083e-07
1.20861e-06
-1.75299e-07
1.2922e-06
-1.69459e-07
1.37297e-06
-1.63427e-07
1.45075e-06
-1.57035e-07
1.52541e-06
-1.50519e-07
1.59668e-06
-1.43204e-07
1.66434e-06
-1.35837e-07
1.72752e-06
-1.25983e-07
1.78593e-06
-1.15506e-07
1.83629e-06
-9.63839e-08
1.88415e-06
-6.67099e-08
-8.64807e-09
1.92637e-06
4.88437e-08
-2.60814e-07
6.27245e-08
-1.9127e-07
8.57551e-08
-1.95378e-07
1.11953e-07
-1.6547e-07
1.42801e-07
-1.63162e-07
1.79002e-07
-1.54645e-07
2.19837e-07
-1.54878e-07
2.6328e-07
-1.50262e-07
3.07993e-07
-1.46795e-07
3.51236e-07
-1.38825e-07
3.9216e-07
-1.30159e-07
4.29527e-07
-1.19286e-07
4.62929e-07
-1.07809e-07
4.91587e-07
-9.51167e-08
5.14978e-07
-8.1803e-08
5.32462e-07
-6.78374e-08
5.43573e-07
-5.36962e-08
5.47665e-07
-3.94293e-08
5.43974e-07
-2.5268e-08
5.32623e-07
-1.26423e-08
5.15326e-07
-3.27199e-09
4.94624e-07
2.191e-09
4.72598e-07
4.7554e-09
4.49462e-07
7.74529e-09
4.23907e-07
1.51781e-08
3.94955e-07
2.95258e-08
3.62097e-07
5.2169e-08
3.24449e-07
8.34161e-08
2.80874e-07
1.21383e-07
2.30612e-07
1.6244e-07
1.73357e-07
2.0281e-07
1.09309e-07
2.38847e-07
3.89728e-08
2.66875e-07
-3.78763e-08
2.84688e-07
-1.23165e-07
2.93144e-07
-2.19735e-07
2.96022e-07
-3.28477e-07
2.9787e-07
-4.45582e-07
3.01378e-07
-5.63882e-07
3.06221e-07
-6.77113e-07
3.10354e-07
-7.81453e-07
3.11816e-07
-8.75164e-07
3.09172e-07
-9.57615e-07
3.01995e-07
-1.02882e-06
2.90719e-07
-1.0895e-06
2.76078e-07
-1.14078e-06
2.58961e-07
-1.184e-06
2.40375e-07
-1.22047e-06
2.21308e-07
-1.25142e-06
2.02539e-07
-1.27811e-06
1.84607e-07
-1.30176e-06
1.67885e-07
-1.32336e-06
1.52606e-07
-1.34371e-06
1.38869e-07
-1.3634e-06
1.26669e-07
-1.38281e-06
1.15932e-07
-1.4022e-06
1.06536e-07
-1.42169e-06
9.83405e-08
-1.44136e-06
9.11954e-08
-1.46121e-06
8.49564e-08
-1.48125e-06
7.94886e-08
-1.50144e-06
7.46701e-08
-1.52176e-06
7.0393e-08
-1.54218e-06
6.65635e-08
-1.56269e-06
6.31016e-08
-1.58325e-06
5.99406e-08
-1.60383e-06
5.7024e-08
-1.62442e-06
5.43044e-08
-1.64496e-06
5.17419e-08
-1.66543e-06
4.93034e-08
-1.68577e-06
4.69615e-08
-1.70594e-06
4.46947e-08
-1.72588e-06
4.24864e-08
-1.74552e-06
4.03248e-08
-1.76481e-06
3.82021e-08
-1.78368e-06
3.61139e-08
-1.80205e-06
3.40588e-08
-1.81987e-06
3.20388e-08
-1.83708e-06
3.0059e-08
-1.85361e-06
2.81292e-08
-1.86942e-06
2.6263e-08
-1.88445e-06
2.44781e-08
-1.89869e-06
2.27956e-08
-1.91212e-06
2.12379e-08
-1.92471e-06
1.98259e-08
-1.93646e-06
1.8575e-08
-1.94739e-06
1.7488e-08
-1.9575e-06
1.65478e-08
-1.96681e-06
1.57096e-08
-1.97532e-06
1.48995e-08
-1.98303e-06
1.40066e-08
-1.98994e-06
1.28773e-08
-1.99605e-06
1.14364e-08
-2.0013e-06
9.75557e-09
-2.00559e-06
7.84495e-09
-2.00878e-06
5.67689e-09
-2.01067e-06
3.23678e-09
-2.01105e-06
4.98858e-10
-2.00993e-06
-2.45425e-09
-2.00751e-06
-5.51637e-09
-2.00392e-06
-8.65317e-09
-1.99923e-06
-1.18863e-08
-1.99344e-06
-1.52112e-08
-1.98656e-06
-1.8616e-08
-1.97859e-06
-2.20913e-08
-1.96951e-06
-2.56274e-08
-1.9593e-06
-2.9218e-08
-1.94797e-06
-3.28584e-08
-1.93548e-06
-3.65387e-08
-1.92183e-06
-4.02433e-08
-1.90702e-06
-4.39547e-08
-1.89104e-06
-4.76542e-08
-1.8739e-06
-5.13217e-08
-1.85562e-06
-5.49338e-08
-1.83621e-06
-5.84632e-08
-1.81568e-06
-6.18858e-08
-1.79406e-06
-6.51955e-08
-1.77139e-06
-6.83866e-08
-1.74774e-06
-7.14267e-08
-1.72318e-06
-7.42475e-08
-1.69775e-06
-7.68079e-08
-1.67148e-06
-7.91063e-08
-1.64444e-06
-8.11569e-08
-1.61671e-06
-8.29578e-08
-1.58837e-06
-8.44852e-08
-1.55951e-06
-8.57357e-08
-1.5302e-06
-8.67092e-08
-1.50052e-06
-8.73905e-08
-1.47052e-06
-8.77996e-08
-1.44029e-06
-8.7996e-08
-1.40986e-06
-8.79737e-08
-1.37928e-06
-8.77916e-08
-1.34855e-06
-8.75082e-08
-1.31763e-06
-8.72353e-08
-1.28652e-06
-8.70901e-08
-1.25511e-06
-8.71338e-08
-1.22328e-06
-8.75512e-08
-1.19091e-06
-8.84595e-08
-1.15777e-06
-8.99822e-08
-1.1236e-06
-9.22877e-08
-1.08803e-06
-9.55207e-08
-1.05079e-06
-9.99191e-08
-1.01162e-06
-1.05475e-07
-9.70145e-07
-1.1215e-07
-9.25937e-07
-1.20149e-07
-8.78517e-07
-1.29472e-07
-8.27521e-07
-1.40071e-07
-7.72542e-07
-1.51788e-07
-7.13293e-07
-1.64549e-07
-6.49531e-07
-1.78082e-07
-5.81095e-07
-1.92161e-07
-5.0792e-07
-2.06484e-07
-4.30051e-07
-2.20742e-07
-3.47652e-07
-2.34643e-07
-2.6103e-07
-2.47888e-07
-1.70659e-07
-2.6017e-07
-7.71632e-08
-2.71213e-07
1.8825e-08
-2.80694e-07
1.16969e-07
-2.88563e-07
2.16751e-07
-2.95231e-07
3.17531e-07
-3.00312e-07
4.18453e-07
-3.03085e-07
5.1899e-07
-3.03377e-07
6.18977e-07
-3.0149e-07
7.18115e-07
-2.97912e-07
8.16005e-07
-2.93021e-07
9.1225e-07
-2.87082e-07
1.00651e-06
-2.80306e-07
1.09853e-06
-2.7284e-07
1.18807e-06
-2.64843e-07
1.27499e-06
-2.5637e-07
1.35913e-06
-2.47566e-07
1.44037e-06
-2.3828e-07
1.51857e-06
-2.28715e-07
1.59356e-06
-2.18195e-07
1.66496e-06
-2.07236e-07
1.73251e-06
-1.9354e-07
1.79514e-06
-1.78142e-07
1.85254e-06
-1.53784e-07
1.90607e-06
-1.20243e-07
-5.62119e-08
1.95363e-06
1.09513e-08
-2.71759e-07
1.15814e-08
-1.91896e-07
1.71551e-08
-2.0095e-07
2.90586e-08
-1.77373e-07
3.78663e-08
-1.71968e-07
5.03668e-08
-1.67145e-07
6.37508e-08
-1.68261e-07
8.25358e-08
-1.69046e-07
1.03794e-07
-1.68052e-07
1.27742e-07
-1.62772e-07
1.51683e-07
-1.54099e-07
1.74401e-07
-1.42003e-07
1.94173e-07
-1.2758e-07
2.09867e-07
-1.1081e-07
2.20217e-07
-9.21527e-08
2.24551e-07
-7.2172e-08
2.22526e-07
-5.16706e-08
2.13701e-07
-3.06056e-08
1.96442e-07
-8.00759e-09
1.69538e-07
1.42605e-08
1.34853e-07
3.14143e-08
9.55393e-08
4.15047e-08
5.2731e-08
4.75652e-08
5.50007e-09
5.49773e-08
-4.64371e-08
6.71176e-08
-1.0131e-07
8.44014e-08
-1.56671e-07
1.07533e-07
-2.10913e-07
1.37663e-07
-2.63457e-07
1.73931e-07
-3.14336e-07
2.13325e-07
-3.63852e-07
2.52329e-07
-4.12854e-07
2.87852e-07
-4.63469e-07
3.17493e-07
-5.18864e-07
3.40084e-07
-5.81604e-07
3.55886e-07
-6.51702e-07
3.6612e-07
-7.25948e-07
3.72116e-07
-7.9914e-07
3.74572e-07
-8.66423e-07
3.73503e-07
-9.24799e-07
3.68731e-07
-9.73227e-07
3.60244e-07
-1.01225e-06
3.48198e-07
-1.04337e-06
3.33107e-07
-1.0684e-06
3.15755e-07
-1.08927e-06
2.9695e-07
-1.10776e-06
2.77447e-07
-1.12532e-06
2.5793e-07
-1.14297e-06
2.38959e-07
-1.16136e-06
2.20926e-07
-1.18082e-06
2.04067e-07
-1.20144e-06
1.88505e-07
-1.22311e-06
1.74281e-07
-1.24562e-06
1.61376e-07
-1.26869e-06
1.49735e-07
-1.29204e-06
1.3928e-07
-1.31542e-06
1.29921e-07
-1.33864e-06
1.2156e-07
-1.36155e-06
1.14098e-07
-1.38403e-06
1.07435e-07
-1.40601e-06
1.01473e-07
-1.42746e-06
9.61164e-08
-1.44834e-06
9.12746e-08
-1.46864e-06
8.68651e-08
-1.48835e-06
8.2814e-08
-1.50747e-06
7.90573e-08
-1.52599e-06
7.55408e-08
-1.5439e-06
7.22197e-08
-1.56122e-06
6.90576e-08
-1.57794e-06
6.60254e-08
-1.59408e-06
6.30993e-08
-1.60965e-06
6.02602e-08
-1.62465e-06
5.74936e-08
-1.63912e-06
5.47896e-08
-1.65306e-06
5.21436e-08
-1.6665e-06
4.95555e-08
-1.67947e-06
4.70284e-08
-1.692e-06
4.45681e-08
-1.70412e-06
4.2181e-08
-1.71587e-06
3.98741e-08
-1.72726e-06
3.76532e-08
-1.7383e-06
3.55219e-08
-1.74899e-06
3.34791e-08
-1.75927e-06
3.15198e-08
-1.76908e-06
2.96354e-08
-1.77832e-06
2.78165e-08
-1.78689e-06
2.60554e-08
-1.79468e-06
2.43468e-08
-1.80166e-06
2.26838e-08
-1.80781e-06
2.10465e-08
-1.81318e-06
1.9382e-08
-1.81789e-06
1.75881e-08
-1.82201e-06
1.55537e-08
-1.82547e-06
1.32185e-08
-1.82818e-06
1.05577e-08
-1.83013e-06
7.61951e-09
-1.83139e-06
4.49566e-09
-1.83216e-06
1.26814e-09
-1.83254e-06
-2.06657e-09
-1.83247e-06
-5.58597e-09
-1.83172e-06
-9.406e-09
-1.83014e-06
-1.3474e-08
-1.82762e-06
-1.77296e-08
-1.82409e-06
-2.21418e-08
-1.8195e-06
-2.66815e-08
-1.81381e-06
-3.13261e-08
-1.80697e-06
-3.60594e-08
-1.79896e-06
-4.08654e-08
-1.78977e-06
-4.57242e-08
-1.7794e-06
-5.06138e-08
-1.76784e-06
-5.55112e-08