/*--------------------------------*- C++ -*----------------------------------*\
| =========                 |                                                 |
| \\      /  F ield         | OpenFOAM: The Open Source CFD Toolbox           |
|  \\    /   O peration     | Version:  v1906                                 |
|   \\  /    A nd           | Web:      www.OpenFOAM.com                      |
|    \\/     M anipulation  |                                                 |
\*---------------------------------------------------------------------------*/
FoamFile
{
    version     2.0;
    format      ascii;
    class       volSymmTensorField;
    location    "1400";
    object      R;
}
// * * * * * * * * * * * * * * * * * * * * * * * * * * * * * * * * * * * * * //

dimensions      [0 2 -2 0 0 0 0];


internalField   nonuniform List<symmTensor> 
12225
(
(1.62918 -0.333427 0 1.36079 0 1.52752)
(1.99603 -0.59771 0 0.915073 0 1.54224)
(2.14975 -0.586211 0 0.685669 0 1.48847)
(2.1628 -0.548285 0 0.594792 0 1.42582)
(2.13 -0.521054 0 0.549797 0 1.37023)
(2.08409 -0.501319 0 0.521807 0 1.32322)
(2.03684 -0.485853 0 0.501247 0 1.28308)
(1.99273 -0.473116 0 0.484917 0 1.24867)
(1.95155 -0.462067 0 0.471118 0 1.21826)
(1.91559 -0.45267 0 0.459594 0 1.19214)
(1.88093 -0.44394 0 0.4492 0 1.16808)
(1.85355 -0.437335 0 0.440604 0 1.14807)
(1.83158 -0.432149 0 0.433639 0 1.13191)
(1.8142 -0.427879 0 0.42792 0 1.11846)
(1.79793 -0.423946 0 0.422781 0 1.10654)
(1.78648 -0.421487 0 0.419278 0 1.09749)
(1.7729 -0.41748 0 0.414399 0 1.08748)
(1.76747 -0.418279 0 0.413806 0 1.08281)
(1.52372 -0.0379491 0 1.4601 0 1.51677)
(1.5765 -0.140432 0 1.18694 0 1.51213)
(1.5867 -0.190036 0 0.927626 0 1.45696)
(1.57202 -0.209343 0 0.773773 0 1.39906)
(1.54343 -0.218156 0 0.676194 0 1.34284)
(1.51873 -0.225228 0 0.611057 0 1.29757)
(1.49705 -0.231418 0 0.564368 0 1.25992)
(1.47755 -0.236832 0 0.528997 0 1.22736)
(1.46101 -0.241812 0 0.501392 0 1.19986)
(1.44627 -0.246068 0 0.479016 0 1.17525)
(1.43466 -0.250318 0 0.460936 0 1.15513)
(1.42358 -0.253572 0 0.44526 0 1.13559)
(1.41646 -0.257718 0 0.43315 0 1.12143)
(1.40877 -0.259989 0 0.421196 0 1.10522)
(1.40459 -0.264218 0 0.413724 0 1.09607)
(1.39973 -0.265223 0 0.403216 0 1.0818)
(1.39624 -0.269165 0 0.399548 0 1.07631)
(1.39172 -0.26871 0 0.389641 0 1.06225)
(1.51161 -0.00809935 0 1.49388 0 1.51021)
(1.53451 -0.0358599 0 1.38468 0 1.51858)
(1.54642 -0.0615092 0 1.23518 0 1.50561)
(1.54334 -0.0798368 0 1.11802 0 1.48175)
(1.52918 -0.0934363 0 1.02643 0 1.45229)
(1.5123 -0.105313 0 0.95299 0 1.42299)
(1.495 -0.115973 0 0.893168 0 1.39548)
(1.47793 -0.125587 0 0.843484 0 1.36974)
(1.46204 -0.134408 0 0.801702 0 1.34637)
(1.44717 -0.14235 0 0.765975 0 1.3247)
(1.4339 -0.149825 0 0.735319 0 1.30548)
(1.42154 -0.156397 0 0.708286 0 1.28719)
(1.4107 -0.162868 0 0.685213 0 1.27169)
(1.40121 -0.16823 0 0.663694 0 1.25605)
(1.3915 -0.173841 0 0.646889 0 1.24413)
(1.38675 -0.1781 0 0.627261 0 1.22981)
(1.37242 -0.182532 0 0.619726 0 1.22267)
(1.38662 -0.185405 0 0.58997 0 1.2065)
(1.51151 -0.00606632 0 1.49419 0 1.51108)
(1.52717 -0.0162755 0 1.42187 0 1.52172)
(1.53967 -0.0294716 0 1.31301 0 1.52313)
(1.54282 -0.0419031 0 1.21364 0 1.51509)
(1.53769 -0.0521919 0 1.12988 0 1.50081)
(1.52862 -0.0612629 0 1.05927 0 1.48387)
(1.51772 -0.0695077 0 0.999728 0 1.46621)
(1.50589 -0.0770696 0 0.949078 0 1.44849)
(1.49399 -0.0841036 0 0.905621 0 1.43142)
(1.48227 -0.0905812 0 0.867946 0 1.415)
(1.47111 -0.0966831 0 0.835118 0 1.39969)
(1.46046 -0.102254 0 0.806105 0 1.38502)
(1.45048 -0.107584 0 0.780705 0 1.37169)
(1.44137 -0.112291 0 0.757656 0 1.35875)
(1.43228 -0.116861 0 0.737925 0 1.34744)
(1.42541 -0.120668 0 0.718439 0 1.33584)
(1.41594 -0.124206 0 0.704365 0 1.32687)
(1.41273 -0.127171 0 0.68449 0 1.31598)
(1.50986 -0.00453784 0 1.49822 0 1.50974)
(1.52087 -0.00882034 0 1.44954 0 1.51873)
(1.53213 -0.0149061 0 1.37342 0 1.52448)
(1.5378 -0.0219587 0 1.29854 0 1.52378)
(1.53767 -0.0285819 0 1.23199 0 1.51799)
(1.53397 -0.0348765 0 1.1733 0 1.50919)
(1.52813 -0.0409696 0 1.12175 0 1.49882)
(1.52094 -0.0468303 0 1.07635 0 1.48758)
(1.51303 -0.0524527 0 1.03619 0 1.47606)
(1.50478 -0.0577831 0 1.00048 0 1.46452)
(1.49651 -0.0628663 0 0.968633 0 1.45329)
(1.48832 -0.0676296 0 0.940015 0 1.44229)
(1.48034 -0.0721541 0 0.914331 0 1.43186)
(1.47275 -0.0762817 0 0.890975 0 1.42173)
(1.46529 -0.0801351 0 0.870044 0 1.41233)
(1.45869 -0.0835251 0 0.850436 0 1.40313)
(1.45191 -0.0864796 0 0.833486 0 1.3951)
(1.447 -0.0892513 0 0.815137 0 1.38682)
(1.50977 -0.00411171 0 1.49855 0 1.50978)
(1.51843 -0.00584402 0 1.46076 0 1.51759)
(1.52822 -0.00837923 0 1.40249 0 1.5245)
(1.53469 -0.0121812 0 1.34202 0 1.52727)
(1.53714 -0.0162361 0 1.28557 0 1.52613)
(1.53663 -0.0203464 0 1.23404 0 1.52226)
(1.53408 -0.0245097 0 1.18752 0 1.51661)
(1.53007 -0.0286502 0 1.14568 0 1.50978)
(1.5251 -0.0327141 0 1.10804 0 1.50225)
(1.51952 -0.0366513 0 1.07409 0 1.49433)
(1.5136 -0.0404551 0 1.04343 0 1.48627)
(1.50751 -0.0440778 0 1.01561 0 1.47818)
(1.50136 -0.0475223 0 0.990345 0 1.47023)
(1.49531 -0.0507137 0 0.96726 0 1.46242)
(1.48934 -0.0536565 0 0.946201 0 1.45493)
(1.48374 -0.056298 0 0.926666 0 1.44766)
(1.4782 -0.0586097 0 0.908884 0 1.44088)
(1.47332 -0.0608735 0 0.891056 0 1.43414)
(1.50946 -0.00338666 0 1.49937 0 1.50953)
(1.51631 -0.0043327 0 1.46916 0 1.51607)
(1.52447 -0.00508982 0 1.42404 0 1.52271)
(1.53072 -0.00676914 0 1.37566 0 1.52677)
(1.53419 -0.0088918 0 1.32905 0 1.52796)
(1.53537 -0.0112809 0 1.28551 0 1.52691)
(1.53479 -0.0139008 0 1.24539 0 1.52422)
(1.53287 -0.0166607 0 1.20866 0 1.52032)
(1.52997 -0.0194795 0 1.17508 0 1.51561)
(1.52638 -0.0222951 0 1.14437 0 1.51035)
(1.52232 -0.0250704 0 1.11625 0 1.50475)
(1.51796 -0.0277578 0 1.09045 0 1.49895)
(1.51341 -0.0303275 0 1.06675 0 1.49308)
(1.5088 -0.0327318 0 1.04489 0 1.48721)
(1.5042 -0.0349453 0 1.02469 0 1.48145)
(1.49975 -0.0369573 0 1.0059 0 1.47583)
(1.49549 -0.0387455 0 0.988413 0 1.47049)
(1.49139 -0.0405438 0 0.97154 0 1.46524)
(1.50951 -0.0029896 0 1.49932 0 1.50962)
(1.51529 -0.00360317 0 1.47357 0 1.51537)
(1.52211 -0.00349473 0 1.43714 0 1.52143)
(1.52786 -0.00397685 0 1.39718 0 1.52591)
(1.53172 -0.00491508 0 1.3576 0 1.52835)
(1.53384 -0.00619142 0 1.31977 0 1.52902)
(1.53451 -0.00775568 0 1.28426 0 1.52826)
(1.53401 -0.00951796 0 1.25124 0 1.5264)
(1.53258 -0.0113953 0 1.22064 0 1.5237)
(1.53046 -0.013326 0 1.19233 0 1.5204)
(1.52783 -0.0152652 0 1.16614 0 1.51666)
(1.52483 -0.0171683 0 1.14189 0 1.51262)
(1.52157 -0.018999 0 1.11941 0 1.5084)
(1.51815 -0.0207224 0 1.09853 0 1.50408)
(1.51467 -0.0223139 0 1.07908 0 1.49975)
(1.51121 -0.0237745 0 1.06089 0 1.49546)
(1.50775 -0.0251252 0 1.04387 0 1.49126)
(1.50416 -0.0264985 0 1.02778 0 1.48713)
(1.50947 -0.00244878 0 1.49948 0 1.5096)
(1.51437 -0.00304748 0 1.47721 0 1.51462)
(1.52004 -0.00259435 0 1.44727 0 1.51998)
(1.52513 -0.00236909 0 1.41406 0 1.52439)
(1.52894 -0.00248693 0 1.38052 0 1.52735)
(1.53144 -0.00292872 0 1.34795 0 1.52893)
(1.53279 -0.00366799 0 1.31694 0 1.52934)
(1.53313 -0.00463427 0 1.28775 0 1.52877)
(1.53267 -0.00575429 0 1.2604 0 1.52743)
(1.53156 -0.00696913 0 1.23484 0 1.5255)
(1.52996 -0.00823116 0 1.21098 0 1.52312)
(1.52797 -0.00949706 0 1.1887 0 1.5204)
(1.5257 -0.0107298 0 1.16788 0 1.51744)
(1.52325 -0.0119009 0 1.14839 0 1.51434)
(1.52068 -0.0129914 0 1.13012 0 1.51115)
(1.51806 -0.014009 0 1.11294 0 1.50795)
(1.5154 -0.0149686 0 1.09681 0 1.50479)
(1.51241 -0.0159827 0 1.08175 0 1.50164)
(1.5095 -0.00209363 0 1.49944 0 1.50964)
(1.51384 -0.00271214 0 1.47948 0 1.51421)
(1.51864 -0.0021428 0 1.45411 0 1.51896)
(1.5231 -0.00155427 0 1.42592 0 1.52312)
(1.5267 -0.00119648 0 1.39703 0 1.52627)
(1.52933 -0.0011213 0 1.36855 0 1.52836)
(1.53105 -0.00132328 0 1.34107 0 1.5295)
(1.53194 -0.00174933 0 1.31488 0 1.52982)
(1.53215 -0.00233791 0 1.29008 0 1.52945)
(1.53177 -0.003036 0 1.26669 0 1.52852)
(1.53094 -0.00379876 0 1.24466 0 1.52716)
(1.52973 -0.00458716 0 1.22393 0 1.52545)
(1.52824 -0.00536861 0 1.20443 0 1.52349)
(1.52654 -0.00612078 0 1.18606 0 1.52135)
(1.52469 -0.00683179 0 1.16874 0 1.51908)
(1.52272 -0.00751174 0 1.1524 0 1.51674)
(1.52057 -0.00819221 0 1.13706 0 1.51437)
(1.51804 -0.0089238 0 1.12281 0 1.51197)
(1.50947 -0.00168215 0 1.49956 0 1.50962)
(1.51334 -0.00232524 0 1.48148 0 1.51378)
(1.51743 -0.00178265 0 1.45964 0 1.51799)
(1.5213 -0.00103232 0 1.43547 0 1.52181)
(1.52457 -0.000385243 0 1.41047 0 1.52491)
(1.52714 5.01956e-05 0 1.38555 0 1.52721)
(1.529 0.000251231 0 1.36126 0 1.52876)
(1.53019 0.000247613 0 1.33787 0 1.52961)
(1.5308 8.46354e-05 0 1.31553 0 1.52988)
(1.53091 -0.00019384 0 1.29428 0 1.52965)
(1.53061 -0.000548506 0 1.27413 0 1.52901)
(1.52997 -0.000945298 0 1.25503 0 1.52805)
(1.52905 -0.0013565 0 1.23695 0 1.52683)
(1.52793 -0.00176423 0 1.21982 0 1.52541)
(1.52664 -0.00216024 0 1.2036 0 1.52386)
(1.52519 -0.00255338 0 1.18826 0 1.52221)
(1.52353 -0.00295962 0 1.17382 0 1.5205)
(1.52143 -0.00343963 0 1.16045 0 1.51873)
(1.50943 -0.00141778 0 1.49966 0 1.50959)
(1.51302 -0.00206302 0 1.48281 0 1.5135)
(1.51661 -0.00158499 0 1.46334 0 1.51732)
(1.52002 -0.000800631 0 1.442 0 1.52084)
(1.523 -3.25549e-05 0 1.41982 0 1.52382)
(1.52545 0.000582478 0 1.39754 0 1.52618)
(1.52733 0.00100388 0 1.37561 0 1.52793)
(1.52866 0.00124465 0 1.35433 0 1.5291)
(1.52951 0.00133747 0 1.33383 0 1.52977)
(1.52993 0.00131799 0 1.3142 0 1.53)
(1.52998 0.00121963 0 1.29546 0 1.52985)
(1.52972 0.00107123 0 1.27759 0 1.52941)
(1.52921 0.000895577 0 1.26058 0 1.52871)
(1.52849 0.000706549 0 1.2444 0 1.52782)
(1.52758 0.000509068 0 1.22902 0 1.52678)
(1.52649 0.000294997 0 1.21445 0 1.52562)
(1.52514 4.4461e-05 0 1.20073 0 1.52438)
(1.52337 -0.000259908 0 1.188 0 1.52306)
(1.50937 -0.00114471 0 1.49984 0 1.50953)
(1.51269 -0.00175291 0 1.48406 0 1.5132)
(1.51587 -0.00135248 0 1.46652 0 1.51669)
(1.51889 -0.000590523 0 1.44751 0 1.51991)
(1.52157 0.000228269 0 1.42772 0 1.52273)
(1.52385 0.000953509 0 1.40772 0 1.52507)
(1.52568 0.00153026 0 1.38789 0 1.52691)
(1.52707 0.00195594 0 1.3685 0 1.52827)
(1.52806 0.00225053 0 1.3497 0 1.5292)
(1.52868 0.00244079 0 1.33158 0 1.52975)
(1.52897 0.00255348 0 1.31417 0 1.52997)
(1.529 0.00261213 0 1.29749 0 1.52991)
(1.52879 0.00263501 0 1.28154 0 1.52961)
(1.52837 0.00263337 0 1.26631 0 1.52912)
(1.52777 0.00261099 0 1.25179 0 1.52849)
(1.52697 0.00256436 0 1.23799 0 1.52773)
(1.52591 0.00248533 0 1.22499 0 1.52687)
(1.52443 0.00234625 0 1.21291 0 1.52591)
(1.50928 -0.000916566 0 1.50006 0 1.50944)
(1.51238 -0.00147095 0 1.48522 0 1.51292)
(1.51521 -0.0011558 0 1.46932 0 1.51611)
(1.51786 -0.000461938 0 1.45237 0 1.51905)
(1.52024 0.000340489 0 1.43475 0 1.52168)
(1.52232 0.0011016 0 1.41686 0 1.52394)
(1.52406 0.00175798 0 1.39899 0 1.52581)
(1.52546 0.00229491 0 1.38139 0 1.52729)
(1.52653 0.00272126 0 1.3642 0 1.52842)
(1.52729 0.00305501 0 1.34751 0 1.52922)
(1.52778 0.003316 0 1.33138 0 1.52974)
(1.52804 0.00352202 0 1.31583 0 1.53)
(1.52808 0.00368677 0 1.3009 0 1.53005)
(1.52792 0.00381808 0 1.28657 0 1.52992)
(1.52758 0.00391796 0 1.27288 0 1.52963)
(1.52703 0.00398241 0 1.25984 0 1.52922)
(1.52622 0.00400186 0 1.24751 0 1.5287)
(1.52504 0.00398877 0 1.23601 0 1.52809)
(1.50917 -0.000643703 0 1.50035 0 1.50933)
(1.51203 -0.00106488 0 1.48643 0 1.51259)
(1.51454 -0.000809076 0 1.472 0 1.5155)
(1.51685 -0.000204095 0 1.45686 0 1.51817)
(1.51895 0.000539245 0 1.44119 0 1.52059)
(1.52081 0.00128947 0 1.42522 0 1.52272)
(1.52242 0.00198248 0 1.40919 0 1.52456)
(1.52377 0.00259504 0 1.39329 0 1.52609)
(1.52486 0.0031259 0 1.37764 0 1.52734)
(1.52571 0.00358397 0 1.36235 0 1.52832)
(1.52634 0.00398154 0 1.34747 0 1.52905)
(1.52676 0.00433054 0 1.33307 0 1.52956)
(1.52699 0.0046404 0 1.31915 0 1.52988)
(1.52704 0.00491741 0 1.30575 0 1.53004)
(1.52692 0.00516397 0 1.2929 0 1.53004)
(1.52659 0.00537942 0 1.28063 0 1.52992)
(1.52601 0.00555985 0 1.26899 0 1.52969)
(1.5251 0.00567748 0 1.25808 0 1.52935)
(1.50903 -0.000440161 0 1.50069 0 1.5092)
(1.51167 -0.000734816 0 1.48756 0 1.51224)
(1.51394 -0.000537816 0 1.47427 0 1.51494)
(1.51598 -5.2265e-05 0 1.46057 0 1.51739)
(1.51783 0.000570612 0 1.44647 0 1.51961)
(1.51949 0.00122712 0 1.43211 0 1.52162)
(1.52096 0.00186039 0 1.41763 0 1.52339)
(1.52224 0.00244476 0 1.40318 0 1.52492)
(1.52331 0.00297275 0 1.38887 0 1.52623)
(1.5242 0.00344631 0 1.3748 0 1.52731)
(1.5249 0.00387125 0 1.36104 0 1.52818)
(1.52543 0.00425389 0 1.34763 0 1.52887)
(1.52579 0.00459942 0 1.33463 0 1.52939)
(1.52599 0.00491093 0 1.32206 0 1.52975)
(1.52603 0.00518981 0 1.30996 0 1.52998)
(1.52588 0.00543718 0 1.29836 0 1.53008)
(1.52552 0.00565406 0 1.28731 0 1.53008)
(1.5249 0.00586776 0 1.27688 0 1.52998)
(1.50889 -0.000171915 0 1.50104 0 1.50905)
(1.51133 -0.00022969 0 1.48859 0 1.51191)
(1.5134 -3.14768e-06 0 1.47619 0 1.51442)
(1.51524 0.00041238 0 1.46355 0 1.51669)
(1.51689 0.000934919 0 1.45064 0 1.51876)
(1.51839 0.00150225 0 1.43749 0 1.52064)
(1.51974 0.00207646 0 1.4242 0 1.52234)
(1.52093 0.00263761 0 1.41088 0 1.52384)
(1.52197 0.00317694 0 1.39762 0 1.52516)
(1.52285 0.00369211 0 1.38452 0 1.52629)
(1.52359 0.00418371 0 1.37164 0 1.52724)
(1.52417 0.00465326 0 1.35905 0 1.52803)
(1.52461 0.00510185 0 1.34678 0 1.52867)
(1.52491 0.00552966 0 1.33488 0 1.52916)
(1.52505 0.00593515 0 1.32339 0 1.52953)
(1.52503 0.00631449 0 1.31235 0 1.52978)
(1.52483 0.00666135 0 1.30178 0 1.52992)
(1.52442 0.00694861 0 1.29174 0 1.52996)
(1.50877 -9.46385e-06 0 1.50131 0 1.50894)
(1.51109 0.000107706 0 1.4893 0 1.51166)
(1.51306 0.000326002 0 1.47737 0 1.51407)
(1.5148 0.000617301 0 1.46531 0 1.51625)
(1.51636 0.000957618 0 1.45303 0 1.51823)
(1.51778 0.00132644 0 1.44055 0 1.52005)
(1.51906 0.00170944 0 1.42793 0 1.52169)
(1.52022 0.00209728 0 1.41526 0 1.52317)
(1.52123 0.00248405 0 1.40262 0 1.52448)
(1.52212 0.00286608 0 1.39009 0 1.52562)
(1.52287 0.00324099 0 1.37775 0 1.52661)
(1.52349 0.00360712 0 1.36564 0 1.52745)
(1.52399 0.00396329 0 1.35382 0 1.52814)
(1.52435 0.00430912 0 1.34233 0 1.5287)
(1.52459 0.00464499 0 1.33119 0 1.52914)
(1.52469 0.00497442 0 1.32045 0 1.52947)
(1.52463 0.00530155 0 1.31012 0 1.52969)
(1.5244 0.00565176 0 1.30024 0 1.52981)
(1.50879 0.000338061 0 1.50125 0 1.50896)
(1.51114 0.000841008 0 1.48913 0 1.51171)
(1.51314 0.00121398 0 1.47708 0 1.51414)
(1.5149 0.00151962 0 1.46487 0 1.51633)
(1.51649 0.00180822 0 1.45244 0 1.51833)
(1.51792 0.00211237 0 1.4398 0 1.52015)
(1.51921 0.00245002 0 1.42704 0 1.52179)
(1.52036 0.00282821 0 1.41423 0 1.52326)
(1.52136 0.00324697 0 1.40146 0 1.52455)
(1.52222 0.00370226 0 1.38882 0 1.52567)
(1.52293 0.00418794 0 1.37638 0 1.52662)
(1.52352 0.00469678 0 1.36418 0 1.52741)
(1.52397 0.00522102 0 1.35228 0 1.52806)
(1.5243 0.00575245 0 1.34069 0 1.52858)
(1.52452 0.00628214 0 1.32946 0 1.52897)
(1.52463 0.00679943 0 1.31859 0 1.52926)
(1.52465 0.00729156 0 1.30809 0 1.52946)
(1.52458 0.00773363 0 1.29798 0 1.52959)
(1.50903 0.00052022 0 1.50077 0 1.50918)
(1.51171 0.00117072 0 1.48778 0 1.51221)
(1.51401 0.00147445 0 1.4747 0 1.51488)
(1.51608 0.00158889 0 1.46127 0 1.5173)
(1.51796 0.00163094 0 1.44749 0 1.51951)
(1.51966 0.00167507 0 1.43347 0 1.5215)
(1.52118 0.00176205 0 1.41933 0 1.52326)
(1.52251 0.00190832 0 1.40522 0 1.5248)
(1.52365 0.00211547 0 1.39124 0 1.52612)
(1.52462 0.00237706 0 1.37748 0 1.52722)
(1.52541 0.0026827 0 1.364 0 1.52812)
(1.52603 0.00302031 0 1.35087 0 1.52884)
(1.5265 0.00337776 0 1.33812 0 1.52938)
(1.52681 0.00374371 0 1.32577 0 1.52977)
(1.52699 0.00410967 0 1.31386 0 1.53001)
(1.52703 0.00447119 0 1.30239 0 1.53011)
(1.52692 0.00483304 0 1.29139 0 1.53009)
(1.52664 0.00522277 0 1.28087 0 1.52994)
(1.50921 0.00088658 0 1.5003 0 1.50935)
(1.51221 0.00182418 0 1.48616 0 1.51268)
(1.5149 0.00215362 0 1.47145 0 1.51568)
(1.51737 0.002204 0 1.45604 0 1.51843)
(1.51962 0.00217809 0 1.44011 0 1.52089)
(1.52161 0.00218652 0 1.42391 0 1.52306)
(1.52334 0.00228197 0 1.40766 0 1.52492)
(1.52479 0.00247964 0 1.39154 0 1.52647)
(1.52598 0.00277459 0 1.3757 0 1.52772)
(1.52691 0.0031535 0 1.36022 0 1.52868)
(1.52761 0.00360084 0 1.34518 0 1.5294)
(1.52809 0.00410202 0 1.33062 0 1.52988)
(1.52837 0.00464498 0 1.31657 0 1.53015)
(1.52847 0.00522137 0 1.30305 0 1.53023)
(1.52841 0.0058262 0 1.29006 0 1.53016)
(1.52821 0.00645791 0 1.2776 0 1.52994)
(1.52791 0.00711234 0 1.26565 0 1.52962)
(1.52758 0.00776585 0 1.25418 0 1.52924)
(1.50941 0.00115334 0 1.49989 0 1.50953)
(1.5128 0.00220241 0 1.4844 0 1.51318)
(1.516 0.00244329 0 1.46745 0 1.51658)
(1.51902 0.0023902 0 1.44923 0 1.51972)
(1.52175 0.00229523 0 1.43031 0 1.52247)
(1.5241 0.00227565 0 1.41117 0 1.52479)
(1.52604 0.00238285 0 1.39218 0 1.52664)
(1.52758 0.00262603 0 1.37355 0 1.52806)
(1.52875 0.00299251 0 1.35545 0 1.52907)
(1.52956 0.00346228 0 1.33796 0 1.52971)
(1.53007 0.0040141 0 1.32111 0 1.53004)
(1.53032 0.00462745 0 1.30494 0 1.5301)
(1.53034 0.00528301 0 1.28944 0 1.52992)
(1.53017 0.00596194 0 1.2746 0 1.52955)
(1.52984 0.00664561 0 1.26041 0 1.52901)
(1.52936 0.00731403 0 1.24687 0 1.52833)
(1.52875 0.00795241 0 1.23395 0 1.52753)
(1.52793 0.00857569 0 1.22168 0 1.52658)
(1.50955 0.001722 0 1.4995 0 1.50965)
(1.51349 0.00298205 0 1.48186 0 1.51378)
(1.5175 0.0032307 0 1.46119 0 1.51783)
(1.52132 0.00328809 0 1.4385 0 1.5215)
(1.52464 0.00343067 0 1.41499 0 1.52455)
(1.52733 0.00373708 0 1.39145 0 1.52691)
(1.52939 0.00422679 0 1.36835 0 1.52859)
(1.53086 0.00488151 0 1.34597 0 1.52965)
(1.5318 0.00566621 0 1.32447 0 1.53017)
(1.53227 0.00654696 0 1.30391 0 1.53022)
(1.53234 0.00749558 0 1.28431 0 1.52988)
(1.53207 0.00848908 0 1.26568 0 1.52921)
(1.53152 0.00950947 0 1.24798 0 1.52827)
(1.53072 0.0105446 0 1.2312 0 1.52711)
(1.5297 0.0115892 0 1.21531 0 1.52575)
(1.52852 0.0126501 0 1.20026 0 1.52424)
(1.52717 0.0137437 0 1.18603 0 1.52261)
(1.52586 0.0148783 0 1.17251 0 1.52097)
(1.50958 0.00209253 0 1.49945 0 1.50966)
(1.51415 0.00345846 0 1.47929 0 1.51426)
(1.51922 0.00386214 0 1.45345 0 1.51901)
(1.52396 0.00427304 0 1.4248 0 1.52312)
(1.52778 0.00487045 0 1.39559 0 1.52614)
(1.53057 0.00566145 0 1.36693 0 1.52807)
(1.5324 0.00665103 0 1.33938 0 1.52901)
(1.53337 0.00781569 0 1.31316 0 1.52911)
(1.53364 0.0091117 0 1.28837 0 1.52853)
(1.53331 0.0104997 0 1.26497 0 1.5274)
(1.53252 0.0119493 0 1.24294 0 1.52583)
(1.53136 0.0134365 0 1.22219 0 1.52393)
(1.52992 0.0149426 0 1.20265 0 1.52178)
(1.52826 0.016452 0 1.18425 0 1.51944)
(1.52645 0.0179498 0 1.16689 0 1.51697)
(1.52456 0.0194105 0 1.15051 0 1.51442)
(1.52266 0.0207918 0 1.13503 0 1.51186)
(1.5206 0.0220442 0 1.12045 0 1.50921)
(1.50975 0.00299449 0 1.49899 0 1.5098)
(1.51562 0.00467339 0 1.47379 0 1.51543)
(1.52243 0.00579023 0 1.43882 0 1.52123)
(1.52832 0.00737005 0 1.4004 0 1.52562)
(1.53252 0.00928215 0 1.3621 0 1.52815)
(1.53507 0.0113516 0 1.32531 0 1.52902)
(1.53619 0.0135354 0 1.29059 0 1.52852)
(1.53616 0.0157993 0 1.25813 0 1.52695)
(1.53521 0.0180914 0 1.22791 0 1.52455)
(1.53355 0.0203755 0 1.19985 0 1.52153)
(1.53137 0.0226321 0 1.17379 0 1.51808)
(1.52879 0.0248469 0 1.14958 0 1.51431)
(1.52592 0.0270083 0 1.12708 0 1.51032)
(1.52285 0.0291065 0 1.10614 0 1.50621)
(1.51962 0.0311311 0 1.08663 0 1.50201)
(1.51627 0.0330811 0 1.06846 0 1.49776)
(1.51271 0.034972 0 1.05156 0 1.49344)
(1.50923 0.0368931 0 1.03585 0 1.48922)
(1.50955 0.00334577 0 1.4994 0 1.50953)
(1.51696 0.00625631 0 1.46777 0 1.51608)
(1.52588 0.00942352 0 1.41961 0 1.52245)
(1.53252 0.013143 0 1.36896 0 1.52578)
(1.53609 0.0169589 0 1.3208 0 1.52604)
(1.53709 0.0206801 0 1.27629 0 1.52395)
(1.53615 0.0243573 0 1.2355 0 1.52017)
(1.5338 0.0280239 0 1.19821 0 1.51522)
(1.53045 0.0316304 0 1.16415 0 1.5095)
(1.52642 0.0351418 0 1.13299 0 1.5033)
(1.52194 0.0385445 0 1.10443 0 1.49682)
(1.5172 0.0418309 0 1.07818 0 1.49022)
(1.51231 0.044997 0 1.05401 0 1.4836)
(1.50737 0.0480452 0 1.03171 0 1.47705)
(1.50247 0.0509806 0 1.01108 0 1.47061)
(1.49766 0.0538126 0 0.991964 0 1.46434)
(1.49321 0.0565325 0 0.974158 0 1.45835)
(1.48898 0.0589757 0 0.957648 0 1.45266)
(1.51072 0.0049766 0 1.49654 0 1.51053)
(1.52207 0.0113466 0 1.44806 0 1.51931)
(1.53419 0.0199323 0 1.37296 0 1.52521)
(1.54097 0.0285741 0 1.29833 0 1.52508)
(1.54243 0.0362538 0 1.23088 0 1.52025)
(1.54001 0.0428726 0 1.17116 0 1.51234)
(1.53504 0.0487678 0 1.11853 0 1.50256)
(1.52858 0.0542228 0 1.0721 0 1.4918)
(1.52124 0.0592766 0 1.0311 0 1.48063)
(1.51344 0.063977 0 0.994702 0 1.46941)
(1.50547 0.0683745 0 0.96223 0 1.45833)
(1.49754 0.0725023 0 0.933115 0 1.44756)
(1.48974 0.0763811 0 0.906885 0 1.43715)
(1.4822 0.0800343 0 0.883158 0 1.42718)
(1.47489 0.0834662 0 0.861591 0 1.41761)
(1.46792 0.0866902 0 0.841946 0 1.40852)
(1.46083 0.089654 0 0.823919 0 1.39963)
(1.45391 0.0924417 0 0.807703 0 1.39123)
(1.50985 0.0057926 0 1.49843 0 1.50915)
(1.52695 0.0254797 0 1.42428 0 1.5175)
(1.54205 0.0456255 0 1.31348 0 1.51586)
(1.54568 0.0605918 0 1.21737 0 1.50429)
(1.54104 0.0722014 0 1.13755 0 1.48739)
(1.53133 0.0816132 0 1.07063 0 1.46796)
(1.51921 0.0898384 0 1.0136 0 1.44777)
(1.50652 0.0974185 0 0.96459 0 1.4281)
(1.49377 0.104335 0 0.922166 0 1.40932)
(1.48134 0.110656 0 0.885111 0 1.39157)
(1.46943 0.116459 0 0.85249 0 1.3749)
(1.45818 0.121812 0 0.823571 0 1.35934)
(1.44757 0.126752 0 0.797748 0 1.34477)
(1.4377 0.131336 0 0.774591 0 1.33124)
(1.42846 0.135606 0 0.75364 0 1.31856)
(1.41988 0.139568 0 0.734761 0 1.30682)
(1.41212 0.143423 0 0.717347 0 1.29577)
(1.40578 0.146737 0 0.702187 0 1.28625)
(1.5189 0.0284581 0 1.47294 0 1.51483)
(1.5634 0.112014 0 1.26339 0 1.5187)
(1.58322 0.161038 0 1.03772 0 1.48715)
(1.57567 0.181973 0 0.887066 0 1.44363)
(1.55683 0.192581 0 0.784401 0 1.39973)
(1.53313 0.198873 0 0.711493 0 1.35826)
(1.51042 0.204103 0 0.657332 0 1.32169)
(1.4909 0.209184 0 0.615952 0 1.29073)
(1.47354 0.213978 0 0.583062 0 1.26373)
(1.45809 0.218438 0 0.556204 0 1.23994)
(1.44422 0.222536 0 0.533847 0 1.21871)
(1.43205 0.226334 0 0.514955 0 1.19986)
(1.42108 0.229824 0 0.49873 0 1.1828)
(1.41164 0.233059 0 0.484713 0 1.16765)
(1.40297 0.236056 0 0.472418 0 1.15369)
(1.39575 0.238819 0 0.461633 0 1.14138)
(1.38873 0.241446 0 0.452058 0 1.12975)
(1.38186 0.243655 0 0.443307 0 1.11894)
(1.59274 0.291964 0 1.39581 0 1.52093)
(1.91623 0.578695 0 0.968061 0 1.53309)
(2.06904 0.585628 0 0.732306 0 1.48899)
(2.10354 0.552955 0 0.628167 0 1.4353)
(2.09256 0.525591 0 0.573909 0 1.38572)
(2.0647 0.505454 0 0.540739 0 1.34257)
(2.03085 0.489961 0 0.517679 0 1.30528)
(1.99596 0.477428 0 0.5001 0 1.27296)
(1.96238 0.466911 0 0.485818 0 1.24467)
(1.93091 0.457821 0 0.473766 0 1.21964)
(1.90177 0.449809 0 0.463358 0 1.19732)
(1.87485 0.442652 0 0.454224 0 1.17725)
(1.85013 0.436212 0 0.446123 0 1.15914)
(1.82726 0.430369 0 0.438866 0 1.14266)
(1.80636 0.425039 0 0.432326 0 1.12771)
(1.78679 0.420187 0 0.426412 0 1.11392)
(1.76912 0.415638 0 0.420973 0 1.10143)
(1.75208 0.411424 0 0.416116 0 1.08965)
(0.0101417 0.0044435 0 0.0373033 0 0.029708)
(0.0232555 -0.000228824 0 0.047529 0 0.0550935)
(0.0406099 -0.00260257 0 0.0584471 0 0.076538)
(0.0537502 -0.00754669 0 0.0631598 0 0.0878355)
(0.0657017 -0.0101093 0 0.0636025 0 0.0958573)
(0.0756242 -0.0117109 0 0.0619521 0 0.101001)
(0.084165 -0.0127019 0 0.060125 0 0.104679)
(0.0913 -0.0135462 0 0.0581993 0 0.107164)
(0.0974627 -0.0143463 0 0.0564166 0 0.108954)
(0.102874 -0.0151979 0 0.0547035 0 0.110238)
(0.107788 -0.0160938 0 0.0530732 0 0.111214)
(0.112343 -0.0170183 0 0.0514914 0 0.111975)
(0.116649 -0.0179373 0 0.0499585 0 0.112595)
(0.120763 -0.0188224 0 0.0484689 0 0.113111)
(0.124716 -0.0196448 0 0.0470271 0 0.113546)
(0.128509 -0.0203802 0 0.0456372 0 0.113904)
(0.132114 -0.02101 0 0.0443075 0 0.114178)
(0.135495 -0.0215238 0 0.0430459 0 0.114349)
(0.138563 -0.0219247 0 0.041869 0 0.114401)
(0.141322 -0.0222184 0 0.0407607 0 0.114265)
(0.143475 -0.0224617 0 0.0398538 0 0.114085)
(0.14602 -0.0227543 0 0.0386793 0 0.113321)
(0.147169 -0.0230106 0 0.0380618 0 0.112767)
(0.147935 -0.0232325 0 0.03746 0 0.11204)
(0.148057 -0.0232725 0 0.0367217 0 0.110869)
(0.147137 -0.0230119 0 0.0357156 0 0.108916)
(0.144845 -0.0223991 0 0.0344272 0 0.106079)
(0.14105 -0.021472 0 0.0328544 0 0.102262)
(0.135284 -0.0201731 0 0.0309785 0 0.0971916)
(0.126903 -0.0185055 0 0.028781 0 0.0905019)
(0.115574 -0.0165601 0 0.0262954 0 0.0820552)
(0.0998274 -0.0144901 0 0.0234076 0 0.0709634)
(0.0820027 -0.0124069 0 0.0201273 0 0.0586422)
(0.0678816 -0.0102126 0 0.01675 0 0.0485576)
(0.0579823 -0.00786683 0 0.0136338 0 0.0410819)
(0.0525045 -0.00547316 0 0.0111622 0 0.036483)
(0.050795 -0.00333432 0 0.00959316 0 0.0345758)
(0.0510899 -0.00157548 0 0.00883321 0 0.0344531)
(0.0515415 -0.000828198 0 0.00869465 0 0.0348627)
(0.0519331 -0.000204373 0 0.00891022 0 0.0358591)
(0.0526156 0.00032135 0 0.00965158 0 0.0377241)
(0.0561144 0.000935002 0 0.0111867 0 0.0417956)
(0.0650035 0.00219895 0 0.0134597 0 0.0489331)
(0.0764867 0.0039433 0 0.0163232 0 0.0576883)
(0.0898131 0.00596293 0 0.0196821 0 0.0677193)
(0.105107 0.0081374 0 0.0234863 0 0.079139)
(0.122939 0.0104263 0 0.0276975 0 0.0923101)
(0.144729 0.0128716 0 0.0322345 0 0.108102)
(0.166025 0.0155303 0 0.0365727 0 0.123368)
(0.185432 0.0182059 0 0.0407027 0 0.137341)
(0.203547 0.0208583 0 0.0446769 0 0.150417)
(0.220567 0.0234419 0 0.0485052 0 0.162719)
(0.236666 0.0259412 0 0.0521953 0 0.17436)
(0.251935 0.0283414 0 0.055744 0 0.185395)
(0.266443 0.0306366 0 0.0591511 0 0.195874)
(0.280276 0.0328295 0 0.0624254 0 0.205856)
(0.293499 0.0349251 0 0.0655749 0 0.21539)
(0.306172 0.0369308 0 0.0686091 0 0.224521)
(0.318348 0.0388552 0 0.0715383 0 0.233291)
(0.330075 0.0407072 0 0.0743733 0 0.241736)
(0.341401 0.042496 0 0.0771253 0 0.249895)
(0.352376 0.0442299 0 0.0798058 0 0.257806)
(0.363057 0.0459153 0 0.0824265 0 0.265512)
(0.373489 0.0475572 0 0.0849965 0 0.273049)
(0.383695 0.0491599 0 0.0875217 0 0.280434)
(0.393695 0.0507275 0 0.090008 0 0.287682)
(0.403505 0.0522631 0 0.0924598 0 0.294806)
(0.413139 0.0537692 0 0.0948809 0 0.301817)
(0.42261 0.0552474 0 0.0972744 0 0.308722)
(0.431925 0.0566988 0 0.0996425 0 0.315529)
(0.441093 0.0581239 0 0.101987 0 0.322243)
(0.450118 0.0595225 0 0.104308 0 0.328866)
(0.459004 0.0608941 0 0.106605 0 0.3354)
(0.467751 0.0622377 0 0.108879 0 0.341846)
(0.47636 0.0635522 0 0.111128 0 0.348202)
(0.484827 0.0648361 0 0.113349 0 0.354464)
(0.493147 0.0660877 0 0.115541 0 0.360628)
(0.501311 0.0673055 0 0.117699 0 0.366686)
(0.509306 0.0684877 0 0.119819 0 0.372627)
(0.517115 0.0696329 0 0.121897 0 0.378439)
(0.524714 0.0707402 0 0.123928 0 0.384104)
(0.532079 0.071809 0 0.125907 0 0.389605)
(0.539182 0.0728389 0 0.127828 0 0.394924)
(0.546014 0.0738277 0 0.12969 0 0.400058)
(0.552567 0.0747682 0 0.13149 0 0.405009)
(0.558805 0.0756502 0 0.133221 0 0.409759)
(0.564685 0.0764584 0 0.134876 0 0.414288)
(0.570141 0.0771677 0 0.136444 0 0.41857)
(0.575066 0.07773 0 0.137912 0 0.422566)
(0.579296 0.0780226 0 0.139263 0 0.426218)
(0.582931 0.0779909 0 0.140538 0 0.429599)
(0.586891 0.078106 0 0.141913 0 0.433104)
(0.590542 0.078161 0 0.143261 0 0.436448)
(0.594134 0.0782024 0 0.14464 0 0.439772)
(0.597571 0.0782012 0 0.146025 0 0.443024)
(0.600891 0.0781674 0 0.14743 0 0.44623)
(0.60409 0.0780985 0 0.14886 0 0.449389)
(0.607169 0.0779883 0 0.150319 0 0.4525)
(0.610086 0.0778119 0 0.151784 0 0.455536)
(0.612828 0.0775591 0 0.153247 0 0.458488)
(0.615368 0.0772244 0 0.154698 0 0.461336)
(0.617685 0.0768054 0 0.156127 0 0.46406)
(0.619755 0.0763022 0 0.157527 0 0.46664)
(0.621552 0.0757183 0 0.158891 0 0.469052)
(0.623042 0.0750591 0 0.16021 0 0.471269)
(0.624212 0.0743281 0 0.161481 0 0.473285)
(0.625151 0.073506 0 0.162718 0 0.475173)
(0.625873 0.0725909 0 0.163919 0 0.476939)
(0.626391 0.0715818 0 0.165084 0 0.478589)
(0.626712 0.0704785 0 0.166211 0 0.480128)
(0.626841 0.0692806 0 0.167299 0 0.481558)
(0.626787 0.0679855 0 0.168349 0 0.482885)
(0.626567 0.0665838 0 0.169366 0 0.484121)
(0.626231 0.0650646 0 0.170343 0 0.485255)
(0.625747 0.0636664 0 0.171163 0 0.486166)
(0.625076 0.0617866 0 0.172151 0 0.487235)
(0.624386 0.0601738 0 0.172916 0 0.488027)
(0.62376 0.0585107 0 0.173639 0 0.488748)
(0.622976 0.0567669 0 0.174327 0 0.489387)
(0.622065 0.0549619 0 0.174971 0 0.489942)
(0.621069 0.0532403 0 0.175518 0 0.490351)
(0.619106 0.0507158 0 0.176197 0 0.490772)
(0.618161 0.0487612 0 0.176708 0 0.491196)
(0.616928 0.0466613 0 0.177193 0 0.491541)
(0.615788 0.0445519 0 0.177658 0 0.491893)
(0.614685 0.0424015 0 0.178109 0 0.492257)
(0.613917 0.0403876 0 0.178533 0 0.49263)
(0.612672 0.0380934 0 0.178963 0 0.492961)
(0.611954 0.0358833 0 0.179426 0 0.493452)
(0.611358 0.034092 0 0.179802 0 0.493817)
(0.610535 0.0321061 0 0.180201 0 0.494143)
(0.609525 0.0295208 0 0.18076 0 0.494616)
(0.608584 0.0274981 0 0.18125 0 0.495049)
(0.608225 0.0256862 0 0.181756 0 0.495508)
(0.606982 0.0230339 0 0.182494 0 0.496043)
(0.606539 0.0209857 0 0.18328 0 0.49674)
(0.605828 0.0186938 0 0.184206 0 0.497453)
(0.605197 0.016379 0 0.185292 0 0.498264)
(0.604582 0.0140668 0 0.186424 0 0.499008)
(0.603718 0.0115408 0 0.187716 0 0.499759)
(0.602615 0.00885922 0 0.189194 0 0.50054)
(0.60148 0.0061164 0 0.19079 0 0.50128)
(0.600231 0.0030487 0 0.192669 0 0.502126)
(0.598982 -0.000176077 0 0.194651 0 0.502888)
(0.597446 -0.00369608 0 0.19673 0 0.503511)
(0.595773 -0.00739482 0 0.198821 0 0.503984)
(0.593707 -0.0115552 0 0.201077 0 0.504362)
(0.591979 -0.0156108 0 0.203144 0 0.504593)
(0.589474 -0.0208381 0 0.205628 0 0.504632)
(0.587317 -0.0259102 0 0.207905 0 0.504534)
(0.58506 -0.0313058 0 0.210077 0 0.504176)
(0.58285 -0.0369576 0 0.2121 0 0.503585)
(0.580714 -0.042828 0 0.213926 0 0.502737)
(0.578686 -0.0488638 0 0.215513 0 0.50161)
(0.576809 -0.0550253 0 0.216838 0 0.500197)
(0.575173 -0.0613116 0 0.217911 0 0.498521)
(0.573989 -0.0679314 0 0.218853 0 0.496725)
(0.573898 -0.075157 0 0.219836 0 0.495359)
(0.575721 -0.0831977 0 0.220414 0 0.494934)
(0.579168 -0.0907581 0 0.220315 0 0.49506)
(0.581536 -0.0953439 0 0.217481 0 0.493876)
(0.581784 -0.0974158 0 0.212524 0 0.490908)
(0.580839 -0.0990669 0 0.208339 0 0.487347)