/*--------------------------------*- C++ -*----------------------------------*\
| =========                 |                                                 |
| \\      /  F ield         | OpenFOAM: The Open Source CFD Toolbox           |
|  \\    /   O peration     | Version:  v1906                                 |
|   \\  /    A nd           | Web:      www.OpenFOAM.com                      |
|    \\/     M anipulation  |                                                 |
\*---------------------------------------------------------------------------*/
FoamFile
{
    version     2.0;
    format      ascii;
    class       volVectorField;
    location    "1400";
    object      U;
}
// * * * * * * * * * * * * * * * * * * * * * * * * * * * * * * * * * * * * * //

dimensions      [0 1 -1 0 0 0 0];


internalField   nonuniform List<vector> 
12225
(
(9.79726 -0.108749 0)
(9.50669 -0.356753 0)
(9.26435 -0.488264 0)
(9.06591 -0.54081 0)
(8.90292 -0.559435 0)
(8.76177 -0.565106 0)
(8.63558 -0.565538 0)
(8.52225 -0.56351 0)
(8.42043 -0.560103 0)
(8.3287 -0.555892 0)
(8.24605 -0.550974 0)
(8.17035 -0.54536 0)
(8.10135 -0.539533 0)
(8.0388 -0.533761 0)
(7.9834 -0.528248 0)
(7.93625 -0.524401 0)
(7.89909 -0.517049 0)
(7.87758 -0.537524 0)
(10.0492 0.150443 0)
(10.0911 0.259751 0)
(10.0684 0.319251 0)
(10.0256 0.363329 0)
(9.98274 0.392941 0)
(9.93994 0.411582 0)
(9.89711 0.423527 0)
(9.85557 0.431323 0)
(9.81592 0.436164 0)
(9.77793 0.43891 0)
(9.74183 0.440156 0)
(9.70767 0.440347 0)
(9.67555 0.43954 0)
(9.64521 0.437989 0)
(9.61679 0.435207 0)
(9.58935 0.432387 0)
(9.56528 0.424644 0)
(9.54035 0.420076 0)
(10.0166 0.00775937 0)
(10.0499 -0.0105752 0)
(10.0415 -0.0528596 0)
(10.0182 -0.0930353 0)
(9.99665 -0.127439 0)
(9.97696 -0.155804 0)
(9.95808 -0.178114 0)
(9.94031 -0.195488 0)
(9.92367 -0.209267 0)
(9.90794 -0.220454 0)
(9.89297 -0.229565 0)
(9.87898 -0.23707 0)
(9.86583 -0.243369 0)
(9.85394 -0.249115 0)
(9.84273 -0.254443 0)
(9.83294 -0.260761 0)
(9.82396 -0.267284 0)
(9.80796 -0.283244 0)
(10.0096 0.0582948 0)
(10.039 0.0976416 0)
(10.0507 0.115028 0)
(10.0511 0.134101 0)
(10.0492 0.152978 0)
(10.0452 0.169408 0)
(10.0393 0.183396 0)
(10.0325 0.195178 0)
(10.0254 0.204935 0)
(10.0183 0.21297 0)
(10.0112 0.219636 0)
(10.0044 0.225178 0)
(9.99799 0.229678 0)
(9.99225 0.233128 0)
(9.98703 0.235534 0)
(9.98249 0.236535 0)
(9.97842 0.236076 0)
(9.97587 0.232777 0)
(10.0094 0.0199288 0)
(10.0406 0.0291329 0)
(10.0562 0.0220059 0)
(10.0605 0.010965 0)
(10.0618 -0.0022248 0)
(10.0614 -0.016635 0)
(10.0597 -0.0306001 0)
(10.0576 -0.0433567 0)
(10.0553 -0.0548842 0)
(10.053 -0.0652982 0)
(10.0508 -0.0747048 0)
(10.0486 -0.0832648 0)
(10.0467 -0.0912149 0)
(10.0449 -0.0988759 0)
(10.0435 -0.106493 0)
(10.0418 -0.114737 0)
(10.0406 -0.123281 0)
(10.0334 -0.134878 0)
(10.0058 0.033289 0)
(10.0286 0.0620143 0)
(10.045 0.0731174 0)
(10.0548 0.081195 0)
(10.0625 0.0887442 0)
(10.0683 0.0957887 0)
(10.0725 0.102656 0)
(10.0755 0.109297 0)
(10.0779 0.11548 0)
(10.0798 0.121095 0)
(10.0814 0.12614 0)
(10.0829 0.130613 0)
(10.0843 0.134469 0)
(10.0857 0.137595 0)
(10.0871 0.139951 0)
(10.0885 0.141266 0)
(10.0895 0.141657 0)
(10.0921 0.141192 0)
(10.0046 0.0160044 0)
(10.0242 0.029769 0)
(10.04 0.0320556 0)
(10.0498 0.0302267 0)
(10.057 0.0259352 0)
(10.0623 0.0197812 0)
(10.0662 0.0127819 0)
(10.0692 0.00555884 0)
(10.0719 -0.00164916 0)
(10.0743 -0.00872107 0)
(10.0765 -0.015589 0)
(10.0786 -0.0222671 0)
(10.0806 -0.0288376 0)
(10.0826 -0.0354622 0)
(10.0845 -0.0422241 0)
(10.0858 -0.049453 0)
(10.0867 -0.0567528 0)
(10.0839 -0.0655547 0)
(10.0032 0.0203314 0)
(10.0185 0.0433623 0)
(10.0327 0.0543046 0)
(10.0435 0.0607817 0)
(10.0529 0.065347 0)
(10.0608 0.0689065 0)
(10.0676 0.072177 0)
(10.0735 0.0754029 0)
(10.0788 0.0785516 0)
(10.0837 0.0815596 0)
(10.0881 0.0843794 0)
(10.0924 0.0869501 0)
(10.0964 0.0892004 0)
(10.1003 0.0910277 0)
(10.1039 0.0923869 0)
(10.1074 0.093175 0)
(10.1104 0.0934297 0)
(10.1147 0.0938125 0)
(10.0019 0.011541 0)
(10.0136 0.0247915 0)
(10.0263 0.0301077 0)
(10.0364 0.0316271 0)
(10.0451 0.0307725 0)
(10.0522 0.0282208 0)
(10.0582 0.0246797 0)
(10.0633 0.0205747 0)
(10.068 0.0161149 0)
(10.0722 0.0114287 0)
(10.0761 0.00659634 0)
(10.0798 0.00164091 0)
(10.0833 -0.00345068 0)
(10.0865 -0.00874113 0)
(10.0895 -0.0142335 0)
(10.0918 -0.0200453 0)
(10.0936 -0.0258936 0)
(10.0929 -0.0326524 0)
(10.0017 0.0127342 0)
(10.0116 0.0307245 0)
(10.023 0.0410064 0)
(10.0329 0.0472544 0)
(10.0421 0.0512047 0)
(10.0504 0.0538255 0)
(10.0578 0.0558357 0)
(10.0645 0.0575871 0)
(10.0708 0.0592035 0)
(10.0766 0.0607207 0)
(10.0821 0.0621374 0)
(10.0873 0.0634221 0)
(10.0922 0.0645349 0)
(10.0969 0.0654201 0)
(10.1013 0.0660649 0)
(10.1054 0.0664615 0)
(10.1092 0.0666384 0)
(10.1138 0.0673266 0)
(10.0007 0.00803657 0)
(10.0075 0.0191867 0)
(10.0171 0.0250102 0)
(10.0261 0.0277304 0)
(10.0345 0.0283137 0)
(10.042 0.0273951 0)
(10.0486 0.0255123 0)
(10.0546 0.0229905 0)
(10.0601 0.0200132 0)
(10.0651 0.0166943 0)
(10.0698 0.0131047 0)
(10.0742 0.00927761 0)
(10.0782 0.00522763 0)
(10.0819 0.000944872 0)
(10.0853 -0.00354723 0)
(10.0881 -0.00828776 0)
(10.0903 -0.0130936 0)
(10.0911 -0.0185759 0)
(10.0008 0.0081884 0)
(10.0074 0.0215058 0)
(10.0162 0.0300875 0)
(10.0248 0.0356543 0)
(10.0331 0.0391427 0)
(10.041 0.0413067 0)
(10.0483 0.0427099 0)
(10.0551 0.0436846 0)
(10.0614 0.0444077 0)
(10.0674 0.0449698 0)
(10.073 0.0454141 0)
(10.0783 0.0457502 0)
(10.0834 0.0459793 0)
(10.0881 0.0460894 0)
(10.0925 0.0461024 0)
(10.0967 0.0460488 0)
(10.1004 0.0459689 0)
(10.1047 0.0465086 0)
(10.0002 0.0057387 0)
(10.0046 0.0146252 0)
(10.0119 0.019874 0)
(10.0195 0.0227883 0)
(10.0271 0.023891 0)
(10.0343 0.023716 0)
(10.0411 0.0226591 0)
(10.0473 0.0209788 0)
(10.0531 0.0188363 0)
(10.0584 0.0163325 0)
(10.0634 0.0135316 0)
(10.0681 0.0104708 0)
(10.0724 0.00717443 0)
(10.0763 0.00365844 0)
(10.0799 -5.85752e-05 0)
(10.083 -0.00397279 0)
(10.0856 -0.0080158 0)
(10.0876 -0.0126835 0)
(10.0005 0.00539039 0)
(10.005 0.0151764 0)
(10.0118 0.0222246 0)
(10.019 0.0272842 0)
(10.0264 0.0307371 0)
(10.0337 0.0330979 0)
(10.0407 0.0347599 0)
(10.0473 0.0359913 0)
(10.0537 0.0369643 0)
(10.0596 0.0377831 0)
(10.0653 0.0385102 0)
(10.0706 0.0391794 0)
(10.0757 0.0398157 0)
(10.0804 0.0404342 0)
(10.0848 0.0410711 0)
(10.089 0.0417788 0)
(10.0928 0.0425591 0)
(10.0965 0.0440269 0)
(10.0001 0.00341105 0)
(10.0028 0.00899826 0)
(10.008 0.0124164 0)
(10.0141 0.0142839 0)
(10.0207 0.0148277 0)
(10.0273 0.0143727 0)
(10.0337 0.0131648 0)
(10.0399 0.0113763 0)
(10.0457 0.00912587 0)
(10.0511 0.00649281 0)
(10.0563 0.00352961 0)
(10.061 0.000273316 0)
(10.0655 -0.00325287 0)
(10.0696 -0.00702514 0)
(10.0734 -0.011036 0)
(10.0768 -0.0152776 0)
(10.08 -0.0196842 0)
(10.0829 -0.0246948 0)
(10.0002 0.00303396 0)
(10.0031 0.00895333 0)
(10.008 0.0137707 0)
(10.0137 0.0176644 0)
(10.0199 0.0207225 0)
(10.0262 0.0231661 0)
(10.0325 0.0251984 0)
(10.0385 0.0269776 0)
(10.0443 0.0286226 0)
(10.0498 0.0302165 0)
(10.0549 0.0318176 0)
(10.0598 0.0334644 0)
(10.0643 0.0351883 0)
(10.0685 0.0370099 0)
(10.0723 0.0389541 0)
(10.0758 0.0410577 0)
(10.079 0.0432411 0)
(10.0816 0.046037 0)
(10.0001 0.00101473 0)
(10.0022 0.00250848 0)
(10.0063 0.00300579 0)
(10.0115 0.00270105 0)
(10.0174 0.00166353 0)
(10.0235 4.67049e-06 0)
(10.0298 -0.00217886 0)
(10.036 -0.0048179 0)
(10.042 -0.00786097 0)
(10.0479 -0.0112698 0)
(10.0535 -0.0150162 0)
(10.0589 -0.0190747 0)
(10.064 -0.0234254 0)
(10.0688 -0.0280417 0)
(10.0734 -0.0328981 0)
(10.0778 -0.0379688 0)
(10.0819 -0.0431294 0)
(10.0861 -0.0487523 0)
(10 0.000975235 0)
(10.0016 0.00309163 0)
(10.0049 0.00528093 0)
(10.0091 0.00754115 0)
(10.0139 0.00985262 0)
(10.0188 0.0122408 0)
(10.0237 0.0147399 0)
(10.0284 0.0173807 0)
(10.0328 0.0201906 0)
(10.0369 0.0231905 0)
(10.0406 0.0263938 0)
(10.0439 0.0298077 0)
(10.0469 0.0334317 0)
(10.0494 0.0372628 0)
(10.0517 0.0412737 0)
(10.0535 0.0454719 0)
(10.0552 0.0496865 0)
(10.0562 0.0543667 0)
(10.0003 -0.00190724 0)
(10.0031 -0.00586699 0)
(10.008 -0.0097956 0)
(10.0139 -0.0136703 0)
(10.0206 -0.0175507 0)
(10.0277 -0.0215109 0)
(10.0351 -0.0256249 0)
(10.0426 -0.0299541 0)
(10.0502 -0.0345409 0)
(10.0576 -0.0394109 0)
(10.065 -0.0445758 0)
(10.0723 -0.0500361 0)
(10.0794 -0.0557847 0)
(10.0863 -0.0618067 0)
(10.093 -0.0680788 0)
(10.0994 -0.0745786 0)
(10.1054 -0.0812111 0)
(10.1112 -0.0881438 0)
(9.99985 -0.00210038 0)
(10.0009 -0.00535228 0)
(10.0038 -0.00721864 0)
(10.0075 -0.00798659 0)
(10.0116 -0.00785208 0)
(10.0156 -0.00696817 0)
(10.0194 -0.0054735 0)
(10.0227 -0.0034777 0)
(10.0256 -0.0010626 0)
(10.028 0.00171111 0)
(10.03 0.00480162 0)
(10.0314 0.00818335 0)
(10.0325 0.011851 0)
(10.0331 0.0158109 0)
(10.0333 0.0200974 0)
(10.0332 0.0247445 0)
(10.0331 0.0297779 0)
(10.0326 0.0354614 0)
(10.0006 -0.00469947 0)
(10.005 -0.0136546 0)
(10.0115 -0.020893 0)
(10.0187 -0.0267262 0)
(10.0264 -0.031564 0)
(10.0342 -0.035762 0)
(10.0419 -0.0396232 0)
(10.0496 -0.0433564 0)
(10.0571 -0.047082 0)
(10.0645 -0.0508619 0)
(10.0716 -0.0547244 0)
(10.0787 -0.0586816 0)
(10.0856 -0.0627447 0)
(10.0924 -0.0669333 0)
(10.0992 -0.0712976 0)
(10.1061 -0.0759125 0)
(10.1128 -0.0808876 0)
(10.1199 -0.0865791 0)
(9.99993 -0.00474062 0)
(10.0025 -0.0119426 0)
(10.0076 -0.0159926 0)
(10.0131 -0.017807 0)
(10.0182 -0.0179292 0)
(10.0228 -0.0167114 0)
(10.0266 -0.0144948 0)
(10.0298 -0.0115636 0)
(10.0324 -0.00812765 0)
(10.0345 -0.00434643 0)
(10.0361 -0.00034361 0)
(10.0373 0.0037902 0)
(10.0379 0.00799766 0)
(10.0381 0.0122549 0)
(10.0378 0.016592 0)
(10.0366 0.0210976 0)
(10.0351 0.0259506 0)
(10.0319 0.0317045 0)
(10.0012 -0.00956989 0)
(10.0087 -0.0254293 0)
(10.0184 -0.03619 0)
(10.0277 -0.0439353 0)
(10.0367 -0.0500713 0)
(10.0454 -0.0553513 0)
(10.0537 -0.0602844 0)
(10.0614 -0.0651405 0)
(10.0686 -0.0699946 0)
(10.0755 -0.0748347 0)
(10.082 -0.0796234 0)
(10.0882 -0.0843172 0)
(10.0942 -0.0888745 0)
(10.1001 -0.0932676 0)
(10.1061 -0.0975024 0)
(10.1127 -0.101648 0)
(10.1196 -0.105902 0)
(10.1288 -0.110938 0)
(10.0009 -0.00809755 0)
(10.0084 -0.0182366 0)
(10.0179 -0.0219969 0)
(10.0253 -0.0220378 0)
(10.031 -0.019556 0)
(10.0354 -0.0151213 0)
(10.0386 -0.009422 0)
(10.0409 -0.00304414 0)
(10.0427 0.00363994 0)
(10.0441 0.0103829 0)
(10.0451 0.0170053 0)
(10.0459 0.0233827 0)
(10.0463 0.02943 0)
(10.0464 0.0350868 0)
(10.046 0.0403174 0)
(10.0446 0.0451358 0)
(10.0423 0.0496995 0)
(10.036 0.0548093 0)
(10.0027 -0.0199629 0)
(10.0162 -0.0448875 0)
(10.0301 -0.0584579 0)
(10.0411 -0.0683164 0)
(10.0508 -0.0772799 0)
(10.0594 -0.0858816 0)
(10.0668 -0.0943826 0)
(10.0731 -0.102813 0)
(10.0786 -0.110998 0)
(10.0834 -0.118771 0)
(10.0877 -0.126047 0)
(10.0916 -0.132789 0)
(10.0951 -0.138968 0)
(10.0984 -0.144564 0)
(10.1017 -0.149537 0)
(10.1057 -0.153849 0)
(10.1103 -0.157494 0)
(10.1198 -0.161035 0)
(10.0045 -0.0117369 0)
(10.0233 -0.0209979 0)
(10.037 -0.0181177 0)
(10.043 -0.00987422 0)
(10.0456 0.00147971 0)
(10.0467 0.014802 0)
(10.0467 0.0285688 0)
(10.0461 0.0417801 0)
(10.0453 0.0540566 0)
(10.0444 0.0652895 0)
(10.0434 0.0754573 0)
(10.0423 0.0845869 0)
(10.0411 0.0927302 0)
(10.0397 0.0999353 0)
(10.0383 0.106214 0)
(10.036 0.111528 0)
(10.0331 0.115805 0)
(10.024 0.119526 0)
(10.0057 -0.0439018 0)
(10.0279 -0.0818114 0)
(10.0435 -0.101277 0)
(10.051 -0.120658 0)
(10.0557 -0.140524 0)
(10.0585 -0.158869 0)
(10.0591 -0.175267 0)
(10.0583 -0.189733 0)
(10.0567 -0.202242 0)
(10.0546 -0.212911 0)
(10.0522 -0.221971 0)
(10.0495 -0.229647 0)
(10.0468 -0.236123 0)
(10.044 -0.241555 0)
(10.0412 -0.24603 0)
(10.0389 -0.249577 0)
(10.0369 -0.252017 0)
(10.0419 -0.253088 0)
(10.0127 -0.00410015 0)
(10.0433 0.0072748 0)
(10.0436 0.0413166 0)
(10.029 0.07747 0)
(10.0139 0.110697 0)
(10.0004 0.139478 0)
(9.98767 0.163129 0)
(9.97572 0.182084 0)
(9.96465 0.197292 0)
(9.95426 0.209584 0)
(9.94434 0.219544 0)
(9.93481 0.227601 0)
(9.92565 0.234085 0)
(9.91678 0.239249 0)
(9.90829 0.243255 0)
(9.89972 0.246203 0)
(9.89166 0.247979 0)
(9.87663 0.248809 0)
(10.0321 -0.126624 0)
(10.0676 -0.225593 0)
(10.0594 -0.280258 0)
(10.0339 -0.322897 0)
(10.008 -0.353507 0)
(9.98312 -0.374027 0)
(9.95837 -0.387988 0)
(9.93448 -0.397633 0)
(9.91191 -0.404158 0)
(9.89051 -0.408323 0)
(9.87006 -0.410693 0)
(9.85048 -0.41168 0)
(9.83171 -0.411578 0)
(9.81372 -0.410616 0)
(9.79641 -0.408949 0)
(9.78014 -0.406826 0)
(9.76452 -0.404188 0)
(9.75819 -0.400573 0)
(9.86117 0.0769221 0)
(9.66244 0.274096 0)
(9.4881 0.393156 0)
(9.3402 0.447743 0)
(9.21738 0.470365 0)
(9.10945 0.479062 0)
(9.01043 0.481327 0)
(8.91889 0.480335 0)
(8.83428 0.477601 0)
(8.75593 0.473843 0)
(8.68321 0.469401 0)
(8.61568 0.464454 0)
(8.55294 0.459106 0)
(8.49457 0.453439 0)
(8.44016 0.447443 0)
(8.38913 0.441286 0)
(8.34115 0.434049 0)
(8.29018 0.426473 0)
(-0.0264692 -0.166043 -2.18021e-19)
(0.139836 -0.219972 1.23113e-19)
(0.252058 -0.237088 0)
(0.344496 -0.222296 0)
(0.426667 -0.204959 0)
(0.498831 -0.187893 -5.83713e-20)
(0.561933 -0.173732 0)
(0.618787 -0.161274 0)
(0.670892 -0.150645 0)
(0.719075 -0.141311 0)
(0.763631 -0.13312 4.5513e-20)
(0.804735 -0.125799 0)
(0.842431 -0.119214 0)
(0.876731 -0.113218 0)
(0.907613 -0.107711 0)
(0.935105 -0.10261 4.07006e-20)
(0.959262 -0.0978487 0)
(0.980234 -0.0933593 0)
(0.998165 -0.089086 0)
(1.0135 -0.0849375 0)
(1.02636 -0.0808003 0)
(1.03725 -0.0763647 0)
(1.04649 -0.0714155 0)
(1.0533 -0.0654658 3.85403e-20)
(1.05684 -0.0573408 -3.86836e-20)
(1.05314 -0.0455665 3.88388e-20)
(1.03982 -0.030132 3.91734e-20)
(1.0143 -0.0120027 0)
(0.974619 0.00705385 0)
(0.91967 0.0249576 -4.2032e-20)
(0.850316 0.0399443 -4.3917e-20)
(0.768984 0.0510488 0)
(0.677667 0.0573973 0)
(0.58072 0.0577812 -5.45861e-20)
(0.485102 0.0518501 0)
(0.397012 0.0410527 0)
(0.321156 0.027815 7.56339e-20)
(0.258016 0.0151232 0)
(0.201853 0.00640258 9.26138e-20)
(0.143326 0.00590684 2.05639e-19)
(0.0766149 0.0130214 0)
(-0.00551279 0.0181176 0)
(-0.0935227 0.0202597 0)
(-0.184376 0.0220756 0)
(-0.279642 0.0221023 0)
(-0.376875 0.0197635 1.29046e-19)
(-0.474662 0.0157974 1.15087e-19)
(-0.569738 0.0115431 1.04372e-19)
(-0.662131 0.00764903 0)
(-0.752768 0.00346007 -8.90501e-20)
(-0.840367 -0.00151505 0)
(-0.924435 -0.00728889 7.87806e-20)
(-1.00453 -0.0137466 7.48594e-20)
(-1.08043 -0.0207008 0)
(-1.15208 -0.0279686 0)
(-1.21953 -0.0353913 0)
(-1.28297 -0.0428449 6.40528e-20)
(-1.34263 -0.0502463 0)
(-1.39881 -0.0575459 0)
(-1.45179 -0.0647231 0)
(-1.50186 -0.0717769 0)
(-1.54929 -0.0787202 0)
(-1.59432 -0.085572 0)
(-1.63715 -0.0923555 0)
(-1.67796 -0.0990965 0)
(-1.71691 -0.105823 -5.22012e-20)
(-1.75412 -0.112559 0)
(-1.78971 -0.119331 0)
(-1.82376 -0.126157 4.97011e-20)
(-1.85633 -0.133053 4.8946e-20)
(-1.88749 -0.140032 0)
(-1.91726 -0.1471 -4.75271e-20)
(-1.9457 -0.15426 4.68567e-20)
(-1.97281 -0.161511 0)
(-1.99862 -0.168846 -4.55794e-20)
(-2.02314 -0.176253 0)
(-2.04638 -0.183717 0)
(-2.06834 -0.191218 4.37885e-20)
(-2.08901 -0.198735 0)
(-2.10838 -0.206245 -4.26567e-20)
(-2.12644 -0.213723 0)
(-2.14315 -0.221145 4.15643e-20)
(-2.15847 -0.228485 4.1033e-20)
(-2.17234 -0.235713 4.0512e-20)
(-2.18468 -0.242788 7.99974e-20)
(-2.19542 -0.249664 -7.89842e-20)
(-2.20446 -0.256275 0)
(-2.21175 -0.262533 0)
(-2.21729 -0.268326 0)
(-2.22109 -0.273524 -7.5028e-20)
(-2.22321 -0.277981 -7.4035e-20)
(-2.22396 -0.281688 7.30201e-20)
(-2.22386 -0.284867 0)
(-2.22285 -0.287567 -7.09472e-20)
(-2.22097 -0.289755 -6.98752e-20)
(-2.21816 -0.291435 -6.87743e-20)
(-2.21433 -0.292628 0)
(-2.2094 -0.293444 0)
(-2.2034 -0.294095 0)
(-2.19637 -0.294692 -6.40361e-20)
(-2.18834 -0.2953 0)
(-2.1793 -0.295965 0)
(-2.16927 -0.296711 6.00597e-20)
(-2.15823 -0.297552 0)
(-2.14617 -0.298496 0)
(-2.13309 -0.299547 5.5672e-20)
(-2.11895 -0.300699 0)
(-2.10373 -0.301945 0)
(-2.08743 -0.30328 -5.0808e-20)
(-2.07005 -0.304702 -4.90589e-20)
(-2.05159 -0.306208 0)
(-2.03207 -0.307797 4.53539e-20)
(-2.01149 -0.309474 0)
(-1.98988 -0.311214 -4.13578e-20)
(-1.96726 -0.313056 0)
(-1.9437 -0.31498 -3.70526e-20)
(-1.9192 -0.316991 -3.47791e-20)
(-1.89381 -0.319034 0)
(-1.86753 -0.321109 0)
(-1.84048 -0.323251 0)
(-1.81271 -0.32541 0)
(-1.78434 -0.32773 0)
(-1.75557 -0.330121 0)
(-1.72621 -0.33251 0)
(-1.69652 -0.334964 -1.34714e-20)
(-1.66652 -0.337495 1.04005e-20)
(-1.63628 -0.340003 0)
(-1.60579 -0.342596 0)
(-1.57531 -0.345298 0)
(-1.54469 -0.347963 0)
(-1.51401 -0.350678 -1.27606e-20)
(-1.48329 -0.353467 0)
(-1.45256 -0.356518 2.76011e-20)
(-1.42186 -0.359558 -3.5355e-20)
(-1.39072 -0.362748 0)
(-1.35956 -0.366168 0)
(-1.32772 -0.369675 0)
(-1.29533 -0.37337 6.91471e-20)
(-1.26198 -0.377194 7.84726e-20)
(-1.22742 -0.381276 0)
(-1.19154 -0.385727 9.85738e-20)
(-1.15382 -0.390504 1.09507e-19)
(-1.11359 -0.39575 -1.21164e-19)
(-1.07068 -0.401369 0)
(-1.0247 -0.407389 0)
(-0.975194 -0.413831 -1.6183e-19)
(-0.921777 -0.42099 0)
(-0.864465 -0.428479 0)
(-0.802282 -0.436601 0)
(-0.735791 -0.445348 0)
(-0.664357 -0.454618 2.60363e-19)
(-0.588191 -0.464501 2.87332e-19)
(-0.507292 -0.475032 0)
(-0.421852 -0.486263 3.52415e-19)
(-0.332091 -0.498244 0)
(-0.238404 -0.510896 0)
(-0.141527 -0.523393 4.9177e-19)
(-0.0420287 -0.533504 0)
(0.0604663 -0.530959 5.61041e-19)
(0.169023 -0.519219 0)
(0.278817 -0.504899 0)
(0.388543 -0.489496 4.96362e-19)
(0.497348 -0.475336 0)
(0.604654 -0.46277 4.65386e-19)
(0.710163 -0.451457 0)
(0.813606 -0.44106 0)
(0.914747 -0.431369 0)
(1.01336 -0.42226 -4.19989e-19)
(1.1093 -0.413668 0)
(1.20237 -0.405542 4.02707e-19)
(1.29252 -0.397864 0)
(1.37951 -0.390584 0)
(1.46345 -0.38372 0)
(1.54361 -0.377172 0)
(1.62068 -0.37104 0)
(1.69204 -0.365133 0)
(1.76124 -0.359586 0)
(1.81348 -0.35435 -7.1837e-19)
(1.87467 -0.347291 0)
(1.83752 -0.340134 0)
(-0.0955072 -0.309653 3.88166e-19)
(0.167167 -0.290904 -2.06906e-19)
(0.168806 -0.266869 0)
(0.220339 -0.19873 6.86214e-20)
(0.254628 -0.166764 0)
(0.296617 -0.133814 2.62551e-20)
(0.335393 -0.116293 -4.95768e-20)
(0.377452 -0.100845 -4.70891e-20)
(0.418417 -0.090523 0)
(0.458861 -0.0805836 -4.3785e-20)
(0.497178 -0.0715567 -2.10808e-20)
(0.532975 -0.0621437 0)
(0.565613 -0.0526128 0)
(0.594818 -0.0427647 0)
(0.620335 -0.032848 0)
(0.642075 -0.0230284 -1.90336e-20)
(0.660074 -0.0136314 0)
(0.674564 -0.00497715 3.69477e-20)
(0.685907 0.00254275 0)
(0.694792 0.00848072 0)
(0.7023 0.0126294 -3.55215e-20)
(0.709323 0.015039 0)
(0.716953 0.0169531 3.52487e-20)
(0.725734 0.0207182 -1.76141e-20)
(0.735629 0.0291889 1.76824e-20)
(0.746347 0.0436552 -1.77097e-20)
(0.753566 0.0641459 -1.76141e-20)
(0.752638 0.0907531 0)
(0.739135 0.122363 0)
(0.710082 0.156291 1.70386e-20)
(0.66416 0.188794 -1.70985e-20)
(0.60175 0.216323 0)
(0.524863 0.235702 0)
(0.437053 0.243414 1.61204e-20)
(0.342824 0.23649 0)
(0.245618 0.215751 0)
(0.146178 0.189351 -1.72897e-20)
(0.0431198 0.171291 0)
(-0.0660743 0.170464 1.78413e-20)
(-0.179583 0.182568 -3.36313e-20)
(-0.29335 0.199214 0)
(-0.406322 0.214735 0)
(-0.517834 0.227172 -5.96424e-20)
(-0.626293 0.235828 -5.77389e-20)
(-0.729353 0.240234 -5.62704e-20)
(-0.825379 0.240508 2.79439e-20)
(-0.913413 0.237338 -2.69427e-20)
(-0.992723 0.231885 -8.09044e-20)
(-1.0627 0.225059 5.39118e-20)
(-1.12301 0.217248 2.65642e-20)
(-1.17397 0.208762 0)
(-1.21633 0.200055 -2.63652e-20)
(-1.25104 0.191521 2.67644e-20)
(-1.27913 0.183486 0)
(-1.30158 0.176178 0)
(-1.31932 0.16974 0)
(-1.33316 0.164236 -2.56682e-20)
(-1.34377 0.15967 0)
(-1.35172 0.156007 5.11552e-20)
(-1.35748 0.153179 0)
(-1.36141 0.151108 5.06004e-20)
(-1.3638 0.149707 0)
(-1.36487 0.148895 -5.01135e-20)
(-1.36481 0.148601 0)
(-1.36375 0.148766 4.96431e-20)
(-1.36182 0.149336 -2.48872e-20)
(-1.3591 0.150268 0)
(-1.35567 0.151526 -4.89212e-20)
(-1.3516 0.153079 -2.41486e-20)
(-1.34696 0.154902 -2.40216e-20)
(-1.34181 0.156975 0)
(-1.33623 0.159279 -2.41517e-20)
(-1.33027 0.161798 -2.36219e-20)
(-1.324 0.164515 0)
(-1.31751 0.167416 2.33331e-20)
(-1.31085 0.170479 -4.6779e-20)
(-1.30413 0.173682 0)
(-1.29742 0.176998 -2.28517e-20)
(-1.29083 0.180393 0)
(-1.28446 0.183831 6.79248e-20)
(-1.27844 0.187267 0)
(-1.27293 0.190649 -6.67629e-20)
(-1.26809 0.193923 -2.18922e-20)
(-1.26412 0.197031 2.21686e-20)
(-1.26126 0.199927 4.39162e-20)
(-1.25973 0.202574 -4.34748e-20)
(-1.25975 0.204956 0)
(-1.26151 0.207069 0)
(-1.26507 0.208923 0)
(-1.27033 0.210524 1.22322e-19)
(-1.27716 0.211882 3.98495e-20)
(-1.285 0.213074 -3.92747e-20)
(-1.29295 0.214051 0)
(-1.30107 0.214538 -3.92938e-20)
(-1.30911 0.214457 3.74724e-20)
(-1.31707 0.213734 3.68324e-20)
(-1.32494 0.2123 0)
(-1.33279 0.210136 0)
(-1.34017 0.20769 0)
(-1.34684 0.205143 3.39749e-20)
(-1.35259 0.202555 0)
(-1.35729 0.199987 -6.62439e-20)
(-1.36084 0.197461 -9.61561e-20)
(-1.36318 0.19499 6.2938e-20)
(-1.36426 0.192576 0)
(-1.36405 0.19022 3.05686e-20)
(-1.36252 0.187927 0)
(-1.35965 0.185708 5.58855e-20)
(-1.35543 0.183574 -2.78692e-20)
(-1.34984 0.181532 -2.6905e-20)
(-1.34286 0.17959 0)
(-1.33451 0.177754 -7.08841e-20)
(-1.3248 0.176029 4.57132e-20)
(-1.31372 0.174423 2.07651e-20)
(-1.30134 0.172971 0)
(-1.28769 0.171671 1.83973e-20)
(-1.27283 0.170496 5.35598e-20)
(-1.25676 0.169408 0)
(-1.23956 0.168466 3.13585e-20)
(-1.22134 0.167734 2.87501e-20)
(-1.20218 0.167214 2.60823e-20)
(-1.18227 0.166903 0)
(-1.16158 0.166731 0)
(-1.14027 0.166699 0)
(-1.11846 0.166811 -8.59878e-21)
(-1.0963 0.16706 -4.81298e-21)
(-1.07382 0.167429 0)
(-1.05126 0.167942 -5.99691e-21)
(-1.02871 0.168542 -2.9539e-21)
(-1.00619 0.169173 0)
(-0.984013 0.16987 5.70655e-21)
(-0.961985 0.17057 1.28059e-20)
(-0.940585 0.171329 -1.21062e-20)
(-0.919254 0.171914 -1.02932e-20)
(-0.898567 0.172417 0)
(-0.87805 0.172742 0)
(-0.857764 0.172779 0)
(-0.837483 0.172522 -2.89576e-20)
(-0.816934 0.171906 2.713e-20)
(-0.79585 0.170993 6.6952e-20)
(-0.773875 0.169672 -4.00332e-20)
(-0.75033 0.167785 3.82627e-20)
(-0.725132 0.165493 4.808e-20)
(-0.697575 0.162715 0)
(-0.667401 0.159589 0)
(-0.633684 0.155955 -5.53144e-20)
(-0.596488 0.152125 0)
(-0.554749 0.147908 0)
(-0.5085 0.143463 1.47823e-19)
(-0.457235 0.138873 0)
(-0.400772 0.134188 8.21892e-20)
(-0.339013 0.129492 -9.58002e-20)
(-0.27193 0.124831 0)
(-0.199629 0.12023 1.0235e-19)
(-0.122155 0.115692 0)
(-0.0396857 0.111189 0)
(0.0475904 0.106247 -1.31698e-19)
(0.139223 0.101626 2.63276e-19)
(0.233944 0.0994835 -1.389e-19)
(0.328657 0.0999111 0)
(0.425728 0.0996919 0)
(0.525449 0.0994345 1.4008e-19)
(0.626475 0.100257 0)
(0.727504 0.101989 1.449e-19)
(0.827719 0.10426 0)
(0.926606 0.106819 0)
(1.02382 0.109525 0)
(1.11908 0.112311 1.5821e-19)
(1.21218 0.115118 0)
(1.30289 0.117948 -1.60276e-19)
(1.39113 0.120748 0)
(1.47659 0.123621 0)
(1.55937 0.126443 3.19524e-19)
(1.63878 0.129592 -3.20781e-19)
(1.7155 0.132647 0)
(1.78714 0.136907 0)
(1.85663 0.141494 0)
(1.91524 0.150234 9.82059e-19)
(1.97523 0.167578 0)
(2.01741 0.200244 -6.77229e-19)
(-0.222891 -0.476363 6.7908e-22)
(0.157396 -0.363412 2.38954e-19)
(0.013892 -0.359589 0)
(0.116665 -0.301376 -1.05118e-19)
(0.0954116 -0.301508 0)
(0.150659 -0.281601 0)
(0.171824 -0.279613 -1.84755e-22)
(0.216794 -0.266036 3.14143e-20)
(0.252774 -0.256644 2.98672e-20)
(0.29437 -0.241192 2.84507e-20)
(0.331178 -0.225816 0)
(0.366852 -0.207844 0)
(0.398422 -0.189792 -2.58962e-20)
(0.426529 -0.170941 -5.0365e-20)
(0.450012 -0.152255 4.90109e-20)
(0.46861 -0.133776 0)
(0.481686 -0.116193 4.65579e-20)
(0.488877 -0.0998146 -2.26998e-20)
(0.489456 -0.0853631 0)
(0.482801 -0.0740301 4.41589e-20)
(0.469702 -0.0659395 2.18137e-20)
(0.452316 -0.0605246 -4.33005e-20)
(0.433044 -0.0572785 -2.14813e-20)
(0.413197 -0.0538685 0)
(0.391914 -0.0452001 4.25314e-20)
(0.367778 -0.0244228 4.23452e-20)
(0.340282 0.012917 0)
(0.309112 0.0656836 4.17432e-20)
(0.273103 0.128059 0)
(0.231326 0.192905 4.1209e-20)
(0.183198 0.254498 2.03384e-20)
(0.12871 0.307588 0)
(0.0682121 0.34597 0)
(0.00218551 0.365212 0)
(-0.0703022 0.366745 0)
(-0.151779 0.358664 0)
(-0.244946 0.351564 0)
(-0.348497 0.352173 3.78907e-20)
(-0.456667 0.35997 -5.49609e-20)
(-0.562651 0.370247 0)
(-0.661824 0.378307 0)
(-0.75198 0.38051 0)
(-0.832272 0.375308 -5.37958e-22)
(-0.902257 0.362992 3.18894e-20)
(-0.962327 0.344418 6.32886e-20)
(-1.01339 0.320835 -6.25166e-20)
(-1.05659 0.293791 -3.11993e-20)
(-1.09315 0.264929 3.05409e-20)
(-1.12417 0.235605 3.78019e-22)
(-1.15079 0.20679 3.05603e-20)
(-1.17416 0.179242 0)
(-1.19531 0.153518 3.01806e-20)
(-1.21504 0.129941 2.40679e-22)
(-1.23398 0.108636 0)
(-1.25256 0.0895692 0)
(-1.27106 0.0725993 -2.93358e-20)
(-1.28966 0.057521 0)
(-1.30843 0.0440998 0)
(-1.3274 0.0320983 2.88244e-20)
(-1.34658 0.0212893 5.69042e-20)
(-1.36595 0.0114668 -2.80895e-20)
(-1.38549 0.0024472 0)
(-1.40517 -0.00592722 2.76749e-20)
(-1.42497 -0.0137894 0)
(-1.44487 -0.0212467 2.75731e-20)
(-1.46485 -0.0283861 2.7066e-20)
(-1.48487 -0.0352762 -5.40468e-20)
(-1.50491 -0.0419717 -2.69878e-20)
(-1.52494 -0.0485141 0)
(-1.54492 -0.0549348 5.28725e-20)
(-1.5648 -0.061256 0)
(-1.58453 -0.0674935 7.79671e-20)
(-1.60407 -0.0736572 5.17051e-20)
(-1.62334 -0.0797525 5.13148e-20)
(-1.64229 -0.0857784 -5.0923e-20)
(-1.66086 -0.091728 7.56047e-20)
(-1.67899 -0.0975855 0)
(-1.69661 -0.103328 0)
(-1.71367 -0.10892 -4.9331e-20)
(-1.73011 -0.11432 -7.31848e-20)
(-1.7459 -0.11947 0)
(-1.761 -0.124303 2.38429e-20)
(-1.77537 -0.128747 0)
(-1.78902 -0.132732 -7.06979e-20)
(-1.80191 -0.136207 4.38499e-22)
(-1.81407 -0.13916 -4.45839e-22)
(-1.82548 -0.141633 4.6025e-20)
(-1.83617 -0.143739 0)
(-1.84615 -0.145653 -4.51769e-20)
(-1.8554 -0.147601 4.90206e-22)
(-1.86394 -0.149831 0)
(-1.87177 -0.152382 0)
(-1.87885 -0.154938 0)
(-1.8851 -0.157238 4.22303e-20)
(-1.89043 -0.159152 0)
(-1.89467 -0.160515 0)
(-1.89761 -0.161262 0)
(-1.899 -0.161459 0)
(-1.89914 -0.161664 0)
(-1.89813 -0.161997 3.90107e-20)
(-1.89608 -0.162442 0)
(-1.89299 -0.163011 3.68325e-20)
(-1.88889 -0.163689 3.59949e-20)
(-1.88375 -0.164457 -3.51236e-20)
(-1.87757 -0.165298 0)
(-1.87033 -0.166204 -3.328e-20)
(-1.86201 -0.167178 0)
(-1.8526 -0.168217 -3.12865e-20)
(-1.84209 -0.169311 3.02292e-20)
(-1.83045 -0.170448 8.88162e-20)
(-1.81769 -0.171614 0)
(-1.8038 -0.172794 8.19031e-20)
(-1.78878 -0.173969 2.70775e-20)
(-1.77266 -0.175117 0)
(-1.75544 -0.176226 4.76048e-20)
(-1.73713 -0.1773 4.496e-20)
(-1.71776 -0.178342 -6.25876e-20)
(-1.69737 -0.179325 0)
(-1.67604 -0.180187 -1.75085e-20)
(-1.65383 -0.180899 -1.60419e-20)
(-1.63074 -0.18147 -4.52609e-20)
(-1.60683 -0.181921 0)
(-1.58216 -0.182248 0)
(-1.55683 -0.182425 0)
(-1.53089 -0.182444 -9.97228e-21)
(-1.50443 -0.182307 0)
(-1.47753 -0.181986 0)
(-1.45024 -0.181492 3.32514e-21)
(-1.42262 -0.180872 1.63659e-21)
(-1.39475 -0.180084 0)
(-1.36665 -0.179178 0)
(-1.33835 -0.178155 -7.08125e-21)
(-1.30983 -0.177102 0)
(-1.28105 -0.176056 1.41741e-20)
(-1.25201 -0.175035 1.59029e-20)
(-1.22253 -0.174152 0)
(-1.19253 -0.173429 0)
(-1.16182 -0.17291 -2.70267e-20)
(-1.13018 -0.172677 -1.99188e-21)
(-1.09727 -0.172872 -2.02192e-21)
(-1.06271 -0.173705 0)
(-1.02627 -0.175008 -8.83096e-20)
(-0.987681 -0.176763 0)
(-0.946497 -0.179075 0)
(-0.902211 -0.182002 0)
(-0.854374 -0.185473 6.38041e-20)
(-0.802661 -0.189441 0)
(-0.746579 -0.193863 -1.44075e-19)
(-0.685948 -0.198589 -7.99633e-20)
(-0.620476 -0.203511 0)
(-0.550038 -0.208482 -9.19666e-20)
(-0.474601 -0.213349 0)
(-0.394231 -0.217977 0)
(-0.309148 -0.222232 -3.30724e-19)
(-0.219698 -0.225985 2.33063e-19)
(-0.126459 -0.229217 0)
(-0.0300845 -0.231991 2.62406e-19)
(0.0689113 -0.234559 -1.39859e-19)
(0.170254 -0.237484 0)
(0.273324 -0.240109 0)
(0.377345 -0.240934 0)
(0.481439 -0.240252 -4.67765e-19)
(0.58543 -0.238677 0)
(0.689105 -0.236578 -1.65294e-19)
(0.792084 -0.234103 0)
(0.893931 -0.231316 0)
(0.994265 -0.228263 0)
(1.09276 -0.224978 0)
(1.18917 -0.221512 0)
(1.28327 -0.217874 0)
(1.37496 -0.214127 -3.66257e-19)
(1.46396 -0.210196 0)
(1.5504 -0.206192 -1.88611e-19)
(1.63356 -0.201807 5.67404e-19)
(1.71427 -0.197379 0)
(1.78992 -0.191808 0)
(1.86444 -0.186 -3.86233e-19)
(1.92765 -0.176214 -3.9269e-19)
(1.99741 -0.163405 3.94774e-19)
(2.04318 -0.140125 4.09939e-19)
(-0.302202 -0.519683 -5.87813e-19)
(0.152259 -0.359372 -3.24811e-19)
(-0.065415 -0.373932 -1.23522e-19)
(0.0698682 -0.317212 -4.53719e-20)
(-0.00092308 -0.303814 0)
(0.0584522 -0.288758 6.19453e-20)
(0.0373912 -0.287258 -2.77072e-20)
(0.0718327 -0.281245 0)
(0.0775321 -0.274283 -2.37796e-20)
(0.105581 -0.258096 0)
(0.122771 -0.239401 4.37541e-20)
(0.146694 -0.216377 0)
(0.164352 -0.191709 2.04451e-20)
(0.181471 -0.16439 3.98149e-20)
(0.192842 -0.135391 -3.88584e-20)
(0.199908 -0.104733 0)
(0.200897 -0.0733275 -3.73376e-20)
(0.196365 -0.0411173 0)
(0.185322 -0.00810213 0)
(0.165756 0.0222984 -3.61949e-20)
(0.13747 0.0447257 0)
(0.103815 0.0567537 -9.27469e-23)
(0.0671055 0.0613915 0)
(0.0271276 0.0670977 0)
(-0.0175708 0.0813871 9.08433e-23)
(-0.0660795 0.104903 -3.50858e-20)
(-0.116095 0.137253 -3.46257e-20)
(-0.165493 0.180078 -3.39184e-20)
(-0.213488 0.232788 0)
(-0.25995 0.290825 -6.53929e-20)
(-0.305106 0.348117 0)
(-0.349211 0.399008 -3.15313e-20)
(-0.393557 0.439096 0)
(-0.44077 0.466805 0)
(-0.493945 0.483875 2.97714e-20)
(-0.554554 0.493905 0)
(-0.62111 0.500031 -2.85983e-20)
(-0.689275 0.5034 4.85109e-22)
(-0.754004 0.503352 5.40684e-20)
(-0.811635 0.498717 -5.31726e-20)
(-0.860388 0.488741 0)
(-0.900172 0.473106 0)
(-0.932058 0.45236 -2.51624e-20)
(-0.957607 0.427741 0)
(-0.978559 0.400659 -2.34843e-20)
(-0.996633 0.372486 2.31528e-20)
(-1.01333 0.344518 2.28767e-20)
(-1.02976 0.317816 0)
(-1.04668 0.293105 -2.2446e-20)
(-1.06451 0.270779 -2.22681e-20)
(-1.08344 0.250983 4.4698e-20)
(-1.10344 0.233687 -2.1947e-20)
(-1.12434 0.218741 -2.17961e-20)
(-1.14592 0.205937 0)
(-1.16791 0.195041 0)
(-1.19008 0.185822 2.13614e-20)
(-1.21221 0.178064 0)
(-1.23414 0.171572 0)
(-1.25576 0.166173 -4.18942e-20)
(-1.277 0.161713 -4.16288e-20)
(-1.29779 0.15806 0)
(-1.31811 0.155098 0)
(-1.33794 0.15273 0)
(-1.35726 0.150872 0)
(-1.37608 0.14945 -4.0384e-20)
(-1.39438 0.148403 4.04658e-20)
(-1.41217 0.147674 3.99165e-20)
(-1.42943 0.147215 7.96945e-20)
(-1.44618 0.146984 0)
(-1.46242 0.146944 3.23408e-22)
(-1.47816 0.147064 0)
(-1.49341 0.147319 -3.87899e-20)