/*--------------------------------*- C++ -*----------------------------------*\
| =========                 |                                                 |
| \\      /  F ield         | OpenFOAM: The Open Source CFD Toolbox           |
|  \\    /   O peration     | Version:  v1906                                 |
|   \\  /    A nd           | Web:      www.OpenFOAM.com                      |
|    \\/     M anipulation  |                                                 |
\*---------------------------------------------------------------------------*/
FoamFile
{
    version     2.0;
    format      ascii;
    class       volScalarField;
    location    "300";
    object      epsilon;
}
// * * * * * * * * * * * * * * * * * * * * * * * * * * * * * * * * * * * * * //

dimensions      [0 2 -3 0 0 0 0];


internalField   nonuniform List<scalar> 
12225
(
8534.02
8352.98
7991.54
7605.31
7245.09
6923.3
6641.18
6395.82
6179.5
5993.66
5824.07
5685.66
5577.34
5489.75
5414.03
5359.54
5301.3
5284.48
612.839
1496.59
1698.45
1688.96
1643.02
1564.65
1506.64
1460.3
1422.01
1389.03
1361.39
1336.7
1317.14
1300.1
1283.62
1271.59
1247.09
1240.36
136.092
458.844
618.674
686.863
717.265
720.553
717.425
710.003
700
689.349
679.204
669.14
659.721
651.158
642.29
635.521
625.312
620.316
58.4937
196.177
292.42
349.143
383.787
402.588
412.91
418.077
419.482
418.913
417.317
414.546
411.229
407.784
403.916
400.569
395.717
393.391
35.9826
104.794
162.95
203.252
231.257
250.07
262.795
271.414
277.014
280.531
282.666
283.722
283.842
283.574
282.853
281.907
280.159
279.77
26.8373
65.6316
102.214
130.421
151.685
167.44
179.131
187.855
194.325
199.098
202.621
205.182
206.939
208.141
208.879
209.277
209.268
209.615
22.3039
46.1275
70.0851
90.0234
105.97
118.526
128.398
136.185
142.332
147.186
151.03
154.073
156.455
158.317
159.753
160.848
161.603
162.537
19.7653
35.3011
51.5613
65.8853
77.8873
87.7636
95.8535
102.488
107.936
112.418
116.116
119.174
121.698
123.781
125.498
126.908
128.044
129.21
18.2247
28.7905
40.1551
50.6123
59.7132
67.4659
74.0218
79.5593
84.2404
88.2041
91.5683
94.4305
96.8681
98.9465
100.72
102.235
103.532
104.787
17.2351
24.6369
32.7695
40.5164
47.4781
53.5822
58.8813
63.467
67.434
70.8692
73.8491
76.4394
78.6948
80.6618
82.3804
83.8853
85.2155
86.4694
16.5717
21.8677
27.796
33.6085
38.9788
43.807
48.0946
51.8827
55.224
58.1716
60.7745
63.0768
65.1165
66.927
68.5376
69.9755
71.2725
72.4861
16.1499
20.1176
24.6288
29.1525
33.4258
37.3466
40.8929
44.0792
46.9339
49.4894
51.7781
53.83
55.6723
57.3295
58.824
60.1774
61.4151
62.575
15.8381
18.8306
22.2854
25.8241
29.2383
32.4323
35.3726
38.0567
40.4969
42.7114
44.7205
46.544
48.201
49.7094
51.0863
52.3489
53.5173
54.6185
15.58
17.7732
20.3492
23.049
25.7142
28.2609
30.6505
32.87
34.9198
36.8072
38.5428
40.1384
41.6064
42.9592
44.2094
45.3703
46.4577
47.4917
15.3747
16.9404
18.8156
20.8308
22.8709
24.8662
26.7782
28.5877
30.2874
31.8766
33.359
34.74
36.0269
37.2278
38.3516
39.4085
40.4111
41.3749
15.2204
16.321
17.6682
19.1566
20.7054
22.2591
23.7821
25.2528
26.6593
27.9957
29.2605
30.4549
31.5823
32.6474
33.6566
34.6178
35.5408
36.4381
15.1157
15.9046
16.8926
18.0154
19.2166
20.4527
21.6919
22.9125
24.1
25.2456
26.3449
27.396
28.3998
29.3589
30.278
31.1631
32.0227
32.867
15.0633
15.6971
16.5042
17.4395
18.4596
19.5279
20.6155
21.7012
22.7697
23.8112
24.8196
25.7918
26.7275
27.6281
28.4971
29.3402
30.1652
30.9827
15.0796
15.7608
16.6219
17.6119
18.684
19.7998
20.9302
22.0539
23.1563
24.2278
25.2629
26.2589
27.2155
28.1344
29.0191
29.8745
30.708
31.5288
15.1995
16.2357
17.5062
18.9149
20.3872
21.8713
23.3329
24.7509
26.1129
27.4127
28.6479
29.8192
30.929
31.9811
32.9808
33.9339
34.8476
35.7305
15.4079
17.0696
19.0473
21.1609
23.2913
25.3683
27.3539
29.2303
30.9913
32.6373
34.1725
35.6035
36.9376
38.1832
39.3485
40.4419
41.4714
42.443
15.7678
18.528
21.7184
25.0034
28.1936
31.199
33.9857
36.5479
38.8938
41.038
42.9972
44.7886
46.4289
47.9339
49.3183
50.5953
51.7762
52.8638
16.3875
21.0691
26.3247
31.5238
36.3766
40.7869
44.747
48.2842
51.4382
54.251
56.7627
59.0098
61.0248
62.8367
64.4717
65.9522
67.2973
68.5015
17.4995
25.6635
34.5374
42.9047
50.3626
56.8698
62.5066
67.3765
71.5856
75.231
78.3959
81.1517
83.5585
85.6672
87.5231
89.1637
90.6272
91.8937
19.6481
34.5788
50.112
63.8443
75.3997
84.9948
92.9471
99.5258
104.981
109.521
113.311
116.484
119.148
121.388
123.285
124.894
126.299
127.448
24.3003
53.9072
82.4195
105.394
123.286
137.178
147.998
156.356
162.848
167.913
171.859
174.929
177.311
179.134
180.552
181.614
182.495
183.063
36.4927
103.33
158.523
197.294
224.186
242.949
256.012
264.629
270.434
274.257
276.593
277.881
278.393
278.309
277.982
277.27
276.547
275.536
81.613
262.537
372.106
433.166
466.602
484.721
492.954
493.639
492.436
489.56
485.396
480.796
476.103
471.267
466.74
462.046
458.163
453.882
390.159
975.311
1160.26
1205.65
1197.81
1174.31
1134.92
1095.3
1064.05
1038.32
1016.45
997.507
981.053
966.442
953.794
942.256
932.616
923.426
6457.22
6260.41
5992.23
5735.54
5499.93
5288.87
5100.29
4932.38
4782.98
4649.69
4530.23
4422.61
4325.44
4236.95
4156.74
4082.67
4015.64
3952.37
44.4686
23.7574
29.4911
29.6193
27.1019
19.2115
11.0789
7.88329
11.2926
23.2572
48.6999
84.4496
121.28
158.979
196.817
234.467
271.871
308.996
345.778
382.289
418.585
454.74
490.833
526.954
563.154
599.396
635.583
671.538
706.986
741.662
775.442
808.145
839.37
868.724
895.727
919.953
941.02
958.584
972.336
980.397
984.526
985.925
981.992
974.458
963.134
947.484
926.706
899.566
873.746
848.379
824.141
801.031
779.241
758.789
739.702
721.917
705.397
690.086
675.937
661.779
644.827
632.554
625.487
620.18
614.608
608.726
602.762
596.808
590.96
585.305
579.896
574.761
569.905
565.326
561.013
556.954
553.133
549.537
546.148
542.954
539.937
537.084
534.379
531.811
529.367
527.038
524.813
522.683
520.64
518.68
516.799
514.993
513.255
511.583
509.983
508.447
506.971
505.55
504.184
502.871
501.611
500.405
499.252
498.153
497.109
496.12
495.186
494.307
493.484
492.717
492.005
491.351
490.753
490.215
489.737
489.319
488.965
488.671
488.436
488.259
488.14
488.076
488.068
488.114
488.214
488.365
488.567
488.819
489.119
489.466
489.857
490.292
490.769
491.283
491.835
492.431
493.054
493.721
494.664
495.221
496.163
496.733
497.699
498.297
499.281
499.938
500.661
501.602
502.576
503.249
504.249
504.913
505.953
506.687
507.464
508.279
509.214
509.986
510.803
511.649
512.476
513.314
514.129
514.947
515.743
516.526
517.283
518.002
518.688
519.287
519.847
520.221
520.556
520.481
520.304
518.67
515.768
508.531
497.907
449.202
122.47
81.0085
65.8186
59.6183
61.1404
65.3564
74.3084
88.2435
105.964
123.671
139.5
152.948
164.416
174.866
184.94
194.695
204.231
213.539
222.612
231.494
240.299
249.233
258.608
268.619
278.672
288.772
298.929
309.155
319.535
330.332
341.639
352.316
362.112
370.88
378.511
384.91
389.951
393.521
395.286
395.743
394.823
392.377
388.771
384.075
378.006
370.851
362.816
354.415
346.429
338.7
331.352
324.411
317.903
311.827
306.174
300.928
296.074
291.578
287.344
283.21
279.205
275.443
271.397
267.346
263.567
260.031
256.664
253.448
250.37
247.413
244.569
241.832
239.197
236.66
234.218
231.868
229.605
227.426
225.327
223.304
221.352
219.468
217.647
215.885
214.179
212.525
210.919
209.36
207.844
206.368
204.931
203.531
202.165
200.835
199.539
198.275
197.043
195.842
194.67
193.527
192.413
191.327
190.27
189.24
188.239
187.266
186.321
185.404
184.514
183.651
182.816
182.008
181.226
180.471
179.742
179.04
178.365
177.716
177.095
176.5
175.93
175.382
174.858
174.354
173.871
173.408
172.963
172.536
172.126
171.731
171.351
170.985
170.632
170.291
169.948
169.631
169.28
169.012
168.697
168.459
168.14
167.911
167.591
167.367
167.046
166.826
166.482
166.27
165.948
165.731
165.401
165.177
164.848
164.629
164.279
164.06
163.719
163.499
163.152
162.933
162.589
162.361
162.028
161.783
161.469
161.206
160.899
160.621
160.309
160.003
159.663
159.314
158.918
158.559
158.381
158.478
159.31
160.545
163.343
171.134
294.669
155.823
137.764
129.003
129.335
131
134.973
139.981
145.743
151.33
156.597
161.794
167.242
173.048
178.713
184.274
189.447
194.069
198.118
201.704
205.016
208.273
211.667
215.326
219.303
223.598
228.123
232.805
237.594
242.414
247.133
251.584
255.691
259.389
262.652
265.439
267.541
268.62
268.918
268.235
266.421
263.616
259.985
255.567
250.421
244.819
239.005
233.225
227.645
222.296
217.24
212.499
208.077
203.959
200.123
196.541
193.177
189.991
186.943
184.016
181.21
178.551
176.057
173.766
171.635
169.599
167.629
165.717
163.86
162.056
160.306
158.61
156.968
155.38
153.844
152.361
150.927
149.542
148.203
146.908
145.655
144.442
143.266
142.126
141.018
139.942
138.896
137.877
136.884
135.917
134.973
134.052
133.154
132.277
131.421
130.585
129.77
128.974
128.197
127.438
126.699
125.977
125.274
124.588
123.921
123.271
122.639
122.025
121.427
120.848
120.284
119.738
119.207
118.693
118.194
117.71
117.242
116.789
116.352
115.928
115.519
115.122
114.737
114.363
113.999
113.646
113.301
112.964
112.635
112.313
111.998
111.688
111.383
111.083
110.785
110.49
110.197
109.912
109.629
109.35
109.07
108.792
108.512
108.234
107.952
107.672
107.384
107.102
106.817
106.533
106.244
105.958
105.669
105.384
105.093
104.809
104.522
104.24
103.955
103.676
103.395
103.12
102.844
102.574
102.304
102.041
101.78
101.526
101.277
101.033
100.796
100.566
100.349
100.163
100.097
100.158
100.469
101.098
102.482
106.16
454.783
218.197
186.094
166.641
157.422
151.263
148.612
147.97
149.201
151.953
155.766
160.09
164.589
168.789
172.498
175.44
177.538
178.906
179.787
180.475
181.251
182.346
183.929
186.126
189.048
192.55
195.999
199.18
202.015
204.473
206.544
208.24
209.609
210.747
211.778
212.871
213.786
214.15
213.859
212.643
210.549
207.65
204.057
199.868
195.215
190.314
185.349
180.472
175.795
171.389
167.299
163.542
160.107
156.97
154.098
151.454
149.003
146.713
144.567
142.556
140.67
138.901
137.239
135.672
134.175
132.73
131.326
129.961
128.633
127.341
126.086
124.868
123.687
122.542
121.433
120.359
119.317
118.309
117.33
116.382
115.461
114.566
113.696
112.849
112.024
111.22
110.434
109.668
108.918
108.185
107.467
106.765
106.078
105.404
104.745
104.1
103.468
102.849
102.243
101.65
101.07
100.503
99.9481
99.4058
98.8762
98.3591
97.8546
97.3625
96.8829
96.4154
95.9597
95.5155
95.0825
94.6603
94.2489
93.8483
93.4608
93.0842
92.7178
92.3606
92.0119
91.6708
91.3366
91.0087
90.6864
90.3691
90.0564
89.7476
89.4423
89.1401
88.8406
88.5434
88.2482
87.9546
87.6619
87.3704
87.0797
86.7906
86.5028
86.2155
85.929
85.6423
85.3548
85.0665
84.7773
84.487
84.1953
83.9039
83.6125
83.3211
83.0296
82.7393
82.4505
82.1632
81.8772
81.5935
81.3115
81.0321
80.7548
80.4805
80.2087
79.9406
79.676
79.416
79.1607
78.9113
78.669
78.4366
78.2145
78.004
77.8079
77.6296
77.4784
77.3794
77.3737
77.4332
77.6275
78.0412
78.9429
80.9447
580.888
262.393
211.605
183.326
168.589
158.671
153.536
151.506
151.616
153.434
156.232
159.349
162.228
164.444
165.765
166.321
166.419
166.264
166.136
166.185
166.543
167.275
168.397
169.889
171.69
173.693
175.712
177.591
179.232
180.59
181.678
182.512
183.138
183.658
184.153
184.627
184.897
184.781
183.954
182.33
179.918
176.769
172.983
168.67
163.983
159.118
154.246
149.52
145.06
140.948
137.227
133.902
130.952
128.339
126.016
123.936
122.058
120.348
118.778
117.329
115.984
114.725
113.54
112.415
111.336
110.295
109.286
108.307
107.355
106.431
105.532
104.659
103.811
102.987
102.185
101.407
100.65
99.9131
99.1965
98.4986
97.8185
97.155
96.5072
95.874
95.2547
94.6485
94.0545
93.4722
92.901
92.3403
91.7898
91.2492
90.7182
90.1968
89.6847
89.1818
88.6881
88.2033
87.7274
87.2603
86.8018
86.352
85.9109
85.4784
85.0548
84.64
84.2339
83.8366
83.4478
83.0674
82.6949
82.3301
81.9725
81.6221
81.2785
80.9417
80.6116
80.2879
79.9701
79.6579
79.3506
79.0477
78.7489
78.4535
78.1612
77.8714
77.5839
77.2981
77.0137
76.7303
76.4477
76.1656
75.8836
75.6016
75.3191
75.0363
74.7529
74.4691
74.1847
73.8997
73.6141
73.3276
73.0404
72.7525
72.4641
72.1751
71.8859
71.597
71.3086
71.0207
70.7337
70.4479
70.1636
69.8811
69.6005
69.3221
69.046
68.7727
68.5023
68.2352
67.9717
67.7124
67.4578
67.2087
66.9659
66.7306
66.5042
66.2886
66.0854
65.8971
65.7275
65.5816
65.4715
65.4233
65.443
65.532
65.758
66.1666
66.926
68.2934
663.737
289.881
223.284
189.349
172.491
161.623
155.808
153.044
152.356
152.881
154.006
155
155.532
155.638
155.397
154.935
154.432
154.054
153.912
154.015
154.362
154.952
155.791
156.907
158.378
160.351
162.385
164.093
165.273
165.869
166.033
165.792
165.223
164.529
163.88
163.447
163.252
162.722
161.568
159.679
157.034
153.677
149.694
145.196
140.34
135.318
130.318
125.514
121.048
117.012
113.45
110.358
107.703
105.433
103.486
101.805
100.339
99.0455
97.8899
96.8446
95.8868
94.9979
94.1634
93.3721
92.6156
91.8884
91.1866
90.5074
89.8491
89.2101
88.5896
87.9866
87.4002
86.8297
86.274
85.7328
85.2057
84.6921
84.1912
83.7022
83.2243
82.7569
82.2994
81.8511
81.4115
80.9803
80.5569
80.1411
79.7325
79.3307
78.9355
78.5469
78.1649
77.7894
77.4202
77.0573
76.7005
76.3496
76.0047
75.6655
75.332
75.0042
74.682
74.3655
74.0548
73.7497
73.4501
73.1559
72.8669
72.5828
72.3031
72.0275
71.7557
71.4874
71.2225
70.9608
70.7022
70.4463
70.1928
69.9414
69.6918
69.4435
69.1962
68.9496
68.7033
68.4572
68.2108
67.964
67.7166
67.4683
67.219
66.9684
66.7165
66.4632
66.2085
65.9522
65.6944
65.4352
65.1747
64.913
64.6501
64.3862
64.1215
63.8561
63.5903
63.3243
63.0582
62.7923
62.527
62.2622
61.9982
61.7352
61.4733
61.2127
60.9535
60.696
60.4402
60.1865
59.9352
59.6866
59.4412
59.1996
58.9624
58.7303
58.5044
58.2857
58.0757
57.876
57.6886
57.5161
57.3626
57.2339
57.1412
57.1018
57.1147
57.1882
57.3696
57.6869
58.2266
59.1613
712.915
306.136
227.821
190.394
172.79
161.733
155.702
152.25
150.503
149.452
148.666
147.93
147.173
146.404
145.698
145.138
144.821
144.76
144.937
145.288
145.777
146.386
147.137
148.11
149.449
151.305
153.128
154.448
155.074
155.181
154.749
153.899
152.825
151.673
150.546
149.527
148.762
147.729
146.14
143.857
140.854
137.164
132.855
128.022
122.817
117.435
112.094
107.002
102.33
98.1881
94.6187
91.6093
89.1088
87.046
85.3446
83.9327
82.7478
81.7388
80.865
80.0944
79.4026
78.7709
78.1857
77.6371
77.1179
76.6231
76.1489
75.6927
75.2525
74.8267
74.4142
74.0138
73.6248
73.2462
72.8777
72.519
72.1698
71.8292
71.4966
71.1715
70.8537
70.5426
70.238
69.9394
69.6467
69.3596
69.0778
68.8011
68.5294
68.2623
67.9999
67.7423
67.4895
67.2413
66.9976
66.7582
66.523
66.2918
66.0646
65.8413
65.6216
65.4056
65.1932
64.9844
64.7792
64.5772
64.3784
64.1824
63.989
63.7979
63.6086
63.4208
63.2342
63.0487
62.864
62.68
62.4966
62.3133
62.13
61.9463
61.762
61.5768
61.3904
61.2026
61.0133
60.8224
60.6296
60.4349
60.2381
60.0391
59.8377
59.6341
59.4281
59.2199
59.0095
58.7969
58.5822
58.3656
58.1471
57.927
57.7053
57.4823
57.2582
57.0331
56.8073
56.581
56.3543
56.1276
55.901
55.6747
55.4489
55.2238
54.9996
54.7766
54.5548
54.3347
54.1163
53.9001
53.6863
53.4754
53.2677
53.0638
52.8643
52.67
52.4817
52.3006
52.1279
51.9651
51.8144
51.6783
51.5611
51.4684
51.4099
51.3959
51.4212
51.5014
51.6711
51.9384
52.3776
53.0319
728.707
310.538
226.981
188.636
171.066
159.849
153.323
148.876
145.871
143.567
141.742
140.207
138.956
138.005
137.411
137.195
137.316
137.711
138.294
138.97
139.659
140.33
141.035
141.924
143.242
144.933
146.414
147.273
147.547
147.31
146.623
145.711
144.674
143.557
142.336
140.955
139.364
137.612
135.413
132.592
129.131
125.05
120.385
115.186
109.57
103.735
97.9331
92.4252
87.4253
83.0673
79.397
76.3878
73.9666
72.0394
70.5101
69.2915
68.3102
67.5073
66.8372
66.2656
65.7671
65.3229
64.9199
64.5487
64.2024
63.8764
63.567
63.2718
62.9887
62.7165
62.4538
62.1998
61.9538
61.7153
61.4838
61.2589
61.0401
60.8271
60.6195
60.4172
60.22
60.0277
59.8399
59.6565
59.4773
59.3021
59.1308
58.9634
58.7995
58.6392
58.4827
58.3299
58.1805
58.0345
57.8915
57.7516
57.6146
57.4803
57.3487
57.2196
57.0929
56.9683
56.8459
56.7258
56.6074
56.4907
56.3752
56.2608
56.1473
56.0343
55.9214
55.8083
55.6948
55.5807
55.4658
55.3501
55.2332
55.115
54.9951
54.8733
54.7495
54.6232
54.4946
54.3634
54.2298
54.0935
53.9545
53.8126
53.6678
53.5201
53.3694
53.2158
53.0594
52.9004
52.7387
52.5744
52.4077
52.2386
52.0674
51.8941
51.7189
51.542
51.3637
51.184
51.0031
50.8213
50.6388
50.4558
50.2725
50.0892
49.906
49.7233
49.5412
49.3601
49.1801
49.0014
48.8245
48.6495
48.4768
48.3068
48.1399
47.9766
47.8173
47.6629
47.5141
47.3718
47.2373
47.112
46.998
46.8977
46.8151
46.7552
46.7255
46.7293
46.7661
46.8536
47.0125
47.251
47.621
48.126
728.243
309.953
224.084
184.987
167.085
155.489
148.503
143.482
139.902
137.078
134.895
133.215
132.047
131.403
131.263
131.589
132.299
133.275
134.362
135.395
136.242
136.851
137.282
137.689
138.245
139.058
139.867
140.297
140.409
140.264
140.028
139.905
139.692
139.241
138.419
137.119
135.262
132.786
129.658
125.938
121.727
117.089
112.027
106.442
100.366
93.9845
87.5896
81.5131
76.0384
71.3404
67.4708
64.3834
61.9757
60.1248
58.7105
57.6283
56.793
56.1385
55.6153
55.1869
54.8273
54.5178
54.2454
54.0011
53.7783
53.5725
53.3803
53.1994
53.0279
52.8646
52.7084
52.5587
52.4146
52.2758
52.142
52.0127
51.8878
51.7671
51.6503
51.5375
51.4286
51.3236
51.2222
51.124
51.029
50.9372
50.8484
50.7627
50.68
50.6003
50.5235
50.4493
50.3778
50.3086
50.2418
50.1773
50.1147
50.054
49.9951
49.9378
49.882
49.8274
49.7743
49.7222
49.6707
49.6197
49.5689
49.5182
49.4673
49.4158
49.3635
49.3101
49.2553
49.1991
49.1413
49.0817
49.0201
48.9562
48.89
48.821
48.749
48.6739
48.5959
48.515
48.4312
48.3442
48.2541
48.1606
48.0637
47.9635
47.86
47.7534
47.6439
47.5316
47.4164
47.2985
47.1779
47.0547
46.9292
46.8015
46.6717
46.5401
46.4069
46.272
46.1358
45.9984
45.86
45.7208
45.581
45.4409
45.3006
45.1604
45.0206
44.8812
44.7427
44.6052
44.4691
44.3345
44.2017
44.0712
43.9434
43.8185
43.6971
43.5799
43.4674
43.3606
43.2606
43.1686
43.0866
43.0168
42.9627
42.9284
42.9193
42.9345
42.9814
43.0712
43.2173
43.4278
43.738
44.1415
719.131
305.862
219.882
181.57
162.758
150.619
143.265
137.875
134.037
131.082
128.945
127.478
126.714
126.578
127.049
128.041
129.432
131.029
132.595
133.903
134.77
135.173
135.261
135.252
135.365
135.736
136.333
137.044
137.767
138.429
139.007
139.471
139.71
139.625
138.979
137.611
135.379
132.228
128.219
123.532
118.407
113.01
107.368
101.292
94.6728
87.6239
80.4986
73.6997
67.5904
62.4192
58.2507
55.0135
52.5655
50.7461
49.4059
48.4204
47.6916
47.1462
46.7307
46.4068
46.1479
45.9353
45.7562
45.6018
45.466
45.3444
45.234
45.1324
45.0382
44.9504
44.8682
44.7908
44.7176
44.6481
44.5823
44.5199
44.4608
44.4049
44.3521
44.3022
44.2555
44.2125
44.173
44.1357
44.1008
44.0685
44.0388
44.0116
43.9868
43.9645
43.9445
43.9267
43.9109
43.897
43.8849
43.8744
43.8655
43.8578
43.8513
43.8459
43.8413
43.8376
43.8347
43.8319
43.8291
43.8262
43.8231
43.8196
43.8153
43.8099
43.8031
43.7947
43.7847
43.7729
43.759
43.743
43.7246
43.7037
43.6799
43.6531
43.6227
43.5889
43.5527
43.5137
43.4717
43.4262
43.3772
43.3247
43.2684
43.2086
43.1457
43.0798
43.0111
42.9393
42.8647
42.7873
42.7071
42.6242
42.5388
42.4513
42.3618
42.2704
42.1772
42.0824
41.9861
41.8885
41.7897
41.69
41.5894
41.4883
41.3868
41.2851
41.1834
41.0819
40.9808
40.8802
40.7806
40.6819
40.5846
40.489
40.3952
40.3037
40.215
40.1295
40.0479
39.9709
39.8994
39.8347
39.7784
39.7326
39.6998
39.6835
39.6865
39.7099
39.7619
39.8471
39.9774
40.1597
40.4182
40.7464
696.215
296.402
213.591
176.929
157.732
145.371
137.933
132.487
128.722
125.953
124.14
123.13
122.904
123.402
124.585
126.335
128.469
130.698
132.683
134.15
134.935
135.115
134.874
134.577
134.532
134.91
135.682
136.695
137.762
138.764
139.671
140.472
141.119
141.492
141.44
140.668
138.898
135.881
131.51
125.946
119.618
113.055
106.608
99.8685
92.6154
84.8143
76.6609
68.7723
61.7646
55.9275
51.3238
47.8471
45.299
43.4676
42.1663
41.2459
40.5938
40.1284
39.7919
39.5443
39.3581
39.2148
39.1018
39.0106
38.9354
38.8724
38.8185
38.7715
38.7302
38.6939
38.6626
38.6351
38.6105
38.5887
38.5696
38.5533
38.5396
38.5285
38.5197
38.5132
38.5087
38.5088
38.5135
38.5189
38.5259
38.5351
38.5466
38.5602
38.5759
38.5937
38.6135
38.635
38.6582
38.683
38.7092
38.7367
38.7654
38.7951
38.8256
38.8569
38.8887
38.9211
38.9536
38.986
39.0182
39.05
39.0812
39.1117
39.141
39.1689
39.1954
39.2204
39.2437
39.2651
39.2844
39.3014
39.316
39.328
39.3371
39.3429
39.344
39.3426
39.3404
39.3351
39.3267
39.3146
39.2988
39.2794
39.256
39.2291
39.1997
39.1677
39.1329
39.0949
39.054
39.0102
38.9635
38.9141
38.8625
38.8088
38.7533
38.6958
38.6365
38.5755
38.513
38.4491
38.384
38.3177
38.2506
38.1828
38.1144
38.0457
37.9767
37.9077
37.8386
37.7698
37.7014
37.6335
37.5665
37.5004
37.4357
37.3726
37.3114
37.2526
37.1968
37.1445
37.0966
37.0541
37.0184
36.9912
36.9748
36.9719
36.9835
37.0141
37.0673
37.1473
37.2634
37.4213
37.6378
37.9084
661.206
281.746
205.125
171.126
152.471
140.572
133.131
127.806
124.31
121.901
120.559
120.085
120.473
121.658
123.59
126.101
128.899
131.655
134.005
135.616
136.333
136.308
135.843
135.393
135.312
135.785
136.749
137.987
139.266
140.472
141.602
142.708
143.783
144.733
145.382
145.549
144.928
143.113
139.668
134.341
127.377
119.589
111.862
103.411
94.5891
85.4775
76.019
66.7501
58.354
51.5085
46.2774
42.4463
39.7303
37.8444
36.5515
35.6713
35.0734
34.6667
34.3886
34.1969
34.0634
33.9696
33.9032
33.856
33.8227
33.7998
33.7846
33.7745
33.7682
33.7659
33.7688
33.7755
33.7834
33.7933
33.8056
33.8201
33.8369
33.8559
33.8771
33.9007
33.9268
33.9558
33.9871
34.0202
34.0553
34.0925
34.1317
34.1729
34.2159
34.2607
34.3072
34.3553
34.4049
34.4558
34.508
34.5612
34.6154
34.6704
34.7261
34.7823
34.839
34.8959
34.9528
35.0097
35.0662
35.1222
35.1775
35.2318
35.2848
35.3367
35.3874
35.4366
35.4842
35.5298
35.5735
35.615
35.6541
35.6907
35.7246
35.7555
35.7829
35.8077
35.83
35.8497
35.8663
35.8797
35.8898
35.8963
35.898
35.8969
35.895
35.8904
35.883
35.8722
35.8584
35.8417
35.8218
35.7995
35.7755
35.7496
35.722
35.6924
35.6609
35.6277
35.5928
35.5565
35.5187
35.4797
35.4398
35.3991
35.3577
35.3158
35.2735
35.2308
35.1877
35.1445
35.1012
35.0581
35.0153
34.973
34.9313
34.8905
34.851
34.813
34.7771
34.7438
34.7137
34.6878
34.6672
34.6533
34.6481
34.6535
34.672
34.7054
34.7565
34.8297
34.9322
35.0692
35.2527
35.4807
620.042
264.793
195.757
164.649
147.188
136.011
129.006
124.084
121.056
119.133
118.33
118.418
119.43
121.282
123.901
127.118
130.684
134.15
137.019
138.901
139.671
139.521
138.905
138.378
138.371
139.077
140.386
142
143.662
145.28
146.899
148.561
150.223
151.764
153.035
153.877
154.11
153.514
151.751
148.217
142.273
133.912
124.401
114.642
103.418
91.1263
79.3291
67.766
57.36
48.9858
42.8225
38.4762
35.5087
33.5228
32.2103
31.3499
30.7891
30.4254
30.1905
30.04
29.945
29.8867
29.8531
29.8365
29.8319
29.8366
29.8487
29.8639
29.8823
29.904
29.9288
29.9558
29.9846
30.0155
30.0484
30.0833
30.1201
30.1591
30.2001
30.2432
30.2886
30.3363
30.3861
30.4379
30.4917
30.5473
30.6049
30.6642
30.7252
30.7879
30.8522
30.9178
30.9848
31.0531
31.1224
31.1927
31.2639
31.3359
31.4085
31.4816
31.555
31.6286
31.7023
31.7758
31.849
31.9217
31.9938
32.065
32.1353
32.2045
32.2726
32.3393
32.4044
32.4679
32.5294
32.5889
32.6463
32.7013
32.7539
32.8038
32.8509
32.8952
32.937
32.9761
33.0123
33.0457
33.076
33.1031
33.1267
33.1474
33.1659
33.1819
33.1952
33.2057
33.2135
33.2183
33.2193
33.2183
33.217
33.2136
33.2087
33.2014
33.1921
33.1811
33.1684
33.1542
33.1382
33.1208
33.1027
33.0837
33.0639
33.0435
33.0223
33.0004
32.9778
32.9548
32.9314
32.9079
32.8842
32.8604
32.8369
32.8136
32.791
32.7692
32.7488
32.7301
32.7137
32.7003
32.6907
32.6863
32.6892
32.7015
32.7239
32.7577
32.8062
32.8729
32.9635
33.0826
33.2396
33.4338
565.228
251.139
186.891
157.786
141.944
131.671
125.712
121.582
119.217
117.912
117.677
118.283
119.794
122.216
125.569
129.675
134.159
138.47
142.055
144.476
145.587
145.6
145.062
144.576
144.68
145.561
147.105
148.956
150.86
152.763
154.749
156.883
159.142
161.449
163.706
165.751
167.293
167.931
167.363
165.404
161.799
155.579
145.791
133.877
121.099
105.428
88.3023
72.7063
58.995
48.2868
40.7236
35.6469
32.3312
30.2006
28.8452
27.9896
27.4539
27.1219
26.9196
26.7999
26.7329
26.7001
26.6895
26.6949
26.712
26.7355
26.7635
26.7948
26.829
26.8656
26.9045
26.9452
26.9878
27.0322
27.0783
27.1263
27.1761
27.2277
27.2813
27.3368
27.3944
27.4544
27.5164
27.5804
27.6462
27.7138
27.7831
27.8541
27.9267
28.0008
28.0763
28.1532
28.2314
28.3108
28.3912
28.4725
28.5547
28.6377
28.7213
28.8053
28.8898
28.9745
29.0593
29.1441
29.2286
29.3129
29.3966
29.4797
29.5621
29.6435
29.7238
29.803
29.8808
29.957
30.0315
30.1043
30.1751
30.2438
30.3102
30.3744
30.436
30.4951
30.5517
30.6057
30.6571
30.7058
30.7517
30.7947
30.8348
30.872
30.9067
30.939
30.9686
30.9957
31.0203
31.0422
31.0612
31.0781
31.0933
31.1068
31.1185
31.1282
31.1361
31.1423
31.1467
31.1494
31.1496
31.1487
31.1478
31.1456
31.1428
31.1388
31.1337
31.1276
31.1207
31.1129
31.1045
31.0957
31.0863
31.0766
31.0664
31.0561
31.0459
31.0361
31.0269
31.0188
31.0122
31.0075
31.0053
31.0074
31.0163
31.032
31.0552
31.088
31.133
31.1933
31.2733
31.3781
31.5147
31.6836
497.883
236.881
177.677
150.369
137.191
128.56
123.882
120.775
119.152
118.388
118.604
119.67
121.772
124.897
129.06
134.038
139.474
144.811
149.426
152.79
154.667
155.208
154.966
154.598
154.7
155.5
156.978
158.78
160.674
162.615
164.672
166.917
169.392
172.132
175.171
178.508
182.019
185.315
187.626
187.962
186.199
182.352
175.848
164.558
149.445
131.259
107.16
83.38
63.8136
49.3899
39.7816
33.7064
29.9441
27.6343
26.2228
25.3649
24.8482
24.5418
24.3653
24.2691
24.223
24.2084
24.215
24.2364
24.2659
24.3007
24.3394
24.3809
24.4248
24.4708
24.5186
24.5681
24.6192
24.672
24.7265
24.7826
24.8405
24.9
24.9614
25.0246
25.0896
25.1567
25.2256
25.2964
25.369
25.4433
25.5194
25.5971
25.6763
25.757
25.8392
25.9228
26.0076
26.0936
26.1808
26.2689
26.3579
26.4477
26.5383
26.6294
26.721
26.8129
26.9051
26.9973
27.0895
27.1815
27.2732
27.3644
27.4551
27.545
27.634
27.7219
27.8087
27.8942
27.9782
28.0606
28.1412
28.22
28.2968
28.3715
28.444
28.5141
28.582
28.6474
28.7103
28.7708
28.8287
28.884
28.9365
28.9865
29.0339
29.0789
29.1214
29.1615
29.1991
29.2344
29.2672
29.2977
29.3263
29.3531
29.378
29.401
29.4223
29.4417
29.4595
29.4756
29.4897
29.5025
29.5143
29.5251
29.5347
29.5432
29.5505
29.5566
29.5616
29.5655
29.5687
29.5712
29.5729
29.5739
29.5737
29.5728
29.5723
29.5717
29.5708
29.5706
29.5718
29.5737
29.5777
29.5852
29.5973
29.6148
29.6387
29.6707
29.713
29.7685
29.8408
29.9341
30.0542
30.2027
414.512
215.831
166.418
143.101
133.205
126.797
123.651
121.591
120.765
120.82
121.744
123.586
126.423
130.268
135.15
140.96
147.399
153.94
159.923
164.716
167.92
169.522
169.916
169.794
169.763
170.159
171.136
172.487
174.015
175.669
177.491
179.574
182.033
184.986
188.562
192.854
197.836
203.319
208.999
214.187
217.476
217.862
215.569
209.318
195.605
174.902
142.577
103.155
72.7683
52.2181
39.6667
32.3126
28.0378
25.5453
24.0874
23.2357
22.7423
22.4622
22.3096
22.2338
22.2044
22.2043
22.2237
22.2547
22.2923
22.3343
22.3796
22.4274
22.4772
22.5288
22.582
22.6368
22.6932
22.7511
22.8105
22.8716
22.9343
22.9986
23.0647
23.1325
23.202
23.2734
23.3466
23.4216
23.4983
23.5768
23.6569
23.7387
23.822
23.9068
23.9931
24.0807
24.1697
24.2599
24.3513
24.4438
24.5372
24.6315
24.7267
24.8225
24.919
25.0159
25.1132
25.2107
25.3083
25.4059
25.5034
25.6006
25.6973
25.7936
25.8891
25.9838
26.0775
26.1701
26.2614
26.3513
26.4397
26.5265
26.6115
26.6946
26.7758
26.8548
26.9317
27.0064
27.0787
27.1488
27.2164
27.2816
27.3444
27.4046
27.4625
27.5179
27.571
27.6217
27.6702
27.7163
27.7602
27.8019
27.8415
27.8791
27.9149
27.9489
27.981
28.0114
28.04
28.0669
28.0921
28.116
28.1387
28.1601
28.1802
28.1991
28.2165
28.2326
28.2474
28.2609
28.2732
28.2844
28.2945
28.3034
28.3112
28.3181
28.3242
28.3298
28.3351
28.3404
28.3461
28.3525
28.3605
28.371
28.385
28.4032
28.427
28.4577
28.4975
28.5487
28.6146
28.6991
28.8067
28.9403
323.881
190.478
153.976
136.65
130.189
126.412
124.875
124.383
124.94
126.273
128.429
131.363
135.115
139.76
145.389
151.983
159.344
167.046
174.475
180.951
185.916
189.117
190.688
191.132
191.04
190.891
190.96
191.252
191.829
192.711
193.95
195.673
197.949
200.859
204.602
209.482
215.784
223.508
232.215
241.255
250.023
258.074
264.486
267.367
263.399
244.752
202.571
135.565
85.6362
55.8697
39.7091
31.077
26.3995
23.8189
22.3765
21.5669
21.1156
20.8701
20.7439
20.6875
20.6725
20.6832
20.7105
20.7466
20.7883
20.8338
20.882
20.9325
20.9847
21.0386
21.094
21.1508
21.2092
21.2691
21.3304
21.3934
21.4579
21.524
21.5918
21.6613
21.7325
21.8055
21.8802
21.9566
22.0348
22.1146
22.1962
22.2793
22.3641
22.4504
22.5381
22.6273
22.7179
22.8098
22.903
22.9973
23.0927
23.1891
23.2864
23.3846
23.4834
23.5829
23.6829
23.7833
23.884
23.9849
24.0858
24.1866
24.2872
24.3874
24.4871
24.5862
24.6845
24.7819
24.8783
24.9735
25.0674
25.1599
25.2508
25.34
25.4275
25.513
25.5966
25.6782
25.7577
25.835
25.91
25.9828
26.0533
26.1214
26.1873
26.2508
26.3121
26.371
26.4278
26.4824
26.5347
26.585
26.6331
26.6793
26.7236
26.7659
26.8065
26.8452
26.8821
26.9173
26.9507
26.9825
27.0128
27.0417
27.0691
27.0949
27.1193
27.1421
27.1634
27.1832
27.2015
27.2184
27.2339
27.248
27.2608
27.2723
27.2827
27.2922
27.301
27.3095
27.3178
27.3266
27.3364
27.3481
27.3624
27.3802
27.4028
27.4315
27.4682
27.5151
27.5751
27.6516
27.7488
27.8694
230.39
176.269
145.997
132.088
128.366
127.158
127.697
129.305
131.861
135.042
138.855
143.267
148.317
154.079
160.659
168.101
176.309
184.984
193.621
201.587
208.261
213.211
216.293
217.739
217.967
217.576
216.756
215.903
215.377
215.486
216.182
217.789
219.98
222.73
226.394
231.532
238.732
248.176
259.699
272.947
287.466
302.462
316.932
332.649
343.23
334.668
288.012
177.173
99.4135
58.7982
39.3834
29.8325
24.9819
22.4382
21.0743
20.3361
19.9391
19.7316
19.6308
19.591
19.5871
19.6049
19.6361
19.6742
19.7171
19.7632
19.8116
19.862
19.9141
19.9676
20.0227
20.0792
20.1372
20.1966
20.2575
20.32
20.384
20.4496
20.5168
20.5857
20.6562
20.7285
20.8024
20.878
20.9554
21.0344
21.1151
21.1974
21.2813
21.3668
21.4538
21.5423
21.6321