/*--------------------------------*- C++ -*----------------------------------*\
| =========                 |                                                 |
| \\      /  F ield         | OpenFOAM: The Open Source CFD Toolbox           |
|  \\    /   O peration     | Version:  v1906                                 |
|   \\  /    A nd           | Web:      www.OpenFOAM.com                      |
|    \\/     M anipulation  |                                                 |
\*---------------------------------------------------------------------------*/
FoamFile
{
    version     2.0;
    format      ascii;
    class       volScalarField;
    location    "300";
    object      k;
}
// * * * * * * * * * * * * * * * * * * * * * * * * * * * * * * * * * * * * * //

dimensions      [0 2 -2 0 0 0 0];


internalField   nonuniform List<scalar> 
12225
(
2.25874
2.22668
2.16197
2.09174
2.02515
1.96473
1.91098
1.86361
1.82134
1.78463
1.75078
1.72292
1.70095
1.68309
1.66754
1.65632
1.64423
1.64074
2.25029
2.1378
1.98568
1.87251
1.78136
1.71385
1.661
1.61733
1.58179
1.55092
1.52644
1.50322
1.48707
1.46898
1.45914
1.44424
1.43797
1.42342
2.25785
2.21891
2.14367
2.07168
2.00416
1.94444
1.89229
1.84618
1.80593
1.76997
1.73879
1.71019
1.68602
1.66301
1.64448
1.62554
1.61201
1.59695
2.2584
2.23541
2.188
2.13594
2.08446
2.03627
1.99238
1.95246
1.91649
1.88382
1.85451
1.82768
1.80378
1.78167
1.7622
1.74383
1.7284
1.71252
2.25892
2.24462
2.21513
2.18028
2.14417
2.10872
2.07502
2.04331
2.01377
1.98631
1.96099
1.93748
1.91591
1.89591
1.87767
1.86073
1.84582
1.83132
2.25906
2.24845
2.22776
2.20226
2.17484
2.14706
2.11991
2.09382
2.06904
2.04565
2.02373
2.00319
1.98405
1.96621
1.94971
1.93441
1.92049
1.90721
2.2592
2.25085
2.2358
2.2169
2.19611
2.1746
2.15315
2.13217
2.11192
2.09253
2.07412
2.05669
2.04028
2.02488
2.01053
1.99721
1.98506
1.97369
2.25924
2.25221
2.24056
2.22586
2.20942
2.19214
2.17464
2.15727
2.14031
2.12391
2.10819
2.0932
2.07899
2.06561
2.0531
2.04148
2.03081
2.021
2.2593
2.25322
2.2439
2.23222
2.21907
2.2051
2.19081
2.17649
2.16238
2.14863
2.13536
2.12264
2.11056
2.09915
2.0885
2.07865
2.06971
2.06165
2.25932
2.2539
2.24615
2.23656
2.22574
2.21418
2.20224
2.1902
2.17824
2.16653
2.15518
2.14427
2.13389
2.12411
2.11501
2.10666
2.09917
2.09263
2.25936
2.25446
2.24785
2.23983
2.2308
2.22112
2.21109
2.20092
2.19079
2.18083
2.17115
2.16186
2.15303
2.14477
2.13715
2.13027
2.12427
2.11928
2.25938
2.25483
2.24899
2.24202
2.23421
2.22584
2.21714
2.2083
2.19947
2.19078
2.18234
2.17425
2.1666
2.15948
2.15302
2.14731
2.14249
2.13875
2.25942
2.25516
2.24991
2.24378
2.23695
2.22964
2.22205
2.21432
2.20659
2.19899
2.19162
2.18458
2.17798
2.17191
2.1665
2.16187
2.15819
2.15564
2.25944
2.25545
2.25071
2.24529
2.23932
2.23295
2.22633
2.2196
2.21287
2.20626
2.19988
2.19382
2.18819
2.18313
2.17874
2.17518
2.17262
2.17128
2.25948
2.25573
2.25143
2.24662
2.24138
2.23582
2.23006
2.22422
2.21839
2.21269
2.20722
2.20208
2.19741
2.19331
2.18994
2.18745
2.18602
2.18583
2.25952
2.25595
2.252
2.24766
2.243
2.23809
2.23303
2.22791
2.22282
2.21787
2.21317
2.20883
2.20497
2.20173
2.19926
2.19775
2.19738
2.19817
2.25955
2.25614
2.25243
2.24844
2.2442
2.23976
2.23521
2.23062
2.22608
2.2217
2.21758
2.21385
2.21062
2.20806
2.20633
2.20563
2.20602
2.20769
2.25957
2.25624
2.25267
2.24886
2.24484
2.24065
2.23637
2.23206
2.22783
2.22375
2.21995
2.21654
2.21366
2.21146
2.21013
2.20986
2.21066
2.21286
2.25955
2.25618
2.25256
2.24868
2.24457
2.24028
2.23588
2.23145
2.22707
2.22283
2.21885
2.21523
2.21213
2.20969
2.20809
2.20753
2.20809
2.21002
2.25953
2.25601
2.25211
2.24785
2.24327
2.23845
2.23347
2.22842
2.22338
2.21846
2.21375
2.20936
2.20541
2.20204
2.1994
2.19768
2.19709
2.1977
2.25947
2.25566
2.25128
2.24636
2.24097
2.23524
2.22928
2.22319
2.21708
2.21105
2.20519
2.1996
2.19438
2.18965
2.18556
2.18225
2.17992
2.17884
2.25944
2.25529
2.25023
2.24434
2.2378
2.2308
2.2235
2.21604
2.20855
2.20112
2.19385
2.18684
2.18017
2.17393
2.16824
2.16321
2.15898
2.15571
2.25937
2.25464
2.24842
2.24094
2.23251
2.22345
2.21401
2.20438
2.19472
2.18514
2.17576
2.16665
2.1579
2.14957
2.14175
2.13451
2.12796
2.12236
2.25936
2.2539
2.24597
2.23615
2.22508
2.21325
2.20104
2.18869
2.1764
2.1643
2.1525
2.14108
2.1301
2.11961
2.10968
2.10036
2.09175
2.08383
2.25927
2.25246
2.24133
2.22733
2.21163
2.19505
2.17814
2.16127
2.14467
2.12854
2.11296
2.09802
2.08374
2.07016
2.05727
2.04509
2.03356
2.02292
2.25925
2.25043
2.23403
2.21374
2.19164
2.16892
2.14625
2.12407
2.10263
2.08209
2.06251
2.04393
2.02634
2.00974
1.99411
1.97944
1.96582
1.95322
2.2589
2.24474
2.21622
2.18226
2.1469
2.11192
2.07828
2.04653
2.01685
1.98923
1.96358
1.9398
1.91773
1.89728
1.87825
1.86064
1.84391
1.82847
2.25872
2.23437
2.18572
2.1337
2.08304
2.03503
1.99038
1.94972
1.91277
1.87918
1.84861
1.82078
1.79532
1.77209
1.75071
1.73119
1.71316
1.69777
2.25333
2.17274
2.05405
1.95317
1.87049
1.80143
1.74474
1.69882
1.6602
1.62715
1.59842
1.57348
1.55136
1.53208
1.51464
1.49953
1.48547
1.47233
2.25474
2.20868
2.14515
2.08345
2.02599
1.97382
1.92663
1.88411
1.84588
1.81142
1.78027
1.75197
1.72622
1.7026
1.68106
1.66104
1.64282
1.62552
0.0952828
0.103833
0.120001
0.120426
0.113726
0.0909683
0.0631732
0.0495288
0.0614861
0.0989505
0.161955
0.236394
0.302239
0.362894
0.419052
0.471366
0.520565
0.567163
0.61147
0.653877
0.694673
0.734116
0.772422
0.809789
0.846365
0.88218
0.917211
0.951355
0.984425
1.01623
1.04669
1.07576
1.10314
1.12857
1.15171
1.17227
1.18998
1.20464
1.21611
1.22286
1.22619
1.22708
1.22371
1.2174
1.20783
1.19466
1.17717
1.15432
1.13137
1.10884
1.08703
1.06601
1.04598
1.02699
1.00909
0.992246
0.97646
0.961693
0.94798
0.934312
0.917819
0.905237
0.897648
0.892057
0.886287
0.880189
0.873986
0.867773
0.86164
0.855674
0.849932
0.844445
0.839221
0.83426
0.829552
0.825087
0.820852
0.816834
0.813016
0.809385
0.805926
0.802626
0.799469
0.796445
0.79354
0.790747
0.788053
0.785452
0.782934
0.780496
0.778133
0.775843
0.773618
0.771454
0.769359
0.767326
0.765349
0.763425
0.761552
0.759729
0.757956
0.756233
0.754561
0.752939
0.751369
0.74985
0.748384
0.746969
0.745607
0.744297
0.74304
0.741836
0.740686
0.739591
0.738553
0.737572
0.73665
0.735786
0.734976
0.73422
0.733517
0.732866
0.732266
0.731716
0.731214
0.730759
0.73035
0.729985
0.729664
0.729383
0.729142
0.728939
0.728771
0.728634
0.728533
0.72846
0.728422
0.728404
0.728674
0.728535
0.728785
0.72864
0.728898
0.728768
0.72903
0.728939
0.728937
0.729146
0.729366
0.729247
0.729493
0.729365
0.729614
0.729532
0.729523
0.729498
0.729677
0.729572
0.729547
0.729517
0.729498
0.72945
0.729399
0.729317
0.729223
0.729094
0.728941
0.728734
0.728493
0.728158
0.72778
0.727218
0.726614
0.725618
0.724539
0.722116
0.718521
0.710892
0.700041
0.65275
0.187315
0.216393
0.322922
0.373188
0.415475
0.447039
0.478702
0.521315
0.580476
0.645226
0.702827
0.749536
0.792238
0.835348
0.880651
0.92806
0.976714
1.02561
1.07387
1.12088
1.16636
1.21033
1.25309
1.29512
1.33697
1.3791
1.42184
1.46542
1.50984
1.55473
1.59956
1.64399
1.68755
1.7296
1.76939
1.80619
1.83943
1.8686
1.89321
1.91306
1.92833
1.9373
1.94053
1.93989
1.93502
1.92606
1.91348
1.89816
1.88107
1.86254
1.84305
1.82297
1.80261
1.78218
1.76181
1.74156
1.72146
1.70151
1.68179
1.66259
1.64522
1.63224
1.62387
1.61697
1.6096
1.60162
1.59326
1.58466
1.57596
1.56732
1.55884
1.5506
1.54262
1.53494
1.52755
1.52045
1.51364
1.5071
1.50083
1.4948
1.489
1.48341
1.47801
1.4728
1.46775
1.46285
1.45809
1.45346
1.44895
1.44455
1.44025
1.43606
1.43196
1.42795
1.42403
1.42017
1.4164
1.41269
1.40905
1.40548
1.40197
1.39852
1.39514
1.39181
1.38855
1.38534
1.3822
1.3791
1.37606
1.37308
1.37014
1.36726
1.36442
1.36164
1.3589
1.35622
1.35357
1.35097
1.3484
1.34586
1.34335
1.34087
1.33841
1.33597
1.33354
1.33112
1.32872
1.32632
1.32392
1.32153
1.31913
1.31673
1.31433
1.3119
1.30947
1.30702
1.30456
1.30208
1.29959
1.29704
1.29448
1.29187
1.28924
1.28656
1.28388
1.28112
1.27834
1.27555
1.27272
1.26984
1.26693
1.26398
1.26102
1.258
1.25496
1.25189
1.24882
1.24572
1.24261
1.23949
1.23638
1.23326
1.23015
1.22705
1.22396
1.2209
1.21785
1.21483
1.21183
1.20886
1.20592
1.203
1.20014
1.19731
1.19445
1.19037
1.18547
1.17778
1.16729
1.1339
0.334154
0.52858
0.68975
0.762297
0.821451
0.862775
0.899364
0.935141
0.974606
1.01764
1.06384
1.11292
1.16502
1.21959
1.2752
1.32998
1.38218
1.43056
1.47461
1.51453
1.55109
1.58548
1.61897
1.65283
1.68809
1.7256
1.76587
1.8091
1.85519
1.90377
1.95423
2.00567
2.05704
2.10718
2.15501
2.19956
2.24001
2.27573
2.30619
2.33108
2.35019
2.36296
2.36905
2.37038
2.3669
2.35896
2.34725
2.33263
2.31589
2.29761
2.27839
2.25868
2.23884
2.21911
2.19966
2.18058
2.16194
2.14381
2.12632
2.1097
2.09424
2.08016
2.06714
2.05459
2.04216
2.02978
2.01748
2.00535
1.99346
1.98188
1.97065
1.95978
1.94929
1.93918
1.92945
1.92008
1.91107
1.90239
1.89403
1.88596
1.87816
1.87063
1.86333
1.85624
1.84937
1.84267
1.83615
1.82979
1.82358
1.8175
1.81156
1.80574
1.80003
1.79442
1.78892
1.7835
1.77818
1.77294
1.76778
1.76271
1.75771
1.75278
1.74793
1.74315
1.73843
1.73379
1.72921
1.72469
1.72024
1.71584
1.7115
1.70723
1.703
1.69884
1.69472
1.69065
1.68663
1.68264
1.67869
1.67478
1.67089
1.66702
1.66318
1.65935
1.65553
1.65172
1.64792
1.64411
1.64031
1.63651
1.63269
1.62887
1.62503
1.62117
1.6173
1.6134
1.60947
1.60552
1.60154
1.59752
1.59347
1.58937
1.58524
1.58107
1.57686
1.5726
1.5683
1.56398
1.55961
1.5552
1.55076
1.54628
1.54179
1.53726
1.53271
1.52815
1.52358
1.51901
1.51443
1.50986
1.5053
1.50076
1.49624
1.49174
1.48727
1.48283
1.47843
1.47407
1.46975
1.46547
1.46125
1.45706
1.45294
1.44883
1.4448
1.44046
1.43609
1.43048
1.42232
1.40238
0.446469
0.738376
0.935852
1.02065
1.07915
1.11863
1.15397
1.18946
1.22926
1.27431
1.3247
1.37909
1.43544
1.49121
1.54401
1.59203
1.63436
1.67106
1.703
1.73155
1.7583
1.78476
1.81226
1.84185
1.87436
1.91038
1.95024
1.994
2.04138
2.09184
2.14456
2.19852
2.25258
2.30547
2.35602
2.40322
2.44618
2.48416
2.51661
2.54308
2.56333
2.57701
2.58388
2.58561
2.58222
2.57414
2.56211
2.547
2.52966
2.51087
2.49129
2.47147
2.45178
2.43247
2.41368
2.39549
2.37796
2.36113
2.34504
2.32976
2.31524
2.30132
2.28779
2.27453
2.26151
2.24875
2.23625
2.22405
2.21217
2.20064
2.18946
2.17864
2.16819
2.15811
2.14838
2.13899
2.12992
2.12115
2.11266
2.10444
2.09647
2.08872
2.08119
2.07384
2.06668
2.05968
2.05283
2.04612
2.03953
2.03306
2.02671
2.02045
2.01429
2.00822
2.00222
1.99631
1.99046
1.98468
1.97897
1.97333
1.96775
1.96223
1.95677
1.95137
1.94603
1.94074
1.9355
1.93032
1.92519
1.92011
1.91508
1.9101
1.90517
1.90027
1.89542
1.8906
1.88582
1.88107
1.87634
1.87163
1.86694
1.86226
1.85759
1.85293
1.84827
1.8436
1.83894
1.83427
1.82959
1.8249
1.82019
1.81547
1.81072
1.80595
1.80115
1.79632
1.79146
1.78656
1.78163
1.77667
1.77166
1.76661
1.76152
1.75639
1.75123
1.74602
1.74078
1.7355
1.7302
1.72487
1.71952
1.71415
1.70877
1.70338
1.69798
1.69259
1.6872
1.68182
1.67646
1.67112
1.6658
1.66052
1.65528
1.65008
1.64493
1.63984
1.63481
1.62985
1.62496
1.62015
1.61545
1.61084
1.60636
1.60198
1.59779
1.59351
1.58922
1.58401
1.57726
1.56329
0.525763
0.86819
1.08821
1.18291
1.24886
1.29627
1.34046
1.38512
1.43328
1.48465
1.53816
1.5917
1.64304
1.69022
1.73213
1.76857
1.80017
1.82806
1.85357
1.87795
1.9023
1.92748
1.95419
1.98304
2.01457
2.04935
2.08783
2.13031
2.17674
2.22668
2.2793
2.33343
2.38777
2.44105
2.49203
2.53963
2.5829
2.62104
2.65343
2.6796
2.69935
2.71233
2.7185
2.71931
2.71455
2.70483
2.69099
2.67401
2.65491
2.63463
2.61395
2.59347
2.57359
2.5545
2.5363
2.519
2.50256
2.48694
2.47208
2.45788
2.44425
2.43108
2.41829
2.40586
2.39377
2.38201
2.37058
2.35948
2.34871
2.33828
2.32817
2.31839
2.30893
2.29977
2.2909
2.28231
2.27397
2.26588
2.25802
2.25037
2.24291
2.23564
2.22854
2.22158
2.21477
2.20808
2.20151
2.19504
2.18868
2.1824
2.1762
2.17008
2.16402
2.15802
2.15208
2.1462
2.14036
2.13458
2.12884
2.12314
2.1175
2.11189
2.10632
2.10079
2.0953
2.08985
2.08443
2.07904
2.07369
2.06838
2.06309
2.05784
2.05261
2.0474
2.04221
2.03703
2.03187
2.02672
2.02157
2.01642
2.01127
2.00611
2.00094
1.99577
1.99057
1.98536
1.98014
1.97488
1.96961
1.96431
1.95898
1.95362
1.94822
1.9428
1.93733
1.93183
1.92629
1.92072
1.9151
1.90944
1.90375
1.89801
1.89224
1.88643
1.88059
1.87471
1.86881
1.86288
1.85693
1.85096
1.84498
1.83899
1.833
1.82701
1.82102
1.81504
1.80908
1.80314
1.79722
1.79134
1.78549
1.7797
1.77395
1.76827
1.76265
1.75712
1.75167
1.74632
1.74108
1.73596
1.73099
1.72619
1.72158
1.71718
1.71307
1.7092
1.70569
1.7018
1.69713
1.68762
0.574825
0.939373
1.17383
1.2779
1.35553
1.41438
1.46905
1.52164
1.57453
1.62681
1.6774
1.72469
1.76761
1.80574
1.8394
1.8693
1.8964
1.92162
1.94576
1.9694
1.99298
2.01687
2.0415
2.06746
2.09552
2.12665
2.16181
2.20167
2.24635
2.29535
2.34763
2.40179
2.45626
2.50947
2.56005
2.60694
2.64928
2.68631
2.71747
2.74244
2.76109
2.77304
2.77846
2.77818
2.77198
2.7605
2.74462
2.72549
2.7043
2.68223
2.6602
2.63889
2.61868
2.59975
2.5821
2.56567
2.55032
2.53593
2.52235
2.50946
2.49715
2.48531
2.47389
2.46287
2.45222
2.44192
2.43196
2.42233
2.41302
2.40401
2.3953
2.38687
2.37872
2.37082
2.36316
2.35572
2.34848
2.34145
2.3346
2.32792
2.32139
2.315
2.30875
2.30261
2.29658
2.29064
2.28479
2.27901
2.27331
2.26767
2.26208
2.25655
2.25106
2.24562
2.24021
2.23484
2.22951
2.22421
2.21894
2.2137
2.20849
2.2033
2.19813
2.19298
2.18784
2.18272
2.17762
2.17253
2.16745
2.16238
2.15732
2.15226
2.1472
2.14214
2.13707
2.13198
2.12688
2.12176
2.11661
2.11144
2.10625
2.10102
2.09577
2.09048
2.08515
2.07978
2.07438
2.06894
2.06345
2.05792
2.05235
2.04674
2.04108
2.03538
2.02963
2.02383
2.018
2.01212
2.00619
2.00022
1.99422
1.98817
1.98209
1.97597
1.96983
1.96365
1.95745
1.95123
1.94499
1.93874
1.93247
1.9262
1.91993
1.91365
1.90738
1.90112
1.89488
1.88865
1.88245
1.87628
1.87015
1.86407
1.85804
1.85208
1.84619
1.84038
1.83468
1.82907
1.82359
1.81825
1.81307
1.80807
1.80328
1.79874
1.79448
1.79044
1.78666
1.78262
1.77795
1.77014
0.602959
0.973499
1.21817
1.33075
1.41926
1.48779
1.55046
1.60783
1.66216
1.71261
1.75899
1.80093
1.83867
1.87269
1.90372
1.93252
1.95973
1.98578
2.01092
2.03523
2.05877
2.0817
2.10448
2.12791
2.15321
2.18183
2.21514
2.25399
2.29837
2.3474
2.39954
2.4529
2.50568
2.55633
2.60368
2.6468
2.68513
2.71817
2.74578
2.76794
2.7844
2.79475
2.79912
2.79768
2.79013
2.77693
2.75893
2.7374
2.71382
2.68961
2.66589
2.64344
2.62265
2.60363
2.58631
2.5705
2.556
2.54261
2.53013
2.51841
2.50732
2.49677
2.4867
2.47706
2.46782
2.45895
2.45042
2.44222
2.43431
2.4267
2.41934
2.41224
2.40537
2.39873
2.39228
2.38604
2.37997
2.37406
2.3683
2.36268
2.35718
2.35179
2.34651
2.34131
2.3362
2.33117
2.3262
2.32129
2.31644
2.31164
2.30687
2.30215
2.29746
2.2928
2.28818
2.28358
2.27901
2.27446
2.26993
2.26541
2.26091
2.25641
2.25192
2.24744
2.24295
2.23847
2.23398
2.22949
2.22498
2.22047
2.21593
2.21138
2.2068
2.20219
2.19755
2.19288
2.18816
2.1834
2.1786
2.17375
2.16885
2.1639
2.1589
2.15385
2.14874
2.14358
2.13836
2.13309
2.12777
2.12238
2.11695
2.11146
2.10592
2.10032
2.09467
2.08897
2.08323
2.07743
2.07159
2.0657
2.05976
2.05379
2.04778
2.04173
2.03564
2.02953
2.02339
2.01723
2.01105
2.00486
1.99866
1.99244
1.98623
1.98003
1.97383
1.96764
1.96147
1.95533
1.94923
1.94316
1.93714
1.93118
1.92528
1.91945
1.91371
1.90805
1.9025
1.89707
1.89176
1.88661
1.88162
1.87684
1.87229
1.86799
1.864
1.86025
1.85673
1.8529
1.84844
1.84113
0.611907
0.98152
1.2326
1.35224
1.44912
1.52434
1.59204
1.65176
1.70618
1.75497
1.79902
1.83882
1.87529
1.90922
1.94133
1.97214
2.00192
2.03069
2.05828
2.08439
2.10878
2.13153
2.15324
2.17514
2.19898
2.22674
2.26008
2.29967
2.34495
2.3943
2.44551
2.49639
2.54509
2.59026
2.63102
2.66687
2.69774
2.72396
2.74567
2.76305
2.77617
2.78468
2.78834
2.78667
2.77888
2.76491
2.74539
2.72172
2.69574
2.66929
2.6438
2.62018
2.59882
2.57975
2.56279
2.54765
2.53404
2.52168
2.51034
2.49983
2.49002
2.48079
2.47207
2.4638
2.45592
2.44841
2.44122
2.43434
2.42773
2.42139
2.41528
2.40938
2.4037
2.39819
2.39286
2.38769
2.38267
2.37777
2.373
2.36835
2.36379
2.35933
2.35496
2.35066
2.34643
2.34227
2.33816
2.33411
2.3301
2.32613
2.3222
2.31832
2.31446
2.31063
2.30682
2.30304
2.29927
2.29551
2.29176
2.28802
2.28428
2.28054
2.27679
2.27303
2.26927
2.26549
2.26169
2.25787
2.25402
2.25015
2.24624
2.24229
2.2383
2.23426
2.23016
2.22602
2.22182
2.21756
2.21324
2.20886
2.20441
2.1999
2.19533
2.19069
2.18598
2.18121
2.17638
2.17148
2.16652
2.16149
2.15641
2.15126
2.14606
2.14079
2.13547
2.1301
2.12467
2.11918
2.11365
2.10806
2.10243
2.09675
2.09103
2.08527
2.07947
2.07363
2.06777
2.06188
2.05597
2.05004
2.0441
2.03815
2.03221
2.02627
2.02034
2.01442
2.00853
2.00267
1.99685
1.99108
1.98535
1.97968
1.97408
1.96856
1.96312
1.95777
1.95254
1.94741
1.94243
1.9376
1.93294
1.92848
1.92425
1.92028
1.9166
1.91315
1.9099
1.9064
1.90234
1.89599
0.611648
0.975299
1.2279
1.3513
1.45387
1.5336
1.60469
1.66611
1.72129
1.77035
1.81488
1.85581
1.89431
1.93114
1.96698
2.00214
2.03664
2.07011
2.10194
2.13142
2.1581
2.18211
2.20441
2.22687
2.25188
2.28173
2.31779
2.35992
2.40652
2.45508
2.50297
2.54807
2.58894
2.62472
2.65509
2.68021
2.70039
2.71613
2.72833
2.73799
2.74584
2.75203
2.75573
2.75568
2.74995
2.73737
2.71794
2.6931
2.66521
2.63676
2.60966
2.58501
2.56321
2.54421
2.5277
2.51328
2.50057
2.48924
2.47901
2.46967
2.46106
2.45306
2.44558
2.43854
2.4319
2.4256
2.41961
2.4139
2.40845
2.40323
2.39821
2.39339
2.38874
2.38425
2.3799
2.37569
2.37161
2.36764
2.36377
2.35999
2.35631
2.3527
2.34917
2.3457
2.34229
2.33894
2.33564
2.33239
2.32918
2.326
2.32285
2.31973
2.31664
2.31357
2.31052
2.30748
2.30445
2.30143
2.29841
2.29538
2.29236
2.28932
2.28627
2.28321
2.28014
2.27703
2.2739
2.27074
2.26754
2.2643
2.26102
2.25768
2.25429
2.25084
2.24733
2.24375
2.24011
2.2364
2.23262
2.22877
2.22485
2.22086
2.21679
2.21265
2.20844
2.20415
2.1998
2.19538
2.19089
2.18633
2.1817
2.17701
2.17226
2.16745
2.16258
2.15764
2.15265
2.14761
2.14251
2.13736
2.13216
2.12691
2.12161
2.11627
2.11089
2.10547
2.10002
2.09454
2.08904
2.08352
2.07799
2.07244
2.0669
2.06136
2.05582
2.05031
2.04481
2.03935
2.03392
2.02853
2.02319
2.01792
2.0127
2.00756
2.0025
1.99753
1.99267
1.98791
1.98329
1.97881
1.97449
1.97037
1.96647
1.9628
1.95939
1.95619
1.95314
1.94987
1.9461
1.94056
0.606534
0.960744
1.21367
1.33989
1.44579
1.52748
1.60031
1.66291
1.71943
1.77017
1.81728
1.86154
1.90413
1.94576
1.98708
2.02822
2.0689
2.10834
2.1454
2.17895
2.20834
2.23391
2.25721
2.28076
2.30737
2.33911
2.37653
2.41838
2.46219
2.5052
2.54531
2.58124
2.61237
2.6385
2.65945
2.67504
2.68523
2.69044
2.69199
2.69177
2.69197
2.69426
2.69861
2.70271
2.70312
2.69622
2.68043
2.65678
2.62838
2.59873
2.57053
2.54525
2.52334
2.50465
2.48877
2.47518
2.46344
2.45315
2.44401
2.43578
2.4283
2.42143
2.41506
2.40913
2.40357
2.39833
2.39338
2.38868
2.38421
2.37994
2.37586
2.37194
2.36817
2.36454
2.36103
2.35764
2.35436
2.35117
2.34807
2.34505
2.34211
2.33924
2.33644
2.33369
2.331
2.32835
2.32575
2.32319
2.32066
2.31817
2.3157
2.31326
2.31084
2.30844
2.30604
2.30366
2.30128
2.29891
2.29653
2.29414
2.29174
2.28933
2.2869
2.28444
2.28196
2.27945
2.27691
2.27432
2.2717
2.26903
2.26631
2.26354
2.2607
2.25779
2.25483
2.25179
2.24868
2.2455
2.24225
2.23892
2.23552
2.23204
2.22848
2.22485
2.22115
2.21737
2.21351
2.20959
2.20559
2.20152
2.19739
2.19319
2.18892
2.18459
2.18019
2.17574
2.17122
2.16665
2.16202
2.15734
2.15261
2.14782
2.14299
2.13811
2.1332
2.12824
2.12325
2.11823
2.11319
2.10812
2.10304
2.09795
2.09285
2.08776
2.08267
2.07758
2.07252
2.06748
2.06248
2.05751
2.05258
2.0477
2.04289
2.03814
2.03346
2.02886
2.02436
2.01996
2.01568
2.01153
2.00753
2.0037
2.00007
1.99664
1.99343
1.99037
1.98743
1.98428
1.9807
1.97581
0.593594
0.935899
1.18682
1.31494
1.42435
1.50857
1.58401
1.64897
1.70833
1.7623
1.81318
1.86181
1.9097
1.95737
2.00537
2.05361
2.10139
2.14732
2.18965
2.22679
2.25805
2.28406
2.30695
2.32976
2.3554
2.38546
2.4196
2.45576
2.49121
2.52374
2.55231
2.57675
2.59742
2.61471
2.62861
2.63865
2.64393
2.64406
2.63883
2.6299
2.62079
2.61587
2.61791
2.62666
2.6369
2.6415
2.63495
2.61649
2.58989
2.56032
2.53181
2.50643
2.48481
2.46673
2.45168
2.43905
2.42833
2.4191
2.41103
2.40386
2.39742
2.39157
2.3862
2.38124
2.37663
2.37231
2.36824
2.36441
2.36077
2.35731
2.35401
2.35085
2.34782
2.34491
2.34211
2.33941
2.33681
2.33428
2.33183
2.32946
2.32715
2.32491
2.32272
2.32058
2.31849
2.31644
2.31443
2.31246
2.31052
2.30861
2.30672
2.30485
2.303
2.30116
2.29933
2.2975
2.29567
2.29385
2.29201
2.29017
2.28831
2.28643
2.28452
2.2826
2.28064
2.27864
2.27661
2.27454
2.27242
2.27025
2.26803
2.26574
2.2634
2.26099
2.25851
2.25596
2.25334
2.25064
2.24788
2.24503
2.24211
2.23911
2.23604
2.23289
2.22966
2.22636
2.22299
2.21954
2.21601
2.21242
2.20875
2.20502
2.20122
2.19735
2.19342
2.18943
2.18538
2.18127
2.1771
2.17287
2.16859
2.16426
2.15989
2.15546
2.151
2.1465
2.14196
2.13739
2.1328
2.12819
2.12356
2.11891
2.11426
2.1096
2.10495
2.1003
2.09566
2.09105
2.08645
2.08189
2.07737
2.07289
2.06846
2.06409
2.05978
2.05554
2.05139
2.04732
2.04336
2.03952
2.03581
2.03224
2.02885
2.02562
2.02257
2.01964
2.01678
2.01373
2.01031
2.0059
0.573557
0.904207
1.15127
1.28059
1.39292
1.47992
1.55874
1.62713
1.69053
1.74897
1.80506
1.85945
1.91345
1.96784
2.02312
2.07888
2.13392
2.18612
2.23307
2.27276
2.30446
2.32917
2.34956
2.36908
2.39065
2.41551
2.44267
2.46961
2.49373
2.51364
2.52908
2.54097
2.55027
2.55764
2.56349
2.56799
2.57076
2.5707
2.56581
2.55501
2.53996
2.52597
2.52036
2.52842
2.54812
2.56913
2.57903
2.5717
2.55046
2.52289
2.49515
2.4704
2.44957
2.43247
2.41847
2.40695
2.39733
2.38917
2.38214
2.37597
2.3705
2.36557
2.36109
2.35698
2.35318
2.34964
2.34633
2.34322
2.34028
2.33749
2.33484
2.33231
2.32989
2.32758
2.32535
2.32322
2.32116
2.31918
2.31727
2.31542
2.31363
2.3119
2.31021
2.30857
2.30698
2.30543
2.30391
2.30242
2.30096
2.29952
2.29811
2.29671
2.29533
2.29395
2.29259
2.29122
2.28985
2.28848
2.2871
2.2857
2.28429
2.28285
2.28139
2.27991
2.27839
2.27683
2.27524
2.2736
2.27191
2.27017
2.26837
2.26651
2.26459
2.26261
2.26056
2.25844
2.25624
2.25398
2.25164
2.24922
2.24673
2.24416
2.24151
2.23879
2.23599
2.23312
2.23017
2.22715
2.22405
2.22089
2.21765
2.21434
2.21097
2.20753
2.20402
2.20045
2.19682
2.19313
2.18938
2.18558
2.18172
2.17781
2.17385
2.16984
2.1658
2.16171
2.15758
2.15343
2.14924
2.14504
2.14081
2.13657
2.13231
2.12805
2.12379
2.11952
2.11527
2.11102
2.1068
2.10259
2.09842
2.09428
2.09018
2.08613
2.08214
2.0782
2.07434
2.07055
2.06685
2.06326
2.05977
2.05641
2.05319
2.05011
2.04717
2.04432
2.04151
2.03855
2.03528
2.0313
0.549594
0.866375
1.11147
1.24221
1.35817
1.44865
1.53162
1.60415
1.67221
1.73559
1.79711
1.85731
1.91762
1.97872
2.0412
2.10429
2.16632
2.22446
2.27562
2.31731
2.34872
2.37113
2.38768
2.40229
2.4181
2.43618
2.45518
2.47234
2.48545
2.49353
2.4972
2.49751
2.49528
2.49106
2.48552
2.47951
2.47391
2.46939
2.46563
2.46031
2.45002
2.43452
2.42064
2.4202
2.44094
2.47763
2.51041
2.52158
2.51042
2.48723
2.46154
2.4382
2.41869
2.4029
2.3902
2.3799
2.37144
2.36436
2.35833
2.35312
2.34853
2.34444
2.34075
2.33739
2.33431
2.33144
2.32878
2.32627
2.32392
2.32169
2.31958
2.31758
2.31567
2.31384
2.3121
2.31043
2.30883
2.3073
2.30583
2.30441
2.30305
2.30173
2.30046
2.29924
2.29805
2.2969
2.29579
2.2947
2.29363
2.29259
2.29157
2.29056
2.28956
2.28858
2.28759
2.28661
2.28562
2.28463
2.28363
2.28261
2.28158
2.28052
2.27944
2.27832
2.27718
2.27599
2.27477
2.27349
2.27217
2.2708
2.26938
2.26789
2.26634
2.26473
2.26305
2.26131
2.25949
2.2576
2.25563
2.25359
2.25148
2.24929
2.24702
2.24468
2.24226
2.23977
2.2372
2.23456
2.23184
2.22906
2.2262
2.22327
2.22028
2.21721
2.21408
2.21089
2.20763
2.20432
2.20094
2.19751
2.19402
2.19048
2.18689
2.18325
2.17957
2.17585
2.17208
2.16829
2.16446
2.16061
2.15673
2.15283
2.14892
2.14499
2.14106
2.13713
2.13319
2.12927
2.12535
2.12145
2.11758
2.11373
2.10991
2.10613
2.1024
2.09872
2.0951
2.09154
2.08807
2.08467
2.08138
2.07818
2.07511
2.07214
2.06928
2.06649
2.06372
2.06083
2.0577
2.05405
0.516799
0.819367
1.06817
1.20253
1.32276
1.41782
1.50549
1.58295
1.65608
1.72474
1.79172
1.85749
1.92346
1.99066
2.05964
2.12945
2.19802
2.26189
2.31733
2.3613
2.39271
2.41286
2.42518
2.43402
2.44281
2.45264
2.46207
2.46836
2.46946
2.46526
2.4565
2.44441
2.4299
2.41386
2.39734
2.38135
2.36644
2.35282
2.34118
2.33324
2.32988
2.32723
2.32016
2.31518
2.328
2.37
2.42739
2.46483
2.46926
2.45334
2.431
2.40983
2.39213
2.37796
2.36671
2.35773
2.35044
2.34442
2.33936
2.33502
2.33124
2.3279
2.32491
2.32221
2.31973
2.31745
2.31533
2.31334
2.31148
2.30973
2.30807
2.3065
2.30501
2.3036
2.30225
2.30097
2.29975
2.29859
2.29748
2.29642
2.29541
2.29444
2.29352
2.29263
2.29178
2.29096
2.29018
2.28942
2.28868
2.28796
2.28727
2.28658
2.28591
2.28524
2.28458
2.28391
2.28325
2.28257
2.28188
2.28118
2.28046
2.27972
2.27895
2.27815
2.27732
2.27645
2.27554
2.27458
2.27358
2.27252
2.27142
2.27025
2.26902
2.26773
2.26638
2.26495
2.26346
2.2619
2.26026
2.25855
2.25676
2.2549
2.25296
2.25094
2.24885
2.24669
2.24445
2.24214
2.23975
2.23729
2.23476
2.23215
2.22948
2.22674
2.22394
2.22107
2.21813
2.21513
2.21207
2.20895
2.20577
2.20254
2.19926
2.19593
2.19255
2.18912
2.18566
2.18215
2.17862
2.17505
2.17146
2.16784
2.1642
2.16055
2.15688
2.1532
2.14953
2.14585
2.14218
2.13852
2.13488
2.13126
2.12766
2.12409
2.12056
2.11708
2.11364
2.11026
2.10695
2.1037
2.10054
2.09747
2.09448
2.09159
2.08879
2.08604
2.08331
2.08049
2.0775
2.07416
0.475049
0.765108
1.02007
1.16151
1.28693
1.38806
1.48142
1.56479
1.64358
1.71786
1.79021
1.86082
1.93177
2.00405
2.07831
2.15364
2.2278
2.29701
2.35702
2.40418
2.43678
2.45572
2.46428
2.46703
2.46767
2.46761
2.46587
2.46018
2.44878
2.43166
2.40962
2.38378
2.35536
2.32584
2.29696
2.27046
2.24761
2.22865
2.21252
2.19805
2.18728
2.18584
2.19331
2.20352
2.21873
2.25709
2.33201
2.40151
2.42768
2.42159
2.4038
2.38539
2.36982
2.35746
2.34776
2.34009
2.33395
2.32893
2.32475
2.32121
2.31815
2.31547
2.31308
2.31094
2.30898
2.30719
2.30552
2.30398
2.30253
2.30117
2.2999
2.29869
2.29756
2.29648
2.29547
2.29451
2.29361
2.29276
2.29196
2.2912
2.29049
2.28981
2.28918
2.28858
2.28802
2.28749
2.28698
2.28651
2.28605
2.28561
2.28519
2.28479
2.28439
2.28399
2.2836
2.28321
2.28282
2.28242
2.282
2.28157
2.28113
2.28066
2.28017
2.27964
2.27909
2.27849
2.27786
2.27718
2.27646
2.27569
2.27486
2.27397
2.27303
2.27202
2.27095
2.26981
2.2686
2.26732
2.26597
2.26455
2.26305
2.26147
2.25982
2.2581
2.25629
2.25441
2.25246
2.25043
2.24832
2.24614
2.24389
2.24156
2.23917
2.2367
2.23417
2.23157
2.2289
2.22616
2.22336
2.22051
2.21759
2.21461
2.21158
2.2085
2.20536
2.20218
2.19896
2.19569
2.19239
2.18906
2.18569
2.18229
2.17887
2.17543
2.17198
2.16851
2.16503
2.16155
2.15808
2.1546
2.15114
2.14769
2.14426
2.14086
2.13749
2.13415
2.13085
2.1276
2.12441
2.12128
2.11821
2.11522
2.11231
2.10947
2.1067
2.10398
2.10128
2.09852
2.09564
2.09254
0.420583
0.703001
0.960805
1.11365
1.24675
1.35644
1.45753
1.54865
1.63438
1.71514
1.79278
1.8683
1.94365
2.01984
2.09766
2.17655
2.25452
2.32794
2.39235
2.44357
2.479
2.49854
2.50461
2.50196
2.49408
2.48286
2.46844
2.4497
2.4255
2.39566
2.36074
2.32188
2.28065
2.23897
2.1989
2.16217
2.12979
2.10209
2.07927
2.06115
2.04631
2.03676
2.03826
2.05741
2.09308
2.14044
2.2286
2.33318
2.38647
2.39213
2.37963
2.36425
2.35102
2.34056
2.33243
2.32607
2.32102
2.31694
2.31357
2.31073
2.30831
2.30619
2.30433
2.30265
2.30114
2.29975
2.29847
2.29728
2.29618
2.29515
2.29419
2.29329
2.29244
2.29166
2.29092
2.29023
2.2896
2.28901
2.28846
2.28796
2.2875
2.28707
2.28669
2.28634
2.28602
2.28573
2.28547
2.28523
2.28501
2.28481
2.28463
2.28446
2.2843
2.28415
2.284
2.28385
2.2837
2.28354
2.28337
2.28318
2.28298
2.28276
2.28251
2.28224
2.28193
2.28159
2.28121
2.28078
2.28031
2.27979
2.27922
2.27859
2.2779
2.27715
2.27634
2.27546
2.27451
2.27349
2.2724
2.27123
2.26999
2.26867
2.26728
2.26581
2.26426
2.26264
2.26093
2.25915
2.25729
2.25536
2.25335
2.25127
2.24911
2.24688
2.24458
2.24221
2.23976
2.23725
2.23467
2.23203
2.22933
2.22656
2.22373
2.22085
2.21792
2.21493
2.2119
2.20882
2.2057
2.20254
2.19935
2.19612
2.19287
2.18959
2.18628
2.18297
2.17963
2.17629
2.17295
2.1696
2.16626
2.16293
2.15962
2.15632
2.15304
2.1498
2.14659
2.14342
2.1403
2.13723
2.13422
2.13127
2.12839
2.12557
2.12282
2.12011
2.11743
2.11472
2.11196
2.10908
0.357203
0.645805
0.893236
1.05685
1.20059
1.32185
1.43316
1.53407
1.6282
1.71608
1.79963
1.88034
1.95954
2.03832
2.11761
2.19731
2.27599
2.35067
2.41732
2.47166
2.51041
2.53223
2.53811
2.53239
2.51735
2.49548
2.46844
2.43665
2.39972
2.3578
2.31153
2.2621
2.21135
2.16148
2.1149
2.07361
2.0387
2.00986
1.98579
1.96409
1.94378
1.92639
1.91523
1.91887
1.95115
2.01511
2.12948
2.27437
2.35438
2.36947
2.36069
2.34779
2.33665
2.32795
2.32125
2.31606
2.31197
2.30868
2.30598
2.30373
2.30181
2.30014
2.29867
2.29736
2.29618
2.2951
2.29411
2.2932
2.29235
2.29157
2.29084
2.29017
2.28954
2.28897
2.28844
2.28796
2.28753
2.28714
2.28678
2.28647
2.2862
2.28597
2.28577
2.2856
2.28547
2.28537
2.28529
2.28523
2.2852
2.28519
2.28519
2.28521
2.28524
2.28528
2.28532
2.28536
2.2854
2.28544
2.28546
2.28548
2.28548
2.28546
2.28541
2.28535
2.28525
2.28511
2.28494
2.28473
2.28447
2.28417
2.28381
2.2834
2.28293
2.2824
2.28181
2.28116
2.28044
2.27964
2.27878
2.27784
2.27683
2.27574
2.27457
2.27333
2.27201
2.27061
2.26913
2.26757
2.26594
2.26422
2.26243
2.26057
2.25862
2.2566
2.25451
2.25234
2.25011
2.2478
2.24542
2.24297
2.24046
2.23788
2.23524
2.23254
2.22979
2.22698
2.22412
2.2212
2.21824
2.21524
2.2122
2.20912
2.206
2.20286
2.19969
2.1965
2.19329
2.19006
2.18682
2.18358
2.18034
2.1771
2.17387
2.17065
2.16745
2.16428
2.16113
2.15802
2.15494
2.15192
2.14894
2.14602
2.14316
2.14035
2.13761
2.13491
2.13224
2.12959
2.12692
2.12424
0.285252
0.600632
0.833057
1.00057
1.15336
1.28673
1.40912
1.52041
1.62326
1.71854
1.80821
1.89368
1.9762
2.05681
2.13641
2.21517
2.29219
2.36527
2.43112
2.48596
2.52642
2.55041
2.55761
2.5513
2.53276
2.50377
2.46727
2.42487
2.37735
2.32555
2.27053
2.21376
2.15751
2.10467
2.05808
2.01962
1.98963
1.96672
1.94787
1.9305
1.91267
1.89347
1.87443
1.86678
1.88052
1.92548
2.05939
2.24646
2.34156
2.35767
2.34906
2.33723
2.32747
2.32005
2.31444
2.31013
2.30676
2.30406
2.30186
2.30001
2.29844
2.29708
2.29588
2.29481