/*--------------------------------*- C++ -*----------------------------------*\
| =========                 |                                                 |
| \\      /  F ield         | OpenFOAM: The Open Source CFD Toolbox           |
|  \\    /   O peration     | Version:  v1906                                 |
|   \\  /    A nd           | Web:      www.OpenFOAM.com                      |
|    \\/     M anipulation  |                                                 |
\*---------------------------------------------------------------------------*/
FoamFile
{
    version     2.0;
    format      ascii;
    class       volScalarField;
    location    "300";
    object      nut;
}
// * * * * * * * * * * * * * * * * * * * * * * * * * * * * * * * * * * * * * //

dimensions      [0 2 -1 0 0 0 0];


internalField   nonuniform List<scalar> 
12225
(
5.38048e-05
5.34216e-05
5.26396e-05
5.17775e-05
5.09466e-05
5.01807e-05
4.94891e-05
4.88717e-05
4.83136e-05
4.7824e-05
4.73673e-05
4.69887e-05
4.66875e-05
4.64411e-05
4.62247e-05
4.60683e-05
4.58973e-05
4.5848e-05
0.000743661
0.000274837
0.000208934
0.00018684
0.000173821
0.000168954
0.000164806
0.000161211
0.000158356
0.000155851
0.000154036
0.000152142
0.000151103
0.000149381
0.000149279
0.000147631
0.000149227
0.000147015
0.00337132
0.000965729
0.00066849
0.000562363
0.000503996
0.000472243
0.000449203
0.000432046
0.00041932
0.000409013
0.000400625
0.000393384
0.000387798
0.000382247
0.000378937
0.000374205
0.000374008
0.000370008
0.00784756
0.00229251
0.00147343
0.00117603
0.00101892
0.00092694
0.00086523
0.000820633
0.000788026
0.000762427
0.000741715
0.000725219
0.000712075
0.000700595
0.000691925
0.000683237
0.000679435
0.000670952
0.012763
0.00432703
0.00271012
0.0021049
0.00178922
0.00160036
0.00147458
0.00138445
0.00131753
0.00126577
0.00122439
0.00119076
0.00116391
0.0011408
0.00112181
0.00110536
0.0010945
0.00107887
0.0171143
0.00693261
0.00436988
0.00334684
0.00280643
0.00247784
0.0022579
0.00210037
0.00198267
0.00189164
0.00181913
0.00176014
0.00171201
0.00167166
0.0016379
0.00160924
0.00158623
0.00156176
0.0205953
0.00988501
0.0064192
0.00491337
0.00409608
0.00359077
0.00324963
0.00300439
0.00282029
0.00267745
0.00256358
0.00247088
0.00239458
0.00233084
0.00227726
0.0022319
0.00219452
0.00215698
0.0232415
0.0129322
0.00876255
0.00676782
0.0056407
0.00492795
0.00444025
0.00408679
0.00381972
0.00361144
0.00344484
0.00330889
0.00319644
0.00310231
0.00302292
0.00295559
0.00289883
0.00284498
0.0252074
0.0158709
0.0112852
0.00886058
0.00742187
0.00648659
0.00583567
0.00535876
0.00499557
0.0047106
0.00448165
0.00429422
0.00413862
0.00400803
0.00389758
0.00380373
0.00372378
0.00365062
0.0266553
0.0185578
0.0138564
0.0111115
0.00939072
0.00823469
0.00741301
0.00680237
0.00633253
0.00596096
0.00566062
0.00541358
0.00520764
0.00503418
0.00488701
0.00476154
0.0046539
0.00455789
0.0277234
0.0209181
0.0163605
0.0134346
0.0114904
0.0101355
0.00914869
0.00840288
0.00782194
0.00735825
0.00698074
0.00666849
0.00640697
0.00618587
0.00599766
0.0058367
0.00569826
0.00557652
0.0284481
0.0227455
0.018483
0.0155184
0.0134403
0.0119393
0.0108189
0.00995694
0.00927671
0.0087283
0.00827833
0.00790382
0.00758856
0.0073209
0.00709222
0.00689599
0.00672677
0.00657905
0.0290089
0.0243071
0.0204434
0.0175459
0.0154029
0.0137954
0.0125627
0.0115956
0.010821
0.0101893
0.00966645
0.00922817
0.00885712
0.00854057
0.00826903
0.00803518
0.00783303
0.00765692
0.0294903
0.0257599
0.0224045
0.0196851
0.017551
0.0158787
0.014554
0.0134893
0.0126207
0.0119021
0.0113004
0.0107915
0.0103575
0.00998489
0.00966357
0.00938556
0.00914432
0.00893418
0.0298851
0.0270329
0.0242462
0.021807
0.0197692
0.0180928
0.0167146
0.0155746
0.0146237
0.0138233
0.0131438
0.0125626
0.0120625
0.0116299
0.0112544
0.0109277
0.0106426
0.010393
0.0301889
0.0280644
0.0258337
0.0237349
0.0218685
0.0202531
0.0188705
0.01769
0.0166803
0.0158134
0.0150658
0.0144181
0.0138549
0.0133635
0.0129338
0.0125574
0.0122271
0.0119346
0.0303989
0.028804
0.0270303
0.0252559
0.0235879
0.0220748
0.0207291
0.0195443
0.0185058
0.0175965
0.0167999
0.0161009
0.0154866
0.014946
0.0144696
0.0140496
0.0136774
0.0133462
0.0305052
0.0291873
0.0276722
0.0260996
0.0245691
0.0231385
0.021834
0.020662
0.0196177
0.018691
0.0178704
0.0171439
0.0165008
0.0159313
0.0154269
0.0149799
0.0145808
0.0142243
0.0304718
0.0290679
0.0274735
0.0258399
0.0242682
0.0228132
0.0214965
0.0203203
0.019277
0.0183544
0.0175394
0.0168192
0.0161826
0.0156195
0.0151214
0.014681
0.0142898
0.0139421
0.0302309
0.0282134
0.0260754
0.0240422
0.0222151
0.0206189
0.0192413
0.018057
0.0170379
0.0161583
0.015396
0.0147326
0.0141532
0.0136458
0.0132005
0.0128097
0.0124671
0.0121658
0.0298202
0.0268266
0.023948
0.0214618
0.0194054
0.0177256
0.0163513
0.0152182
0.0142747
0.0134811
0.0128073
0.0122303
0.0117327
0.0113011
0.0109254
0.0105979
0.0103128
0.0100667
0.0291389
0.024707
0.0209829
0.018131
0.0159859
0.0143557
0.0130925
0.0120931
0.0112869
0.0106254
0.0100744
0.00960968
0.0092137
0.00887344
0.00857923
0.00832391
0.00810235
0.00791159
0.0280352
0.0217146
0.0172837
0.0143372
0.0123313
0.0109088
0.00985912
0.00905754
0.00842778
0.00792124
0.00750586
0.00715973
0.0068675
0.0066181
0.00640337
0.00621739
0.00605582
0.00591805
0.0262536
0.0178155
0.013145
0.0104892
0.00884761
0.00775217
0.00697546
0.00639888
0.00595518
0.0056038
0.00531908
0.00508406
0.0048871
0.00471999
0.00457671
0.0044529
0.00434514
0.00425288
0.0233809
0.0132052
0.00902218
0.00699343
0.00583847
0.00510199
0.00459387
0.00422399
0.00394324
0.00372312
0.00354613
0.00340092
0.00327978
0.00317741
0.00308969
0.00301388
0.00294683
0.0028898
0.0189042
0.00845528
0.00544994
0.00418486
0.00350646
0.00308634
0.00280122
0.00259696
0.00244334
0.00232357
0.00222773
0.00214937
0.00208417
0.00202929
0.00198216
0.00194168
0.0019058
0.00187561
0.0125843
0.00438883
0.00278853
0.00217242
0.00185036
0.00165227
0.00151841
0.00142443
0.00135372
0.00129854
0.00125458
0.0012187
0.00118893
0.00116407
0.00114218
0.00112373
0.0011065
0.00109204
0.0056261
0.00171144
0.00115548
0.000945922
0.000836938
0.000768937
0.00072328
0.00069307
0.000668678
0.000649192
0.000633629
0.000620577
0.00060929
0.000599715
0.000591013
0.000583775
0.000576526
0.000571553
0.00117126
0.000435629
0.000327273
0.000284776
0.000262884
0.000248711
0.000241402
0.00023714
0.000233133
0.000229491
0.000226224
0.000223381
0.000220787
0.000218589
0.000216474
0.000214776
0.000212944
0.000211275
7.08579e-05
7.01306e-05
6.91146e-05
6.81133e-05
6.71677e-05
6.62975e-05
6.55002e-05
6.47737e-05
6.41134e-05
6.35126e-05
6.29644e-05
6.24623e-05
6.2002e-05
6.15768e-05
6.11864e-05
6.08215e-05
6.04875e-05
6.01689e-05
1.83746e-05
4.08422e-05
4.3946e-05
4.40667e-05
4.29503e-05
3.87669e-05
3.24198e-05
2.80059e-05
3.01301e-05
3.78897e-05
4.84736e-05
5.95551e-05
6.77885e-05
7.45527e-05
8.03001e-05
8.5286e-05
8.97076e-05
9.36927e-05
9.73185e-05
0.000100657
0.000103758
0.000106662
0.0001094
0.000111999
0.00011448
0.000116854
0.000119127
0.000121299
0.000123366
0.00012532
0.000127154
0.000128879
0.000130482
0.000131953
0.000133277
0.000134441
0.000135434
0.000136247
0.00013689
0.000137276
0.000137446
0.000137451
0.000137243
0.000136881
0.000136323
0.000135568
0.000134579
0.000133309
0.000131845
0.000130433
0.00012904
0.000127678
0.000126363
0.000125099
0.000123892
0.000122742
0.000121652
0.000120618
0.000119656
0.000118717
0.000117574
0.000116592
0.000115941
0.000115481
0.000115025
0.000114544
0.000114053
0.000113559
0.000113067
0.000112584
0.000112114
0.00011166
0.000111223
0.000110802
0.000110397
0.000110008
0.000109633
0.000109273
0.000108926
0.00010859
0.000108266
0.000107951
0.000107646
0.000107349
0.000107059
0.000106776
0.0001065
0.000106229
0.000105963
0.000105702
0.000105446
0.000105193
0.000104945
0.0001047
0.000104459
0.000104221
0.000103987
0.000103756
0.000103527
0.000103301
0.000103077
0.000102857
0.000102639
0.000102423
0.000102211
0.000102001
0.000101794
0.00010159
0.000101389
0.00010119
0.000100994
0.000100802
0.000100612
0.000100425
0.000100241
0.00010006
9.98821e-05
9.97076e-05
9.95362e-05
9.93675e-05
9.92017e-05
9.90386e-05
9.88781e-05
9.87202e-05
9.85647e-05
9.84116e-05
9.82608e-05
9.81121e-05
9.79656e-05
9.7821e-05
9.76782e-05
9.7537e-05
9.73975e-05
9.72591e-05
9.71227e-05
9.69858e-05
9.68531e-05
9.67176e-05
9.66047e-05
9.64594e-05
9.63423e-05
9.61935e-05
9.60747e-05
9.59251e-05
9.58049e-05
9.56552e-05
9.55167e-05
9.5392e-05
9.52646e-05
9.51062e-05
9.49818e-05
9.48235e-05
9.46931e-05
9.45347e-05
9.43875e-05
9.423e-05
9.41031e-05
9.39334e-05
9.37768e-05
9.36141e-05
9.34582e-05
9.32933e-05
9.31324e-05
9.29637e-05
9.27963e-05
9.26227e-05
9.24483e-05
9.22676e-05
9.20847e-05
9.18938e-05
9.16995e-05
9.14923e-05
9.12813e-05
9.10444e-05
9.08049e-05
9.04826e-05
9.0088e-05
8.944e-05
8.85812e-05
8.53679e-05
2.57845e-05
5.20234e-05
0.00014259
0.000210241
0.000254099
0.000275199
0.000277546
0.000277179
0.000286188
0.000302969
0.000318688
0.000330585
0.000343565
0.000359147
0.000377416
0.000398144
0.000420394
0.000443332
0.000466224
0.000488451
0.000509513
0.00052899
0.000546469
0.000561984
0.00057729
0.00059276
0.000608665
0.000625163
0.000642075
0.000658568
0.000674028
0.000690407
0.000707806
0.000725943
0.000744406
0.000762802
0.000780911
0.000798561
0.000816074
0.000832315
0.000847618
0.000860862
0.000871746
0.00088182
0.000891484
0.000900289
0.000908249
0.000914944
0.000919258
0.0009218
0.000922624
0.000921945
0.000919928
0.000916716
0.000912419
0.000907106
0.000900816
0.000893627
0.000885898
0.000878429
0.000872504
0.000870522
0.000874461
0.000880188
0.000884687
0.000887841
0.000890124
0.000891712
0.000892792
0.000893583
0.000894223
0.000894804
0.000895379
0.000895981
0.000896623
0.000897316
0.00089806
0.000898853
0.000899688
0.00090056
0.000901462
0.000902387
0.000903329
0.000904284
0.000905247
0.000906214
0.000907181
0.000908144
0.000909098
0.000910044
0.000910987
0.000911925
0.000912852
0.000913759
0.000914641
0.000915498
0.000916328
0.000917131
0.000917904
0.000918646
0.000919356
0.000920033
0.000920674
0.000921278
0.000921839
0.000922356
0.000922826
0.000923245
0.000923613
0.000923926
0.000924184
0.000924386
0.000924529
0.000924613
0.000924634
0.00092459
0.000924477
0.000924285
0.000924002
0.000923632
0.000923176
0.000922636
0.00092201
0.000921299
0.000920502
0.000919622
0.000918657
0.000917609
0.000916478
0.000915266
0.000913972
0.000912598
0.000911146
0.000909609
0.000908067
0.000906362
0.000904821
0.00090282
0.000901045
0.000898785
0.000896941
0.000894536
0.000892601
0.000890085
0.000888082
0.00088544
0.00088343
0.000880694
0.000878496
0.000875659
0.000873398
0.000870505
0.000868163
0.000865161
0.000862819
0.000859753
0.000857329
0.000854216
0.000851769
0.000848636
0.000846162
0.000843078
0.000840559
0.000837591
0.00083501
0.000832186
0.000829621
0.000826933
0.000824461
0.000821989
0.000819744
0.000817566
0.000815706
0.000813697
0.00081073
0.000804712
0.00079393
0.000777637
0.000750761
0.000676169
3.41037e-05
0.000161373
0.000310807
0.000405408
0.00046956
0.000511407
0.000539345
0.000562249
0.000586562
0.000615897
0.000650443
0.000688985
0.000730404
0.000773571
0.000818923
0.000863903
0.000907571
0.000949075
0.00098781
0.00102349
0.00105616
0.00108625
0.00111447
0.00114182
0.00116948
0.00119855
0.00123025
0.00126525
0.00130371
0.0013456
0.0013908
0.00143906
0.0014894
0.00154061
0.00159133
0.0016404
0.00168793
0.00173518
0.00177998
0.00182323
0.00186586
0.00190626
0.00194287
0.00197866
0.0020134
0.00204569
0.0020747
0.00209971
0.0021204
0.00213729
0.00215059
0.00216069
0.00216802
0.00217299
0.00217598
0.00217738
0.00217758
0.00217712
0.00217666
0.00217685
0.00217827
0.00218109
0.00218439
0.00218638
0.00218685
0.00218634
0.00218531
0.00218401
0.00218266
0.00218138
0.00218027
0.00217935
0.00217863
0.00217813
0.00217784
0.00217775
0.00217784
0.0021781
0.0021785
0.00217902
0.00217964
0.00218034
0.0021811
0.00218193
0.00218279
0.00218368
0.0021846
0.00218552
0.00218644
0.00218736
0.00218827
0.00218916
0.00219001
0.00219082
0.00219158
0.00219228
0.00219291
0.00219346
0.00219394
0.00219433
0.00219464
0.00219486
0.00219498
0.002195
0.0021949
0.0021947
0.00219436
0.00219391
0.00219332
0.00219259
0.00219174
0.00219075
0.00218963
0.00218838
0.00218698
0.00218543
0.00218372
0.00218184
0.00217978
0.00217754
0.00217513
0.00217254
0.00216978
0.00216686
0.00216378
0.00216054
0.00215715
0.0021536
0.00214992
0.00214609
0.00214212
0.00213801
0.00213377
0.0021294
0.00212492
0.00212031
0.00211561
0.00211071
0.00210567
0.00210047
0.00209519
0.00208976
0.00208427
0.00207866
0.00207299
0.00206719
0.0020614
0.00205544
0.00204943
0.00204329
0.00203715
0.00203089
0.00202461
0.0020182
0.00201182
0.00200529
0.0019988
0.00199218
0.00198563
0.00197896
0.00197239
0.00196572
0.00195914
0.0019525
0.00194593
0.00193933
0.00193278
0.0019262
0.00191964
0.00191308
0.00190654
0.00189996
0.00189333
0.00188612
0.00187687
0.00186448
0.00184744
0.00182164
0.0017766
0.00166729
3.94476e-05
0.000224879
0.000423569
0.000562622
0.000665793
0.00074453
0.00080645
0.000860539
0.000911507
0.000961793
0.00101392
0.00106921
0.00112671
0.00118571
0.00124383
0.00130022
0.00135409
0.00140476
0.00145182
0.0014952
0.00153514
0.0015722
0.00160706
0.00164038
0.00167255
0.00170584
0.00174649
0.00179657
0.00185655
0.00192603
0.00200403
0.00208902
0.00217868
0.00226986
0.00235896
0.00244181
0.00251906
0.00259348
0.0026653
0.00273724
0.00280867
0.00287834
0.00294466
0.0030104
0.00307409
0.00313354
0.00318749
0.00323512
0.00327612
0.00331061
0.00333886
0.00336143
0.00337905
0.0033925
0.00340255
0.00340997
0.00341553
0.00341988
0.00342353
0.00342674
0.00342951
0.00343154
0.00343238
0.00343191
0.0034306
0.00342891
0.00342714
0.00342544
0.00342395
0.0034227
0.00342175
0.00342108
0.0034207
0.00342061
0.00342079
0.00342122
0.00342187
0.0034227
0.00342368
0.00342478
0.00342599
0.00342727
0.00342862
0.00343002
0.00343145
0.00343289
0.00343434
0.00343578
0.00343719
0.00343858
0.00343992
0.00344121
0.00344242
0.00344354
0.00344456
0.00344546
0.00344623
0.00344687
0.00344737
0.00344773
0.00344793
0.00344798
0.00344785
0.00344755
0.00344706
0.00344637
0.00344548
0.00344437
0.00344305
0.00344151
0.00343976
0.0034378
0.00343564
0.00343326
0.00343066
0.00342782
0.00342464
0.00342118
0.00341745
0.00341347
0.00340925
0.0034048
0.00340015
0.00339528
0.00339023
0.00338499
0.00337959
0.00337401
0.00336828
0.00336238
0.00335634
0.00335014
0.00334379
0.00333729
0.00333066
0.00332388
0.00331694
0.00330983
0.00330254
0.0032951
0.00328748
0.00327972
0.00327183
0.00326383
0.00325573
0.00324751
0.00323922
0.0032308
0.00322228
0.00321366
0.00320496
0.00319615
0.00318724
0.00317824
0.00316917
0.00316001
0.00315081
0.00314155
0.00313227
0.00312295
0.00311364
0.0031043
0.00309498
0.00308564
0.0030763
0.00306694
0.00305754
0.00304801
0.00303837
0.00302858
0.00301859
0.00300828
0.00299741
0.00298493
0.00296953
0.00295137
0.00292816
0.00289358
0.00283621
0.00271728
4.28282e-05
0.000258536
0.000503665
0.000686947
0.000832609
0.000953095
0.00105327
0.00113968
0.00121945
0.00129291
0.00136295
0.00143093
0.00149765
0.00156355
0.00162896
0.00169253
0.00175253
0.00180895
0.00186122
0.00190994
0.00195558
0.0019989
0.002041
0.00208324
0.00212747
0.00217616
0.00223271
0.00229988
0.00237925
0.00247096
0.00257361
0.00268499
0.00280188
0.00292002
0.0030351
0.00314406
0.00324734
0.00334606
0.00344467
0.00354426
0.0036449
0.00374559
0.00384503
0.00394568
0.00404425
0.00413812
0.00422525
0.00430399
0.00437316
0.00443222
0.00448124
0.00452084
0.00455206
0.00457611
0.0045943
0.00460787
0.00461791
0.00462528
0.00463053
0.00463402
0.00463593
0.0046364
0.00463565
0.00463404
0.00463203
0.00462994
0.00462794
0.00462615
0.00462465
0.00462347
0.00462262
0.0046221
0.0046219
0.004622
0.00462238
0.00462299
0.00462381
0.00462481
0.00462594
0.0046272
0.00462856
0.00463
0.0046315
0.00463304
0.00463461
0.00463617
0.00463772
0.00463924
0.00464073
0.00464216
0.00464351
0.00464477
0.00464591
0.00464691
0.00464775
0.00464842
0.00464891
0.00464923
0.00464935
0.00464927
0.00464899
0.00464849
0.00464776
0.00464678
0.00464555
0.00464404
0.00464225
0.00464019
0.00463785
0.00463523
0.00463235
0.0046292
0.00462578
0.0046221
0.00461814
0.00461389
0.00460933
0.00460447
0.0045993
0.00459384
0.00458809
0.00458208
0.00457581
0.00456929
0.00456255
0.00455559
0.00454842
0.00454106
0.00453352
0.00452579
0.00451791
0.00450986
0.00450166
0.00449331
0.00448483
0.0044762
0.00446744
0.00445854
0.00444949
0.00444031
0.00443099
0.00442154
0.00441196
0.00440226
0.00439245
0.00438252
0.00437247
0.00436231
0.00435202
0.00434162
0.00433112
0.00432051
0.00430978
0.00429896
0.00428805
0.00427705
0.00426597
0.00425484
0.00424365
0.00423242
0.00422115
0.00420984
0.0041985
0.0041871
0.00417564
0.00416408
0.00415238
0.00414048
0.00412833
0.00411583
0.00410286
0.00408917
0.00407421
0.0040564
0.00403581
0.00401213
0.00398195
0.00393931
0.00387325
0.00375328
4.4804e-05
0.000273967
0.000555386
0.000776205
0.000958733
0.00111397
0.0012466
0.0013616
0.00146448
0.00155799
0.0016443
0.00172715
0.00180799
0.00188556
0.00195953
0.00202978
0.00209587
0.00215726
0.00221384
0.00226645
0.00231584
0.00236266
0.00240769
0.00245173
0.00249535
0.00253841
0.00259019
0.00265862
0.00274785
0.00285873
0.00298749
0.00313149
0.00328641
0.00344479
0.00359928
0.00374219
0.00386937
0.00399124
0.00411353
0.00423907
0.00436927
0.00450347
0.00464137
0.00478421
0.00492768
0.0050683
0.00520241
0.00532646
0.00543748
0.00553354
0.00561394
0.0056791
0.00573031
0.0057694
0.00579841
0.00581935
0.00583394
0.00584362
0.00584947
0.00585234
0.00585291
0.00585179
0.00584955
0.00584667
0.00584354
0.00584042
0.00583747
0.00583479
0.00583243
0.00583044
0.0058288
0.00582753
0.0058266
0.005826
0.00582569
0.0058256
0.00582571
0.00582598
0.00582639
0.00582694
0.00582758
0.0058283
0.00582907
0.00582987
0.00583067
0.00583144
0.00583218
0.00583285
0.00583343
0.00583392
0.00583428
0.00583449
0.00583452
0.00583436
0.00583399
0.00583342
0.00583262
0.00583161
0.00583036
0.00582886
0.00582711
0.0058251
0.0058228
0.0058202
0.00581729
0.00581405
0.0058105
0.00580662
0.00580244
0.00579795
0.00579317
0.00578809
0.00578273
0.00577708
0.00577113
0.00576487
0.0057583
0.00575142
0.00574423
0.00573676
0.00572901
0.00572101
0.00571276
0.00570428
0.00569559
0.00568669
0.00567761
0.00566836
0.00565894
0.00564938
0.00563968
0.00562985
0.0056199
0.00560984
0.00559966
0.00558938
0.00557898
0.00556848
0.00555786
0.00554713
0.00553628
0.00552532
0.00551424
0.00550303
0.0054917
0.00548025
0.00546868
0.00545697
0.00544515
0.0054332
0.00542113
0.00540896
0.00539667
0.00538428
0.0053718
0.00535924
0.00534661
0.00533391
0.00532116
0.00530836
0.0052955
0.00528259
0.0052696
0.00525652
0.00524332
0.00522995
0.00521635
0.00520243
0.00518811
0.00517322
0.00515754
0.00514066
0.00512179
0.0050995
0.00507427
0.00504492
0.00500776
0.00495774
0.00488608
0.00476673
4.58965e-05
0.000278612
0.000586221
0.000837105
0.00104918
0.00123177
0.00138953
0.00152815
0.00165214
0.00176627
0.00187309
0.00197324
0.00206738
0.00215586
0.0022387
0.00231585
0.00238672
0.00245164
0.00251103
0.0025659
0.00261679
0.00266429
0.00270901
0.00275147
0.00279206
0.00283159
0.00288396
0.00296048
0.00306578
0.00319578
0.00334865
0.00351858
0.00369742
0.00387766
0.00405272
0.00421662
0.00436197
0.0045012
0.00464306
0.00479319
0.00495378
0.00512494
0.0053077
0.00550241
0.00570472
0.00590981
0.00611143
0.00630274
0.00647741
0.00663072
0.00676006
0.00686503
0.0069471
0.00700895
0.00705385
0.0070851
0.00710572
0.00711824
0.00712471
0.00712676
0.00712569
0.00712252
0.00711807
0.00711292
0.00710748
0.00710204
0.00709679
0.00709182
0.00708721
0.00708298
0.00707916
0.00707573
0.00707267
0.00706998
0.00706762
0.00706553
0.00706365
0.00706197
0.00706045
0.00705905
0.00705775
0.0070565
0.00705528
0.00705406
0.00705281
0.00705151
0.00705013
0.00704865
0.00704705
0.00704531
0.00704338
0.00704123
0.00703884
0.00703622
0.00703336
0.00703025
0.00702688
0.00702325
0.00701935
0.00701516
0.00701069
0.0070059
0.00700079
0.00699532
0.00698951
0.00698336
0.00697688
0.00697006
0.00696292
0.00695545
0.00694769
0.00693965
0.00693133
0.00692273
0.00691384
0.00690464
0.00689516
0.00688539
0.00687535
0.00686507
0.00685456
0.00684384
0.00683294
0.00682185
0.0068106
0.0067992
0.00678766
0.006776
0.00676424
0.00675238
0.00674044
0.00672843
0.00671635
0.00670419
0.00669196
0.00667967
0.0066673
0.00665485
0.00664232
0.00662971
0.00661701
0.0066042
0.00659128
0.00657826
0.00656511
0.00655185
0.00653847
0.00652496
0.00651134
0.0064976
0.00648374
0.00646977
0.0064557
0.00644153
0.00642727
0.00641293
0.00639852
0.00638403
0.00636949
0.00635487
0.00634019
0.00632543
0.00631056
0.00629555
0.00628036
0.00626493
0.00624917
0.00623297
0.0062162
0.00619865
0.00617997
0.00615964
0.00613677
0.00611031
0.00608123
0.00604734
0.0060047
0.0059492
0.00587096
0.00575273
4.62445e-05
0.000279207
0.000602413
0.000872417
0.00110481
0.00130827
0.0014878
0.00164935
0.00179608
0.00193075
0.00205503
0.00217045
0.00227773
0.00237716
0.00246844
0.00255141
0.00262671
0.00269503
0.00275707
0.0028137
0.00286574
0.00291391
0.00295871
0.00300027
0.00303817
0.00307903
0.00313985
0.00323184
0.00335413
0.00350242
0.00367098
0.00384924
0.00402955
0.00420633
0.00437699
0.00454116
0.00469996
0.00485277
0.00501047
0.00518207
0.00537158
0.00558096
0.00581247
0.00606756
0.00634298
0.00663254
0.00692661
0.00721338
0.00748104
0.00771975
0.0079231
0.00808873
0.00821786
0.00831433
0.00838331
0.00843025
0.00846023
0.00847756
0.00848572
0.00848744
0.00848478
0.00847927
0.00847202
0.00846379
0.00845512
0.00844635
0.00843772
0.00842936
0.00842135
0.00841374
0.00840654
0.00839974
0.00839331
0.00838723
0.00838142
0.00837586
0.00837054
0.0083654
0.0083604
0.0083555
0.00835065
0.00834582
0.00834098
0.00833611
0.00833119
0.00832617
0.00832103
0.00831575
0.0083103
0.00830468
0.00829882
0.00829271
0.00828635
0.00827974
0.00827286
0.0082657
0.00825825
0.00825051
0.00824247
0.00823412
0.00822545
0.00821644
0.00820708
0.00819735
0.00818728
0.00817689
0.00816619
0.00815518
0.00814386
0.00813225
0.00812038
0.00810825
0.00809587
0.00808323
0.00807032
0.00805716
0.00804376
0.00803014
0.00801631
0.00800232
0.00798817
0.00797391
0.00795954
0.00794505
0.00793045
0.00791577
0.00790103
0.00788623
0.00787141
0.00785658
0.00784174
0.00782688
0.00781201
0.00779711
0.00778219
0.00776724
0.00775227
0.00773726
0.00772222
0.00770712
0.00769196
0.00767672
0.00766139
0.00764597
0.00763046
0.00761484
0.00759912
0.00758329
0.00756736
0.00755132
0.00753518
0.00751895
0.00750261
0.00748618
0.00746967
0.00745307
0.00743641
0.00741968
0.00740287
0.007386
0.00736904
0.00735198
0.00733479
0.00731743
0.00729984
0.00728195
0.00726366
0.00724482
0.00722527
0.00720471
0.00718277
0.00715883
0.00713202
0.00710203
0.00706927
0.00703067
0.00698314
0.00692247
0.00683944
0.00672254
4.62348e-05
0.000276199
0.000605558
0.000888387
0.00113856
0.00136134
0.0015606
0.00174121
0.00190603
0.00205774
0.00219757
0.00232677
0.00244577
0.00255427
0.00265277
0.00274165
0.00282171
0.00289388
0.00295942
0.00301981
0.00307665
0.00313147
0.00318576
0.0032414
0.00330129
0.00336957
0.00345681
0.00357263
0.00371216
0.00386746
0.00402663
0.00417667
0.00431833
0.00445287
0.00458357
0.004715
0.00485199
0.00500026
0.005167
0.00535733
0.00557453
0.00582148
0.00610087
0.00642074
0.00678117
0.0071755
0.00759049
0.00800792
0.00840763
0.00877101
0.00908437
0.00934099
0.00954093
0.00968939
0.00979439
0.0098648
0.00990892
0.00993378
0.009945
0.00994684
0.00994241
0.00993394
0.00992299
0.00991061
0.0098975
0.00988413
0.00987081
0.00985772
0.00984495
0.00983257
0.00982057
0.00980897
0.00979775
0.00978687
0.00977627
0.00976593
0.0097558
0.00974583
0.00973596
0.00972614
0.00971632
0.00970642
0.00969644
0.0096864
0.00967628
0.00966601
0.00965558
0.00964494
0.00963408
0.00962294
0.00961151
0.00959982
0.00958785
0.00957558
0.00956302
0.00955015
0.00953699
0.00952351
0.00950973
0.00949562
0.0094812
0.00946646
0.00945136
0.00943595
0.00942027
0.00940431
0.00938809
0.00937159
0.00935481
0.00933781
0.00932059
0.00930318
0.00928556
0.00926773
0.00924971
0.0092315
0.00921314
0.00919463
0.00917601
0.00915731
0.00913858
0.00911985
0.00910106
0.00908221
0.00906333
0.00904444
0.00902557
0.00900676
0.00898803
0.00896938
0.00895079
0.00893225
0.00891374
0.00889526
0.00887681
0.0088584
0.00884001
0.00882165
0.0088033
0.00878493
0.00876652
0.00874806
0.00872954
0.00871096
0.00869231
0.00867358
0.00865478
0.00863589
0.00861693
0.00859788
0.00857875
0.00855954
0.00854024
0.00852087
0.00850143
0.00848193
0.00846236
0.00844274
0.00842306
0.00840331
0.00838349
0.00836356
0.00834351
0.00832328
0.0083028
0.008282
0.00826074
0.00823888
0.0082162
0.00819238
0.00816699
0.00813943
0.00810895
0.00807589
0.00803906
0.00799607
0.00794424
0.00787928
0.00779316
0.00767801
4.60411e-05
0.000271602
0.000602913
0.000889891
0.00115587
0.00139417
0.00160884
0.00180507
0.00198514
0.00215144
0.00230505
0.00244653
0.00257519
0.00269193
0.00279707
0.0028915
0.00297634
0.00305321
0.00312413
0.00319114
0.00325671
0.00332265
0.0033901
0.00346146
0.00353973
0.00362784
0.00372847
0.00384091
0.00396038
0.0040804
0.00419455
0.00429945
0.00439627
0.00448736
0.00458011
0.00468002
0.00479351
0.00492682
0.0050867
0.00527884
0.00550815
0.00578103
0.00610443
0.00649033
0.0069462
0.00746676
0.00803274
0.00861965
0.00919884
0.00973749
0.0102091
0.0105982
0.0109017
0.0111259
0.0112832
0.0113875
0.011452
0.0114879
0.0115039
0.0115064
0.0115
0.0114879
0.0114723
0.0114546
0.0114359
0.0114166
0.0113973
0.0113781
0.0113593
0.0113407
0.0113225
0.0113047
0.0112873
0.0112702
0.0112534
0.0112368
0.0112204
0.0112041
0.011188
0.0111718
0.0111556
0.0111391
0.0111223
0.0111055
0.0110887
0.0110716
0.0110544
0.0110368
0.0110191
0.011001
0.0109826
0.0109639
0.0109449
0.0109256
0.0109059
0.010886
0.0108658
0.0108452
0.0108244
0.0108032
0.0107818
0.01076
0.0107379
0.0107155
0.0106929
0.0106701
0.0106471
0.0106238
0.0106003
0.0105768
0.010553
0.0105292
0.0105052
0.0104811
0.0104569
0.0104325
0.0104081
0.0103837
0.0103592
0.0103348
0.0103107
0.0102865
0.0102623
0.0102381
0.0102139
0.0101898
0.0101659
0.0101421
0.0101186
0.0100953
0.0100721
0.0100489
0.0100258
0.0100029
0.00998002
0.00995727
0.00993463
0.00991207
0.00988957
0.00986708
0.00984458
0.00982206
0.00979952
0.00977695
0.00975435
0.00973171
0.00970903
0.00968631
0.00966354
0.00964072
0.00961784
0.00959491
0.00957192
0.00954888
0.0095258
0.00950269
0.00947955
0.00945638
0.00943319
0.00940996
0.00938669
0.00936336
0.00933993
0.00931634
0.00929253
0.0092684
0.00924383
0.00921864
0.00919259
0.00916535
0.00913648
0.00910543
0.00907174
0.00903532
0.00899449
0.00894776
0.00889222
0.00882384
0.00873584
0.00862268
4.55489e-05
0.000265962
0.000593506
0.000879542
0.0011576
0.00140896
0.00163716
0.00184711
0.00204047
0.00221917
0.00238347
0.00253366
0.00267059
0.00279425
0.00290515
0.00300437
0.00309355
0.00317517
0.00325219
0.00332668
0.00340084
0.003475
0.00355131
0.0036299
0.00371148
0.00379617
0.00388336
0.00397063
0.00405446
0.00413101
0.00419761
0.00425401
0.00430272
0.00434869
0.00439663
0.00445462
0.00452945
0.00463047
0.00476547
0.0049424
0.00516789
0.00544731
0.00578582
0.00621758
0.00675688
0.00740413
0.00815107
0.00895916
0.00977382
0.0105489
0.0112405
0.0118168
0.0122671
0.0125986
0.0128293
0.0129809
0.0130737
0.013125
0.0131478
0.0131516
0.0131431
0.0131268
0.0131057
0.0130818
0.0130563
0.0130299
0.0130034
0.012977
0.0129509
0.0129251
0.0128993
0.0128739
0.012849
0.0128244
0.0128001
0.012776
0.012752
0.0127282
0.0127044
0.0126807
0.0126571
0.0126326
0.0126073
0.0125823
0.0125574
0.0125322
0.0125068
0.0124811
0.012455
0.0124287
0.012402
0.012375
0.0123477
0.0123201
0.0122922
0.012264
0.0122354
0.0122066
0.0121775
0.0121481
0.0121184
0.0120885
0.0120583
0.012028
0.0119974
0.0119667
0.0119358
0.0119048
0.0118737
0.0118426
0.0118115
0.0117802
0.0117488
0.0117174
0.011686
0.0116546
0.0116232
0.0115919
0.0115607
0.0115298
0.0114995
0.0114692
0.0114383
0.0114077
0.0113772
0.011347
0.0113171
0.0112876
0.0112585
0.0112297
0.0112009
0.0111722
0.0111437
0.0111153
0.0110872
0.0110593
0.0110316
0.011004
0.0109766
0.0109491
0.0109217
0.0108943
0.0108669
0.0108396
0.0108122
0.0107849
0.0107576
0.0107303
0.010703
0.0106757
0.0106483
0.0106209
0.0105935
0.0105662
0.0105388
0.0105114
0.010484
0.0104567
0.0104294
0.0104021
0.0103749
0.0103477
0.0103204
0.010293
0.0102655
0.0102377
0.0102095
0.0101807
0.0101511
0.0101204
0.0100881
0.0100536
0.0100169
0.00997679
0.0099325
0.00988245
0.00982375
0.00975276
0.00966377
0.0095527
4.47774e-05
0.000261168
0.000581534
0.000862475
0.00114526
0.00140224
0.00164253
0.00186439
0.00206908
0.0022584
0.00243233
0.00259132
0.00273519
0.00286473
0.0029806
0.0030845
0.00317944
0.00326702
0.0033491
0.00342798
0.00350574
0.00358199
0.00365745
0.00373082
0.00380134
0.00386729
0.00392687
0.00397799
0.00401879
0.00404817
0.00406538
0.00407186
0.00407104
0.00406775
0.00406813
0.00407775
0.00410405
0.0041559
0.00424224
0.00437338
0.0045583
0.00480185
0.00511075
0.00556384
0.0061779
0.00694965
0.0078747
0.00891724
0.0100325
0.0111214
0.0121078
0.0129401
0.0135926
0.0140713
0.0144019
0.014617
0.0147476
0.0148192
0.0148512
0.0148573
0.0148468
0.014826
0.0147988
0.0147679
0.0147348
0.0147005
0.0146657
0.0146312
0.0145972
0.0145634
0.0145292
0.0144948
0.0144614
0.0144284
0.0143957
0.0143631
0.0143306
0.0142981
0.0142656
0.0142329
0.0142
0.0141666
0.0141329
0.0140992
0.0140652
0.0140309
0.0139963
0.0139614
0.0139262
0.0138906
0.0138547
0.0138185
0.013782
0.0137451
0.013708
0.0136706
0.0136329
0.013595
0.0135568
0.0135183
0.0134797
0.0134408
0.0134017
0.0133625
0.0133232
0.0132838
0.0132444
0.0132049
0.0131654
0.013126
0.0130864
0.0130469
0.0130073
0.0129679
0.0129285
0.0128892
0.0128501
0.0128111
0.0127724
0.012734
0.012696
0.0126582
0.0126205
0.012583
0.0125458
0.0125088
0.0124723
0.0124363
0.0124012
0.0123663
0.0123309
0.0122957
0.0122608
0.0122264
0.0121922
0.0121584
0.0121251
0.0120919
0.0120587
0.0120255
0.0119924
0.0119593
0.0119264
0.0118936
0.0118608
0.0118282
0.0117956
0.0117631
0.0117307
0.0116982
0.0116658
0.0116334
0.011601
0.0115687