/*--------------------------------*- C++ -*----------------------------------*\
| =========                 |                                                 |
| \\      /  F ield         | OpenFOAM: The Open Source CFD Toolbox           |
|  \\    /   O peration     | Version:  v1906                                 |
|   \\  /    A nd           | Web:      www.OpenFOAM.com                      |
|    \\/     M anipulation  |                                                 |
\*---------------------------------------------------------------------------*/
FoamFile
{
    version     2.0;
    format      ascii;
    class       volScalarField;
    location    "300";
    object      p;
}
// * * * * * * * * * * * * * * * * * * * * * * * * * * * * * * * * * * * * * //

dimensions      [0 2 -2 0 0 0 0];


internalField   nonuniform List<scalar> 
12225
(
2.74183
1.53927
1.48844
1.48205
1.34453
1.20381
1.09436
0.99559
0.898964
0.805665
0.71629
0.625933
0.53008
0.424949
0.307717
0.166775
-0.0148056
-0.298051
0.981364
0.466323
0.307895
0.320846
0.263597
0.196042
0.144169
0.0906527
0.0303859
-0.0331546
-0.0986142
-0.16812
-0.245754
-0.332489
-0.432164
-0.550396
-0.699378
-0.90777
1.56638
0.785761
0.645561
0.675903
0.641029
0.588971
0.544261
0.496651
0.443066
0.386399
0.327469
0.264804
0.195236
0.118226
0.0303487
-0.068591
-0.181805
-0.278521
0.911216
0.444441
0.225888
0.150397
0.0558601
-0.0307032
-0.0961086
-0.155159
-0.214834
-0.27504
-0.336382
-0.400835
-0.470906
-0.547513
-0.632005
-0.723928
-0.81998
-0.913286
1.10213
0.643326
0.427252
0.365197
0.300875
0.243104
0.197922
0.154001
0.107282
0.0584849
0.00771485
-0.0461373
-0.104179
-0.167159
-0.233236
-0.302318
-0.357327
-0.388468
0.724753
0.42266
0.215672
0.111451
0.00579008
-0.0893386
-0.168266
-0.239913
-0.308788
-0.375847
-0.442154
-0.509337
-0.578595
-0.650507
-0.723478
-0.796463
-0.860572
-0.91625
0.790173
0.542481
0.341607
0.241826
0.152986
0.0792339
0.0199645
-0.0335899
-0.0854513
-0.136572
-0.187631
-0.239519
-0.292437
-0.346282
-0.398061
-0.445834
-0.475084
-0.479279
0.549321
0.36549
0.189806
0.0808677
-0.0253402
-0.120271
-0.20337
-0.280093
-0.353141
-0.423553
-0.492209
-0.560054
-0.627431
-0.694248
-0.758611
-0.819059
-0.871091
-0.916222
0.562069
0.435142
0.273524
0.170239
0.0746087
-0.00661365
-0.0755804
-0.13761
-0.195499
-0.250577
-0.30367
-0.355385
-0.405547
-0.453661
-0.497081
-0.534041
-0.555318
-0.559185
0.400599
0.290718
0.15045
0.0494348
-0.0512148
-0.142456
-0.225381
-0.302956
-0.376694
-0.447451
-0.51582
-0.582247
-0.646709
-0.708892
-0.767657
-0.822219
-0.871975
-0.918412
0.390773
0.325836
0.204719
0.112275
0.0208722
-0.0603704
-0.132936
-0.199264
-0.260822
-0.318608
-0.373212
-0.424988
-0.473695
-0.51892
-0.559013
-0.593107
-0.61657
-0.629932
0.288122
0.221235
0.11241
0.0241154
-0.0669938
-0.151684
-0.230839
-0.305645
-0.376796
-0.44484
-0.510127
-0.572843
-0.632945
-0.69019
-0.744221
-0.794743
-0.842944
-0.888991
0.271133
0.233599
0.142739
0.0631817
-0.0198532
-0.0973705
-0.169449
-0.236718
-0.299633
-0.358678
-0.414138
-0.466208
-0.514713
-0.559499
-0.599845
-0.635729
-0.665557
-0.691683
0.186843
0.14259
0.059632
-0.0161009
-0.0964584
-0.174284
-0.249008
-0.320719
-0.389419
-0.45526
-0.518414
-0.578915
-0.636882
-0.692215
-0.745194
-0.795549
-0.844796
-0.890645
0.165171
0.142501
0.0787303
0.0134535
-0.057676
-0.128303
-0.196573
-0.261892
-0.32385
-0.382375
-0.437441
-0.489132
-0.537437
-0.582506
-0.624531
-0.664007
-0.701923
-0.738484
0.0989034
0.0711864
0.012747
-0.0482964
-0.114489
-0.181606
-0.247597
-0.311745
-0.373518
-0.43265
-0.489094
-0.542783
-0.593826
-0.642198
-0.687982
-0.731348
-0.771533
-0.809054
0.0755364
0.055855
0.00802903
-0.0473879
-0.109402
-0.1745
-0.240001
-0.30463
-0.367524
-0.428184
-0.48642
-0.542166
-0.595704
-0.64703
-0.697267
-0.745697
-0.794807
-0.840995
0.0672603
0.0525948
0.014033
-0.0317034
-0.0819039
-0.133955
-0.185261
-0.23455
-0.280987
-0.324095
-0.363599
-0.399502
-0.431693
-0.460616
-0.486002
-0.508914
-0.527311
-0.546902
0.0305692
0.00246472
-0.0517409
-0.113871
-0.18269
-0.256097
-0.331487
-0.407563
-0.483515
-0.55873
-0.632878
-0.70571
-0.777196
-0.846927
-0.915434
-0.980811
-1.04553
-1.10322
0.168024
0.160948
0.126442
0.0855161
0.0429063
0.00122002
-0.0367482
-0.0700988
-0.0982441
-0.121203
-0.138793
-0.15142
-0.159001
-0.162355
-0.161259
-0.157912
-0.150692
-0.146998
0.141838
0.0963
0.0214278
-0.0536969
-0.132218
-0.212249
-0.291241
-0.368461
-0.443729
-0.516763
-0.587777
-0.656869
-0.724712
-0.791379
-0.858321
-0.924269
-0.993222
-1.05658
0.327854
0.308913
0.244831
0.186308
0.132908
0.0859806
0.0475135
0.0167429
-0.00734302
-0.025448
-0.0380174
-0.0453524
-0.047411
-0.044106
-0.0343267
-0.0184947
0.00774545
0.0372622
0.301056
0.219429
0.10537
0.00913723
-0.0847279
-0.175943
-0.261164
-0.340722
-0.415435
-0.485672
-0.551856
-0.614677
-0.675059
-0.734116
-0.794135
-0.856536
-0.928945
-1.0073
0.564769
0.490359
0.367969
0.289183
0.229137
0.181776
0.147733
0.123149
0.104556
0.0905442
0.0805496
0.0741951
0.0715143
0.0728764
0.0800955
0.0948371
0.126602
0.176097
0.501206
0.342649
0.172978
0.0573143
-0.0487897
-0.148623
-0.234936
-0.309987
-0.377309
-0.438122
-0.493188
-0.543484
-0.590114
-0.634012
-0.677344
-0.722469
-0.78108
-0.860644
0.915199
0.673082
0.486739
0.418453
0.376704
0.342931
0.321662
0.307026
0.293706
0.281379
0.270785
0.262001
0.255044
0.250154
0.24838
0.251072
0.268826
0.314339
0.723542
0.422627
0.192987
0.0792393
-0.0232503
-0.116511
-0.185492
-0.238862
-0.285259
-0.326596
-0.363318
-0.396316
-0.426594
-0.454408
-0.480536
-0.505885
-0.539883
-0.599004
1.46007
0.855389
0.691917
0.713528
0.709916
0.683313
0.662631
0.644243
0.622656
0.600198
0.5792
0.559929
0.542285
0.526509
0.512915
0.501272
0.49762
0.517296
0.835175
0.448993
0.226186
0.215206
0.177199
0.131239
0.101574
0.0761548
0.0476238
0.0179049
-0.010613
-0.0376558
-0.0633636
-0.0874503
-0.109606
-0.129931
-0.153083
-0.19357
2.70602
1.58563
1.51621
1.5379
1.44085
1.32496
1.23651
1.16299
1.09414
1.03072
0.974064
0.923408
0.877754
0.836835
0.800608
0.769359
0.744589
0.727948
-1.56102
-1.72176
-1.81913
-1.83913
-1.8153
-1.76688
-1.69974
-1.64602
-1.63367
-1.6791
-1.7807
-1.91915
-2.08126
-2.26337
-2.46172
-2.67075
-2.88441
-3.09716
-3.3037
-3.50025
-3.68305
-3.85007
-3.99843
-4.12656
-4.23057
-4.30822
-4.35702
-4.37824
-4.36784
-4.3155
-4.20848
-4.04688
-3.83533
-3.57917
-3.28145
-2.94668
-2.57804
-2.18068
-1.75932
-1.3189
-0.863133
-0.398339
0.0679107
0.532604
0.993193
1.44733
1.89329
2.32982
2.7535
3.16273
3.55618
3.93369
4.29462
4.63945
4.96797
5.28092
5.57847
5.86159
6.13055
6.3859
6.62996
6.86793
7.10094
7.32644
7.54304
7.75117
7.95127
8.14384
8.32953
8.50898
8.6828
8.85151
9.01561
9.17552
9.33166
9.48431
9.63384
9.78044
9.92439
10.0658
10.205
10.342
10.4771
10.6102
10.7417
10.8714
10.9996
11.1264
11.2517
11.3758
11.4985
11.6201
11.7406
11.8601
11.9786
12.0961
12.2128
12.3286
12.4436
12.5579
12.6714
12.7844
12.8967
13.0084
13.1195
13.2301
13.3402
13.4498
13.559
13.6677
13.776
13.8838
13.9913
14.0983
14.205
14.3112
14.417
14.5224
14.6273
14.7317
14.8355
14.9388
15.0416
15.1437
15.2451
15.3458
15.4458
15.5449
15.6432
15.7405
15.8369
15.9321
16.0263
16.1193
16.211
16.3014
16.3904
16.4778
16.5638
16.6481
16.7308
16.8117
16.8909
16.9681
17.0433
17.1166
17.1877
17.2567
17.3236
17.3882
17.4507
17.5108
17.5686
17.6243
17.6776
17.7286
17.7773
17.8239
17.8683
17.9105
17.9507
17.9889
18.0253
18.0601
18.0933
18.1252
18.1561
18.1864
18.2164
18.2468
18.2784
18.3121
18.3499
18.3936
18.4496
18.5234
18.6307
18.7754
19.0348
19.3395
-1.68914
-1.96878
-2.07647
-2.17066
-2.18134
-2.14267
-2.04115
-1.95027
-1.93907
-2.01436
-2.1529
-2.34057
-2.56899
-2.82937
-3.1108
-3.4027
-3.69604
-3.98421
-4.2623
-4.5272
-4.77605
-5.00692
-5.21702
-5.40396
-5.56397
-5.69423
-5.78974
-5.84472
-5.85272
-5.81841
-5.7502
-5.65205
-5.51889
-5.34588
-5.12977
-4.87021
-4.56812
-4.22665
-3.84969
-3.44119
-3.00496
-2.54734
-2.0757
-1.59431
-1.10612
-0.614506
-0.124118
0.358785
0.829926
1.28858
1.73318
2.16305
2.57732
2.97588
3.35847
3.72544
4.07705
4.41405
4.73691
5.04621
5.34358
5.62271
5.87884
6.11849
6.34766
6.56798
6.78034
6.98615
7.18592
7.38014
7.56919
7.75338
7.93306
8.10851
8.28003
8.44787
8.6123
8.77351
8.93174
9.08716
9.23997
9.39029
9.53832
9.68414
9.82792
9.96974
10.1097
10.248
10.3846
10.5196
10.653
10.7851
10.9159
11.0453
11.1735
11.3006
11.4265
11.5514
11.6752
11.7981
11.9201
12.0412
12.1615
12.2809
12.3996
12.5176
12.6348
12.7513
12.8672
12.9824
13.097
13.211
13.3243
13.4371
13.5493
13.6609
13.7719
13.8822
13.9919
14.101
14.2094
14.3171
14.424
14.5302
14.6355
14.7401
14.8437
14.9465
15.0482
15.1489
15.2486
15.3471
15.4444
15.5405
15.6352
15.7286
15.8205
15.9109
15.9997
16.0869
16.1723
16.2561
16.3379
16.4179
16.4959
16.5719
16.6458
16.7175
16.7871
16.8546
16.9198
16.9827
17.0434
17.1018
17.158
17.2118
17.2635
17.3129
17.3601
17.4052
17.4483
17.4894
17.5287
17.5664
17.6025
17.6374
17.6712
17.7045
17.7376
17.7712
17.8061
17.8434
17.8848
17.932
17.9888
18.0563
18.1508
18.2658
18.476
18.7116
-1.36105
-1.79161
-1.92516
-2.09416
-2.15276
-2.22514
-2.25953
-2.30113
-2.35974
-2.45348
-2.5813
-2.73771
-2.91389
-3.10174
-3.29483
-3.48885
-3.68137
-3.87162
-4.05913
-4.24394
-4.42513
-4.60186
-4.77173
-4.93245
-5.08008
-5.21156
-5.32242
-5.40795
-5.46172
-5.48054
-5.46012
-5.39285
-5.27244
-5.10071
-4.87941
-4.61135
-4.29928
-3.94715
-3.55981
-3.14271
-2.70027
-2.2365
-1.75864
-1.27332
-0.785238
-0.297687
0.184985
0.658674
1.12039
1.56835
2.00107
2.41775
2.81779
3.20106
3.56753
3.91751
4.25135
4.56977
4.87326
5.16144
5.43573
5.6995
5.95321
6.19644
6.42982
6.65507
6.87322
7.08444
7.28938
7.48834
7.68161
7.86954
8.0525
8.23083
8.40488
8.57494
8.7413
8.90422
9.06393
9.22065
9.37458
9.5259
9.67478
9.82135
9.96576
10.1081
10.2486
10.3872
10.5241
10.6594
10.793
10.9253
11.0561
11.1856
11.3138
11.4409
11.5668
11.6916
11.8154
11.9382
12.06
12.181
12.3012
12.4205
12.539
12.6568
12.7738
12.8902
13.0059
13.1209
13.2353
13.3491
13.4623
13.5749
13.6869
13.7983
13.9091
14.0193
14.1288
14.2376
14.3458
14.4533
14.56
14.666
14.7711
14.8755
14.9789
15.0814
15.1829
15.2834
15.3828
15.481
15.5781
15.6739
15.7684
15.8615
15.9531
16.0432
16.1318
16.2187
16.3039
16.3873
16.469
16.5487
16.6264
16.7021
16.7758
16.8473
16.9166
16.9838
17.0487
17.1114
17.1718
17.23
17.2859
17.3395
17.391
17.4402
17.4874
17.5324
17.5754
17.6166
17.6559
17.6937
17.7299
17.7649
17.7989
17.8323
17.8655
17.8991
17.9339
17.9708
18.0117
18.0574
18.1129
18.1777
18.2709
18.3783
18.558
18.7049
-0.953257
-1.5284
-1.74872
-2.01459
-2.1436
-2.29979
-2.42534
-2.56697
-2.71087
-2.87064
-3.044
-3.23093
-3.42821
-3.63508
-3.85094
-4.07585
-4.3094
-4.55078
-4.79805
-5.04882
-5.29941
-5.54615
-5.7841
-6.00858
-6.2136
-6.39415
-6.54422
-6.65912
-6.73375
-6.76516
-6.74964
-6.68539
-6.57118
-6.40548
-6.18726
-5.91748
-5.59834
-5.23363
-4.82808
-4.38767
-3.91879
-3.42701
-2.91804
-2.3995
-1.87791
-1.35743
-0.843203
-0.339095
0.15195
0.628088
1.08787
1.5305
1.95543
2.36255
2.75191
3.12381
3.47868
3.81714
4.13995
4.44778
4.74128
5.02084
5.28702
5.54136
5.78503
6.01913
6.24463
6.46238
6.67308
6.87735
7.07573
7.2687
7.45668
7.64004
7.81913
7.99424
8.16564
8.33359
8.49832
8.66003
8.81893
8.97517
9.12893
9.28033
9.42952
9.57659
9.72167
9.86486
10.0062
10.1459
10.2839
10.4204
10.5553
10.6889
10.8211
10.952
11.0817
11.2103
11.3377
11.464
11.5894
11.7138
11.8372
11.9597
12.0814
12.2022
12.3222
12.4415
12.56
12.6778
12.7948
12.9112
13.027
13.142
13.2565
13.3702
13.4833
13.5957
13.7074
13.8183
13.9286
14.0381
14.1469
14.2548
14.3619
14.4681
14.5734
14.6777
14.7811
14.8834
14.9846
15.0846
15.1834
15.281
15.3772
15.472
15.5654
15.6572
15.7474
15.8359
15.9228
16.0078
16.091
16.1723
16.2516
16.3289
16.404
16.4771
16.548
16.6166
16.6831
16.7472
16.8091
16.8687
16.926
16.9811
17.0338
17.0843
17.1326
17.1787
17.2228
17.2648
17.305
17.3435
17.3805
17.4161
17.4507
17.4846
17.5183
17.5523
17.5875
17.6245
17.6653
17.7102
17.7641
17.8228
17.902
17.9842
18.13
18.2166
-0.759778
-1.48271
-1.72973
-2.0679
-2.24438
-2.46726
-2.64159
-2.82481
-2.99384
-3.16427
-3.32858
-3.49386
-3.66316
-3.83973
-4.02441
-4.21793
-4.41972
-4.62892
-4.8438
-5.06272
-5.28308
-5.50255
-5.71742
-5.92436
-6.11828
-6.2946
-6.44687
-6.56939
-6.6552
-6.69891
-6.69443
-6.63773
-6.52579
-6.35699
-6.13085
-5.84926
-5.51508
-5.13283
-4.70779
-4.24627
-3.75524
-3.24161
-2.71205
-2.17468
-1.63672
-1.10295
-0.57862
-0.0673405
0.428131
0.906145
1.36555
1.80585
2.22684
2.6287
3.01169
3.37628
3.72315
4.05324
4.36747
4.66673
4.95228
5.22569
5.48806
5.74005
5.98229
6.21563
6.44084
6.65864
6.86957
7.07414
7.27279
7.46598
7.65409
7.83751
8.01658
8.19159
8.3628
8.5305
8.69491
8.85627
9.01474
9.17051
9.32374
9.47457
9.62312
9.76953
9.9139
10.0563
10.197
10.3358
10.473
10.6087
10.7428
10.8755
11.0069
11.1369
11.2658
11.3935
11.5201
11.6456
11.7701
11.8937
12.0163
12.1381
12.259
12.379
12.4983
12.6169
12.7347
12.8518
12.9682
13.0839
13.199
13.3134
13.4272
13.5403
13.6528
13.7645
13.8756
13.986
14.0956
14.2045
14.3126
14.4199
14.5264
14.632
14.7367
14.8404
14.9431
15.0447
15.1452
15.2446
15.3427
15.4395
15.535
15.6292
15.7218
15.8129
15.9025
15.9904
16.0766
16.161
16.2436
16.3242
16.4029
16.4796
16.5542
16.6267
16.6971
16.7653
16.8312
16.8949
16.9563
17.0154
17.0723
17.1269
17.1794
17.2296
17.2777
17.3238
17.3678
17.4099
17.4503
17.4889
17.5261
17.562
17.5969
17.631
17.6648
17.6988
17.7339
17.7705
17.8106
17.8541
17.9062
17.9643
18.0445
18.1172
18.2396
18.2579
-0.84739
-1.66901
-1.8992
-2.27903
-2.46261
-2.71981
-2.91258
-3.12066
-3.30427
-3.49057
-3.67206
-3.85967
-4.05301
-4.25705
-4.47336
-4.70248
-4.94282
-5.19304
-5.45094
-5.71465
-5.98137
-6.24866
-6.5125
-6.76884
-7.01151
-7.23452
-7.43004
-7.59125
-7.71019
-7.78041
-7.79414
-7.74645
-7.63448
-7.45749
-7.21532
-6.91036
-6.54643
-6.1292
-5.66519
-5.16205
-4.62805
-4.07113
-3.49918
-2.92144
-2.34585
-1.77808
-1.2235
-0.685576
-0.166576
0.332456
0.810824
1.26828
1.70478
2.12073
2.51652
2.89277
3.25034
3.59043
3.91409
4.22223
4.51578
4.79563
5.06278
5.31837
5.56345
5.79903
6.026
6.24517
6.45724
6.66286
6.86258
7.05691
7.24627
7.43106
7.61163
7.78822
7.9611
8.13056
8.29685
8.46017
8.62068
8.77853
8.93387
9.08683
9.23753
9.38609
9.5326
9.67718
9.81991
9.96089
10.1002
10.2379
10.374
10.5088
10.6422
10.7742
10.905
11.0346
11.1631
11.2905
11.4168
11.5422
11.6666
11.79
11.9126
12.0343
12.1552
12.2753
12.3947
12.5133
12.6312
12.7484
12.865
12.9808
13.096
13.2105
13.3244
13.4375
13.55
13.6617
13.7727
13.8829
13.9924
14.101
14.2088
14.3157
14.4217
14.5268
14.6308
14.7338
14.8357
14.9364
15.0359
15.1341
15.231
15.3264
15.4204
15.5129
15.6037
15.6929
15.7803
15.8659
15.9497
16.0315
16.1114
16.1892
16.2649
16.3384
16.4098
16.4789
16.5457
16.6103
16.6726
16.7326
16.7902
16.8455
16.8985
16.9492
16.9976
17.0438
17.0879
17.1299
17.1699
17.2082
17.2448
17.28
17.314
17.3471
17.3798
17.4123
17.4456
17.4797
17.5166
17.5554
17.6009
17.6451
17.7062
17.7552
17.8514
17.856
-1.12539
-1.97568
-2.17036
-2.56767
-2.72945
-2.99251
-3.17221
-3.38126
-3.56078
-3.75105
-3.93546
-4.12861
-4.32675
-4.53441
-4.74956
-4.97288
-5.20368
-5.44165
-5.68555
-5.93543
-6.19037
-6.44968
-6.71066
-6.97017
-7.22203
-7.45976
-7.67413
-7.85662
-7.99704
-8.08672
-8.11565
-8.07881
-7.97252
-7.79502
-7.54454
-7.22348
-6.8363
-6.38959
-5.89114
-5.34998
-4.77589
-4.17817
-3.56659
-2.95164
-2.34231
-1.74547
-1.16687
-0.609855
-0.0762405
0.433576
0.91949
1.3819
1.82178
2.24012
2.63744
3.01439
3.37186
3.71101
4.03303
4.33916
4.63072
4.90901
5.17519
5.43034
5.67543
5.9114
6.13908
6.35921
6.57242
6.77928
6.98028
7.17588
7.36646
7.55237
7.73395
7.91156
8.0855
8.25596
8.42312
8.58718
8.74832
8.9067
9.06247
9.21578
9.36676
9.51552
9.66219
9.80687
9.94966
10.0907
10.23
10.3676
10.5037
10.6383
10.7716
10.9035
11.0342
11.1637
11.2921
11.4193
11.5455
11.6707
11.7949
11.9183
12.0407
12.1623
12.2831
12.4031
12.5224
12.6408
12.7586
12.8757
12.9921
13.1078
13.2228
13.3371
13.4507
13.5636
13.6758
13.7873
13.898
14.008
14.1171
14.2255
14.333
14.4396
14.5453
14.65
14.7537
14.8563
14.9578
15.0581
15.1572
15.2551
15.3516
15.4466
15.5403
15.6324
15.723
15.8119
15.8991
15.9845
16.0681
16.1498
16.2296
16.3073
16.383
16.4565
16.5279
16.5971
16.664
16.7286
16.7909
16.851
16.9087
16.9642
17.0175
17.0685
17.1174
17.1642
17.209
17.2518
17.2927
17.332
17.3696
17.4058
17.4409
17.475
17.5085
17.5419
17.5759
17.6106
17.6479
17.6866
17.7319
17.7772
17.8373
17.8732
17.9455
17.8955
-1.4793
-2.31167
-2.46792
-2.87076
-3.00562
-3.26966
-3.4315
-3.64222
-3.8193
-4.0196
-4.21541
-4.42684
-4.6432
-4.87035
-5.10475
-5.348
-5.59871
-5.85851
-6.12894
-6.41233
-6.70949
-7.0214
-7.34582
-7.67858
-8.01097
-8.33278
-8.63056
-8.89182
-9.10253
-9.25114
-9.32601
-9.31862
-9.22327
-9.0381
-8.76405
-8.40517
-7.96763
-7.46065
-6.89459
-6.28093
-5.63206
-4.95987
-4.27719
-3.59669
-2.92903
-2.2825
-1.66363
-1.07553
-0.518094
0.0111221
0.514255
0.992441
1.44615
1.87615
2.28325
2.66842
3.03279
3.37773
3.70459
4.01477
4.30962
4.59047
4.8586
5.11523
5.36148
5.59837
5.82681
6.0476
6.26144
6.46895
6.67066
6.86704
7.05848
7.24536
7.42799
7.60676
7.78195
7.9537
8.12215
8.28751
8.44995
8.60964
8.76672
8.92133
9.0736
9.22364
9.37156
9.51746
9.66142
9.80354
9.94395
10.0828
10.2201
10.356
10.4904
10.6234
10.7552
10.8857
11.0151
11.1433
11.2706
11.3968
11.522
11.6462
11.7696
11.8922
12.0139
12.1349
12.255
12.3745
12.4932
12.6112
12.7285
12.8451
12.9611
13.0763
13.1909
13.3047
13.4179
13.5303
13.642
13.7529
13.8631
13.9725
14.081
14.1886
14.2953
14.401
14.5057
14.6094
14.712
14.8134
14.9135
15.0124
15.11
15.2061
15.3008
15.3939
15.4854
15.5753
15.6634
15.7497
15.8341
15.9166
15.997
16.0754
16.1517
16.2258
16.2977
16.3673
16.4346
16.4996
16.5623
16.6227
16.6806
16.7362
16.7894
16.8402
16.8887
16.9349
16.979
17.0208
17.0607
17.0987
17.1349
17.1695
17.2028
17.2349
17.2662
17.2969
17.3277
17.3583
17.3905
17.4225
17.4588
17.49
17.5347
17.5576
17.6197
17.5663
-1.82525
-2.62525
-2.74409
-3.13927
-3.24134
-3.50415
-3.64873
-3.86299
-4.03647
-4.2451
-4.44559
-4.66472
-4.88579
-5.11834
-5.35475
-5.59897
-5.85026
-6.11293
-6.39086
-6.69023
-7.01645
-7.37307
-7.75917
-8.16901
-8.58961
-9.00452
-9.39384
-9.73943
-10.0226
-10.2301
-10.354
-10.3875
-10.3176
-10.1404
-9.85846
-9.47673
-9.00123
-8.44102
-7.80695
-7.11081
-6.36653
-5.58994
-4.79988
-4.01586
-3.25449
-2.52832
-1.84727
-1.21244
-0.618571
-0.0604422
0.465244
0.960895
1.42824
1.86877
2.2838
2.67479
3.0433
3.39107
3.71984
4.03136
4.32734
4.60935
4.87882
5.13707
5.38522
5.62429
5.85515
6.07855
6.29515
6.5055
6.7101
6.90936
7.10368
7.29339
7.47881
7.66019
7.83771
8.01161
8.1821
8.3494
8.51366
8.67505
8.83372
8.98981
9.14345
9.29477
9.44389
9.59091
9.73593
9.87904
10.0204
10.1602
10.2984
10.4351
10.5702
10.704
10.8365
10.9676
11.0976
11.2264
11.3541
11.4808
11.6064
11.7313
11.8551
11.9782
12.1003
12.2217
12.3421
12.4618
12.5808
12.6991
12.8166
12.9333
13.0494
13.1647
13.2794
13.3933
13.5065
13.619
13.7307
13.8417
13.9519
14.0612
14.1697
14.2773
14.3839
14.4896
14.5943
14.6979
14.8004
14.9017
15.0018
15.1006
15.1981
15.2942
15.3889
15.4821
15.5737
15.6636
15.7519
15.8384
15.9231
16.0059
16.0867
16.1655
16.2423
16.3169
16.3893
16.4595
16.5274
16.593
16.6562
16.7172
16.7758
16.8321
16.8861
16.9379
16.9875
17.0349
17.0802
17.1235
17.1648
17.2043
17.242
17.2781
17.3128
17.3462
17.3788
17.4105
17.4422
17.4736
17.5063
17.5383
17.5745
17.6054
17.6448
17.6518
17.6882
17.6008
-2.11846
-2.8737
-2.961
-3.3522
-3.42837
-3.69192
-3.81937
-4.03963
-4.20981
-4.4277
-4.63203
-4.86264
-5.09251
-5.33605
-5.58269
-5.84091
-6.10993
-6.39945
-6.71698
-7.07433
-7.48225
-7.94676
-8.46444
-9.02059
-9.58926
-10.1399
-10.6417
-11.0715
-11.4119
-11.6543
-11.7909
-11.816
-11.7297
-11.5397
-11.251
-10.8727
-10.4102
-9.86364
-9.22856
-8.50514
-7.69969
-6.82555
-5.90572
-4.97305
-4.06262
-3.20262
-2.41451
-1.69997
-1.04821
-0.448315
0.108008
0.626814
1.11191
1.56607
1.99143
2.39014
2.76433
3.11624
3.44803
3.76184
4.05958
4.34306
4.61384
4.87334
5.12275
5.36312
5.59535
5.8202
6.03831
6.25025
6.45648
6.65742
6.85343
7.04484
7.23191
7.41489
7.59402
7.76954
7.94165
8.11052
8.27631
8.43917
8.59926
8.75671
8.91166
9.06425
9.21459
9.36279
9.50899
9.65329
9.79579
9.93655
10.0756
10.2132
10.3492
10.4838
10.6171
10.749
10.8798
11.0094
11.1379
11.2653
11.3917
11.5173
11.6419
11.7656
11.8884
12.0104
12.1316
12.2521
12.3718
12.4907
12.6089
12.7263
12.843
12.9591
13.0744
13.189
13.303
13.4162
13.5286
13.6403
13.7512
13.8613
13.9705
14.0789
14.1863
14.2927
14.3981
14.5025
14.6057
14.7078
14.8087
14.9083
15.0066
15.1034
15.1988
15.2927
15.3849
15.4755
15.5643
15.6513
15.7364
15.8196
15.9007
15.9798
16.0567
16.1314
16.2039
16.274
16.3419
16.4073
16.4704
16.5311
16.5893
16.6451
16.6985
16.7494
16.798
16.8442
16.8881
16.9297
16.9693
17.0068
17.0425
17.0763
17.1085
17.1393
17.1688
17.197
17.2246
17.251
17.2776
17.3019
17.3282
17.3466
17.3753
17.3766
17.4082
17.3281
-2.35307
-3.05108
-3.10976
-3.49404
-3.54771
-3.81499
-3.92652
-4.15396
-4.31806
-4.54493
-4.74944
-4.98716
-5.21995
-5.4707
-5.72267
-5.99063
-6.27434
-6.59005
-6.94881
-7.36815
-7.85905
-8.42728
-9.05828
-9.72098
-10.3716
-10.9673
-11.4774
-11.8882
-12.1949
-12.3958
-12.4814
-12.4607
-12.346
-12.141
-11.8495
-11.4775
-11.0315
-10.5315
-10.0061
-9.45008
-8.80748
-8.0291
-7.1035
-6.06177
-4.97299
-3.90913
-2.93708
-2.08133
-1.32969
-0.66125
-0.0572407
0.495553
1.00527
1.47712
1.91493
2.32213
2.70193
3.05747
3.39165
3.7072
4.00649
4.29161
4.56434
4.82616
5.07831
5.32182
5.55751
5.7861
6.00817
6.22419
6.43457
6.63966
6.83978
7.03521
7.2262
7.41297
7.59575
7.77473
7.95011
8.12208
8.2908
8.45643
8.61914
8.77908
8.93639
9.09121
9.24367
9.39389
9.542
9.6881
9.83229
9.97465
10.1153
10.2544
10.3919
10.5279
10.6626
10.7959
10.9279
11.0587
11.1884
11.317
11.4445
11.571
11.6964
11.8209
11.9445
12.0674
12.1896
12.3108
12.4311
12.5505
12.6691
12.7871
12.9043
13.0207
13.1365
13.2515
13.3658
13.4794
13.5921
13.7041
13.8153
13.9256
14.0351
14.1437
14.2513
14.3579
14.4636
14.5682
14.6717
14.774
14.8751
14.9749
15.0734
15.1705
15.2662
15.3604
15.4531
15.5441
15.6334
15.721
15.8068
15.8907
15.9726
16.0525
16.1303
16.2059
16.2793
16.3504
16.4192
16.4857
16.5497
16.6114
16.6708
16.7277
16.7824
16.8346
16.8846
16.9324
16.9779
17.0212
17.0624
17.1016
17.1388
17.1742
17.2078
17.2397
17.2702
17.2993
17.3275
17.3542
17.3806
17.4044
17.4294
17.4452
17.4637
17.449
17.4552
17.3542
-2.51485
-3.14878
-3.18332
-3.55788
-3.59334
-3.86588
-3.96449
-4.20109
-4.35922
-4.59485
-4.79912
-5.04584
-5.28116
-5.53978
-5.79881
-6.07943
-6.38083
-6.72626
-7.12992
-7.61465
-8.18938
-8.8522
-9.57338
-10.3061
-10.9924
-11.5889
-12.0786
-12.4652
-12.7567
-12.9588
-13.0681
-13.0722
-12.9612
-12.7374
-12.4089
-11.9934
-11.5152
-10.9981
-10.4469
-9.87391
-9.33445
-8.82516
-8.19984
-7.32621
-6.21338
-4.95846
-3.73779
-2.67316
-1.77809
-1.01997
-0.360635
0.226856
0.758397
1.24354
1.68879
2.09937
2.47987
2.83448
3.16694
3.48052
3.77801
4.06175
4.33362
4.59517
4.84763
5.09195
5.32891
5.55914
5.78315
6.00134
6.21405
6.42156
6.62415
6.82207
7.01551
7.20469
7.38981
7.57105
7.74861
7.92266
8.09338
8.26092
8.42543
8.58709
8.74602
8.90238
9.05629
9.2079
9.35732
9.50467
9.65004
9.79355
9.9353
10.0754
10.2138
10.3508
10.4863
10.6204
10.7532
10.8848
11.0152
11.1445
11.2727
11.3999
11.5261
11.6515
11.7759
11.8995
12.0221
12.1438
12.2646
12.3847
12.504
12.6226
12.7404
12.8576
12.9739
13.0896
13.2045
13.3186
13.432
13.5446
13.6564
13.7673
13.8774
13.9865
14.0948
14.202
14.3082
14.4134
14.5174
14.6203
14.7219
14.8223
14.9214
15.019
15.1152
15.2099
15.3029
15.3943
15.484
15.5718
15.6578
15.7418
15.8237
15.9035
15.9812
16.0566
16.1297
16.2004
16.2688
16.3348
16.3983
16.4593
16.5179
16.5739
16.6275
16.6785
16.7271
16.7732
16.817
16.8584
16.8976
16.9346
16.9695
17.0024
17.0334
17.0624
17.0897
17.1152
17.1391
17.1608
17.1812
17.1979
17.2141
17.2217
17.234
17.2189
17.2223
17.1343
-2.5736
-3.15994
-3.16712
-3.53315
-3.55221
-3.82911
-3.91858
-4.16254
-4.3176
-4.56112
-4.76545
-5.01914
-5.2598
-5.52734
-5.79218
-6.08247
-6.39625
-6.76211
-7.19538
-7.72178
-8.34816
-9.06693
-9.83841
-10.6042
-11.302
-11.8969
-12.3843
-12.783
-13.1041
-13.3464
-13.4921
-13.5207
-13.4194
-13.1898
-12.8365
-12.3741
-11.8275
-11.2343
-10.6415
-10.0785
-9.52382
-8.99318
-8.53564
-8.0447
-7.27563
-6.03955
-4.55421
-3.19402
-2.08921
-1.20693
-0.477725
0.148333
0.700235
1.19452
1.64181
2.05004
2.42571
2.77441
3.10087
3.40904
3.70211
3.98265
4.2526
4.51348
4.76639
5.01217
5.25143
5.48464
5.71216
5.93426
6.15115
6.36302
6.57006
6.77243
6.97029
7.16381
7.35316
7.53849
7.71998
7.89781
8.07213
8.24312
8.41094
8.57575
8.73771
8.89696
9.05365
9.20791
9.35987
9.50965
9.65737
9.80311
9.94699
10.0891
10.2296
10.3685
10.5058
10.6418
10.7764
10.9097
11.0417
11.1726
11.3024
11.431
11.5586
11.6851
11.8106
11.9351
12.0586
12.1813
12.3031
12.4241
12.5443
12.6637
12.7823
12.9002
13.0172
13.1335
13.2491
13.3638
13.4778
13.5909
13.7032
13.8147
13.9252
14.0349
14.1436
14.2513
14.358
14.4637
14.5682
14.6716
14.7738
14.8747
14.9743
15.0725
15.1693
15.2647
15.3585
15.4506
15.5411
15.6299
15.7168
15.8018
15.8849
15.9659
16.0448
16.1215
16.1959
16.2679
16.3376
16.4048
16.4696
16.5319
16.5918
16.6492
16.7042
16.7567
16.8068
16.8544
16.8997
16.9427
16.9833
17.0217
17.0579
17.0919
17.1238
17.1536
17.1814
17.207
17.2308
17.2519
17.2712
17.2861
17.2991
17.3009
17.3007
17.2714
17.2514
17.1516
-2.50961
-3.07548
-3.06023
-3.41126
-3.42702
-3.69607
-3.78964
-4.02985
-4.19226
-4.436
-4.65009
-4.9101
-5.16039
-5.4333
-5.70708
-6.00344
-6.32488
-6.6978
-7.14054
-7.6778
-8.31784
-9.05165
-9.83894
-10.6176
-11.3254
-11.9275
-12.4222
-12.8315
-13.1647
-13.4141
-13.5546
-13.5751
-13.4728
-13.2501
-12.9108
-12.4634
-11.9198
-11.302
-10.6522
-10.0319
-9.48339
-8.99497
-8.52686
-8.12664
-7.77303
-6.97983
-5.40323
-3.70127
-2.33694
-1.31784
-0.529031
0.115881
0.665749
1.14736
1.57682
1.96523
2.3211
2.65121
2.96102
3.25485
3.536
3.80699
4.06959
4.32509
4.57433
4.81789
5.05615
5.28935
5.51764
5.74109
5.95979
6.17378
6.38316
6.58799
6.78838
6.98442
7.17626
7.36402
7.54786
7.72794
7.90441
8.07745
8.24721
8.41386
8.57755
8.73843
8.89664
9.05233
9.20566
9.35673
9.50566
9.65258
9.79763
9.9409
10.0824
10.2223
10.3607
10.4976
10.633
10.7671
10.9
11.0316
11.1621
11.2914
11.4196
11.5467
11.6729
11.7981
11.9224
12.0458
12.1683
12.29
12.4108
12.5309
12.6502
12.7687
12.8864
13.0033
13.1194
13.2348
13.3493
13.463
13.5759
13.6879
13.7991
13.9093
14.0185
14.1268
14.234
14.3401
14.4452
14.549
14.6517
14.7531
14.8532
14.9518
15.049
15.1447
15.2388
15.3313
15.422
15.5109
15.5979
15.6829
15.7659
15.8467
15.9253
16.0016
16.0756
16.1471
16.2162
16.2827
16.3468
16.4083
16.4673
16.5236
16.5774
16.6286
16.6772
16.7233
16.7669
16.808
16.8467
16.8831
16.9172
16.949
16.9785
17.0057
17.0306
17.053
17.073
17.0899
17.1042
17.1137
17.1203
17.1184
17.115
17.0882
17.0655
16.9803
-2.33749
-2.87498
-2.86109
-3.18413
-3.21575
-3.466
-3.57555
-3.80501
-3.98122
-4.22158
-4.44823
-4.71268
-4.97519
-5.25559
-5.53953
-5.84042
-6.16318
-6.52917
-6.95785
-7.4723
-8.08416
-8.78894
-9.55436
-10.3239
-11.0376
-11.6558
-12.1685
-12.5875
-12.9191
-13.158
-13.2909
-13.3071
-13.1987
-12.968
-12.6207
-12.1719
-11.6468
-11.0744
-10.4686
-9.83849
-9.22592
-8.70974
-8.28899
-7.85289
-7.60678
-7.37494
-6.01863
-3.98468
-2.31354
-1.14339
-0.304943
0.337811
0.861708
1.30708
1.6974
2.04758
2.36832
2.66744
2.95084
3.22285
3.48652
3.74399
3.99655
4.24502
4.48975
4.73095
4.96854
5.20246
5.4325
5.65855
5.88041
6.098
6.31124
6.5201
6.72459
6.92474
7.12064
7.31237
7.50008
7.6839
7.86398
8.04049
8.21359
8.38343
8.5502
8.71405
8.87512
9.03361
9.18964
9.34332
9.49479
9.64418
9.79156
9.93701
10.0807
10.2226
10.363
10.5017
10.639
10.7749
10.9094
11.0427
11.1747
11.3056
11.4353
11.564
11.6915
11.818
11.9435
12.068
12.1917
12.3145
12.4364
12.5574
12.6776
12.7971
12.9157
13.0335
13.1505
13.2667
13.382
13.4965
13.6102
13.7229
13.8348
13.9457
14.0557
14.1647
14.2727
14.3796
14.4854
14.5901
14.6935
14.7957
14.8966
14.9962
15.0943
15.191
15.2861
15.3797
15.4715
15.5617
15.65
15.7364
15.8208
15.9031
15.9832
16.061
16.1364
16.2094
16.2798
16.3478
16.4132
16.4761
16.5363
16.5941
16.6492
16.7017
16.7516
16.7989
16.8437
16.8859
16.9256
16.9629
16.9977
17.03
17.0598
17.087
17.1117
17.1335
17.1524
17.1678
17.1796
17.186
17.1874
17.1778
17.1616
17.1235
17.0806
16.9893
-2.07354
-2.55677
-2.5785
-2.85704
-2.92706
-3.1495
-3.28488
-3.50074
-3.69282
-3.93091
-4.17317
-4.44178
-4.71659
-5.00828
-5.30613
-5.61571
-5.94142
-6.29781
-6.70189
-7.17301
-7.72517
-8.36098
-9.061
-9.78482
-10.4831
-11.1135
-11.6515
-12.0937
-12.4366
-12.6748
-12.8003
-12.8081
-12.6925
-12.4563
-12.1056
-11.6546
-11.1248
-10.548
-9.96291
-9.40874
-8.87066
-8.31499
-7.82585
-7.36392
-7.05143
-7.09923
-6.16621
-3.92675
-1.99089
-0.721103
0.114049
0.706262
1.16145
1.53411
1.85466
2.14152
2.40686
2.65896
2.90334
3.14371
3.38224
3.62018
3.85796
4.09556
4.33272
4.56886
4.80354
5.03609
5.26605
5.49289
5.71626
5.93581
6.15134
6.36266
6.56971
6.77244
6.97087
7.16509
7.35514
7.54121
7.72338
7.90188
8.07683
8.24842
8.41679
8.58213
8.74459
8.90431
9.06144
9.21616
9.36858
9.51885
9.66702
9.81321
9.95756
10.1002
10.2411
10.3805
10.5185
10.6551
10.7902
10.9241
11.0568
11.1882
11.3186
11.4478
11.576
11.7031
11.8293
11.9545
12.0788
12.2023
12.3248
12.4466
12.5675
12.6876
12.8069
12.9253
13.043
13.1598
13.2758
13.3909
13.5052
13.6186
13.7311
13.8426
13.9532
14.0628
14.1713
14.2788
14.3852
14.4904
14.5944
14.6971
14.7986
14.8986
14.9972
15.0943
15.1898
15.2837
15.3758
15.4661
15.5545
15.641
15.7253
15.8075
15.8874
15.9649
16.04
16.1125
16.1825
16.2499
16.3146
16.3768
16.4363
16.4931
16.5471
16.5985
16.6472
16.6931
16.7365
16.7773
16.8155
16.8512
16.8844
16.915
16.9429
16.9682
16.9906
17.01
17.0261
17.0385
17.0468
17.0498
17.0478
17.0374
17.0193
16.9847
16.9386
16.8622
-1.74376
-2.16063
-2.22706
-2.46992
-2.58098
-2.77937
-2.93698
-3.14253
-3.34789
-3.58577
-3.83468
-4.10635
-4.39435
-4.69932
-5.01441
-5.33915
-5.67468
-6.02838
-6.41158
-6.83782
-7.31932
-7.86249
-8.45989
-9.08955
-9.71945
-10.3149
-10.844
-11.2886
-11.6348
-11.8747
-11.9996
-12.0078
-11.8982
-11.6756
-11.3499
-10.9383
-10.4622
-9.94568
-9.40517