/*--------------------------------*- C++ -*----------------------------------*\
| =========                 |                                                 |
| \\      /  F ield         | OpenFOAM: The Open Source CFD Toolbox           |
|  \\    /   O peration     | Version:  v1906                                 |
|   \\  /    A nd           | Web:      www.OpenFOAM.com                      |
|    \\/     M anipulation  |                                                 |
\*---------------------------------------------------------------------------*/
FoamFile
{
    version     2.0;
    format      ascii;
    class       surfaceScalarField;
    location    "300";
    object      phi;
}
// * * * * * * * * * * * * * * * * * * * * * * * * * * * * * * * * * * * * * //

dimensions      [0 3 -1 0 0 0 0];
oriented        oriented;


internalField   nonuniform List<scalar> 
24170
(
3.08284e-06
1.0557e-07
2.98705e-06
9.57799e-08
2.92082e-06
6.62324e-08
2.86492e-06
5.58908e-08
2.81626e-06
4.86571e-08
2.77364e-06
4.26057e-08
2.73588e-06
3.77587e-08
2.7021e-06
3.37753e-08
2.67183e-06
3.02654e-08
2.64475e-06
2.70751e-08
2.62048e-06
2.42649e-08
2.5987e-06
2.17696e-08
2.57944e-06
1.926e-08
2.56293e-06
1.65019e-08
2.54983e-06
1.30948e-08
2.54137e-06
8.45478e-09
2.53888e-06
2.46116e-09
-1.66134e-08
2.55546e-06
3.44275e-06
8.00685e-08
3.44403e-06
9.45006e-08
3.43231e-06
7.79503e-08
3.4187e-06
6.94928e-08
3.40397e-06
6.33792e-08
3.38919e-06
5.73833e-08
3.37485e-06
5.20929e-08
3.36107e-06
4.75522e-08
3.34788e-06
4.34546e-08
3.33531e-06
3.96347e-08
3.32344e-06
3.61343e-08
3.31232e-06
3.28893e-08
3.30188e-06
2.96922e-08
3.29215e-06
2.62311e-08
3.28305e-06
2.21837e-08
3.27462e-06
1.68807e-08
3.26891e-06
8.15268e-09
-9.74967e-09
3.26203e-06
3.67627e-06
6.63106e-08
3.67858e-06
9.21928e-08
3.67283e-06
8.37004e-08
3.66535e-06
7.69658e-08
3.65783e-06
7.08969e-08
3.65076e-06
6.44542e-08
3.64419e-06
5.86564e-08
3.63807e-06
5.36681e-08
3.63235e-06
4.91759e-08
3.62699e-06
4.4993e-08
3.62202e-06
4.1099e-08
3.6175e-06
3.74081e-08
3.61348e-06
3.37154e-08
3.61e-06
2.9706e-08
3.60714e-06
2.50401e-08
3.6051e-06
1.89192e-08
3.60261e-06
1.06306e-08
-3.0214e-09
3.59588e-06
3.93547e-06
5.62287e-08
3.94304e-06
8.46171e-08
3.94517e-06
8.1574e-08
3.94524e-06
7.68882e-08
3.94415e-06
7.19878e-08
3.94226e-06
6.63455e-08
3.93993e-06
6.09812e-08
3.93742e-06
5.61721e-08
3.93489e-06
5.17117e-08
3.93241e-06
4.74674e-08
3.93009e-06
4.34139e-08
3.92803e-06
3.94686e-08
3.9263e-06
3.54419e-08
3.92496e-06
3.10383e-08
3.92406e-06
2.59411e-08
3.92351e-06
1.94602e-08
3.92319e-06
1.095e-08
-2.10239e-09
3.92226e-06
4.21811e-06
4.52474e-08
4.22761e-06
7.5112e-08
4.23159e-06
7.75935e-08
4.23302e-06
7.54572e-08
4.2333e-06
7.17062e-08
4.23296e-06
6.66912e-08
4.23233e-06
6.16042e-08
4.23163e-06
5.687e-08
4.23094e-06
5.23981e-08
4.23031e-06
4.81006e-08
4.22978e-06
4.39437e-08
4.22941e-06
3.98377e-08
4.22924e-06
3.56123e-08
4.22927e-06
3.10031e-08
4.22942e-06
2.57914e-08
4.22947e-06
1.94051e-08
4.22828e-06
1.2134e-08
2.90599e-09
4.22328e-06
4.5171e-06
3.72336e-08
4.52585e-06
6.63595e-08
4.53163e-06
7.18133e-08
4.53576e-06
7.13313e-08
4.53891e-06
6.85523e-08
4.54128e-06
6.43177e-08
4.5431e-06
5.97792e-08
4.54459e-06
5.53823e-08
4.54587e-06
5.11138e-08
4.54704e-06
4.69284e-08
4.54819e-06
4.27985e-08
4.54938e-06
3.8646e-08
4.55066e-06
3.43296e-08
4.55202e-06
2.964e-08
4.55341e-06
2.43934e-08
4.55456e-06
1.82523e-08
4.55557e-06
1.1121e-08
2.70099e-09
4.55578e-06
4.83987e-06
3.00841e-08
4.84844e-06
5.77916e-08
4.85452e-06
6.57325e-08
4.85878e-06
6.70705e-08
4.86193e-06
6.54027e-08
4.8643e-06
6.19434e-08
4.8662e-06
5.7879e-08
4.86785e-06
5.3728e-08
4.86938e-06
4.95829e-08
4.87086e-06
4.54545e-08
4.87232e-06
4.13344e-08
4.87381e-06
3.71604e-08
4.87531e-06
3.28282e-08
4.87677e-06
2.81802e-08
4.87802e-06
2.31419e-08
4.87875e-06
1.75196e-08
4.8781e-06
1.17683e-08
5.70255e-09
4.8751e-06
5.18534e-06
2.43242e-08
5.19301e-06
5.01229e-08
5.19944e-06
5.93024e-08
5.2048e-06
6.17108e-08
5.20941e-06
6.0787e-08
5.2134e-06
5.79556e-08
5.21692e-06
5.43593e-08
5.22012e-06
5.05207e-08
5.22312e-06
4.65858e-08
5.22597e-06
4.25983e-08
5.22874e-06
3.85627e-08
5.23147e-06
3.44357e-08
5.23415e-06
3.01433e-08
5.23675e-06
2.55832e-08
5.23919e-06
2.07011e-08
5.24127e-06
1.54335e-08
5.2432e-06
9.83655e-09
4.27819e-09
5.24463e-06
5.55574e-06
1.99244e-08
5.56261e-06
4.32534e-08
5.56894e-06
5.29704e-08
5.5743e-06
5.63457e-08
5.57884e-06
5.62456e-08
5.5827e-06
5.41016e-08
5.58606e-06
5.10005e-08
5.58909e-06
4.74821e-08
5.59192e-06
4.37556e-08
5.59461e-06
3.99099e-08
5.5972e-06
3.59776e-08
5.59969e-06
3.19431e-08
5.60206e-06
2.7774e-08
5.60422e-06
2.34157e-08
5.60603e-06
1.88991e-08
5.60723e-06
1.42329e-08
5.60727e-06
9.79472e-09
5.58564e-09
5.60596e-06
5.95383e-06
1.58715e-08
5.96026e-06
3.68248e-08
5.96659e-06
4.66357e-08
5.97243e-06
5.05047e-08
5.97778e-06
5.08967e-08
5.98264e-06
4.92355e-08
5.98711e-06
4.65352e-08
5.99127e-06
4.33223e-08
5.99519e-06
3.98328e-08
5.99892e-06
3.61765e-08
6.0025e-06
3.23998e-08
6.00593e-06
2.85059e-08
6.00922e-06
2.44832e-08
6.01233e-06
2.03122e-08
6.01521e-06
1.60181e-08
6.0178e-06
1.16359e-08
6.02033e-06
7.26261e-09
3.31328e-09
6.0226e-06
6.37949e-06
1.31885e-08
6.38485e-06
3.14694e-08
6.39076e-06
4.07273e-08
6.39643e-06
4.48331e-08
6.40167e-06
4.56561e-08
6.40645e-06
4.44547e-08
6.41085e-06
4.21306e-08
6.41499e-06
3.9189e-08
6.41893e-06
3.58926e-08
6.42272e-06
3.23806e-08
6.42639e-06
2.8727e-08
6.42994e-06
2.49625e-08
6.43331e-06
2.11099e-08
6.43644e-06
1.71806e-08
6.43921e-06
1.32474e-08
6.44146e-06
9.38118e-09
6.44293e-06
5.79235e-09
2.58783e-09
6.44365e-06
5.74325e-06
1.07676e-08
5.74777e-06
2.69533e-08
5.75282e-06
3.56775e-08
5.75784e-06
3.98134e-08
5.76265e-06
4.08481e-08
5.76714e-06
3.99603e-08
5.77131e-06
3.79573e-08
5.77519e-06
3.53117e-08
5.7788e-06
3.22834e-08
5.78216e-06
2.90148e-08
5.7853e-06
2.55838e-08
5.78823e-06
2.20321e-08
5.79095e-06
1.83882e-08
5.79346e-06
1.46784e-08
5.79575e-06
1.09526e-08
5.79784e-06
7.29095e-09
5.7999e-06
3.73806e-09
6.87995e-10
5.80179e-06
6.99988e-06
9.04444e-09
7.00408e-06
2.27557e-08
7.00933e-06
3.04218e-08
7.01487e-06
3.42767e-08
7.02034e-06
3.5378e-08
7.02558e-06
3.47131e-08
7.03057e-06
3.29655e-08
7.03532e-06
3.05637e-08
7.03984e-06
2.77635e-08
7.04414e-06
2.47138e-08
7.04822e-06
2.15062e-08
7.05205e-06
1.81919e-08
7.05563e-06
1.48178e-08
7.05889e-06
1.14174e-08
7.06178e-06
8.05847e-09
7.0643e-06
4.77574e-09
7.06636e-06
1.66997e-09
-1.29508e-09
7.06835e-06
8.53322e-06
6.66938e-09
8.53819e-06
1.77881e-08
8.54421e-06
2.44021e-08
8.55059e-06
2.78939e-08
8.55698e-06
2.89904e-08
8.5632e-06
2.84932e-08
8.56919e-06
2.69696e-08
8.57496e-06
2.47923e-08
8.58053e-06
2.21982e-08
8.5859e-06
1.93352e-08
8.59111e-06
1.62972e-08
8.59616e-06
1.31481e-08
8.60104e-06
9.93425e-09
8.60576e-06
6.69931e-09
8.61032e-06
3.49461e-09
8.6147e-06
3.97372e-10
8.61894e-06
-2.56965e-09
-5.13236e-09
8.62278e-06
1.04007e-05
5.18708e-09
1.0405e-05
1.34683e-08
1.0411e-05
1.84266e-08
1.04178e-05
2.10608e-08
1.0425e-05
2.18621e-08
1.04321e-05
2.13945e-08
1.04389e-05
2.00797e-08
1.04455e-05
1.82072e-08
1.04518e-05
1.59719e-08
1.04576e-05
1.35006e-08
1.0463e-05
1.08789e-08
1.0468e-05
8.16212e-09
1.04725e-05
5.39198e-09
1.04766e-05
2.59228e-09
1.04804e-05
-2.14924e-10
1.04837e-05
-2.9866e-09
1.04869e-05
-5.75007e-09
-8.43871e-09
1.04902e-05
1.26789e-05
3.04409e-09
1.2684e-05
8.35236e-09
1.26908e-05
1.16485e-08
1.26985e-05
1.33819e-08
1.27066e-05
1.38125e-08
1.27147e-05
1.32909e-08
1.27226e-05
1.21031e-08
1.27304e-05
1.04541e-08
1.27379e-05
8.49197e-09
1.2745e-05
6.31919e-09
1.27519e-05
4.00622e-09
1.27585e-05
1.60469e-09
1.27647e-05
-8.39078e-10
1.27706e-05
-3.29535e-09
1.27761e-05
-5.72606e-09
1.27812e-05
-8.09779e-09
1.27859e-05
-1.04156e-08
-1.2537e-08
1.279e-05
1.5455e-05
1.24377e-09
1.546e-05
3.34607e-09
1.54672e-05
4.43791e-09
1.54758e-05
4.74738e-09
1.54852e-05
4.3961e-09
1.5495e-05
3.54869e-09
1.55047e-05
2.3449e-09
1.55143e-05
8.85422e-10
1.55236e-05
-7.56015e-10
1.55324e-05
-2.52717e-09
1.55408e-05
-4.39702e-09
1.55488e-05
-6.3393e-09
1.55563e-05
-8.33837e-09
1.55633e-05
-1.03806e-08
1.55701e-05
-1.24637e-08
1.55765e-05
-1.454e-08
1.55828e-05
-1.66755e-08
-1.86741e-08
1.55889e-05
1.88392e-05
-3.02911e-10
1.8844e-05
-1.46491e-09
1.88511e-05
-2.63358e-09
1.88595e-05
-3.69784e-09
1.88686e-05
-4.70581e-09
1.88779e-05
-5.69503e-09
1.88869e-05
-6.69438e-09
1.88955e-05
-7.72296e-09
1.89035e-05
-8.79255e-09
1.89109e-05
-9.90579e-09
1.89176e-05
-1.10636e-08
1.89235e-05
-1.22652e-08
1.89287e-05
-1.35064e-08
1.89331e-05
-1.47971e-08
1.89368e-05
-1.61407e-08
1.89397e-05
-1.74967e-08
1.8942e-05
-1.89153e-08
-2.04235e-08
1.89437e-05
2.29672e-05
-4.21027e-09
2.29762e-05
-1.04078e-08
2.29884e-05
-1.48157e-08
2.30027e-05
-1.80077e-08
2.30183e-05
-2.03426e-08
2.30347e-05
-2.20691e-08
2.30514e-05
-2.33895e-08
2.30681e-05
-2.44507e-08
2.30847e-05
-2.53536e-08
2.31009e-05
-2.61617e-08
2.31168e-05
-2.69152e-08
2.31321e-05
-2.76355e-08
2.3147e-05
-2.83281e-08
2.31611e-05
-2.89828e-08
2.31746e-05
-2.96047e-08
2.31872e-05
-3.01304e-08
2.31988e-05
-3.05306e-08
-3.04253e-08
2.32088e-05
1.68112e-05
-4.72801e-09
1.68147e-05
-1.38576e-08
1.68201e-05
-2.02544e-08
1.68265e-05
-2.4407e-08
1.68331e-05
-2.69179e-08
1.68393e-05
-2.83111e-08
1.68449e-05
-2.90002e-08
1.68497e-05
-2.92771e-08
1.68537e-05
-2.93174e-08
1.68568e-05
-2.92371e-08
1.6859e-05
-2.90943e-08
1.68603e-05
-2.89332e-08
1.68607e-05
-2.87679e-08
1.68603e-05
-2.86221e-08
1.68592e-05
-2.85035e-08
1.68576e-05
-2.84694e-08
1.68555e-05
-2.85013e-08
-2.89932e-08
1.68541e-05
1.46386e-05
-8.80231e-09
1.46467e-05
-2.18963e-08
1.46565e-05
-3.00847e-08
1.46672e-05
-3.50636e-08
1.46782e-05
-3.79092e-08
1.46891e-05
-3.9308e-08
1.46999e-05
-3.98053e-08
1.47104e-05
-3.97797e-08
1.47206e-05
-3.94683e-08
1.47304e-05
-3.9015e-08
1.47398e-05
-3.85156e-08
1.47489e-05
-3.80268e-08
1.47577e-05
-3.75917e-08
1.47663e-05
-3.7225e-08
1.47748e-05
-3.6954e-08
1.4783e-05
-3.67395e-08
1.47912e-05
-3.66329e-08
-3.59413e-08
1.47981e-05
1.27416e-05
-1.02537e-08
1.27467e-05
-2.69717e-08
1.27531e-05
-3.65727e-08
1.27597e-05
-4.15942e-08
1.27656e-05
-4.38224e-08
1.27706e-05
-4.43319e-08
1.27747e-05
-4.38957e-08
1.27779e-05
-4.29995e-08
1.27803e-05
-4.18965e-08
1.2782e-05
-4.07149e-08
1.2783e-05
-3.95237e-08
1.27834e-05
-3.83512e-08
1.2783e-05
-3.72006e-08
1.27818e-05
-3.6058e-08
1.27797e-05
-3.48836e-08
1.27767e-05
-3.36697e-08
1.27723e-05
-3.23211e-08
-3.15309e-08
1.27679e-05
1.10965e-05
-1.58477e-08
1.11061e-05
-3.65483e-08
1.11163e-05
-4.67748e-08
1.11263e-05
-5.15762e-08
1.11359e-05
-5.33941e-08
1.11449e-05
-5.33385e-08
1.11532e-05
-5.22763e-08
1.1161e-05
-5.07746e-08
1.11682e-05
-4.91066e-08
1.11749e-05
-4.74086e-08
1.11811e-05
-4.57636e-08
1.1187e-05
-4.42235e-08
1.11926e-05
-4.28237e-08
1.11982e-05
-4.15951e-08
1.12039e-05
-4.06082e-08
1.12101e-05
-3.98988e-08
1.12175e-05
-3.97055e-08
-3.92539e-08
1.12252e-05
9.65972e-06
-2.03499e-08
9.66808e-06
-4.49082e-08
9.67586e-06
-5.45633e-08
9.68203e-06
-5.7746e-08
9.68667e-06
-5.80322e-08
9.69e-06
-5.66676e-08
9.69231e-06
-5.45948e-08
9.69391e-06
-5.23705e-08
9.69497e-06
-5.0171e-08
9.6956e-06
-4.80461e-08
9.69586e-06
-4.6025e-08
9.69576e-06
-4.41235e-08
9.69526e-06
-4.23264e-08
9.69427e-06
-4.06095e-08
9.69254e-06
-3.88753e-08
9.68967e-06
-3.70306e-08
9.68458e-06
-3.46191e-08
-3.21328e-08
9.67746e-06
8.4135e-06
-2.8495e-08
8.425e-06
-5.64138e-08
8.43506e-06
-6.46246e-08
8.44366e-06
-6.63502e-08
8.45116e-06
-6.55329e-08
8.45756e-06
-6.30616e-08
8.46294e-06
-5.99821e-08
8.4675e-06
-5.69302e-08
8.47138e-06
-5.40492e-08
8.47468e-06
-5.1352e-08
8.47751e-06
-4.88557e-08
8.47995e-06
-4.65668e-08
8.4821e-06
-4.44815e-08
8.48408e-06
-4.25944e-08
8.48618e-06
-4.09718e-08
8.48883e-06
-3.9686e-08
8.49353e-06
-3.93236e-08
-3.96226e-08
8.50102e-06
7.32784e-06
-3.9047e-08
7.3396e-06
-6.81791e-08
7.34622e-06
-7.12449e-08
7.34936e-06
-6.94899e-08
7.35062e-06
-6.6794e-08
7.35073e-06
-6.31787e-08
7.35022e-06
-5.94705e-08
7.34941e-06
-5.61213e-08
7.34843e-06
-5.30755e-08
7.34732e-06
-5.02477e-08
7.34609e-06
-4.76239e-08
7.34473e-06
-4.52094e-08
7.34323e-06
-4.29786e-08
7.34155e-06
-4.09253e-08
7.33956e-06
-3.89746e-08
7.33693e-06
-3.70657e-08
7.33204e-06
-3.44329e-08
-3.05583e-08
7.32297e-06
6.38125e-06
-5.02327e-08
6.39305e-06
-7.99795e-08
6.39974e-06
-7.7932e-08
6.40381e-06
-7.3568e-08
6.40609e-06
-6.90782e-08
6.40684e-06
-6.39287e-08
6.40651e-06
-5.91467e-08
6.40549e-06
-5.50946e-08
6.40399e-06
-5.15838e-08
6.40218e-06
-4.84355e-08
6.40014e-06
-4.55927e-08
6.39795e-06
-4.30177e-08
6.39565e-06
-4.06831e-08
6.39328e-06
-3.85527e-08
6.39095e-06
-3.66517e-08
6.38885e-06
-3.49617e-08
6.38864e-06
-3.42291e-08
-3.50319e-08
6.39311e-06
5.56299e-06
-6.77551e-08
5.56904e-06
-8.60342e-08
5.56457e-06
-7.34644e-08
5.55704e-06
-6.60472e-08
5.54914e-06
-6.11803e-08
5.54157e-06
-5.63597e-08
5.53453e-06
-5.21118e-08
5.52797e-06
-4.85404e-08
5.52177e-06
-4.53815e-08
5.51583e-06
-4.25029e-08
5.51011e-06
-3.98694e-08
5.50455e-06
-3.7466e-08
5.49914e-06
-3.52702e-08
5.49386e-06
-3.32792e-08
5.48867e-06
-3.146e-08
5.48358e-06
-2.9874e-08
5.47714e-06
-2.7791e-08
-2.37481e-08
5.46585e-06
4.85297e-06
-9.31204e-08
4.85867e-06
-9.17383e-08
4.8488e-06
-6.35934e-08
4.83769e-06
-5.49468e-08
4.82546e-06
-4.89552e-08
4.81322e-06
-4.41273e-08
4.80146e-06
-4.03531e-08
4.79024e-06
-3.73259e-08
4.77955e-06
-3.46981e-08
4.76934e-06
-3.22993e-08
4.75956e-06
-3.00928e-08
4.75016e-06
-2.80701e-08
4.74112e-06
-2.62305e-08
4.7324e-06
-2.45644e-08
4.72405e-06
-2.31037e-08
4.71602e-06
-2.18524e-08
4.7099e-06
-2.16712e-08
-2.29595e-08
4.7091e-06
4.10956e-06
4.01782e-06
3.95422e-06
3.89928e-06
3.85032e-06
3.80619e-06
3.76584e-06
3.72851e-06
3.69381e-06
3.66151e-06
3.63142e-06
3.60335e-06
3.57712e-06
3.55255e-06
3.52945e-06
3.5076e-06
3.48592e-06
3.46296e-06
2.3783e-07
-2.37308e-07
4.28221e-07
-1.89936e-07
5.34313e-07
-1.05807e-07
5.52194e-07
-1.72009e-08
5.07754e-07
4.46718e-08
3.90467e-07
1.18291e-07
2.05123e-07
1.85503e-07
-2.7815e-08
2.33911e-07
-2.74974e-07
2.47071e-07
-5.24829e-07
2.50143e-07
-7.77326e-07
2.52298e-07
-1.03017e-06
2.52855e-07
-1.28054e-06
2.50215e-07
-1.52392e-06
2.43311e-07
-1.75637e-06
2.32376e-07
-1.9749e-06
2.18433e-07
-2.17754e-06
2.02638e-07
-2.36364e-06
1.86004e-07
-2.53291e-06
1.69285e-07
-2.68593e-06
1.52912e-07
-2.82296e-06
1.3708e-07
-2.94485e-06
1.21755e-07
-3.05162e-06
1.06814e-07
-3.1438e-06
9.20189e-08
-3.22091e-06
7.71618e-08
-3.2831e-06
6.20262e-08
-3.32947e-06
4.64549e-08
-3.35993e-06
3.03051e-08
-3.37361e-06
1.37799e-08
-3.37128e-06
-2.46385e-09
-3.3536e-06
-1.75374e-08
-3.32222e-06
-3.14514e-08
-3.27779e-06
-4.42761e-08
-3.22156e-06
-5.62444e-08
-3.15382e-06
-6.75427e-08
-3.0755e-06
-7.82728e-08
-2.98693e-06
-8.83726e-08
-2.88904e-06
-9.78013e-08
-2.78242e-06
-1.06436e-07
-2.66814e-06
-1.14147e-07
-2.54719e-06
-1.20813e-07
-2.42078e-06
-1.26252e-07
-2.29027e-06
-1.30413e-07
-2.15652e-06
-1.33568e-07
-2.02065e-06
-1.35827e-07
-1.88359e-06
-1.36863e-07
-1.74665e-06
-1.36926e-07
-1.6099e-06
-1.36556e-07
-1.47408e-06
-1.35828e-07
-1.3395e-06
-1.34364e-07
-1.20709e-06
-1.32432e-07
-1.07674e-06
-1.30114e-07
-9.49155e-07
-1.27589e-07
-8.24089e-07
-1.24845e-07
-7.02126e-07
-1.21995e-07
-5.82988e-07
-1.18952e-07
-4.67283e-07
-1.15756e-07
-3.54961e-07
-1.12193e-07
-2.4703e-07
-1.08028e-07
-1.44581e-07
-1.024e-07
-5.03071e-08
-9.43909e-08
3.87015e-08
-8.9011e-08
1.28699e-07
-9.01146e-08
2.20648e-07
-9.19806e-08
3.11291e-07
-9.07347e-08
3.99402e-07
-8.81491e-08
4.84381e-07
-8.50434e-08
5.6589e-07
-8.1544e-08
6.43821e-07
-7.79682e-08
7.18288e-07
-7.44959e-08
7.89477e-07
-7.12089e-08
8.57591e-07
-6.81396e-08
9.22871e-07
-6.5288e-08
9.85501e-07
-6.26549e-08
1.04571e-06
-6.02186e-08
1.10366e-06
-5.79739e-08
1.15955e-06
-5.58942e-08
1.2135e-06
-5.39735e-08
1.26568e-06
-5.2187e-08
1.31619e-06
-5.05321e-08
1.36518e-06
-4.8984e-08
1.4127e-06
-4.75416e-08
1.45889e-06
-4.6183e-08
1.50378e-06
-4.4911e-08
1.54749e-06
-4.37037e-08
1.59004e-06
-4.25641e-08
1.63152e-06
-4.14725e-08
1.67196e-06
-4.04332e-08
1.71142e-06
-3.94345e-08
1.74995e-06
-3.84778e-08
1.78755e-06
-3.75646e-08
1.82426e-06
-3.66859e-08
1.86011e-06
-3.58312e-08
1.89511e-06
-3.4997e-08
1.92931e-06
-3.41843e-08
1.96271e-06
-3.33938e-08
1.99535e-06
-3.26245e-08
2.02724e-06
-3.18758e-08
2.0584e-06
-3.11472e-08
2.08885e-06
-3.04391e-08
2.11861e-06
-2.97517e-08
2.1477e-06
-2.90859e-08
2.17615e-06
-2.84417e-08
2.20398e-06
-2.782e-08
2.2312e-06
-2.72199e-08
2.25786e-06
-2.66429e-08
2.28396e-06
-2.60887e-08
2.30953e-06
-2.55593e-08
2.3346e-06
-2.50541e-08
2.35919e-06
-2.45746e-08
2.38333e-06
-2.41203e-08
2.40704e-06
-2.36928e-08
2.43035e-06
-2.32928e-08
2.4533e-06
-2.29222e-08
2.4759e-06
-2.25817e-08
2.4982e-06
-2.22727e-08
2.52022e-06
-2.19953e-08
2.542e-06
-2.17498e-08
2.56356e-06
-2.15357e-08
2.58494e-06
-2.13525e-08
2.60617e-06
-2.12e-08
2.62727e-06
-2.10765e-08
2.64829e-06
-2.0982e-08
2.66923e-06
-2.09147e-08
2.69014e-06
-2.08748e-08
2.71103e-06
-2.08604e-08
2.73193e-06
-2.08716e-08
2.75287e-06
-2.09057e-08
2.77386e-06
-2.09628e-08
2.79493e-06
-2.10395e-08
2.81609e-06
-2.11361e-08
2.83736e-06
-2.12483e-08
2.85876e-06
-2.13769e-08
2.8803e-06
-2.15155e-08
2.90199e-06
-2.16674e-08
2.92383e-06
-2.18215e-08
2.94582e-06
-2.19787e-08
2.96798e-06
-2.21535e-08
2.99031e-06
-2.2323e-08
3.0128e-06
-2.24934e-08
3.03544e-06
-2.26465e-08
3.05823e-06
-2.28014e-08
3.08116e-06
-2.29345e-08
3.10422e-06
-2.30686e-08
3.12739e-06
-2.31797e-08
3.15066e-06
-2.32742e-08
3.174e-06
-2.33407e-08
3.19739e-06
-2.33906e-08
3.2208e-06
-2.34194e-08
3.24424e-06
-2.3434e-08
3.26763e-06
-2.3402e-08
3.29099e-06
-2.33549e-08
3.31426e-06
-2.32763e-08
3.33742e-06
-2.31632e-08
3.36042e-06
-2.30082e-08
3.38325e-06
-2.28239e-08
3.40584e-06
-2.25996e-08
3.42819e-06
-2.23431e-08
3.45023e-06
-2.20482e-08
3.47195e-06
-2.17191e-08
3.4933e-06
-2.13451e-08
3.51424e-06
-2.09305e-08
3.53471e-06
-2.04654e-08
3.55467e-06
-1.99509e-08
3.57405e-06
-1.93771e-08
3.5928e-06
-1.87379e-08
3.61083e-06
-1.80214e-08
3.62806e-06
-1.72095e-08
3.64436e-06
-1.62831e-08
3.65958e-06
-1.5199e-08
3.67352e-06
-1.39227e-08
3.68589e-06
-1.23471e-08
3.69627e-06
-1.03492e-08
3.70388e-06
-7.57921e-09
3.70628e-06
-2.37085e-09
3.69744e-06
8.89095e-09
3.6694e-06
2.80911e-08
3.60838e-06
6.1067e-08
3.47895e-06
1.2948e-07
2.02432e-07
3.27656e-06
1.0584e-07
-3.42787e-07
9.71823e-08
-1.8097e-07
3.64764e-08
-4.48778e-08
-8.02394e-08
9.97946e-08
-2.33553e-07
1.98143e-07
-4.14286e-07
2.99254e-07
-6.08463e-07
3.79777e-07
-8.099e-07
4.3549e-07
-1.02621e-06
4.63389e-07
-1.24768e-06
4.71662e-07
-1.46018e-06
4.64767e-07
-1.65355e-06
4.46213e-07
-1.82201e-06
4.18637e-07
-1.96401e-06
3.85271e-07
-2.08115e-06
3.49486e-07
-2.17691e-06
3.14151e-07
-2.25555e-06
2.81263e-07
-2.32149e-06
2.51909e-07
-2.3786e-06
2.2639e-07
-2.43019e-06
2.04447e-07
-2.47858e-06
1.85476e-07
-2.52558e-06
1.68705e-07
-2.5721e-06
1.53328e-07
-2.61876e-06
1.38598e-07
-2.66544e-06
1.23857e-07
-2.71203e-06
1.08536e-07
-2.75777e-06
9.22205e-08
-2.80221e-06
7.46757e-08
-2.84419e-06
5.57991e-08
-2.8821e-06
3.54043e-08
-2.91306e-06
1.34848e-08
-2.93491e-06
-9.61385e-09
-2.94538e-06
-3.37288e-08
-2.94296e-06
-5.86417e-08
-2.92685e-06
-8.35651e-08
-2.89717e-06
-1.07898e-07
-2.85429e-06
-1.31162e-07
-2.79903e-06
-1.52988e-07
-2.73235e-06
-1.7304e-07
-2.6554e-06
-1.91009e-07
-2.56952e-06
-2.06627e-07
-2.47597e-06
-2.1972e-07
-2.37621e-06
-2.30117e-07
-2.27148e-06
-2.38231e-07
-2.16271e-06
-2.44554e-07
-2.05084e-06
-2.48664e-07
-1.93683e-06
-2.50912e-07
-1.82156e-06
-2.51774e-07
-1.70594e-06
-2.51417e-07
-1.59031e-06
-2.4995e-07
-1.47515e-06
-2.4757e-07
-1.36079e-06
-2.44422e-07
-1.24768e-06
-2.40674e-07
-1.13607e-06
-2.36418e-07
-1.02628e-06
-2.31777e-07
-9.18392e-07
-2.26811e-07
-8.12498e-07
-2.21643e-07
-7.08296e-07
-2.16387e-07
-6.0512e-07
-2.1121e-07
-5.01534e-07
-2.05989e-07
-3.95777e-07
-2.00161e-07
-2.91391e-07
-1.93407e-07
-1.94513e-07
-1.8701e-07
-1.05016e-07
-1.8149e-07
-1.94697e-08
-1.763e-07
6.29713e-08
-1.70604e-07
1.42307e-07
-1.64396e-07
2.19025e-07
-1.58275e-07
2.93441e-07
-1.52396e-07
3.65738e-07
-1.46803e-07
4.36037e-07
-1.41516e-07
5.0442e-07
-1.36531e-07
5.70966e-07
-1.3184e-07
6.35743e-07
-1.27439e-07
6.98833e-07
-1.23314e-07
7.60306e-07
-1.19455e-07
8.20248e-07
-1.15841e-07
8.78724e-07
-1.12458e-07
9.35815e-07
-1.09282e-07
9.91579e-07
-1.06302e-07
1.04609e-06
-1.03495e-07
1.09939e-06
-1.00848e-07
1.15155e-06
-9.83424e-08
1.2026e-06
-9.59693e-08
1.2526e-06
-9.37086e-08
1.30159e-06
-9.15541e-08
1.34961e-06
-8.94882e-08
1.39668e-06
-8.75056e-08
1.44286e-06
-8.55967e-08
1.48816e-06
-8.37575e-08
1.5326e-06
-8.19856e-08
1.57619e-06
-8.02688e-08
1.61896e-06
-7.85981e-08
1.66094e-06
-7.69676e-08
1.70214e-06
-7.53778e-08
1.74257e-06
-7.38266e-08
1.78227e-06
-7.23138e-08
1.82123e-06
-7.08377e-08
1.85949e-06
-6.93994e-08
1.89705e-06
-6.79988e-08
1.93394e-06
-6.66376e-08
1.97017e-06
-6.53166e-08
2.00577e-06
-6.40372e-08
2.04075e-06
-6.27993e-08
2.07513e-06
-6.16029e-08
2.10894e-06
-6.04487e-08
2.1422e-06
-5.9338e-08
2.17492e-06
-5.82726e-08
2.20712e-06
-5.72537e-08
2.23884e-06
-5.62825e-08
2.27009e-06
-5.536e-08
2.30089e-06
-5.44884e-08
2.33128e-06
-5.36698e-08
2.36127e-06
-5.2907e-08
2.3909e-06
-5.22019e-08
2.4202e-06
-5.1556e-08
2.44918e-06
-5.09693e-08
2.47789e-06
-5.04419e-08
2.50634e-06
-4.9973e-08
2.53456e-06
-4.95618e-08
2.56258e-06
-4.92069e-08
2.59043e-06
-4.89066e-08
2.61812e-06
-4.86594e-08
2.64568e-06
-4.84636e-08
2.67314e-06
-4.83175e-08
2.70052e-06
-4.82194e-08
2.72783e-06
-4.8167e-08
2.75509e-06
-4.81576e-08
2.78234e-06
-4.81883e-08
2.80957e-06
-4.82556e-08
2.8368e-06
-4.83562e-08
2.86405e-06
-4.84858e-08
2.89133e-06
-4.86411e-08
2.91864e-06
-4.88164e-08
2.94599e-06
-4.9009e-08
2.97339e-06
-4.92105e-08
3.00083e-06
-4.94138e-08
3.02832e-06
-4.96416e-08
3.05584e-06
-4.98463e-08
3.08341e-06
-5.00626e-08
3.111e-06
-5.02448e-08
3.13862e-06
-5.04278e-08
3.16624e-06
-5.05643e-08
3.19386e-06
-5.06942e-08
3.22146e-06
-5.07821e-08
3.24901e-06
-5.08306e-08
3.2765e-06
-5.0836e-08
3.30391e-06
-5.08e-08
3.3312e-06
-5.0716e-08
3.35836e-06
-5.05954e-08
3.38535e-06
-5.03927e-08
3.41215e-06
-5.01542e-08
3.43872e-06
-4.98481e-08
3.46502e-06
-4.94716e-08
3.49104e-06
-4.90245e-08
3.51672e-06
-4.85087e-08
3.54204e-06
-4.79172e-08
3.56695e-06
-4.72491e-08
3.5914e-06
-4.65042e-08
3.61536e-06
-4.56728e-08
3.63877e-06
-4.4756e-08
3.66159e-06
-4.3742e-08
3.68376e-06
-4.26295e-08
3.70522e-06
-4.14031e-08
3.72591e-06
-4.00551e-08
3.74574e-06
-3.85621e-08
3.76464e-06
-3.69052e-08
3.78248e-06
-3.50419e-08
3.79915e-06
-3.29324e-08
3.81445e-06
-3.04846e-08
3.82817e-06
-2.76241e-08
3.83994e-06
-2.41036e-08
3.84941e-06
-1.97896e-08
3.85572e-06
-1.38683e-08
3.85941e-06
-6.0326e-09
3.86302e-06
5.32046e-09
3.86882e-06
2.23262e-08
3.87875e-06
5.11896e-08
3.89391e-06
1.14352e-07
2.14808e-07
3.88158e-06
-1.76994e-07
-1.65597e-07
-3.5029e-07
-7.51519e-09
-5.00673e-07
1.05562e-07
-6.46707e-07
2.45937e-07
-8.13127e-07
3.64591e-07
-9.8241e-07
4.68641e-07
-1.14658e-06
5.43951e-07
-1.3011e-06
5.90084e-07
-1.44448e-06
6.06759e-07
-1.57294e-06
6.00155e-07
-1.68409e-06
5.75882e-07
-1.77855e-06
5.40672e-07
-1.8604e-06
5.00462e-07
-1.93541e-06
4.60252e-07
-2.00931e-06
4.23367e-07
-2.08669e-06
3.91497e-07
-2.17037e-06
3.64931e-07
-2.26153e-06
3.43033e-07
-2.35981e-06
3.24674e-07
-2.46396e-06
3.08553e-07
-2.57188e-06
2.93406e-07
-2.68133e-06
2.78109e-07
-2.78972e-06
2.61726e-07
-2.89468e-06
2.43511e-07
-2.99372e-06
2.22906e-07
-3.08474e-06
1.99517e-07
-3.16561e-06
1.73107e-07
-3.23455e-06
1.43586e-07
-3.28972e-06
1.10985e-07
-3.32987e-06
7.55393e-08
-3.3542e-06
3.78435e-08
-3.36261e-06
-1.19753e-09
-3.35538e-06
-4.09279e-08
-3.33362e-06
-8.03825e-08
-3.29812e-06
-1.1902e-07
-3.24967e-06
-1.56311e-07
-3.18904e-06
-1.91743e-07
-3.11715e-06
-2.24837e-07
-3.03498e-06
-2.55158e-07
-2.9436e-06
-2.82344e-07
-2.84406e-06
-3.06125e-07
-2.73752e-06
-3.2621e-07
-2.62533e-06
-3.42271e-07
-2.5086e-06
-3.54918e-07
-2.38847e-06
-3.64659e-07
-2.26585e-06
-3.71254e-07
-2.14166e-06
-3.75085e-07
-2.01679e-06
-3.76617e-07
-1.89201e-06
-3.76185e-07
-1.76787e-06
-3.74071e-07
-1.64486e-06
-3.70567e-07
-1.52336e-06
-3.65911e-07
-1.40371e-06
-3.6031e-07
-1.28621e-06
-3.53913e-07
-1.17113e-06
-3.46843e-07
-1.05876e-06
-3.39178e-07
-9.49405e-07
-3.30996e-07
-8.43441e-07
-3.22349e-07
-7.41345e-07
-3.13308e-07
-6.43372e-07
-3.03963e-07
-5.49072e-07
-2.94464e-07
-4.57287e-07
-2.85195e-07
-3.67826e-07
-2.76476e-07
-2.812e-07
-2.68121e-07
-1.97544e-07
-2.59961e-07
-1.16325e-07
-2.51829e-07
-3.69819e-08
-2.43744e-07
4.05516e-08
-2.35813e-07
1.16261e-07
-2.2811e-07
1.90117e-07
-2.20663e-07
2.62111e-07
-2.13513e-07
3.32274e-07
-2.06698e-07
4.00669e-07
-2.00238e-07
4.67363e-07
-1.94137e-07
5.32435e-07
-1.88388e-07
5.95959e-07
-1.82983e-07
6.58012e-07
-1.77898e-07
7.18665e-07
-1.73113e-07
7.77986e-07
-1.68605e-07
8.36034e-07
-1.64354e-07
8.92872e-07
-1.60334e-07
9.48552e-07
-1.5653e-07
1.00313e-06
-1.52919e-07
1.05664e-06
-1.49486e-07
1.10914e-06
-1.4621e-07
1.16066e-06
-1.43078e-07
1.21125e-06
-1.40072e-07
1.26092e-06
-1.37179e-07
1.30972e-06
-1.34389e-07
1.35767e-06
-1.31695e-07
1.40478e-06
-1.2909e-07
1.45108e-06
-1.26563e-07
1.49659e-06
-1.24104e-07
1.54133e-06
-1.21707e-07
1.58532e-06
-1.19368e-07
1.62858e-06
-1.17084e-07
1.67112e-06
-1.14855e-07
1.71296e-06
-1.12682e-07
1.75413e-06
-1.10564e-07
1.79463e-06
-1.08504e-07
1.8345e-06
-1.06501e-07
1.87374e-06
-1.04558e-07
1.91237e-06
-1.02676e-07
1.95043e-06
-1.00853e-07
1.98791e-06
-9.90914e-08
2.02486e-06
-9.73917e-08
2.06127e-06
-9.57563e-08
2.09719e-06
-9.41869e-08
2.13262e-06
-9.26843e-08
2.16759e-06
-9.12483e-08
2.20212e-06
-8.98803e-08
2.23622e-06
-8.85831e-08
2.26991e-06
-8.73613e-08
2.30323e-06
-8.62191e-08
2.33619e-06
-8.51598e-08
2.36883e-06
-8.41847e-08
2.40116e-06
-8.32936e-08
2.43321e-06
-8.24853e-08
2.465e-06
-8.17586e-08
2.49656e-06
-8.11125e-08
2.5279e-06
-8.05453e-08
2.55906e-06
-8.00557e-08
2.59005e-06
-7.96418e-08
2.62089e-06
-7.93018e-08
2.65161e-06
-7.90333e-08
2.68224e-06
-7.88338e-08
2.71278e-06
-7.86994e-08
2.74325e-06
-7.86268e-08
2.77368e-06
-7.86115e-08
2.80409e-06
-7.86497e-08
2.83447e-06
-7.87365e-08
2.86486e-06
-7.88674e-08
2.89526e-06
-7.90367e-08
2.92569e-06
-7.92386e-08
2.95615e-06
-7.94665e-08
2.98666e-06
-7.97125e-08
3.01721e-06
-7.99684e-08
3.04781e-06
-8.02385e-08
3.07846e-06
-8.04996e-08
3.10915e-06
-8.07577e-08
3.13989e-06
-8.09908e-08
3.17066e-06
-8.1207e-08
3.20148e-06
-8.1384e-08
3.23231e-06
-8.15336e-08
3.26316e-06
-8.16375e-08
3.29402e-06
-8.16933e-08
3.32487e-06
-8.16936e-08
3.3557e-06
-8.16339e-08
3.38649e-06
-8.15075e-08
3.41721e-06
-8.13156e-08
3.44784e-06
-8.10315e-08
3.47835e-06
-8.06688e-08
3.50871e-06
-8.02113e-08
3.5389e-06
-7.96552e-08
3.56886e-06
-7.8996e-08
3.59859e-06
-7.82357e-08
3.62804e-06
-7.73711e-08
3.65719e-06
-7.64034e-08
3.68601e-06
-7.53307e-08
3.71449e-06
-7.41486e-08
3.74258e-06
-7.28534e-08
3.77028e-06
-7.14365e-08
3.79754e-06
-6.98899e-08
3.82433e-06
-6.81988e-08
3.85063e-06
-6.63472e-08
3.87637e-06
-6.43073e-08
3.90151e-06
-6.20468e-08
3.92598e-06
-5.95098e-08
3.94969e-06
-5.66366e-08
3.97252e-06
-5.33073e-08
3.99431e-06
-4.94164e-08
4.01488e-06
-4.46644e-08
4.03396e-06
-3.88734e-08
4.05124e-06
-3.11437e-08
4.0663e-06
-2.10882e-08
4.07727e-06
-5.64828e-09
4.08249e-06
1.71077e-08
4.0788e-06
5.48762e-08
4.07248e-06
1.20676e-07
2.3569e-07
4.05159e-06
-2.61904e-07
9.64229e-08
-4.8626e-07
2.16935e-07
-6.8754e-07
3.06841e-07
-8.65564e-07
4.24011e-07
-1.02408e-06
5.23091e-07
-1.15847e-06
6.03074e-07
-1.26753e-06
6.52996e-07
-1.353e-06
6.75573e-07
-1.41977e-06
6.73513e-07
-1.474e-06
6.54386e-07
-1.52315e-06
6.25004e-07
-1.57531e-06
5.92815e-07
-1.63727e-06
5.62393e-07
-1.71349e-06
5.36436e-07
-1.80544e-06
5.15292e-07
-1.912e-06
4.98025e-07
-2.03019e-06
4.83103e-07
-2.15616e-06
4.68972e-07
-2.2858e-06
4.54301e-07
-2.41536e-06
4.38078e-07
-2.54153e-06
4.19571e-07
-2.66172e-06
3.98258e-07
-2.77375e-06
3.73757e-07
-2.87607e-06
3.45796e-07
-2.96733e-06
3.14181e-07
-3.04668e-06
2.78827e-07
-3.11332e-06
2.39766e-07
-3.16693e-06
1.97163e-07
-3.20722e-06
1.51291e-07
-3.23425e-06
1.02558e-07
-3.24794e-06
5.15545e-08
-3.24819e-06
-9.47441e-10
-3.23486e-06
-5.42365e-08
-3.20784e-06
-1.0739e-07
-3.16723e-06
-1.59601e-07
-3.11346e-06
-2.10053e-07
-3.0472e-06
-2.57967e-07
-2.96938e-06
-3.02632e-07
-2.88107e-06
-3.4343e-07
-2.78353e-06
-3.79846e-07
-2.67813e-06
-4.11491e-07
-2.56626e-06
-4.38043e-07
-2.44916e-06
-4.59338e-07
-2.32811e-06
-4.75941e-07
-2.20451e-06
-4.88234e-07
-2.07951e-06
-4.96224e-07
-1.95415e-06
-5.00433e-07
-1.82929e-06
-5.01454e-07
-1.70564e-06
-4.99826e-07
-1.58368e-06
-4.9602e-07
-1.46381e-06
-4.90438e-07
-1.3463e-06
-4.8341e-07
-1.2314e-06
-4.75203e-07
-1.11928e-06
-4.66029e-07
-1.01007e-06
-4.56059e-07
-9.03811e-07
-4.45433e-07
-8.00526e-07
-4.34282e-07
-7.00168e-07
-4.22709e-07
-6.02682e-07
-4.10795e-07
-5.08054e-07
-3.98593e-07
-4.16369e-07
-3.86152e-07
-3.27845e-07
-3.73721e-07
-2.42676e-07
-3.61646e-07
-1.60746e-07
-3.50053e-07
-8.18036e-08
-3.38906e-07
-5.54028e-09
-3.28095e-07
6.82958e-08
-3.17583e-07
1.39885e-07
-3.07405e-07
2.09396e-07
-2.97623e-07
2.77003e-07
-2.88273e-07
3.42866e-07
-2.79378e-07
4.07114e-07
-2.70949e-07
4.69859e-07
-2.62985e-07
5.31195e-07
-2.55475e-07
5.91209e-07
-2.48404e-07
6.49977e-07
-2.41752e-07
7.07566e-07
-2.35489e-07
7.64035e-07
-2.29584e-07
8.19439e-07
-2.24011e-07
8.73826e-07
-2.18742e-07
9.27241e-07
-2.1375e-07
9.79723e-07
-2.09014e-07
1.03131e-06
-2.04507e-07
1.08203e-06
-2.00209e-07
1.13192e-06
-1.96096e-07
1.18099e-06
-1.92149e-07
1.22926e-06
-1.88349e-07
1.27677e-06
-1.84682e-07
1.32352e-06
-1.81135e-07
1.36953e-06
-1.777e-07
1.41481e-06
-1.74368e-07
1.45938e-06
-1.71127e-07
1.50324e-06
-1.67968e-07
1.54642e-06
-1.64884e-07
1.58892e-06
-1.6187e-07
1.63076e-06
-1.58927e-07
1.67196e-06
-1.56053e-07
1.71252e-06
-1.53251e-07
1.75248e-06
-1.5052e-07
1.79183e-06
-1.47859e-07
1.8306e-06
-1.45272e-07
1.8688e-06
-1.42758e-07
1.90644e-06
-1.40322e-07
1.94355e-06
-1.37961e-07
1.98013e-06
-1.35676e-07
2.01621e-06
-1.33471e-07
2.0518e-06
-1.31348e-07
2.08692e-06
-1.2931e-07
2.1216e-06
-1.27358e-07
2.15584e-06
-1.25489e-07
2.18966e-06
-1.23705e-07