/*--------------------------------*- C++ -*----------------------------------*\
| =========                 |                                                 |
| \\      /  F ield         | OpenFOAM: The Open Source CFD Toolbox           |
|  \\    /   O peration     | Version:  v1906                                 |
|   \\  /    A nd           | Web:      www.OpenFOAM.com                      |
|    \\/     M anipulation  |                                                 |
\*---------------------------------------------------------------------------*/
FoamFile
{
    version     2.0;
    format      ascii;
    class       volSymmTensorField;
    location    "300";
    object      R;
}
// * * * * * * * * * * * * * * * * * * * * * * * * * * * * * * * * * * * * * //

dimensions      [0 2 -2 0 0 0 0];


internalField   nonuniform List<symmTensor> 
12225
(
(1.62918 -0.333428 0 1.36079 0 1.52752)
(1.99603 -0.597715 0 0.915088 0 1.54225)
(2.14978 -0.58622 0 0.685687 0 1.48848)
(2.16282 -0.548305 0 0.594828 0 1.42584)
(2.13012 -0.521108 0 0.54987 0 1.37032)
(2.08424 -0.501394 0 0.521899 0 1.32333)
(2.03722 -0.485995 0 0.501409 0 1.28334)
(1.99316 -0.473296 0 0.485106 0 1.24896)
(1.95242 -0.462366 0 0.471427 0 1.21883)
(1.91655 -0.45303 0 0.459942 0 1.19276)
(1.88266 -0.44451 0 0.449741 0 1.16916)
(1.85537 -0.437955 0 0.441214 0 1.14927)
(1.83401 -0.432975 0 0.434434 0 1.13347)
(1.81699 -0.428884 0 0.428833 0 1.12035)
(1.80202 -0.425419 0 0.424088 0 1.10897)
(1.79118 -0.423175 0 0.420685 0 1.10077)
(1.78025 -0.42057 0 0.416912 0 1.0913)
(1.77613 -0.421071 0 0.41593 0 1.08942)
(1.52372 -0.0379448 0 1.4601 0 1.51677)
(1.5765 -0.140404 0 1.18698 0 1.51213)
(1.58668 -0.189966 0 0.927733 0 1.45695)
(1.57198 -0.209232 0 0.773975 0 1.39906)
(1.54338 -0.218001 0 0.676497 0 1.34285)
(1.51863 -0.225035 0 0.611477 0 1.29759)
(1.49701 -0.231204 0 0.564933 0 1.26006)
(1.47743 -0.236577 0 0.529699 0 1.22753)
(1.46106 -0.241555 0 0.50228 0 1.20024)
(1.44611 -0.245738 0 0.480067 0 1.17566)
(1.4348 -0.250021 0 0.462221 0 1.15587)
(1.42334 -0.253125 0 0.446742 0 1.13635)
(1.4166 -0.257337 0 0.4349 0 1.12264)
(1.40825 -0.259276 0 0.423212 0 1.10649)
(1.40444 -0.26365 0 0.416005 0 1.09784)
(1.39863 -0.263849 0 0.405967 0 1.08388)
(1.39492 -0.268062 0 0.402337 0 1.07869)
(1.38829 -0.264214 0 0.393188 0 1.06537)
(1.5116 -0.00808838 0 1.49389 0 1.51021)
(1.53448 -0.0357992 0 1.38477 0 1.51856)
(1.54636 -0.0613678 0 1.23542 0 1.50556)
(1.54325 -0.0796133 0 1.11843 0 1.48167)
(1.52906 -0.0931297 0 1.02706 0 1.4522)
(1.51213 -0.104929 0 0.95386 0 1.42289)
(1.49484 -0.115524 0 0.89432 0 1.39542)
(1.47772 -0.125064 0 0.844941 0 1.36969)
(1.4619 -0.133834 0 0.803522 0 1.34644)
(1.44695 -0.14169 0 0.768185 0 1.32481)
(1.43381 -0.149132 0 0.737991 0 1.30579)
(1.42133 -0.155569 0 0.711457 0 1.2876)
(1.41068 -0.162026 0 0.688975 0 1.27238)
(1.40097 -0.167108 0 0.668104 0 1.25694)
(1.3915 -0.172727 0 0.652098 0 1.24536)
(1.38633 -0.176249 0 0.633279 0 1.23148)
(1.37231 -0.180496 0 0.626985 0 1.22473)
(1.38608 -0.181059 0 0.597942 0 1.20987)
(1.51151 -0.00604563 0 1.49422 0 1.51108)
(1.52714 -0.0161691 0 1.42201 0 1.52168)
(1.53959 -0.0292331 0 1.31337 0 1.52304)
(1.54268 -0.0415203 0 1.21426 0 1.51495)
(1.5375 -0.0516581 0 1.13081 0 1.50062)
(1.52835 -0.0605751 0 1.06055 0 1.48363)
(1.51741 -0.0686652 0 1.00141 0 1.46595)
(1.50551 -0.0760606 0 0.951202 0 1.4482)
(1.49357 -0.0829286 0 0.908252 0 1.43115)
(1.48177 -0.0892092 0 0.871139 0 1.41474)
(1.4706 -0.0951161 0 0.83895 0 1.39948)
(1.45985 -0.100421 0 0.810647 0 1.38486)
(1.44986 -0.105493 0 0.786054 0 1.37164)
(1.44062 -0.109775 0 0.763911 0 1.35881)
(1.43152 -0.113925 0 0.745202 0 1.34767)
(1.42448 -0.116878 0 0.726845 0 1.33633)
(1.41511 -0.119499 0 0.713995 0 1.3277)
(1.41248 -0.120412 0 0.694925 0 1.31765)
(1.50985 -0.00450626 0 1.49826 0 1.50973)
(1.52083 -0.00866644 0 1.44973 0 1.51868)
(1.53202 -0.0145678 0 1.3739 0 1.52435)
(1.53762 -0.0214111 0 1.29935 0 1.52359)
(1.53742 -0.0278087 0 1.2332 0 1.51772)
(1.53364 -0.0338637 0 1.17496 0 1.50884)
(1.52772 -0.039703 0 1.12391 0 1.4984)
(1.52043 -0.0452882 0 1.07908 0 1.4871)
(1.51245 -0.050615 0 1.03956 0 1.47554)
(1.50411 -0.05561 0 1.00456 0 1.46395)
(1.49577 -0.0603239 0 0.973512 0 1.4527)
(1.48749 -0.0646429 0 0.945787 0 1.44169)
(1.47945 -0.0686631 0 0.921101 0 1.43128)
(1.47176 -0.0721322 0 0.898862 0 1.42119)
(1.46429 -0.0751982 0 0.879159 0 1.41189)
(1.45772 -0.077466 0 0.860866 0 1.40288)
(1.45122 -0.0789863 0 0.845232 0 1.39519)
(1.44714 -0.0798276 0 0.827873 0 1.38761)
(1.50976 -0.00406797 0 1.4986 0 1.50977)
(1.51837 -0.00564189 0 1.46101 0 1.51752)
(1.52809 -0.0079451 0 1.40307 0 1.52435)
(1.53449 -0.0114792 0 1.34301 0 1.52703)
(1.53685 -0.0152401 0 1.28703 0 1.52579)
(1.53626 -0.0190322 0 1.23603 0 1.52183)
(1.53362 -0.0228516 0 1.19011 0 1.51609)
(1.52952 -0.0266155 0 1.14895 0 1.50916)
(1.52446 -0.0302662 0 1.11206 0 1.50155)
(1.51879 -0.0337387 0 1.07896 0 1.49355)
(1.5128 -0.0370195 0 1.04922 0 1.48543)
(1.50664 -0.0400332 0 1.02245 0 1.47729)
(1.50046 -0.0427718 0 0.998326 0 1.46932)
(1.4944 -0.0451033 0 0.976502 0 1.46153)
(1.48851 -0.0470117 0 0.956801 0 1.45411)
(1.48312 -0.048345 0 0.938678 0 1.44702)
(1.47812 -0.0490831 0 0.92225 0 1.44062)
(1.47434 -0.0494587 0 0.905489 0 1.43459)
(1.50944 -0.00332935 0 1.49943 0 1.50952)
(1.51625 -0.00407947 0 1.46946 0 1.51599)
(1.52433 -0.00455799 0 1.42472 0 1.52254)
(1.5305 -0.00590987 0 1.3768 0 1.5265)
(1.53389 -0.00766731 0 1.33074 0 1.52758)
(1.53499 -0.0096553 0 1.2878 0 1.52642)
(1.53432 -0.0118355 0 1.24837 0 1.52361)
(1.53231 -0.0141101 0 1.21242 0 1.51961)
(1.52934 -0.0163905 0 1.1797 0 1.51479)
(1.52569 -0.0186008 0 1.14995 0 1.50943)
(1.52159 -0.020691 0 1.1229 0 1.50375)
(1.51721 -0.0225898 0 1.09828 0 1.49788)
(1.5127 -0.0242466 0 1.07588 0 1.49198)
(1.50819 -0.025573 0 1.05545 0 1.48612)
(1.50382 -0.0265136 0 1.03679 0 1.48044)
(1.4998 -0.0270129 0 1.0196 0 1.47502)
(1.49632 -0.0270478 0 1.00372 0 1.47008)
(1.49349 -0.0269487 0 0.988399 0 1.46549)
(1.5095 -0.00291717 0 1.49939 0 1.5096)
(1.51522 -0.00329799 0 1.47392 0 1.51528)
(1.52197 -0.00286877 0 1.43791 0 1.52124)
(1.52764 -0.0029693 0 1.39846 0 1.52561)
(1.53142 -0.00347638 0 1.35948 0 1.52794)
(1.53347 -0.00427354 0 1.32234 0 1.52848)
(1.53407 -0.00530697 0 1.2876 0 1.5276)
(1.5335 -0.00647909 0 1.25543 0 1.52562)
(1.53203 -0.00769709 0 1.22579 0 1.52281)
(1.52989 -0.00888527 0 1.19854 0 1.5194)
(1.52727 -0.0099829 0 1.17354 0 1.51557)
(1.52432 -0.0109239 0 1.1506 0 1.51147)
(1.5212 -0.0116492 0 1.12957 0 1.50722)
(1.51803 -0.0120944 0 1.11027 0 1.50292)
(1.51497 -0.0122116 0 1.09254 0 1.4987)
(1.51216 -0.011985 0 1.07617 0 1.49464)
(1.50971 -0.0114611 0 1.06106 0 1.49086)
(1.50759 -0.010811 0 1.04704 0 1.48737)
(1.50945 -0.00236023 0 1.49957 0 1.50957)
(1.5143 -0.00268964 0 1.47761 0 1.51453)
(1.51991 -0.00187445 0 1.44811 0 1.51978)
(1.52492 -0.00121492 0 1.41545 0 1.52407)
(1.52866 -0.00083633 0 1.38256 0 1.52691)
(1.53111 -0.000720346 0 1.35073 0 1.52837)
(1.5324 -0.000835907 0 1.32056 0 1.52865)
(1.53272 -0.00110379 0 1.2923 0 1.52796)
(1.53225 -0.00143919 0 1.266 0 1.52651)
(1.53118 -0.0017682 0 1.2416 0 1.52447)
(1.52966 -0.00202582 0 1.21904 0 1.52201)
(1.52784 -0.00214793 0 1.19821 0 1.51924)
(1.52585 -0.00207559 0 1.17899 0 1.51628)
(1.52381 -0.00175734 0 1.16127 0 1.51323)
(1.52187 -0.0011576 0 1.14493 0 1.51019)
(1.52015 -0.000279557 0 1.12989 0 1.50727)
(1.51875 0.000843864 0 1.11613 0 1.50454)
(1.51744 0.00207011 0 1.10387 0 1.502)
(1.50948 -0.00198783 0 1.49955 0 1.50961)
(1.51378 -0.00230103 0 1.47992 0 1.51411)
(1.51852 -0.00133055 0 1.45501 0 1.51876)
(1.52292 -0.000259265 0 1.4274 0 1.52281)
(1.52646 0.000654929 0 1.39919 0 1.52583)
(1.52906 0.00135989 0 1.3715 0 1.5278)
(1.53076 0.00186613 0 1.3449 0 1.52882)
(1.53167 0.00223595 0 1.31971 0 1.52902)
(1.53192 0.00254325 0 1.29602 0 1.52854)
(1.53166 0.00285652 0 1.27388 0 1.52753)
(1.53101 0.00323846 0 1.25324 0 1.52611)
(1.53009 0.0037481 0 1.23407 0 1.52438)
(1.52903 0.00443846 0 1.21631 0 1.52245)
(1.52795 0.00535061 0 1.19988 0 1.5204)
(1.52695 0.00650929 0 1.18474 0 1.51833)
(1.52614 0.00790683 0 1.17088 0 1.51631)
(1.52552 0.00950552 0 1.15841 0 1.5144)
(1.52495 0.0112827 0 1.1477 0 1.51261)
(1.50945 -0.00155911 0 1.49968 0 1.50959)
(1.51329 -0.00186191 0 1.48195 0 1.51368)
(1.51732 -0.000882268 0 1.46059 0 1.51779)
(1.52115 0.000393741 0 1.43702 0 1.5215)
(1.5244 0.00165087 0 1.41272 0 1.52448)
(1.52696 0.00278293 0 1.38862 0 1.52667)
(1.52884 0.00377442 0 1.36524 0 1.5281)
(1.53009 0.00466619 0 1.34289 0 1.52885)
(1.53082 0.00551768 0 1.32173 0 1.52903)
(1.53112 0.00638946 0 1.3018 0 1.52873)
(1.53111 0.0073395 0 1.28313 0 1.52806)
(1.5309 0.00842177 0 1.26571 0 1.52711)
(1.53059 0.00968379 0 1.24952 0 1.52596)
(1.53029 0.0111611 0 1.23454 0 1.5247)
(1.5301 0.0128757 0 1.22079 0 1.5234)
(1.53011 0.0148271 0 1.20832 0 1.52212)
(1.53031 0.0170117 0 1.19732 0 1.52092)
(1.53052 0.0194126 0 1.18824 0 1.5198)
(1.50942 -0.00127928 0 1.49979 0 1.50956)
(1.51297 -0.0015543 0 1.4833 0 1.5134)
(1.51653 -0.000608913 0 1.46432 0 1.51713)
(1.51992 0.00073641 0 1.44357 0 1.52054)
(1.5229 0.00215742 0 1.42211 0 1.52342)
(1.52537 0.00352058 0 1.40064 0 1.52568)
(1.52731 0.0047931 0 1.37964 0 1.52733)
(1.52877 0.00599964 0 1.35941 0 1.52843)
(1.52982 0.00718766 0 1.3401 0 1.52903)
(1.53053 0.00841031 0 1.32182 0 1.52923)
(1.53099 0.00972045 0 1.3046 0 1.52909)
(1.53132 0.0111676 0 1.28847 0 1.52871)
(1.53159 0.0127953 0 1.27346 0 1.52814)
(1.53192 0.0146367 0 1.25959 0 1.52746)
(1.53239 0.0167143 0 1.2469 0 1.52674)
(1.53305 0.0190387 0 1.23554 0 1.52603)
(1.53389 0.0216154 0 1.22574 0 1.52535)
(1.53482 0.0245035 0 1.21795 0 1.52474)
(1.50936 -0.000993153 0 1.49997 0 1.5095)
(1.51266 -0.00120571 0 1.48455 0 1.51311)
(1.51583 -0.000311947 0 1.46749 0 1.51651)
(1.51884 0.00104152 0 1.44907 0 1.51965)
(1.52155 0.00255073 0 1.42998 0 1.52237)
(1.52388 0.00406914 0 1.41078 0 1.52462)
(1.52583 0.00554942 0 1.39188 0 1.52638)
(1.5274 0.00700024 0 1.37355 0 1.52769)
(1.52865 0.00845619 0 1.35595 0 1.52859)
(1.52965 0.00996157 0 1.3392 0 1.52914)
(1.53048 0.0115633 0 1.32336 0 1.5294)
(1.53123 0.0133067 0 1.30849 0 1.52944)
(1.53198 0.0152334 0 1.29464 0 1.52933)
(1.53283 0.017378 0 1.28187 0 1.52912)
(1.53386 0.01977 0 1.27027 0 1.52887)
(1.53511 0.022436 0 1.26001 0 1.52863)
(1.5366 0.0254151 0 1.25137 0 1.52842)
(1.53823 0.0287685 0 1.2448 0 1.52825)
(1.50928 -0.000752325 0 1.50019 0 1.50942)
(1.51237 -0.000888793 0 1.4857 0 1.51283)
(1.51521 -6.0151e-05 0 1.47026 0 1.51596)
(1.51789 0.0012477 0 1.45387 0 1.51883)
(1.52034 0.00276963 0 1.43691 0 1.52139)
(1.52252 0.00436291 0 1.41979 0 1.52359)
(1.52443 0.0059742 0 1.40282 0 1.52541)
(1.52608 0.00760186 0 1.38624 0 1.52687)
(1.52751 0.00927075 0 1.37023 0 1.52801)
(1.52877 0.0110176 0 1.3549 0 1.52886)
(1.52993 0.0128838 0 1.34035 0 1.52947)
(1.53108 0.0149106 0 1.32665 0 1.5299)
(1.53229 0.0171378 0 1.31389 0 1.5302)
(1.53366 0.0196012 0 1.30216 0 1.53043)
(1.53525 0.0223351 0 1.29161 0 1.53062)
(1.53712 0.0253765 0 1.28241 0 1.53083)
(1.53931 0.0287802 0 1.27486 0 1.53107)
(1.54184 0.0327205 0 1.26932 0 1.53138)
(1.50918 -0.000468093 0 1.50048 0 1.50932)
(1.51205 -0.000450927 0 1.48689 0 1.51252)
(1.5146 0.000336265 0 1.47288 0 1.51538)
(1.51697 0.00157246 0 1.45826 0 1.51801)
(1.51917 0.00305428 0 1.4432 0 1.52038)
(1.5212 0.00465972 0 1.42796 0 1.52249)
(1.52305 0.00633686 0 1.41276 0 1.52431)
(1.52474 0.00807761 0 1.39783 0 1.52587)
(1.5263 0.00989894 0 1.38331 0 1.52718)
(1.52778 0.0118311 0 1.36934 0 1.52826)
(1.52925 0.0139111 0 1.35602 0 1.52917)
(1.53078 0.0161788 0 1.34346 0 1.52993)
(1.53244 0.0186757 0 1.33176 0 1.53061)
(1.53433 0.0214441 0 1.32106 0 1.53123)
(1.53652 0.0245268 0 1.31152 0 1.53184)
(1.53906 0.0279677 0 1.30336 0 1.53248)
(1.54199 0.0317967 0 1.29688 0 1.53316)
(1.54526 0.0360026 0 1.29249 0 1.53391)
(1.50904 -0.000255896 0 1.5008 0 1.50918)
(1.51173 -9.79475e-05 0 1.48797 0 1.51221)
(1.51407 0.000642538 0 1.47506 0 1.51487)
(1.51622 0.00177182 0 1.46181 0 1.5173)
(1.51822 0.00314879 0 1.44826 0 1.51952)
(1.52012 0.00468117 0 1.43454 0 1.52153)
(1.5219 0.00632555 0 1.42082 0 1.52334)
(1.52361 0.00807233 0 1.40726 0 1.52494)
(1.52527 0.00993323 0 1.39401 0 1.52636)
(1.52692 0.011933 0 1.38121 0 1.52762)
(1.52864 0.0141044 0 1.36896 0 1.52875)
(1.53049 0.0164856 0 1.35739 0 1.52978)
(1.53256 0.0191191 0 1.34663 0 1.53075)
(1.53493 0.0220513 0 1.33682 0 1.53171)
(1.53769 0.0253324 0 1.32815 0 1.53269)
(1.54093 0.0290175 0 1.32084 0 1.53373)
(1.54472 0.0331663 0 1.31517 0 1.53487)
(1.54855 0.0372524 0 1.31182 0 1.53597)
(1.50891 1.65087e-05 0 1.50113 0 1.50905)
(1.51143 0.000417007 0 1.48894 0 1.5119)
(1.51361 0.00118949 0 1.47684 0 1.51441)
(1.5156 0.00224836 0 1.46459 0 1.51669)
(1.51747 0.00352282 0 1.45213 0 1.51879)
(1.51926 0.00496362 0 1.43953 0 1.52073)
(1.52101 0.00654813 0 1.42689 0 1.52251)
(1.52274 0.0082746 0 1.41435 0 1.52414)
(1.52448 0.0101562 0 1.40204 0 1.52564)
(1.52629 0.0122169 0 1.39008 0 1.52703)
(1.52823 0.0144887 0 1.37861 0 1.52833)
(1.53037 0.0170108 0 1.36775 0 1.52957)
(1.53281 0.0198282 0 1.35764 0 1.53079)
(1.53563 0.0229932 0 1.34845 0 1.53204)
(1.53896 0.0265696 0 1.34036 0 1.53335)
(1.54294 0.0306529 0 1.33354 0 1.53478)
(1.54698 0.034618 0 1.32893 0 1.53614)
(1.55195 0.0392495 0 1.32569 0 1.53774)
(1.50881 0.000176266 0 1.50138 0 1.50895)
(1.51124 0.000742852 0 1.48955 0 1.51169)
(1.51336 0.00149476 0 1.47785 0 1.51413)
(1.51529 0.00241393 0 1.46607 0 1.51635)
(1.51712 0.00348793 0 1.45414 0 1.51841)
(1.5189 0.00470936 0 1.44208 0 1.52032)
(1.52066 0.00607913 0 1.42997 0 1.52211)
(1.52242 0.0076061 0 1.41793 0 1.52377)
(1.52425 0.00930644 0 1.40608 0 1.52533)
(1.52618 0.0112036 0 1.39452 0 1.5268)
(1.52828 0.0133287 0 1.3834 0 1.52821)
(1.53065 0.0157207 0 1.37283 0 1.5296)
(1.53336 0.0184268 0 1.36296 0 1.531)
(1.53654 0.0214996 0 1.35393 0 1.53246)
(1.54029 0.0249954 0 1.34596 0 1.53402)
(1.54477 0.0289916 0 1.33922 0 1.53573)
(1.54934 0.0329085 0 1.3346 0 1.53738)
(1.55523 0.0377914 0 1.33108 0 1.53941)
(1.50884 0.000511923 0 1.50128 0 1.50898)
(1.51133 0.00143396 0 1.48927 0 1.51178)
(1.51351 0.0023039 0 1.47734 0 1.51427)
(1.51551 0.00319378 0 1.46529 0 1.51655)
(1.51741 0.00416435 0 1.45307 0 1.51866)
(1.51925 0.00526009 0 1.44069 0 1.52062)
(1.52106 0.00651283 0 1.42826 0 1.52245)
(1.52288 0.00794645 0 1.41587 0 1.52415)
(1.52474 0.00958161 0 1.40365 0 1.52574)
(1.5267 0.0114399 0 1.39171 0 1.52724)
(1.52883 0.013547 0 1.38018 0 1.52869)
(1.53121 0.0159345 0 1.36916 0 1.5301)
(1.53394 0.0186418 0 1.35878 0 1.53154)
(1.53716 0.021718 0 1.34918 0 1.53304)
(1.54101 0.0252255 0 1.34049 0 1.53468)
(1.54569 0.0292559 0 1.33283 0 1.53653)
(1.55055 0.0331928 0 1.32728 0 1.53836)
(1.55676 0.0379142 0 1.32268 0 1.54061)
(1.50909 0.000674552 0 1.50077 0 1.5092)
(1.51192 0.00169766 0 1.48781 0 1.5123)
(1.51441 0.00244523 0 1.47477 0 1.51505)
(1.51673 0.0030828 0 1.46139 0 1.51758)
(1.51893 0.00373525 0 1.4477 0 1.51992)
(1.52104 0.0044857 0 1.43379 0 1.52208)
(1.52308 0.00538519 0 1.41982 0 1.52405)
(1.52507 0.0064628 0 1.40593 0 1.52584)
(1.52704 0.00773611 0 1.39226 0 1.52748)
(1.52904 0.00921886 0 1.37891 0 1.52897)
(1.53113 0.0109262 0 1.366 0 1.53037)
(1.5334 0.0128782 0 1.35363 0 1.53169)
(1.53593 0.0151024 0 1.34189 0 1.533)
(1.53885 0.0176371 0 1.33089 0 1.53433)
(1.5423 0.0205361 0 1.32075 0 1.53575)
(1.54644 0.0238765 0 1.31159 0 1.53734)
(1.55148 0.0277695 0 1.30353 0 1.53917)
(1.55673 0.0316883 0 1.29765 0 1.54102)
(1.50926 0.00101969 0 1.50029 0 1.50938)
(1.51241 0.00228149 0 1.48613 0 1.51278)
(1.51529 0.00300094 0 1.47139 0 1.51587)
(1.51802 0.00351291 0 1.45596 0 1.51874)
(1.52058 0.00402485 0 1.44002 0 1.52135)
(1.52297 0.00465254 0 1.42383 0 1.52369)
(1.52519 0.00545526 0 1.40761 0 1.52576)
(1.52725 0.0064568 0 1.39157 0 1.52757)
(1.52919 0.00766352 0 1.37585 0 1.52912)
(1.53106 0.00907662 0 1.36057 0 1.53047)
(1.5329 0.0106993 0 1.34583 0 1.53164)
(1.53481 0.0125408 0 1.3317 0 1.53268)
(1.53686 0.0146192 0 1.31826 0 1.53363)
(1.53917 0.0169646 0 1.30558 0 1.53456)
(1.54186 0.0196215 0 1.29373 0 1.53552)
(1.5451 0.0226549 0 1.2828 0 1.5366)
(1.54911 0.0261508 0 1.27284 0 1.5379)
(1.55423 0.0302124 0 1.2639 0 1.53955)
(1.50946 0.00126362 0 1.49987 0 1.50955)
(1.51299 0.00258712 0 1.48432 0 1.51328)
(1.51637 0.003164 0 1.4673 0 1.51678)
(1.51964 0.00351079 0 1.44901 0 1.52004)
(1.52266 0.00388049 0 1.43001 0 1.52294)
(1.52538 0.00439218 0 1.41081 0 1.52542)
(1.52777 0.0051007 0 1.39175 0 1.52748)
(1.52986 0.00602057 0 1.37309 0 1.52914)
(1.53168 0.00714641 0 1.35498 0 1.53044)
(1.5333 0.008468 0 1.33752 0 1.53143)
(1.53478 0.00997676 0 1.32077 0 1.53216)
(1.53621 0.0116686 0 1.30476 0 1.5327)
(1.53768 0.0135449 0 1.28954 0 1.53311)
(1.53928 0.0156141 0 1.27514 0 1.53344)
(1.54113 0.0178927 0 1.26158 0 1.53376)
(1.54335 0.020408 0 1.24892 0 1.53413)
(1.5461 0.0232079 0 1.23723 0 1.53464)
(1.54947 0.0263881 0 1.22664 0 1.53531)
(1.50959 0.00181007 0 1.49947 0 1.50968)
(1.51365 0.00329686 0 1.48176 0 1.51388)
(1.51784 0.00382996 0 1.46099 0 1.51802)
(1.52188 0.00422709 0 1.43818 0 1.52181)
(1.52547 0.00476182 0 1.41456 0 1.525)
(1.52849 0.00551187 0 1.3909 0 1.52752)
(1.53096 0.00649793 0 1.36768 0 1.52939)
(1.5329 0.00770453 0 1.34518 0 1.53067)
(1.5344 0.00910092 0 1.32358 0 1.53145)
(1.53555 0.0106591 0 1.30294 0 1.5318)
(1.53642 0.0123588 0 1.28329 0 1.53181)
(1.53711 0.014187 0 1.26465 0 1.53154)
(1.5377 0.0161386 0 1.24702 0 1.53108)
(1.53828 0.0182186 0 1.23038 0 1.53048)
(1.53893 0.0204441 0 1.21476 0 1.52981)
(1.53976 0.0228535 0 1.20013 0 1.52912)
(1.54092 0.0255092 0 1.18652 0 1.52848)
(1.54272 0.0284937 0 1.1739 0 1.52809)
(1.50962 0.00215986 0 1.49943 0 1.50968)
(1.51429 0.00370866 0 1.47918 0 1.51434)
(1.51952 0.00434898 0 1.45323 0 1.51919)
(1.52445 0.00504234 0 1.42445 0 1.5234)
(1.52852 0.0059623 0 1.39509 0 1.52656)
(1.5316 0.00711352 0 1.36628 0 1.52863)
(1.53377 0.00850116 0 1.33856 0 1.52974)
(1.53516 0.0101031 0 1.31219 0 1.53004)
(1.53589 0.0118781 0 1.28723 0 1.52968)
(1.53612 0.01379 0 1.26369 0 1.5288)
(1.53598 0.0158133 0 1.24151 0 1.52752)
(1.53557 0.0179299 0 1.22063 0 1.52595)
(1.53501 0.0201281 0 1.201 0 1.52418)
(1.53439 0.0224026 0 1.18255 0 1.52228)
(1.53382 0.0247511 0 1.16521 0 1.52033)
(1.5334 0.0271674 0 1.14894 0 1.51839)
(1.53327 0.029639 0 1.13367 0 1.51656)
(1.53341 0.032172 0 1.11944 0 1.51482)
(1.50977 0.00304378 0 1.49896 0 1.50981)
(1.51573 0.00486574 0 1.47368 0 1.5155)
(1.52268 0.00617426 0 1.43859 0 1.52139)
(1.52875 0.0079805 0 1.40004 0 1.52587)
(1.53316 0.0101468 0 1.36159 0 1.52852)
(1.53595 0.0124953 0 1.32464 0 1.52951)
(1.53737 0.0149828 0 1.28975 0 1.52917)
(1.53768 0.0175757 0 1.2571 0 1.52775)
(1.53711 0.0202231 0 1.2267 0 1.52554)
(1.5359 0.0228906 0 1.19845 0 1.52273)
(1.53422 0.0255613 0 1.17221 0 1.5195)
(1.53222 0.0282239 0 1.14783 0 1.51599)
(1.53003 0.0308701 0 1.12515 0 1.5123)
(1.52773 0.0334954 0 1.10406 0 1.50852)
(1.5254 0.0360959 0 1.08444 0 1.5047)
(1.52308 0.0386797 0 1.0662 0 1.50089)
(1.52075 0.041277 0 1.04928 0 1.49709)
(1.51874 0.0440121 0 1.03361 0 1.49349)
(1.50957 0.00337989 0 1.49938 0 1.50955)
(1.51705 0.0063967 0 1.46768 0 1.51614)
(1.52609 0.0097134 0 1.4194 0 1.52258)
(1.53287 0.0136056 0 1.36861 0 1.52599)
(1.53662 0.017612 0 1.32031 0 1.52635)
(1.53782 0.0215383 0 1.27564 0 1.52437)
(1.53712 0.025436 0 1.23468 0 1.52071)
(1.53504 0.0293381 0 1.19721 0 1.51589)
(1.53199 0.0331955 0 1.16295 0 1.51031)
(1.52831 0.036974 0 1.1316 0 1.50426)
(1.52423 0.0406616 0 1.10283 0 1.49796)
(1.51993 0.0442519 0 1.07638 0 1.49156)
(1.51554 0.047742 0 1.052 0 1.48515)
(1.51116 0.0511372 0 1.02949 0 1.47883)
(1.50689 0.0544455 0 1.00867 0 1.47266)
(1.50281 0.0576804 0 0.989375 0 1.46669)
(1.49917 0.0608382 0 0.971417 0 1.46105)
(1.49589 0.0637713 0 0.954784 0 1.45575)
(1.51073 0.00499824 0 1.49652 0 1.51054)
(1.52214 0.0114405 0 1.44798 0 1.51936)
(1.53435 0.0201323 0 1.37278 0 1.52531)
(1.54125 0.0288924 0 1.29804 0 1.52525)
(1.54285 0.0366989 0 1.23046 0 1.52049)
(1.54058 0.0434488 0 1.1706 0 1.51266)
(1.53579 0.0494827 0 1.11781 0 1.50296)
(1.52954 0.0550816 0 1.07123 0 1.49229)
(1.52242 0.0602854 0 1.03005 0 1.48123)
(1.51488 0.065142 0 0.993475 0 1.47011)
(1.5072 0.0697029 0 0.960815 0 1.45915)
(1.49959 0.074002 0 0.931506 0 1.44851)
(1.49215 0.0780599 0 0.905076 0 1.43824)
(1.485 0.081902 0 0.881146 0 1.42841)
(1.47811 0.0855331 0 0.859378 0 1.41901)
(1.47163 0.0889691 0 0.839534 0 1.41011)
(1.46508 0.0921569 0 0.821318 0 1.40143)
(1.45877 0.0951924 0 0.804917 0 1.39326)
(1.50986 0.0058035 0 1.49842 0 1.50915)
(1.52699 0.0255308 0 1.42423 0 1.51753)
(1.54215 0.0457403 0 1.31336 0 1.51592)
(1.54586 0.0607711 0 1.21715 0 1.50439)
(1.54132 0.0724487 0 1.13722 0 1.48754)
(1.53171 0.0819229 0 1.07019 0 1.46815)
(1.51971 0.0902151 0 1.01304 0 1.448)
(1.50716 0.0978586 0 0.963894 0 1.42839)
(1.49456 0.104838 0 0.921328 0 1.40965)
(1.48229 0.111219 0 0.884123 0 1.39195)
(1.47055 0.117083 0 0.851342 0 1.37532)
(1.45949 0.122498 0 0.822256 0 1.35981)
(1.44909 0.1275 0 0.796258 0 1.34529)
(1.43944 0.132147 0 0.77292 0 1.33181)
(1.43046 0.136482 0 0.751786 0 1.31918)
(1.42216 0.140513 0 0.732717 0 1.3075)
(1.41469 0.14444 0 0.715119 0 1.29651)
(1.4087 0.147833 0 0.699762 0 1.28707)
(1.5189 0.0284625 0 1.47293 0 1.51483)
(1.56341 0.11204 0 1.26337 0 1.51871)
(1.58327 0.161105 0 1.03766 0 1.48718)
(1.57574 0.182079 0 0.886946 0 1.44366)
(1.55697 0.192736 0 0.784229 0 1.39978)
(1.53331 0.199066 0 0.711253 0 1.35829)
(1.5107 0.204353 0 0.657033 0 1.32175)
(1.49127 0.209482 0 0.615582 0 1.29079)
(1.47399 0.214323 0 0.582618 0 1.26379)
(1.45863 0.218832 0 0.555682 0 1.23998)
(1.44486 0.222982 0 0.533244 0 1.21874)
(1.43281 0.226834 0 0.514267 0 1.19988)
(1.42197 0.23038 0 0.497955 0 1.18279)
(1.41268 0.233676 0 0.483848 0 1.16762)
(1.40417 0.236736 0 0.471464 0 1.15364)
(1.39715 0.239567 0 0.460587 0 1.14132)
(1.39033 0.242265 0 0.450925 0 1.12967)
(1.38371 0.244553 0 0.442082 0 1.11887)
(1.59274 0.291964 0 1.3958 0 1.52093)
(1.91623 0.578691 0 0.968057 0 1.53309)
(2.06903 0.585616 0 0.732286 0 1.48899)
(2.1035 0.552927 0 0.628128 0 1.43526)
(2.09247 0.525541 0 0.573851 0 1.38566)
(2.06453 0.505374 0 0.540653 0 1.34246)
(2.03058 0.489844 0 0.517562 0 1.30511)
(1.99556 0.477267 0 0.499943 0 1.27272)
(1.96182 0.466697 0 0.485614 0 1.24432)
(1.93016 0.457545 0 0.473507 0 1.21918)
(1.90079 0.449461 0 0.463037 0 1.19672)
(1.87361 0.442221 0 0.453831 0 1.1765)
(1.84859 0.435688 0 0.445649 0 1.15821)
(1.82538 0.429742 0 0.438303 0 1.14153)
(1.8041 0.424298 0 0.431665 0 1.12635)
(1.78411 0.41932 0 0.425645 0 1.11232)
(1.76599 0.414636 0 0.420088 0 1.09956)
(1.74845 0.410275 0 0.415106 0 1.08749)
(0.0305258 0.0153983 0 0.0870923 0 0.0729475)
(0.0421658 -0.0066738 0 0.0827537 0 0.0827455)
(0.0678226 -0.0199854 0 0.0786032 0 0.0935754)
(0.0859578 -0.0245937 0 0.0619375 0 0.0929575)
(0.0881177 -0.023317 0 0.0514197 0 0.0879154)
(0.0714814 -0.019101 0 0.0386042 0 0.071851)
(0.0503334 -0.0124479 0 0.0244911 0 0.051522)
(0.041321 -0.00321992 0 0.0164606 0 0.041276)
(0.0531084 0.00525492 0 0.0190396 0 0.0508241)
(0.0895584 0.0112296 0 0.0294226 0 0.07892)
(0.154707 0.0176787 0 0.0443635 0 0.12484)
(0.232673 0.0261208 0 0.0608235 0 0.179292)
(0.300219 0.0357113 0 0.0762681 0 0.227992)
(0.361023 0.0459563 0 0.0914529 0 0.273312)
(0.415898 0.0563389 0 0.10658 0 0.315625)
(0.465655 0.0665403 0 0.121804 0 0.355273)
(0.511131 0.0764514 0 0.13731 0 0.392688)
(0.552896 0.0860393 0 0.153261 0 0.428169)
(0.591278 0.0953011 0 0.169789 0 0.461873)
(0.626634 0.104275 0 0.187089 0 0.494032)
(0.659196 0.112987 0 0.205352 0 0.524798)
(0.689147 0.121453 0 0.224785 0 0.5543)
(0.716622 0.129666 0 0.245595 0 0.582628)
(0.741732 0.13758 0 0.267994 0 0.609852)
(0.76455 0.145102 0 0.292174 0 0.636004)
(0.785069 0.152119 0 0.318266 0 0.661024)
(0.803272 0.15851 0 0.34633 0 0.68482)
(0.819117 0.164187 0 0.376332 0 0.707262)
(0.832544 0.169069 0 0.408121 0 0.728185)
(0.843543 0.172962 0 0.441455 0 0.747461)
(0.852267 0.17561 0 0.47604 0 0.765073)
(0.858915 0.176975 0 0.511545 0 0.781053)
(0.863602 0.177069 0 0.54736 0 0.795319)
(0.866411 0.175782 0 0.58291 0 0.807821)
(0.867389 0.173155 0 0.617547 0 0.818487)
(0.866586 0.169191 0 0.650669 0 0.827281)
(0.864044 0.163901 0 0.681742 0 0.834183)
(0.859767 0.157246 0 0.710338 0 0.839175)
(0.853704 0.14899 0 0.736265 0 0.842249)
(0.846905 0.139749 0 0.755706 0 0.843107)
(0.840398 0.131009 0 0.769166 0 0.842816)
(0.832096 0.122171 0 0.780677 0 0.841396)
(0.818619 0.110223 0 0.79173 0 0.837063)
(0.807068 0.0988159 0 0.795725 0 0.831998)
(0.793996 0.086799 0 0.796219 0 0.825446)
(0.779281 0.0743859 0 0.792807 0 0.817229)
(0.761984 0.0609798 0 0.785454 0 0.806894)
(0.741497 0.0420225 0 0.772738 0 0.794402)
(0.723704 0.0204518 0 0.756275 0 0.782758)
(0.707887 0.000656051 0 0.738281 0 0.771508)
(0.69412 -0.0175912 0 0.71914 0 0.760801)
(0.682124 -0.0343353 0 0.69932 0 0.750579)
(0.671837 -0.0496252 0 0.679244 0 0.740884)
(0.663096 -0.0635337 0 0.659196 0 0.731686)
(0.655775 -0.0761464 0 0.639431 0 0.722967)
(0.649713 -0.0875487 0 0.620107 0 0.714672)
(0.64478 -0.097859 0 0.601382 0 0.706759)
(0.64087 -0.107245 0 0.583354 0 0.699162)
(0.638081 -0.116017 0 0.566032 0 0.691847)
(0.636057 -0.124683 0 0.54828 0 0.684287)
(0.637003 -0.136169 0 0.522095 0 0.676539)
(0.639983 -0.146647 0 0.499192 0 0.671299)
(0.643553 -0.154535 0 0.483035 0 0.668708)
(0.646984 -0.159497 0 0.470199 0 0.66693)
(0.650168 -0.1625 0 0.457602 0 0.664804)
(0.652948 -0.164272 0 0.445174 0 0.662256)
(0.655161 -0.165205 0 0.433413 0 0.659398)
(0.656837 -0.16554 0 0.422399 0 0.65631)
(0.658091 -0.165496 0 0.412101 0 0.653088)
(0.659042 -0.165235 0 0.402485 0 0.649821)
(0.659793 -0.164858 0 0.393496 0 0.646575)
(0.660422 -0.164418 0 0.385074 0 0.643395)
(0.660977 -0.163948 0 0.377162 0 0.640303)
(0.661491 -0.163464 0 0.369715 0 0.637313)
(0.661984 -0.162979 0 0.36269 0 0.63443)
(0.662468 -0.162498 0 0.356052 0 0.631655)
(0.662949 -0.162026 0 0.34977 0 0.628985)
(0.663433 -0.161564 0 0.343815 0 0.626418)
(0.663921 -0.161114 0 0.338161 0 0.623948)
(0.664414 -0.160676 0 0.332786 0 0.621571)
(0.664911 -0.160249 0 0.327664 0 0.619278)
(0.66541 -0.159833 0 0.322778 0 0.617064)
(0.665909 -0.159426 0 0.318108 0 0.614921)
(0.666407 -0.159029 0 0.313639 0 0.612845)
(0.6669 -0.158638 0 0.309354 0 0.610827)
(0.667387 -0.158255 0 0.305241 0 0.608865)
(0.667867 -0.157877 0 0.301287 0 0.606952)
(0.668336 -0.157504 0 0.297483 0 0.605084)
(0.668793 -0.157136 0 0.293819 0 0.603257)
(0.669237 -0.156772 0 0.290287 0 0.601467)
(0.669671 -0.15641 0 0.28688 0 0.599715)
(0.670095 -0.15605 0 0.283592 0 0.597998)
(0.670505 -0.155693 0 0.280418 0 0.596314)
(0.670898 -0.155339 0 0.277351 0 0.594659)
(0.671292 -0.154992 0 0.274388 0 0.593039)
(0.671678 -0.154649 0 0.271525 0 0.59145)
(0.672052 -0.15431 0 0.268758 0 0.589889)
(0.672412 -0.153975 0 0.266083 0 0.588356)
(0.672758 -0.153646 0 0.263498 0 0.586848)
(0.673091 -0.153323 0 0.261001 0 0.585366)
(0.673413 -0.153008 0 0.258589 0 0.583911)
(0.673724 -0.152701 0 0.25626 0 0.582483)
(0.674026 -0.152403 0 0.254013 0 0.581083)
(0.67432 -0.152116 0 0.251846 0 0.579711)
(0.674609 -0.151841 0 0.249758 0 0.57837)
(0.674895 -0.151579 0 0.247747 0 0.577059)
(0.675177 -0.151331 0 0.245811 0 0.575779)
(0.67546 -0.151097 0 0.243948 0 0.57453)
(0.675743 -0.150879 0 0.242157 0 0.573314)
(0.676028 -0.150678 0 0.240436 0 0.57213)
(0.676318 -0.150493 0 0.238783 0 0.57098)
(0.676614 -0.150326 0 0.237196 0 0.569863)
(0.676917 -0.150178 0 0.235674 0 0.568781)
(0.677231 -0.150049 0 0.234216 0 0.567735)
(0.677557 -0.149939 0 0.232822 0 0.566727)
(0.677898 -0.14985 0 0.23149 0 0.565757)
(0.678255 -0.149782 0 0.23022 0 0.564826)
(0.678629 -0.149736 0 0.229009 0 0.563934)
(0.679019 -0.14971 0 0.227854 0 0.563079)
(0.679427 -0.149705 0 0.226754 0 0.562259)
(0.679852 -0.14972 0 0.225706 0 0.561476)
(0.680297 -0.149756 0 0.224709 0 0.560727)
(0.68076 -0.149811 0 0.223759 0 0.560013)
(0.681244 -0.149887 0 0.222856 0 0.559332)
(0.681748 -0.149981 0 0.221996 0 0.558683)
(0.682273 -0.150095 0 0.221178 0 0.558066)
(0.68282 -0.150226 0 0.2204 0 0.557479)
(0.683389 -0.150375 0 0.21966 0 0.556922)
(0.68398 -0.150541 0 0.218954 0 0.556393)
(0.684593 -0.150723 0 0.218283 0 0.555891)
(0.685229 -0.15092 0 0.217642 0 0.555414)
(0.685887 -0.151132 0 0.21703 0 0.554961)
(0.686566 -0.151357 0 0.216445 0 0.554531)
(0.687269 -0.151592 0 0.215882 0 0.554117)
(0.68798 -0.151842 0 0.215349 0 0.553736)
(0.688762 -0.152097 0 0.214817 0 0.55334)
(0.689423 -0.152367 0 0.214368 0 0.553053)
(0.690519 -0.152674 0 0.21373 0 0.552559)
(0.691235 -0.152963 0 0.213532 0 0.55258)
(0.692233 -0.153258 0 0.212851 0 0.551986)
(0.692935 -0.153544 0 0.212649 0 0.551986)
(0.693932 -0.153839 0 0.211977 0 0.551373)
(0.694641 -0.154125 0 0.211781 0 0.551373)
(0.695657 -0.15442 0 0.211122 0 0.550756)
(0.696455 -0.154704 0 0.210896 0 0.550709)
(0.697133 -0.154968 0 0.210438 0 0.550307)
(0.698222 -0.155275 0 0.209852 0 0.549801)
(0.699176 -0.155565 0 0.209517 0 0.549598)
(0.699906 -0.155837 0 0.209294 0 0.549532)
(0.700966 -0.156111 0 0.208642 0 0.548885)
(0.70168 -0.156376 0 0.208447 0 0.54886)
(0.702744 -0.156631 0 0.2078 0 0.548187)
(0.703542 -0.156884 0 0.207576 0 0.54811)
(0.704342 -0.157118 0 0.207084 0 0.547639)
(0.70512 -0.157344 0 0.206664 0 0.547261)
(0.706201 -0.157592 0 0.20609 0 0.546705)
(0.706961 -0.157807 0 0.205837 0 0.546556)
(0.707756 -0.158005 0 0.205338 0 0.546049)
(0.708602 -0.158204 0 0.204881 0 0.545612)
(0.709438 -0.158395 0 0.204425 0 0.545171)
(0.710282 -0.158579 0 0.203974 0 0.54474)
(0.711102 -0.158752 0 0.203512 0 0.544285)
(0.711921 -0.158915 0 0.203048 0 0.54383)
(0.712714 -0.159065 0 0.202573 0 0.543349)
(0.713496 -0.159203 0 0.202091 0 0.54286)
(0.714249 -0.159326 0 0.201594 0 0.542344)
(0.714984 -0.159433 0 0.201086 0 0.541812)
(0.715673 -0.159519 0 0.200555 0 0.541241)
(0.716337 -0.159586 0 0.200004 0 0.540645)
(0.716921 -0.159619 0 0.199413 0 0.539982)
(0.717482 -0.159625 0 0.198792 0 0.539287)
(0.71788 -0.159576 0 0.198093 0 0.538463)