/*--------------------------------*- C++ -*----------------------------------*\
| =========                 |                                                 |
| \\      /  F ield         | OpenFOAM: The Open Source CFD Toolbox           |
|  \\    /   O peration     | Version:  v1906                                 |
|   \\  /    A nd           | Web:      www.OpenFOAM.com                      |
|    \\/     M anipulation  |                                                 |
\*---------------------------------------------------------------------------*/
FoamFile
{
    version     2.0;
    format      ascii;
    class       volVectorField;
    location    "300";
    object      U;
}
// * * * * * * * * * * * * * * * * * * * * * * * * * * * * * * * * * * * * * //

dimensions      [0 1 -1 0 0 0 0];


internalField   nonuniform List<vector> 
12225
(
(9.79728 -0.108756 0)
(9.50677 -0.356775 0)
(9.2646 -0.488311 0)
(9.06645 -0.540898 0)
(8.90391 -0.559588 0)
(8.7634 -0.56534 0)
(8.63808 -0.565887 0)
(8.52591 -0.563998 0)
(8.42562 -0.560786 0)
(8.33584 -0.556813 0)
(8.25575 -0.552232 0)
(8.18346 -0.547073 0)
(8.11899 -0.541851 0)
(8.06243 -0.53692 0)
(8.01561 -0.532659 0)
(7.9803 -0.530767 0)
(7.96391 -0.526963 0)
(7.96736 -0.549435 0)
(10.0492 0.150436 0)
(10.0911 0.259726 0)
(10.0683 0.319206 0)
(10.0255 0.36326 0)
(9.98267 0.392851 0)
(9.9399 0.411469 0)
(9.89714 0.423395 0)
(9.85571 0.431164 0)
(9.81624 0.435979 0)
(9.7785 0.438677 0)
(9.74275 0.439851 0)
(9.70903 0.439915 0)
(9.67753 0.438908 0)
(9.648 0.436976 0)
(9.62058 0.433557 0)
(9.59494 0.429191 0)
(9.57166 0.419401 0)
(9.55533 0.405104 0)
(10.0166 0.00775669 0)
(10.0499 -0.0106037 0)
(10.0415 -0.0529266 0)
(10.0183 -0.0931624 0)
(9.99696 -0.127652 0)
(9.97747 -0.156139 0)
(9.95888 -0.178615 0)
(9.94149 -0.196211 0)
(9.92533 -0.210282 0)
(9.91025 -0.221855 0)
(9.89608 -0.231484 0)
(9.88314 -0.239695 0)
(9.87132 -0.246966 0)
(9.86119 -0.254081 0)
(9.85225 -0.261544 0)
(9.8456 -0.271108 0)
(9.84026 -0.284126 0)
(9.82805 -0.312089 0)
(10.0096 0.0582848 0)
(10.039 0.0976003 0)
(10.0508 0.114953 0)
(10.0513 0.133984 0)
(10.0496 0.152816 0)
(10.0459 0.169193 0)
(10.0403 0.183122 0)
(10.034 0.194827 0)
(10.0275 0.204485 0)
(10.0211 0.21238 0)
(10.0149 0.218847 0)
(10.0093 0.22409 0)
(10.0043 0.228143 0)
(10.0004 0.23088 0)
(9.99747 0.232114 0)
(9.99574 0.23106 0)
(9.9946 0.22686 0)
(9.99349 0.217417 0)
(10.0094 0.019918 0)
(10.0407 0.0290773 0)
(10.0563 0.0218842 0)
(10.0608 0.0107442 0)
(10.0623 -0.00258114 0)
(10.0621 -0.017175 0)
(10.0608 -0.031381 0)
(10.0591 -0.0444521 0)
(10.0574 -0.056386 0)
(10.0558 -0.067327 0)
(10.0544 -0.0774255 0)
(10.0533 -0.0869036 0)
(10.0526 -0.0961032 0)
(10.0525 -0.105488 0)
(10.0528 -0.11562 0)
(10.0529 -0.127553 0)
(10.0531 -0.141695 0)
(10.0454 -0.161993 0)
(10.0058 0.0332703 0)
(10.0287 0.06194 0)
(10.0452 0.0729801 0)
(10.0551 0.0809839 0)
(10.063 0.0884484 0)
(10.0691 0.095391 0)
(10.0736 0.102133 0)
(10.0772 0.108611 0)
(10.0802 0.114578 0)
(10.0829 0.119903 0)
(10.0854 0.124552 0)
(10.088 0.128476 0)
(10.0907 0.131565 0)
(10.0936 0.133602 0)
(10.0967 0.134381 0)
(10.0997 0.13345 0)
(10.102 0.130573 0)
(10.1041 0.126525 0)
(10.0046 0.015985 0)
(10.0243 0.0296771 0)
(10.0402 0.0318569 0)
(10.0501 0.0298755 0)
(10.0576 0.0253812 0)
(10.0632 0.0189642 0)
(10.0675 0.0116317 0)
(10.071 0.00399017 0)
(10.0743 -0.0037418 0)
(10.0774 -0.0114723 0)
(10.0804 -0.0191763 0)
(10.0834 -0.0269261 0)
(10.0865 -0.0348914 0)
(10.0896 -0.0433451 0)
(10.0926 -0.0525432 0)
(10.0947 -0.0629942 0)
(10.0957 -0.0743812 0)
(10.0914 -0.0885075 0)
(10.0032 0.0202986 0)
(10.0185 0.0432361 0)
(10.0329 0.0540747 0)
(10.0438 0.060438 0)
(10.0534 0.0648757 0)
(10.0616 0.0682815 0)
(10.0688 0.0713583 0)
(10.0752 0.0743317 0)
(10.0812 0.077148 0)
(10.0868 0.0797176 0)
(10.0922 0.0819597 0)
(10.0975 0.0837726 0)
(10.1027 0.085033 0)
(10.1079 0.085578 0)
(10.1128 0.0852973 0)
(10.1173 0.0840657 0)
(10.1209 0.0819099 0)
(10.1248 0.0801891 0)
(10.0019 0.0115128 0)
(10.0136 0.0246605 0)
(10.0265 0.0298198 0)
(10.0368 0.0311178 0)
(10.0457 0.0299732 0)
(10.0532 0.0270567 0)
(10.0596 0.023069 0)
(10.0653 0.0184234 0)
(10.0706 0.0133118 0)
(10.0755 0.0078364 0)
(10.0803 0.00204247 0)
(10.0848 -0.0040918 0)
(10.0893 -0.0106356 0)
(10.0934 -0.0177121 0)
(10.0971 -0.0253867 0)
(10.0998 -0.0337921 0)
(10.1015 -0.0425657 0)
(10.0998 -0.0525428 0)
(10.0017 0.0126863 0)
(10.0117 0.0305339 0)
(10.0232 0.0406569 0)
(10.0332 0.0467378 0)
(10.0427 0.0505056 0)
(10.0513 0.0529095 0)
(10.0591 0.0546463 0)
(10.0663 0.0560443 0)
(10.0731 0.0572025 0)
(10.0795 0.0581319 0)
(10.0856 0.0588043 0)
(10.0915 0.0591623 0)
(10.0972 0.0591417 0)
(10.1026 0.0586721 0)
(10.1076 0.05775 0)
(10.1122 0.0564215 0)
(10.1163 0.0548276 0)
(10.1208 0.0541475 0)
(10.0007 0.00799375 0)
(10.0076 0.0189977 0)
(10.0173 0.0246002 0)
(10.0263 0.0270187 0)
(10.035 0.0272215 0)
(10.0428 0.0258447 0)
(10.05 0.0234246 0)
(10.0566 0.0202784 0)
(10.063 0.0165751 0)
(10.069 0.0124063 0)
(10.0749 0.00781585 0)
(10.0805 0.00280385 0)
(10.086 -0.00264558 0)
(10.0911 -0.00857028 0)
(10.0958 -0.0149509 0)
(10.0998 -0.0218187 0)
(10.1029 -0.0289117 0)
(10.1043 -0.0367421 0)
(10.0008 0.00812364 0)
(10.0075 0.0212638 0)
(10.0164 0.0296415 0)
(10.0252 0.0349775 0)
(10.0338 0.0381893 0)
(10.042 0.0400041 0)
(10.0495 0.0409594 0)
(10.0565 0.0413649 0)
(10.063 0.0413783 0)
(10.0691 0.0410753 0)
(10.0748 0.040486 0)
(10.0801 0.0396148 0)
(10.085 0.0384614 0)
(10.0895 0.037029 0)
(10.0937 0.0353735 0)
(10.0975 0.033636 0)
(10.101 0.0318924 0)
(10.1048 0.0311438 0)
(10.0002 0.00567477 0)
(10.0046 0.01435 0)
(10.012 0.0192978 0)
(10.0198 0.0218375 0)
(10.0278 0.0225094 0)
(10.0355 0.0218588 0)
(10.0428 0.0202825 0)
(10.0497 0.0180293 0)
(10.0563 0.0152428 0)
(10.0626 0.0119979 0)
(10.0686 0.00833169 0)
(10.0743 0.00425176 0)
(10.0796 -0.00023988 0)
(10.0845 -0.0051504 0)
(10.089 -0.0104601 0)
(10.0928 -0.0161874 0)
(10.0962 -0.0222052 0)
(10.0987 -0.0289263 0)
(10.0005 0.00530042 0)
(10.005 0.0148622 0)
(10.0119 0.0216429 0)
(10.0193 0.0263831 0)
(10.0268 0.0294414 0)
(10.0343 0.0313055 0)
(10.0414 0.0323448 0)
(10.0483 0.0328097 0)
(10.055 0.0328601 0)
(10.0614 0.032594 0)
(10.0676 0.0320742 0)
(10.0736 0.0313391 0)
(10.0794 0.0304286 0)
(10.085 0.0293844 0)
(10.0905 0.0282882 0)
(10.0958 0.0272409 0)
(10.1007 0.0262678 0)
(10.1057 0.0260899 0)
(10.0001 0.00330888 0)
(10.0028 0.00863259 0)
(10.0081 0.0117084 0)
(10.0144 0.0131634 0)
(10.0212 0.0132329 0)
(10.0281 0.0122465 0)
(10.0349 0.0104477 0)
(10.0414 0.00799948 0)
(10.0476 0.00500464 0)
(10.0534 0.00152266 0)
(10.0588 -0.00241563 0)
(10.0638 -0.00679456 0)
(10.0684 -0.0116141 0)
(10.0725 -0.0168789 0)
(10.0763 -0.0225965 0)
(10.0797 -0.0287343 0)
(10.0828 -0.0352456 0)
(10.0858 -0.0424609 0)
(10.0002 0.00291004 0)
(10.0031 0.00854188 0)
(10.0081 0.0130102 0)
(10.0139 0.016486 0)
(10.0202 0.0190426 0)
(10.0266 0.020885 0)
(10.033 0.0222007 0)
(10.0392 0.0231348 0)
(10.0452 0.023798 0)
(10.051 0.02427 0)
(10.0566 0.0246125 0)
(10.0619 0.0248667 0)
(10.0669 0.0250746 0)
(10.0717 0.0252576 0)
(10.0762 0.0254455 0)
(10.0804 0.0256777 0)
(10.0843 0.0258282 0)
(10.0877 0.0265208 0)
(10.0001 0.000876512 0)
(10.0022 0.00205841 0)
(10.0064 0.00217892 0)
(10.0116 0.00143135 0)
(10.0176 -0.000114878 0)
(10.0238 -0.00235197 0)
(10.0302 -0.00519047 0)
(10.0364 -0.00857144 0)
(10.0426 -0.0124549 0)
(10.0484 -0.0168183 0)
(10.054 -0.0216575 0)
(10.0593 -0.0269671 0)
(10.0643 -0.0327422 0)
(10.069 -0.0389747 0)
(10.0735 -0.0456532 0)
(10.0778 -0.0527472 0)
(10.0818 -0.0601812 0)
(10.086 -0.0682162 0)
(10 0.000822317 0)
(10.0016 0.00260643 0)
(10.005 0.00440076 0)
(10.0092 0.00619483 0)
(10.0139 0.0079599 0)
(10.0188 0.00971149 0)
(10.0237 0.0114755 0)
(10.0285 0.0132751 0)
(10.0329 0.0151287 0)
(10.037 0.0170508 0)
(10.0407 0.0190487 0)
(10.0441 0.0211232 0)
(10.047 0.0232645 0)
(10.0496 0.0254468 0)
(10.0517 0.0276391 0)
(10.0535 0.0298593 0)
(10.0549 0.0318695 0)
(10.0558 0.0341668 0)
(10.0003 -0.00205706 0)
(10.0031 -0.0063364 0)
(10.0079 -0.0106374 0)
(10.0138 -0.0149405 0)
(10.0203 -0.01931 0)
(10.0274 -0.0238237 0)
(10.0346 -0.0285644 0)
(10.0419 -0.0335992 0)
(10.0492 -0.0389826 0)
(10.0563 -0.0447474 0)
(10.0633 -0.0509198 0)
(10.0701 -0.0575127 0)
(10.0767 -0.0645276 0)
(10.0831 -0.071966 0)
(10.0891 -0.0798396 0)
(10.0948 -0.0880577 0)
(10.1 -0.0965473 0)
(10.1051 -0.10548 0)
(9.99984 -0.00223238 0)
(10.0009 -0.00577392 0)
(10.0037 -0.00797931 0)
(10.0074 -0.00913964 0)
(10.0113 -0.0094548 0)
(10.0152 -0.00908495 0)
(10.0188 -0.00817347 0)
(10.0219 -0.00683893 0)
(10.0245 -0.00516775 0)
(10.0266 -0.00323125 0)
(10.0282 -0.00107585 0)
(10.0292 0.00125935 0)
(10.0297 0.00375975 0)
(10.0297 0.00642301 0)
(10.0293 0.00925517 0)
(10.0284 0.0122675 0)
(10.0274 0.015535 0)
(10.0259 0.0193657 0)
(10.0006 -0.00481544 0)
(10.0049 -0.0140287 0)
(10.0114 -0.0215654 0)
(10.0185 -0.0277391 0)
(10.0259 -0.0329606 0)
(10.0335 -0.0375907 0)
(10.041 -0.0419352 0)
(10.0482 -0.0462096 0)
(10.0553 -0.0505365 0)
(10.0621 -0.0549855 0)
(10.0687 -0.0595863 0)
(10.075 -0.0643585 0)
(10.0811 -0.0693148 0)
(10.0871 -0.0744836 0)
(10.0928 -0.0799135 0)
(10.0987 -0.0856915 0)
(10.1041 -0.0919562 0)
(10.1099 -0.0989523 0)
(9.99993 -0.00483606 0)
(10.0024 -0.0122545 0)
(10.0075 -0.0165549 0)
(10.0128 -0.018655 0)
(10.0178 -0.0191021 0)
(10.0221 -0.0182521 0)
(10.0257 -0.0164526 0)
(10.0285 -0.0139914 0)
(10.0307 -0.0110864 0)
(10.0323 -0.00789973 0)
(10.0334 -0.00456416 0)
(10.0339 -0.00117201 0)
(10.0339 0.00220778 0)
(10.0333 0.00555293 0)
(10.0321 0.00887601 0)
(10.03 0.0122725 0)
(10.0274 0.0158932 0)
(10.0231 0.0203128 0)
(10.0012 -0.00965034 0)
(10.0087 -0.0256941 0)
(10.0183 -0.0366645 0)
(10.0274 -0.0446457 0)
(10.0362 -0.051046 0)
(10.0446 -0.056621 0)
(10.0525 -0.061882 0)
(10.0597 -0.0671023 0)
(10.0665 -0.0723586 0)
(10.0727 -0.0776412 0)
(10.0786 -0.0829145 0)
(10.084 -0.0881361 0)
(10.0892 -0.0932661 0)
(10.0942 -0.0982766 0)
(10.0991 -0.103176 0)
(10.1046 -0.108028 0)
(10.1102 -0.113046 0)
(10.1181 -0.118875 0)
(10.0009 -0.00815989 0)
(10.0083 -0.0184433 0)
(10.0177 -0.0223678 0)
(10.025 -0.0225966 0)
(10.0305 -0.0203315 0)
(10.0346 -0.0161451 0)
(10.0374 -0.0107298 0)
(10.0394 -0.00467646 0)
(10.0407 0.00163882 0)
(10.0416 0.00796401 0)
(10.0421 0.0141174 0)
(10.0421 0.0199681 0)
(10.0418 0.0254303 0)
(10.0411 0.0304387 0)
(10.0398 0.0349568 0)
(10.0374 0.0389948 0)
(10.034 0.0427071 0)
(10.0266 0.0468925 0)
(10.0027 -0.0200137 0)
(10.0162 -0.0450545 0)
(10.0299 -0.0587526 0)
(10.0408 -0.0687536 0)
(10.0502 -0.0778773 0)
(10.0585 -0.0866559 0)
(10.0655 -0.0953511 0)
(10.0714 -0.103995 0)
(10.0764 -0.112413 0)
(10.0806 -0.120439 0)
(10.0843 -0.127992 0)
(10.0874 -0.135031 0)
(10.0901 -0.141532 0)
(10.0925 -0.147471 0)
(10.0948 -0.15281 0)
(10.0976 -0.157509 0)
(10.1011 -0.161568 0)
(10.1093 -0.165538 0)
(10.0045 -0.0117719 0)
(10.0232 -0.0211172 0)
(10.0369 -0.018333 0)
(10.0427 -0.0102038 0)
(10.0451 0.00101013 0)
(10.0459 0.014168 0)
(10.0456 0.027743 0)
(10.0445 0.040731 0)
(10.0433 0.0527499 0)
(10.0419 0.0636883 0)
(10.0403 0.0735229 0)
(10.0385 0.082274 0)
(10.0366 0.0899962 0)
(10.0344 0.0967368 0)
(10.032 0.102503 0)
(10.0288 0.107259 0)
(10.0248 0.110928 0)
(10.0146 0.113998 0)
(10.0057 -0.0439296 0)
(10.0278 -0.081902 0)
(10.0433 -0.101432 0)
(10.0507 -0.120883 0)
(10.0552 -0.14083 0)
(10.0576 -0.159261 0)
(10.0579 -0.175749 0)
(10.0567 -0.190311 0)
(10.0546 -0.202921 0)
(10.052 -0.213699 0)
(10.0489 -0.222875 0)
(10.0456 -0.230679 0)
(10.042 -0.237289 0)
(10.0384 -0.242863 0)
(10.0346 -0.24749 0)
(10.0313 -0.251197 0)
(10.0281 -0.253809 0)
(10.0319 -0.255061 0)
(10.0127 -0.00411247 0)
(10.0433 0.00722117 0)
(10.0435 0.0412146 0)
(10.0287 0.0773038 0)
(10.0134 0.110447 0)
(9.99965 0.139126 0)
(9.98663 0.162653 0)
(9.97431 0.181463 0)
(9.96281 0.196501 0)
(9.95191 0.208598 0)
(9.94142 0.218334 0)
(9.93126 0.226139 0)
(9.92138 0.232341 0)
(9.91173 0.237193 0)
(9.90236 0.240856 0)
(9.89285 0.243431 0)
(9.88376 0.2448 0)
(9.86763 0.245191 0)
(10.0321 -0.126639 0)
(10.0676 -0.22564 0)
(10.0594 -0.280334 0)
(10.0339 -0.323004 0)
(10.008 -0.353642 0)
(9.98301 -0.374191 0)
(9.95818 -0.38818 0)
(9.93417 -0.397852 0)
(9.91145 -0.404402 0)
(9.88986 -0.408595 0)
(9.86918 -0.410992 0)
(9.84932 -0.412006 0)
(9.83022 -0.411931 0)
(9.81185 -0.410996 0)
(9.7941 -0.409357 0)
(9.77734 -0.407263 0)
(9.76116 -0.404658 0)
(9.75421 -0.401082 0)
(9.86115 0.0769074 0)
(9.6623 0.274061 0)
(9.48775 0.393092 0)
(9.3395 0.447635 0)
(9.2162 0.470203 0)
(9.10767 0.478832 0)
(9.0079 0.481014 0)
(8.91545 0.479928 0)
(8.82977 0.477083 0)
(8.75017 0.473198 0)
(8.67602 0.468612 0)
(8.60687 0.463505 0)
(8.54232 0.45798 0)
(8.48195 0.452117 0)
(8.42533 0.445907 0)
(8.37189 0.439516 0)
(8.32126 0.432025 0)
(8.26747 0.424174 0)
(-0.0778761 -0.45053 -3.74448e-20)
(0.300716 -0.502799 2.50572e-20)
(0.460151 -0.429232 0)
(0.503882 -0.332909 0)
(0.485344 -0.220119 0)
(0.418043 -0.0881671 -2.21761e-20)
(0.291667 0.0415637 0)
(0.0972292 0.125454 0)
(-0.139887 0.140768 0)
(-0.363168 0.146038 0)
(-0.585031 0.14737 1.52697e-20)
(-0.806717 0.147881 0)
(-1.03118 0.143256 0)
(-1.25284 0.130033 0)
(-1.46623 0.107749 0)
(-1.66851 0.0774909 1.07288e-20)
(-1.8574 0.040853 0)
(-2.03183 -0.000537046 0)
(-2.19141 -0.0452729 0)
(-2.33634 -0.0922373 0)
(-2.46701 -0.140525 0)
(-2.58394 -0.189396 0)
(-2.68754 -0.23815 0)
(-2.77803 -0.286106 1.11997e-20)
(-2.85533 -0.332501 -1.12648e-20)
(-2.91921 -0.376531 1.13091e-20)
(-2.96945 -0.41723 1.1328e-20)
(-3.00587 -0.453392 0)
(-3.02782 -0.483575 0)
(-3.03427 -0.506899 -1.11682e-20)
(-3.02563 -0.524297 -1.09809e-20)
(-3.0051 -0.539125 0)
(-2.97241 -0.552654 0)
(-2.92861 -0.565647 -1.00736e-20)
(-2.87426 -0.57845 0)
(-2.8099 -0.591131 0)
(-2.73603 -0.603571 8.52056e-21)
(-2.65324 -0.615646 0)
(-2.56229 -0.627206 7.06824e-21)
(-2.46379 -0.638001 1.24198e-20)
(-2.35838 -0.64801 0)
(-2.24765 -0.657061 0)
(-2.13269 -0.664943 0)
(-2.01398 -0.67177 0)
(-1.89291 -0.676834 0)
(-1.77007 -0.68013 -2.13668e-21)
(-1.64658 -0.682093 -5.40883e-21)
(-1.52318 -0.684702 -8.98681e-21)
(-1.40038 -0.688596 0)
(-1.27813 -0.692478 1.71719e-20)
(-1.1575 -0.696757 0)
(-1.03857 -0.70162 -2.70701e-20)
(-0.92173 -0.707362 -3.28349e-20)
(-0.807151 -0.714159 0)
(-0.694986 -0.722231 0)
(-0.585393 -0.731708 0)
(-0.478488 -0.742709 -6.42305e-20)
(-0.374461 -0.755128 0)
(-0.273578 -0.768514 0)
(-0.177951 -0.781736 0)
(-0.0877293 -0.794179 0)
(-0.00449469 -0.797759 0)
(0.0767855 -0.778052 0)
(0.16046 -0.750744 0)
(0.244843 -0.724322 0)
(0.327384 -0.699181 1.10919e-19)
(0.407327 -0.675112 0)
(0.48432 -0.652769 0)
(0.558139 -0.632289 -9.93119e-20)
(0.628788 -0.613593 -9.66017e-20)
(0.696426 -0.596538 0)
(0.761233 -0.580963 9.22774e-20)
(0.823414 -0.566704 -9.05316e-20)
(0.883161 -0.553613 0)
(0.940666 -0.541552 8.76434e-20)
(0.9961 -0.530407 0)
(1.04963 -0.520074 0)
(1.10139 -0.510468 -8.43933e-20)
(1.15154 -0.501512 0)
(1.20017 -0.493144 8.27291e-20)
(1.24741 -0.485304 0)
(1.29335 -0.477948 -8.13544e-20)
(1.33808 -0.471027 -8.07556e-20)
(1.38166 -0.464509 -8.02054e-20)
(1.42418 -0.458358 -1.59403e-19)
(1.46568 -0.452547 1.58474e-19)
(1.50623 -0.447047 0)
(1.54587 -0.44184 0)
(1.58465 -0.436902 0)
(1.62261 -0.432218 1.55436e-19)
(1.65979 -0.427775 1.54816e-19)
(1.69619 -0.42356 -1.54244e-19)
(1.73184 -0.419558 0)
(1.76677 -0.415757 1.53235e-19)
(1.80101 -0.412146 1.52793e-19)
(1.83456 -0.40872 1.52387e-19)
(1.86746 -0.405469 0)
(1.89972 -0.402385 0)
(1.93136 -0.399464 0)
(1.96239 -0.396697 1.511e-19)
(1.99284 -0.39408 0)
(2.02272 -0.391608 0)
(2.05205 -0.389275 -1.50438e-19)
(2.08086 -0.387076 0)
(2.10916 -0.385006 0)
(2.13697 -0.38306 -1.49986e-19)
(2.16432 -0.381234 0)
(2.19124 -0.379523 0)
(2.21773 -0.377924 1.49707e-19)
(2.24384 -0.37643 1.49646e-19)
(2.26957 -0.375038 0)
(2.29495 -0.373743 -1.49563e-19)
(2.32001 -0.37254 0)
(2.34478 -0.371425 1.49524e-19)
(2.36929 -0.370394 0)
(2.39356 -0.369442 1.49517e-19)
(2.41762 -0.368565 1.49522e-19)
(2.44151 -0.367761 0)
(2.46525 -0.367026 0)
(2.48888 -0.366356 0)
(2.51243 -0.365747 0)
(2.53592 -0.365197 0)
(2.55939 -0.364702 0)
(2.58286 -0.364259 0)
(2.60636 -0.363865 1.49569e-19)
(2.62992 -0.363518 -1.49555e-19)
(2.65356 -0.363216 0)
(2.6773 -0.362955 0)
(2.70118 -0.362736 0)
(2.72521 -0.362556 0)
(2.74941 -0.362415 -2.98656e-19)
(2.77381 -0.362312 0)
(2.79841 -0.362248 2.9829e-19)
(2.82324 -0.362219 -2.98062e-19)
(2.8483 -0.362231 0)
(2.87362 -0.362274 0)
(2.89917 -0.362366 0)
(2.92499 -0.362453 2.96794e-19)
(2.95108 -0.362653 2.96408e-19)
(2.97745 -0.36283 0)
(3.00406 -0.363097 2.95507e-19)
(3.03095 -0.363339 2.94986e-19)
(3.05808 -0.363675 -2.94464e-19)
(3.08545 -0.363991 0)
(3.11309 -0.364392 0)
(3.14093 -0.364816 -2.92611e-19)
(3.16897 -0.365264 0)
(3.1972 -0.365754 0)
(3.22558 -0.366334 0)
(3.25412 -0.36692 0)
(3.28278 -0.367616 2.88937e-19)
(3.31151 -0.368304 2.88097e-19)
(3.34033 -0.369093 0)
(3.36918 -0.369934 2.86393e-19)
(3.39801 -0.370827 0)
(3.42682 -0.37176 0)
(3.45557 -0.372776 2.83723e-19)
(3.4842 -0.373833 0)
(3.51269 -0.374951 2.81878e-19)
(3.541 -0.37612 0)
(3.5691 -0.377345 0)
(3.59694 -0.378617 2.79056e-19)
(3.62448 -0.379939 0)
(3.65166 -0.381303 2.7721e-19)
(3.67842 -0.382712 0)
(3.70471 -0.384163 0)
(3.73045 -0.385659 0)
(3.75554 -0.3872 -2.73762e-19)
(3.77989 -0.388795 0)
(3.80333 -0.390449 2.72299e-19)
(3.82572 -0.392181 0)
(3.84674 -0.393999 0)
(3.86617 -0.395947 0)
(3.88297 -0.397989 0)
(3.89722 -0.400252 0)
(3.90249 -0.4007 0)
(3.89479 -0.39673 0)
(3.85362 -0.385858 -5.56989e-19)
(3.79116 -0.356497 0)
(3.55812 -0.325526 0)
(-0.350025 -0.672123 8.01637e-20)
(0.229619 -0.397903 -7.19644e-20)
(0.0344708 -0.110716 0)
(0.0107854 0.132306 3.09106e-20)
(-0.139634 0.255184 0)
(-0.276076 0.39841 8.85292e-21)
(-0.447363 0.514675 -1.69782e-20)
(-0.623548 0.595083 -1.50209e-20)
(-0.816511 0.640865 0)
(-1.0139 0.667825 -1.28202e-20)
(-1.2096 0.678088 -5.14411e-21)
(-1.39218 0.674995 0)
(-1.55487 0.659962 0)
(-1.69379 0.635607 0)
(-1.80936 0.605578 0)
(-1.90411 0.573673 -6.06174e-21)
(-1.98171 0.543022 0)
(-2.04618 0.515793 1.47231e-20)
(-2.10128 0.493158 0)
(-2.15024 0.475402 0)
(-2.19556 0.462122 -1.59925e-20)
(-2.23906 0.452408 0)
(-2.28191 0.445062 1.6707e-20)
(-2.32477 0.438695 -7.84281e-21)
(-2.36783 0.431876 7.93677e-21)
(-2.41102 0.423142 -7.98369e-21)
(-2.45394 0.411186 -7.97916e-21)
(-2.49579 0.395017 0)
(-2.53578 0.374236 0)
(-2.57341 0.348893 7.64217e-21)
(-2.60689 0.319984 -9.23372e-21)
(-2.63262 0.289193 0)
(-2.64905 0.258231 0)
(-2.65431 0.228112 6.36711e-21)
(-2.64743 0.199344 0)
(-2.62817 0.172208 0)
(-2.59674 0.146957 -4.98947e-21)
(-2.55371 0.123742 0)
(-2.49991 0.102779 6.36552e-21)
(-2.43619 0.0842441 -6.69611e-21)
(-2.3636 0.0684659 0)
(-2.28351 0.055683 0)
(-2.19722 0.0456682 -1.10905e-20)
(-2.10568 0.0378047 -8.50491e-21)
(-2.01002 0.0313015 -5.84785e-21)
(-1.91093 0.0269191 4.06768e-21)
(-1.80933 0.0242011 2.31453e-21)
(-1.70632 0.0228095 6.18261e-21)
(-1.6024 0.0227973 -5.32363e-21)
(-1.49823 0.0239041 -6.54593e-21)
(-1.39411 0.0258418 0)
(-1.29047 0.0283978 9.46485e-21)
(-1.18764 0.0313194 -6.12695e-21)
(-1.08595 0.0344776 0)
(-0.985653 0.0376521 0)
(-0.886955 0.0407256 0)
(-0.789953 0.0434403 1.72331e-20)
(-0.694571 0.0455712 0)
(-0.600425 0.0468363 -3.63731e-20)
(-0.506771 0.0475864 0)
(-0.410969 0.0493586 -4.3419e-20)
(-0.313404 0.055273 0)
(-0.221051 0.0640699 5.01642e-20)
(-0.136392 0.073082 0)
(-0.0564079 0.0818108 -5.64006e-20)
(0.0207333 0.0902153 2.68376e-20)
(0.0951132 0.0980045 0)
(0.166908 0.105122 6.02814e-20)
(0.236613 0.111479 3.27188e-20)
(0.304391 0.117169 3.29982e-20)
(0.370387 0.122281 0)
(0.434681 0.126884 2.95228e-20)
(0.497345 0.131037 3.37395e-20)
(0.558442 0.134779 0)
(0.618039 0.138159 -3.41586e-20)
(0.676203 0.141206 6.51968e-20)
(0.733005 0.143965 0)
(0.788514 0.146459 3.46976e-20)
(0.842797 0.14873 0)
(0.895914 0.150793 -1.01926e-19)
(0.947924 0.152686 0)
(0.998882 0.154423 1.02949e-19)
(1.04884 0.156033 3.54264e-20)
(1.09784 0.157526 -3.27785e-20)
(1.14593 0.158927 -6.59489e-20)
(1.19315 0.160245 6.6326e-20)
(1.23952 0.161502 0)
(1.2851 0.162703 0)
(1.3299 0.16386 0)
(1.37396 0.164976 -2.12646e-19)
(1.4173 0.166053 -7.26731e-20)
(1.45992 0.167104 7.28728e-20)
(1.50185 0.168142 0)
(1.54311 0.169174 6.89312e-20)
(1.58371 0.170198 -7.34502e-20)
(1.62367 0.171215 -7.36368e-20)
(1.66302 0.172226 0)
(1.70176 0.173232 0)
(1.7399 0.174233 0)
(1.77747 0.175231 -7.43625e-20)
(1.81448 0.176223 0)
(1.85095 0.17721 1.4579e-19)
(1.88689 0.178189 2.21104e-19)
(1.92233 0.179161 -1.46631e-19)
(1.95727 0.180123 0)
(1.99174 0.181076 -7.20439e-20)
(2.02577 0.182017 0)
(2.05936 0.182944 -1.48267e-19)
(2.09253 0.183858 7.27402e-20)
(2.12532 0.184755 7.2967e-20)
(2.15774 0.185634 0)
(2.1898 0.186493 2.26288e-19)
(2.22155 0.187329 -1.50237e-19)
(2.25299 0.188137 -7.67731e-20)
(2.28416 0.188916 0)
(2.31508 0.189663 -7.71034e-20)
(2.34578 0.190377 -2.29008e-19)
(2.37629 0.191059 0)
(2.40663 0.191708 -1.52466e-19)
(2.43683 0.192325 -1.5282e-19)
(2.46692 0.192911 -1.53169e-19)
(2.49691 0.193469 0)
(2.52684 0.193998 0)
(2.55674 0.194502 0)
(2.58661 0.19498 7.59969e-20)
(2.61649 0.195435 7.86297e-20)
(2.6464 0.19587 0)
(2.67636 0.196287 1.55379e-19)
(2.70638 0.196689 1.55653e-19)
(2.73649 0.197081 0)
(2.7667 0.197466 1.58482e-19)
(2.79703 0.19785 3.12795e-19)
(2.82749 0.198237 -1.58883e-19)
(2.85809 0.198633 -1.54581e-19)
(2.88884 0.199042 0)
(2.91974 0.19947 0)
(2.9508 0.199931 0)
(2.98202 0.200377 -1.59607e-19)
(3.01341 0.200908 1.55475e-19)
(3.04495 0.201424 3.15387e-19)
(3.07664 0.202026 -1.59871e-19)
(3.10849 0.202621 1.55799e-19)
(3.14048 0.203312 1.59951e-19)
(3.1726 0.204007 0)
(3.20484 0.204789 0)
(3.23718 0.205626 -1.55973e-19)
(3.26959 0.206527 0)
(3.30207 0.207491 0)
(3.33459 0.208548 3.15632e-19)
(3.36712 0.209651 0)
(3.39963 0.210889 1.55768e-19)
(3.43211 0.212161 -1.5935e-19)
(3.46452 0.213549 0)
(3.49683 0.215028 1.55411e-19)
(3.529 0.216596 0)
(3.56101 0.218244 0)
(3.59281 0.219991 -1.58437e-19)
(3.62436 0.221816 3.12934e-19)
(3.65563 0.223723 -1.5797e-19)
(3.68657 0.225713 0)
(3.71712 0.227784 0)
(3.74724 0.229936 1.5387e-19)
(3.77688 0.232167 0)
(3.80598 0.234482 1.5339e-19)
(3.83446 0.236882 0)
(3.86227 0.239379 0)
(3.8893 0.241984 0)
(3.91546 0.244724 1.55498e-19)
(3.94062 0.247625 0)
(3.96461 0.250744 -1.55008e-19)
(3.98723 0.254133 0)
(4.00817 0.257925 0)
(4.02705 0.262258 3.06253e-19)
(4.04333 0.267444 -3.06362e-19)
(4.05603 0.274462 0)
(4.06633 0.283946 0)
(4.08057 0.294567 0)
(4.09168 0.307258 9.39105e-19)
(4.1237 0.330847 0)
(4.13002 0.352097 -6.54433e-19)
(-0.577311 -0.48653 -1.01702e-20)
(-0.086241 -0.181262 5.02414e-20)
(-0.435952 0.0258161 0)
(-0.474333 0.299209 -2.62446e-20)
(-0.657141 0.520766 0)
(-0.792394 0.721829 0)
(-0.948852 0.869373 -7.54416e-22)
(-1.0885 0.962774 8.17531e-21)
(-1.22382 1.0001 9.14547e-21)
(-1.34613 0.993288 7.61949e-21)
(-1.45392 0.951823 0)
(-1.54543 0.884895 0)
(-1.62341 0.801502 -9.46987e-21)
(-1.69261 0.710728 -1.93659e-20)
(-1.75852 0.620248 1.97964e-20)
(-1.82595 0.535525 0)
(-1.89825 0.459535 2.06261e-20)
(-1.97717 0.393094 -9.79288e-21)
(-2.06299 0.33548 0)
(-2.1549 0.285092 2.18024e-20)
(-2.25133 0.240008 1.04955e-20)
(-2.35028 0.198373 -2.25567e-20)
(-2.44956 0.15862 -1.08424e-20)
(-2.54692 0.119583 0)
(-2.64014 0.0805123 2.34646e-20)
(-2.72719 0.041043 2.3632e-20)
(-2.80618 0.00110833 0)
(-2.8753 -0.0392567 2.36338e-20)
(-2.93283 -0.0800203 0)
(-2.97746 -0.120941 2.31144e-20)
(-3.00829 -0.161261 1.04086e-20)
(-3.02447 -0.200376 0)
(-3.02634 -0.239574 0)
(-3.01474 -0.279678 0)
(-2.99046 -0.319501 0)
(-2.95412 -0.358014 0)
(-2.9064 -0.394368 0)
(-2.84802 -0.427883 1.52407e-20)
(-2.77987 -0.457978 -1.99404e-20)
(-2.70287 -0.484208 0)
(-2.61793 -0.506351 0)
(-2.52587 -0.524153 0)
(-2.42813 -0.537002 -1.34911e-21)
(-2.32575 -0.545784 4.81173e-21)
(-2.21958 -0.551374 7.772e-21)
(-2.11067 -0.553445 -4.63791e-21)
(-1.99979 -0.552554 -1.33427e-21)
(-1.8878 -0.549365 -1.33758e-21)
(-1.77545 -0.544256 1.08962e-21)
(-1.66332 -0.53744 -3.26456e-21)
(-1.55188 -0.529236 0)
(-1.44152 -0.519888 -6.21899e-21)
(-1.33256 -0.509619 1.03297e-21)
(-1.22529 -0.498569 0)
(-1.11998 -0.486861 0)
(-1.01687 -0.474548 1.18888e-20)
(-0.916234 -0.461714 0)
(-0.818358 -0.448438 0)
(-0.72363 -0.434883 -1.48652e-20)
(-0.632634 -0.421268 -3.44493e-20)
(-0.545318 -0.408039 1.95833e-20)
(-0.460555 -0.39631 0)
(-0.377675 -0.386539 -2.20132e-20)
(-0.297029 -0.377769 0)
(-0.219118 -0.369362 -2.21637e-20)
(-0.143671 -0.361108 -2.54737e-20)
(-0.0699794 -0.352966 5.1124e-20)
(0.00217928 -0.344872 2.55314e-20)
(0.0727775 -0.336922 0)
(0.141784 -0.329206 -5.59393e-20)
(0.209171 -0.321796 0)
(0.27495 -0.314733 -8.84652e-20)
(0.339167 -0.308037 -5.94771e-20)
(0.40188 -0.301716 -6.05565e-20)
(0.463155 -0.295761 6.1591e-20)
(0.523063 -0.290163 -9.4737e-20)
(0.581671 -0.2849 0)
(0.639047 -0.279953 0)
(0.695253 -0.275297 6.53361e-20)
(0.750346 -0.270915 1.00075e-19)
(0.804381 -0.266781 0)
(0.857411 -0.262881 -3.46659e-20)
(0.909482 -0.259193 0)
(0.960639 -0.255703 1.0471e-19)
(1.01092 -0.252392 1.44512e-21)
(1.06037 -0.24925 -1.419e-21)
(1.10902 -0.24626 -7.14196e-20)
(1.15689 -0.243414 0)
(1.20403 -0.240701 7.27255e-20)
(1.25045 -0.238114 1.32272e-21)
(1.29617 -0.235646 0)
(1.3412 -0.233288 0)
(1.38558 -0.231031 0)
(1.42931 -0.228868 -7.69485e-20)
(1.47243 -0.226797 0)
(1.51493 -0.224813 0)
(1.55685 -0.222915 0)
(1.59819 -0.2211 0)
(1.63897 -0.219369 0)
(1.67921 -0.21772 -7.8887e-20)
(1.71892 -0.216154 0)
(1.75813 -0.21467 -8.09675e-20)
(1.79685 -0.213268 -8.14312e-20)
(1.83509 -0.211943 8.18877e-20)
(1.87288 -0.210694 0)
(1.91024 -0.209519 8.27806e-20)
(1.94718 -0.208418 0)
(1.98372 -0.207389 8.36489e-20)
(2.01988 -0.206432 -8.40744e-20)
(2.05569 -0.205546 -2.51505e-19)
(2.09116 -0.20473 0)
(2.1263 -0.203981 -2.54023e-19)
(2.16114 -0.203299 -8.3813e-20)
(2.1957 -0.202684 0)
(2.23 -0.202133 -1.7116e-19)
(2.26407 -0.201645 -1.71955e-19)
(2.29794 -0.201219 2.60022e-19)
(2.33162 -0.200851 0)
(2.36513 -0.200541 8.80324e-20)
(2.39851 -0.200285 8.84e-20)
(2.43178 -0.200082 2.64537e-19)
(2.46495 -0.199929 0)
(2.49805 -0.199824 0)
(2.5311 -0.199765 0)
(2.56413 -0.19975 8.84685e-20)
(2.59715 -0.199778 0)
(2.63019 -0.199847 0)
(2.66327 -0.199956 -9.11161e-20)
(2.69641 -0.200103 -9.14215e-20)
(2.72962 -0.200287 0)
(2.76292 -0.200508 0)
(2.79633 -0.200764 -1.84565e-19)
(2.82986 -0.201055 0)
(2.86353 -0.201379 1.85614e-19)
(2.89735 -0.201737 1.84573e-19)
(2.93133 -0.202123 0)
(2.96548 -0.202538 0)
(2.9998 -0.202981 -1.85949e-19)
(3.0343 -0.203451 -1.47748e-21)
(3.06897 -0.203936 -1.46434e-21)
(3.10381 -0.204442 0)
(3.13883 -0.20496 -3.76367e-19)
(3.17403 -0.205496 0)
(3.20939 -0.206048 0)
(3.24491 -0.206619 0)
(3.28058 -0.207208 1.89942e-19)
(3.3164 -0.207816 0)
(3.35235 -0.208441 -3.7785e-19)
(3.38842 -0.209092 -1.90429e-19)
(3.42458 -0.209771 0)
(3.46082 -0.210472 -1.9061e-19)
(3.49711 -0.211194 0)
(3.53342 -0.211944 0)
(3.56972 -0.212715 -5.69416e-19)
(3.60598 -0.213499 3.78717e-19)
(3.64217 -0.214297 0)
(3.67826 -0.215104 3.7848e-19)
(3.71422 -0.215916 -1.90389e-19)
(3.75003 -0.216727 0)
(3.78567 -0.217534 0)
(3.8211 -0.218331 0)
(3.8563 -0.219112 -5.66739e-19)
(3.89125 -0.219873 0)
(3.92591 -0.220606 -1.89263e-19)
(3.96024 -0.221308 0)
(3.99422 -0.22197 0)
(4.02778 -0.222589 0)
(4.06085 -0.223154 0)
(4.09337 -0.223659 0)
(4.12521 -0.224075 0)
(4.15626 -0.224388 -3.72594e-19)
(4.18627 -0.224508 0)
(4.21515 -0.224435 -1.8715e-19)
(4.2423 -0.223744 5.59262e-19)
(4.26794 -0.222731 0)
(4.29014 -0.220221 0)
(4.30874 -0.212334 -3.7591e-19)
(4.31656 -0.193966 -3.81936e-19)
(4.32217 -0.154868 3.85786e-19)
(4.31425 -0.0825095 4.03287e-19)
(-0.683755 -0.0535649 -7.76643e-20)
(-0.204209 0.190676 -4.83425e-20)
(-0.571749 0.382907 -2.07503e-20)
(-0.667579 0.62025 -8.90371e-21)
(-0.853602 0.824743 0)
(-0.969487 0.99317 1.55205e-20)
(-1.08543 1.10562 -8.11424e-21)
(-1.16831 1.16259 0)
(-1.23663 1.16649 -6.77067e-21)
(-1.28911 1.13042 0)
(-1.33414 1.06745 1.5718e-20)
(-1.378 0.993431 0)
(-1.4282 0.920571 7.26649e-21)
(-1.48977 0.856993 1.48749e-20)
(-1.56548 0.806173 -1.51985e-20)
(-1.65532 0.768062 0)
(-1.75727 0.740344 -1.58002e-20)
(-1.8681 0.71983 0)
(-1.98411 0.703328 0)
(-2.10175 0.688079 -1.67157e-20)
(-2.21781 0.671876 0)
(-2.32967 0.653009 -1.53194e-21)
(-2.4352 0.630156 0)
(-2.53276 0.602291 0)
(-2.62103 0.568604 1.67126e-21)
(-2.69904 0.52849 -1.85143e-20)
(-2.76605 0.481569 -2.03774e-20)
(-2.82151 0.427741 -1.85998e-20)
(-2.86515 0.36717 0)
(-2.89691 0.30028 -3.80359e-20)
(-2.91677 0.227889 0)
(-2.92463 0.151725 -1.88344e-20)
(-2.92041 0.074897 0)
(-2.90383 0.000966465 0)
(-2.8749 -0.0694693 1.60795e-20)
(-2.83383 -0.135821 0)
(-2.78111 -0.19746 -1.39783e-20)
(-2.71744 -0.253793 1.46018e-21)
(-2.64371 -0.304298 2.19684e-20)
(-2.56099 -0.348545 -2.09365e-20)
(-2.47045 -0.386239 0)
(-2.37332 -0.417174 0)
(-2.27081 -0.441284 -7.81739e-21)
(-2.16407 -0.45949 0)
(-2.05421 -0.472494 -3.22853e-21)
(-1.94253 -0.480238 2.07406e-21)
(-1.82993 -0.483389 9.44846e-22)
(-1.71732 -0.482723 0)
(-1.60539 -0.478915 1.22721e-21)
(-1.49467 -0.47256 2.26995e-21)
(-1.38556 -0.46418 -5.13422e-21)
(-1.27836 -0.454208 4.27567e-21)
(-1.1733 -0.443002 5.2416e-21)
(-1.07058 -0.430843 0)
(-0.970332 -0.417953 0)
(-0.872644 -0.404492 -8.00278e-21)
(-0.77755 -0.390594 0)
(-0.685035 -0.376328 0)
(-0.595039 -0.361716 2.11252e-20)
(-0.507536 -0.346698 2.27403e-20)
(-0.422532 -0.331142 0)
(-0.340184 -0.315278 0)
(-0.260776 -0.299681 0)
(-0.184327 -0.284644 0)
(-0.110642 -0.270119 3.0243e-20)
(-0.0394698 -0.255916 -3.05384e-20)
(0.0294918 -0.242059 -3.28492e-20)
(0.0964163 -0.228647 -6.66429e-20)
(0.161441 -0.21573 0)
(0.224729 -0.203381 1.03649e-21)
(0.286442 -0.191651 0)
(0.346704 -0.180557 3.75211e-20)
(0.405626 -0.170097 9.89819e-22)
(0.463297 -0.160253 3.91561e-20)
(0.519801 -0.151 -3.99301e-20)
(0.575209 -0.142307 9.45113e-22)
(0.629588 -0.134135 0)
(0.682995 -0.126444 -4.11819e-20)
(0.735479 -0.119194 -4.2775e-20)
(0.787088 -0.112348 -8.59736e-20)
(0.837862 -0.10587 0)
(0.887842 -0.099729 4.38247e-20)
(0.937062 -0.0938931 0)
(0.985552 -0.0883352 -9.09085e-20)