/*--------------------------------*- C++ -*----------------------------------*\
| =========                 |                                                 |
| \\      /  F ield         | OpenFOAM: The Open Source CFD Toolbox           |
|  \\    /   O peration     | Version:  v1906                                 |
|   \\  /    A nd           | Web:      www.OpenFOAM.com                      |
|    \\/     M anipulation  |                                                 |
\*---------------------------------------------------------------------------*/
FoamFile
{
    version     2.0;
    format      ascii;
    class       volScalarField;
    location    "200";
    object      epsilon;
}
// * * * * * * * * * * * * * * * * * * * * * * * * * * * * * * * * * * * * * //

dimensions      [0 2 -3 0 0 0 0];


internalField   nonuniform List<scalar> 
12225
(
8534.03
8353.41
7993.04
7608.87
7252.41
6934.05
6658.74
6418.21
6213.23
6032.94
5881.61
5748.13
5650.43
5575.34
5519.27
5483.62
5450.54
5448.33
612.821
1496.2
1697.6
1688
1642.31
1562.51
1503.85
1456.38
1417.62
1383.03
1354.54
1327.46
1305.03
1283.79
1262.36
1244.69
1221.39
1209.71
136.091
458.762
618.446
686.446
716.883
719.775
716.5
708.756
698.553
687.513
677.129
666.502
656.614
646.838
637.226
628.189
616.922
609.496
58.4936
196.162
292.372
349.021
383.665
402.352
412.603
417.674
418.961
418.326
416.63
413.697
410.257
406.451
402.47
398.358
393.126
389.48
35.9827
104.798
162.961
203.251
231.268
250.055
262.755
271.341
276.894
280.367
282.449
283.419
283.408
283.031
282.159
280.788
278.694
277.464
26.8378
65.6419
102.248
130.476
151.773
167.551
179.265
188.009
194.491
199.276
202.807
205.364
207.095
208.256
208.96
209.117
208.892
208.933
22.3049
46.1409
70.1283
90.1042
106.098
118.704
128.626
136.465
142.661
147.564
151.454
154.538
156.949
158.827
160.273
161.301
161.951
162.725
19.7669
35.3166
51.6087
65.9778
78.0371
87.9781
96.1389
102.849
108.376
112.94
116.721
119.862
122.466
124.623
126.406
127.853
128.999
130.163
18.2269
28.8075
40.2044
50.7095
59.8725
67.6985
74.3372
79.966
84.7453
88.8133
92.2872
95.2635
97.818
100.014
101.906
103.534
104.943
106.323
17.2379
24.6553
32.8196
40.6149
47.6405
53.8221
59.2112
63.8983
67.9771
71.5339
74.6448
77.3749
79.7784
81.9014
83.7848
85.4649
86.9886
88.478
16.575
21.8871
27.8463
33.7061
39.1397
44.0462
48.4265
52.3209
55.7817
58.8615
61.6095
64.0697
66.2806
68.2767
70.0905
71.7551
73.3142
74.8557
16.1536
20.1377
24.6787
29.2478
33.5825
37.5804
41.2192
44.513
47.49
50.1829
52.6242
54.8445
56.8724
58.7347
60.4586
62.0737
63.6204
65.1727
15.8421
18.8506
22.3336
25.9148
29.3867
32.6539
35.6829
38.4715
41.0321
43.3835
45.5464
47.542
49.3916
51.1166
52.74
54.2885
55.8008
57.3431
15.5841
17.7927
20.3946
23.133
25.8508
28.4647
30.9369
33.2546
35.4191
37.4383
39.3242
41.0904
42.7524
44.327
45.8337
47.2975
48.7554
50.2672
15.3789
16.9591
18.8575
20.9071
22.9939
25.0494
27.0359
28.9354
30.7414
32.4547
34.0807
35.6274
37.1061
38.5301
39.9166
41.2897
42.6847
44.1557
15.2244
16.3385
17.7065
19.2249
20.8144
22.4208
24.0098
25.5609
27.0638
28.5144
29.9135
31.2657
32.579
33.8645
35.1384
36.4239
37.7549
39.1801
15.1196
15.9207
16.9272
18.0761
19.3125
20.5943
21.891
23.1825
24.4563
25.7058
26.9293
28.1293
29.3118
30.4872
31.671
32.8856
34.1633
35.5493
15.0669
15.7118
16.5352
17.4933
18.5439
19.6517
20.7894
21.9375
23.0828
24.2181
25.3408
26.4525
27.5587
28.6697
29.8014
30.9765
32.2277
33.6006
15.0828
15.7741
16.6496
17.6593
18.7576
19.9073
21.0806
22.2581
23.4273
24.5809
25.7173
26.8388
27.9517
29.067
30.2016
31.3798
32.6361
34.0183
15.2025
16.248
17.5317
18.9581
20.4538
21.9677
23.4671
24.9324
26.3531
27.725
29.0491
30.3305
31.5784
32.8063
34.0324
35.2829
36.5953
38.0222
15.4108
17.0813
19.0713
21.2013
23.353
25.4569
27.4765
29.3949
31.2076
32.9167
34.5291
36.0547
37.5057
38.899
40.2562
41.6028
42.9755
44.4263
15.7705
18.5392
21.7414
25.0417
28.2516
31.282
34.0995
36.6994
39.0912
41.2906
43.3162
45.1878
46.9256
48.5495
50.0851
51.5608
53.012
54.4807
16.39
21.0799
26.3469
31.5609
36.4325
40.8662
44.8549
48.4264
51.6211
54.4818
57.0496
59.3626
61.4556
63.3603
65.1078
66.7284
68.2586
69.7251
17.5019
25.6742
34.5598
42.9423
50.4192
56.9503
62.6153
67.5184
71.766
75.4552
78.67
81.4821
83.9529
86.1345
88.0747
89.8157
91.3988
92.8209
19.6504
34.59
50.1362
63.8859
75.4625
85.0848
93.0671
99.6805
105.175
109.757
113.593
116.815
119.533
121.831
123.789
125.467
126.948
128.184
24.3025
53.9203
82.45
105.45
123.37
137.302
148.159
156.562
163.102
168.218
172.219
175.344
177.787
179.666
181.14
182.263
183.205
183.834
36.4946
103.35
158.575
197.395
224.328
243.162
256.26
264.946
270.81
274.7
277.11
278.458
279.061
279.011
278.737
278.103
277.433
276.475
81.6149
262.593
372.24
433.425
466.933
485.22
493.437
494.337
493.226
490.522
486.522
482.066
477.519
472.811
468.396
463.812
460.029
455.835
390.171
975.571
1160.78
1206.49
1198.75
1175.54
1135.75
1097.03
1066.4
1041.19
1019.76
1001.21
985.127
970.852
958.509
947.242
937.84
928.816
6457.22
6260.27
5991.67
5734
5497.14
5284.33
5093.63
4923.31
4771.19
4634.86
4512.11
4400.96
4300.09
4207.77
4123.65
4045.64
3974.68
3907.55
43.2529
17.1345
14.465
11.5421
19.4875
43.0944
93.1311
146.722
201.866
257.308
312.184
366.045
418.554
469.432
518.507
565.643
610.79
653.755
694.335
732.316
767.46
799.561
828.617
854.981
878.513
899.175
916.82
931.32
942.068
948.201
951.098
950.025
941.96
930.174
918.383
905.775
893.04
880.119
867.187
854.31
841.721
829.49
817.704
806.407
795.632
785.377
775.665
766.486
757.856
749.8
742.554
735.877
728.93
720.015
715.923
713.366
710.59
707.28
703.44
699.203
694.731
690.154
685.573
681.058
676.659
672.403
668.309
664.382
660.623
657.028
653.592
650.305
647.162
644.151
641.268
638.49
635.849
633.334
630.919
628.583
626.319
624.118
621.977
619.895
617.871
615.905
614
612.155
610.371
608.644
606.97
605.348
603.778
602.263
600.804
599.404
598.065
596.789
595.577
594.427
593.341
592.32
591.364
590.474
589.649
588.889
588.19
587.55
586.966
586.435
585.953
585.516
585.12
584.762
584.437
584.144
583.878
583.637
583.42
583.224
583.048
582.892
582.757
582.641
582.546
582.476
582.435
582.42
582.434
582.474
582.542
582.635
582.752
582.889
583.043
583.206
583.372
583.53
583.665
583.76
583.805
583.796
583.741
583.649
583.53
583.398
583.257
583.114
582.996
582.89
582.758
582.602
582.343
582.038
581.674
581.313
580.944
580.588
580.216
579.853
579.482
579.133
578.774
578.375
577.945
577.489
577.042
576.55
576.077
575.462
574.672
573.5
572.043
569.842
567.188
562.849
557.565
547.8
535.412
483.981
178.471
105.57
111.811
119.804
142.924
168.636
193.291
211.97
226.698
240.008
250.57
259.871
268.334
276.214
283.845
291.699
299.062
305.514
311.318
316.739
322.036
327.57
333.938
339.713
344.58
348.472
351.357
353.136
353.855
353.906
352.828
350.82
347.989
344.964
342.064
339.179
336.21
333.223
330.269
327.375
324.563
321.836
319.203
316.672
314.244
311.924
309.722
307.652
305.738
304.007
302.467
301.023
299.34
296.929
294.15
291.334
288.685
286.2
283.857
281.616
279.442
277.31
275.209
273.134
271.082
269.056
267.055
265.083
263.139
261.224
259.339
257.484
255.657
253.858
252.085
250.339
248.62
246.928
245.258
243.61
241.981
240.371
238.78
237.207
235.653
234.12
232.608
231.118
229.65
228.205
226.785
225.39
224.02
222.677
221.36
220.071
218.811
217.581
216.383
215.219
214.09
212.994
211.93
210.898
209.897
208.927
207.986
207.074
206.188
205.328
204.492
203.679
202.885
202.111
201.353
200.61
199.88
199.161
198.453
197.754
197.063
196.38
195.704
195.033
194.37
193.714
193.065
192.424
191.791
191.166
190.548
189.937
189.332
188.733
188.14
187.55
186.965
186.381
185.799
185.22
184.642
184.065
183.488
182.911
182.334
181.758
181.185
180.618
180.056
179.493
178.986
178.603
178.216
178.045
177.694
177.503
177.223
177.042
176.871
176.71
176.559
176.421
176.293
176.183
176.073
175.962
175.849
175.731
175.613
175.549
175.43
175.51
175.583
175.717
176.065
176.45
177.556
178.876
182.156
191.464
484.817
221.855
203.997
195.782
196.961
199.475
203.194
206.849
209.193
209.905
210.581
211.124
211.573
212.039
212.674
213.561
214.704
216.107
217.786
219.734
221.894
224.152
226.317
228.147
229.548
230.393
230.753
230.781
230.199
229.145
227.683
225.97
224.141
222.322
220.555
218.845
217.161
215.516
213.925
212.384
210.884
209.415
207.967
206.532
205.107
203.69
202.284
200.89
199.51
198.13
196.711
195.184
193.492
191.716
190.043
188.522
187.112
185.773
184.475
183.196
181.924
180.654
179.384
178.116
176.852
175.595
174.348
173.111
171.885
170.673
169.474
168.288
167.115
165.954
164.805
163.668
162.542
161.429
160.327
159.236
158.154
157.083
156.021
154.969
153.928
152.899
151.882
150.878
149.889
148.916
147.958
147.017
146.092
145.185
144.297
143.428
142.579
141.75
140.943
140.158
139.394
138.651
137.929
137.228
136.547
135.885
135.241
134.615
134.006
133.412
132.832
132.265
131.709
131.163
130.627
130.097
129.574
129.055
128.541
128.029
127.52
127.012
126.506
126.001
125.498
124.995
124.495
123.996
123.499
123.005
122.513
122.023
121.537
121.054
120.575
120.1
119.633
119.172
118.721
118.286
117.867
117.459
117.057
116.656
116.258
115.86
115.464
115.071
114.682
114.301
113.941
113.61
113.31
113.04
112.782
112.541
112.315
112.114
111.939
111.786
111.655
111.551
111.473
111.483
111.476
111.466
111.46
111.418
111.452
111.466
111.522
111.616
111.748
111.917
112.177
112.507
113.121
113.965
115.679
120.294
685.286
287.677
236.097
210.066
198.8
192.789
189.245
185.998
183.116
180.696
178.522
176.564
174.927
173.734
173.138
173.027
173.39
173.972
174.673
175.546
176.471
177.289
177.872
178.166
178.201
177.76
176.913
175.674
174.077
172.217
170.194
168.117
166.077
164.136
162.334
160.676
159.154
157.766
156.502
155.339
154.253
153.223
152.23
151.261
150.306
149.359
148.414
147.468
146.514
145.542
144.543
143.519
142.495
141.514
140.601
139.747
138.93
138.132
137.341
136.552
135.761
134.966
134.17
133.374
132.578
131.785
130.995
130.209
129.427
128.651
127.88
127.114
126.352
125.594
124.841
124.092
123.348
122.611
121.878
121.151
120.429
119.712
119.001
118.296
117.599
116.91
116.23
115.56
114.902
114.255
113.621
112.999
112.391
111.796
111.215
110.649
110.098
109.561
109.04
108.533
108.04
107.561
107.096
106.643
106.202
105.773
105.353
104.943
104.542
104.147
103.759
103.376
102.996
102.619
102.244
101.869
101.493
101.116
100.736
100.352
99.9648
99.5727
99.1756
98.7734
98.3659
97.9534
97.5361
97.1145
96.6892
96.2609
95.8305
95.3991
94.9677
94.5376
94.1101
93.6869
93.27
92.8619
92.4677
92.1021
91.7618
91.4316
91.1055
90.7809
90.4572
90.1346
89.8139
89.4965
89.1843
88.881
88.591
88.3178
88.0629
87.8253
87.603
87.3961
87.2068
87.042
86.9038
86.7901
86.6988
86.6629
86.6682
86.6618
86.6592
86.6627
86.6612
86.6449
86.6582
86.6771
86.7117
86.7658
86.8379
86.9361
87.0767
87.2824
87.6276
88.1729
89.2422
91.7411
819.178
327.469
247.157
209.249
191.776
179.955
172.478
166.898
162.59
159.098
156.29
154.101
152.493
151.408
150.761
150.443
150.335
150.332
150.376
150.421
150.367
150.143
149.677
148.924
147.837
146.373
144.534
142.344
139.871
137.213
134.483
131.792
129.236
126.883
124.773
122.914
121.297
119.905
118.707
117.666
116.748
115.921
115.162
114.45
113.77
113.111
112.466
111.829
111.195
110.563
109.934
109.318
108.727
108.171
107.652
107.159
106.683
106.216
105.753
105.291
104.828
104.364
103.899
103.434
102.968
102.503
102.039
101.576
101.114
100.655
100.197
99.7413
99.2872
98.8346
98.3841
97.9375
97.4954
97.0576
96.6238
96.194
95.7685
95.3478
94.9326
94.5236
94.1215
93.727
93.3414
92.9652
92.5988
92.2421
91.8952
91.5582
91.2314
90.9147
90.6084
90.3125
90.0264
89.7499
89.4823
89.223
88.9716
88.7274
88.4896
88.2575
88.0301
87.8066
87.586
87.3674
87.1498
86.9321
86.7135
86.4931
86.2701
86.0437
85.8131
85.5773
85.3355
85.0869
84.8309
84.5672
84.2953
84.0148
83.7254
83.4273
83.1205
82.8056
82.4829
82.1531
81.817
81.4754
81.1295
80.7802
80.4288
80.0765
79.7247
79.3752
79.0299
78.6912
78.3621
78.0446
77.7357
77.4317
77.1304
76.831
76.5336
76.2389
75.9476
75.6612
75.3814
75.1101
74.8494
74.6009
74.3654
74.1429
73.9334
73.7378
73.5603
73.4106
73.2872
73.1855
73.1034
73.0499
73.0141
72.984
72.9582
72.9343
72.9055
72.8784
72.8536
72.8288
72.8216
72.8245
72.8305
72.8648
72.9334
73.0569
73.3003
73.7077
74.5048
76.0241
900.658
348.332
247.4
202.724
181.043
167.116
158.189
151.76
147.12
143.676
141.193
139.46
138.172
137.143
136.27
135.489
134.741
133.987
133.209
132.422
131.61
130.666
129.528
128.139
126.431
124.331
121.81
118.898
115.682
112.288
108.857
105.53
102.429
99.6386
97.1984
95.1136
93.3659
91.9188
90.7245
89.7348
88.9057
88.1992
87.5844
87.0371
86.539
86.0768
85.6409
85.2252
84.8265
84.444
84.0796
83.7361
83.4154
83.1163
82.8346
82.5655
82.3045
82.0482
81.7942
81.5414
81.289
81.037
80.7854
80.5344
80.2842
80.0351
79.7875
79.5415
79.2974
79.0554
78.8159
78.5789
78.3443
78.1122
77.8844
77.6616
77.4434
77.2296
77.0203
76.8158
76.6164
76.4225
76.2348
76.0533
75.8785
75.7112
75.5527
75.4031
75.2611
75.1257
74.9973
74.8759
74.7614
74.6536
74.5524
74.4573
74.3676
74.2826
74.2017
74.1241
74.0494
73.9768
73.9055
73.8346
73.7632
73.6904
73.6156
73.5377
73.456
73.3697
73.2779
73.1802
73.0763
72.965
72.8452
72.7163
72.5781
72.4302
72.2726
72.1052
71.9276
71.7394
71.5409
71.3323
71.1142
70.887
70.6514
70.4081
70.1579
69.902
69.6412
69.3767
69.1094
68.8404
68.5709
68.302
68.0348
67.7704
67.5096
67.2522
66.997
66.7431
66.49
66.2377
65.9867
65.7375
65.4912
65.2486
65.0109
64.7793
64.5549
64.3384
64.1304
63.9313
63.7417
63.5638
63.4033
63.2792
63.1785
63.0938
63.0222
62.9644
62.9162
62.8722
62.83
62.7872
62.7423
62.6961
62.6482
62.5993
62.5568
62.5234
62.5192
62.526
62.5437
62.6066
62.7714
63.1005
63.7139
64.8013
952.8
358.836
244.564
195.497
172.254
157.599
148.404
142.026
137.668
134.601
132.465
130.879
129.59
128.467
127.423
126.4
125.347
124.229
123.027
121.747
120.415
118.93
117.263
115.406
113.264
110.673
107.553
103.931
99.9251
95.7116
91.4789
87.4286
83.7142
80.4335
77.628
75.2923
73.3886
71.8596
70.6413
69.6718
68.8961
68.268
67.7504
67.3148
66.94
66.6106
66.3157
66.0482
65.8036
65.5796
65.375
65.1886
65.0187
64.8625
64.7169
64.5795
64.4483
64.3214
64.1971
64.0749
63.9545
63.8358
63.719
63.604
63.4911
63.3803
63.272
63.1664
63.0636
62.9636
62.8672
62.7758
62.6886
62.6049
62.5258
62.4512
62.3816
62.3171
62.2579
62.2041
62.156
62.1138
62.0777
62.0474
62.0232
62.0062
61.9967
61.997
62.0046
62.0145
62.0292
62.0488
62.0731
62.1018
62.1347
62.1711
62.2103
62.2514
62.294
62.3374
62.3811
62.4243
62.4663
62.5061
62.543
62.5763
62.6052
62.6292
62.6473
62.6591
62.664
62.6623
62.6537
62.6346
62.6045
62.5648
62.5152
62.4555
62.3858
62.3057
62.2142
62.1112
61.9976
61.874
61.7409
61.5985
61.4475
61.2885
61.1226
60.9506
60.7735
60.5921
60.4073
60.2202
60.0315
59.8421
59.6529
59.4642
59.2764
59.0893
58.9026
58.716
58.5295
58.3434
58.1581
57.9741
57.7919
57.6122
57.4356
57.2627
57.0941
56.9301
56.7713
56.6181
56.4714
56.3332
56.2076
56.0997
56.0062
55.9238
55.8505
55.7855
55.7265
55.6708
55.6166
55.5625
55.5078
55.4528
55.3976
55.3435
55.2949
55.2588
55.2552
55.262
55.2812
55.3392
55.4743
55.7309
56.1941
56.9557
981.298
362.781
241.485
191.481
166.916
151.919
142.812
136.702
132.636
129.897
127.931
126.459
125.249
124.187
123.183
122.172
121.088
119.867
118.455
116.819
114.955
112.886
110.695
108.512
106.222
103.353
99.73
95.378
90.4659
85.2662
80.0947
75.1993
70.7685
66.9273
63.7132
61.1016
59.028
57.4095
56.1601
55.2007
54.4634
53.893
53.4464
53.0912
52.8032
52.5652
52.3652
52.1947
52.0482
51.922
51.8133
51.7197
51.6387
51.5675
51.5037
51.4461
51.3947
51.3479
51.3035
51.2611
51.2213
51.184
51.1494
51.1175
51.0885
51.0625
51.0396
51.02
51.0037
50.9897
50.9789
50.9781
50.9851
50.992
51.0029
51.0187
51.0395
51.0655
51.0969
51.1337
51.1761
51.2242
51.278
51.3374
51.4029
51.4746
51.5519
51.6341
51.7207
51.8113
51.9059
52.004
52.1055
52.2102
52.3175
52.4267
52.5371
52.6483
52.7597
52.8708
52.9811
53.09
53.1966
53.3002
53.4003
53.4962
53.5873
53.673
53.7526
53.8257
53.8917
53.9505
54.0015
54.0437
54.0766
54.1
54.1139
54.1189
54.115
54.1004
54.0731
54.0355
53.9887
53.933
53.8682
53.7942
53.7119
53.6222
53.526
53.424
53.3169
53.2054
53.0902
52.9722
52.8519
52.7302
52.6075
52.4843
52.3606
52.2367
52.1126
51.9883
51.8641
51.7401
51.6167
51.4941
51.3725
51.2523
51.1336
51.0167
50.9018
50.789
50.6786
50.5712
50.4674
50.3689
50.2779
50.1962
50.1227
50.0561
49.9951
49.9387
49.8856
49.8343
49.7837
49.733
49.6818
49.6306
49.5798
49.5311
49.4882
49.4587
49.4575
49.4661
49.4891
49.5474
49.6704
49.8863
50.2545
50.8236
999.354
363.442
240.077
190.482
165.205
150.202
140.951
134.836
130.809
128.057
126.144
124.794
123.76
122.92
122.149
121.345
120.392
119.186
117.664
115.807
113.666
111.349
109.021
106.891
104.698
101.72
97.6954
92.627
86.7141
80.2854
73.8241
67.7465
62.3777
57.8197
54.0895
51.134
48.8493
47.1151
45.8156
44.8492
44.1326
43.6003
43.2025
42.9024
42.6732
42.4961
42.3577
42.2488
42.163
42.096
42.0444
42.0058
41.9784
41.9586
41.9437
41.932
41.9281
41.933
41.9384
41.9448
41.9539
41.966
41.9813
41.9997
42.0215
42.0467
42.0755
42.1081
42.1445
42.1849
42.2299
42.28
42.3343
42.3927
42.4557
42.5235
42.596
42.6734
42.7558
42.8432
42.9355
43.0329
43.1353
43.2426
43.3547
43.4714
43.5924
43.7172
43.8456
43.9775
44.1124
44.2502
44.3905
44.5329
44.6768
44.8219
44.9677
45.1138
45.2597
45.4048
45.5491
45.6918
45.8319
45.9691
46.1029
46.2329
46.3585
46.479
46.594
46.703
46.8055
46.9012
46.9898
47.0706
47.1434
47.2078
47.2638
47.3115
47.3507
47.3808
47.4014
47.413
47.4166
47.4125
47.3994
47.3771
47.3481
47.3127
47.2716
47.2254
47.1745
47.1191
47.0603
46.9985
46.9344
46.8684
46.8009
46.7322
46.6627
46.5924
46.5215
46.4502
46.3787
46.3073
46.2359
46.1647
46.0938
46.0232
45.9529
45.8828
45.8131
45.7437
45.675
45.6072
45.5411
45.4776
45.4182
45.3633
45.3129
45.266
45.222
45.1802
45.1395
45.0991
45.0586
45.0176
44.976
44.9342
44.893
44.8541
44.821
44.8024
44.8038
44.8128
44.8394
44.8985
45.0119
45.1984
45.5008
45.9466
995.878
360.656
238.431
190.601
165.409
150.598
141.33
135.237
131.239
128.51
126.706
125.572
124.827
124.313
123.857
123.32
122.536
121.383
119.808
117.859
115.68
113.432
111.277
109.377
107.461
104.555
100.294
94.6038
87.6431
79.8302
71.858
64.2763
57.5728
52.0155
47.6045
44.2
41.6403
39.7514
38.376
37.3835
36.671
36.1606
35.7947
35.5319
35.3425
35.2058
35.1075
35.0376
34.9894
34.9584
34.9412
34.9355
34.9417
34.9562
34.9726
34.9931
35.0182
35.0467
35.0781
35.1124
35.1499
35.1906
35.2345
35.2817
35.3324
35.3865
35.4442
35.5057
35.571
35.6403
35.7136
35.7911
35.8727
35.9585
36.0486
36.143
36.2418
36.3448
36.4523
36.5641
36.6802
36.8005
36.925
37.0536
37.1861
37.3223
37.4619
37.6047
37.7504
37.8988
38.0497
38.2028
38.3578
38.5143
38.672
38.8306
38.9897
39.1489
39.3079
39.4663
39.6238
39.7795
39.9332
40.0845
40.233
40.3781
40.5194
40.6564
40.7886
40.9156
41.037
41.1526
41.2618
41.3646
41.4604
41.5491
41.6306
41.7047
41.7715
41.8308
41.8823
41.9264
41.9634
41.9935
42.0166
42.0329
42.043
42.0476
42.0475
42.0432
42.0341
42.0208
42.0046
41.9857
41.9646
41.9416
41.9169
41.8907
41.8634
41.835
41.8056
41.7756
41.745
41.7139
41.6824
41.6506
41.6183
41.5855
41.5518
41.5174
41.4821
41.4461
41.4093
41.3723
41.3355
41.2997
41.2655
41.2333
41.203
41.1743
41.1468
41.1198
41.0924
41.0642
41.0353
41.0054
40.9749
40.9441
40.914
40.8862
40.864
40.855
40.859
40.872
40.9037
40.9652
41.0719
41.2389
41.4966
41.8652
984.666
356.314
238.121
191.614
166.759
152.254
143.101
137.14
133.304
130.712
129.159
128.34
127.874
127.566
127.227
126.714
125.882
124.66
123.097
121.368
119.681
118.17
116.835
115.522
113.875
111.028
106.646
100.598
92.8422
83.6556
73.8437
64.3087
55.906
48.9554
43.5587
39.5437
36.6112
34.5094
33.0224
31.9799
31.2538
30.7505
30.4029
30.1638
30.0005
29.8903
29.8179
29.7728
29.7479
29.7391
29.746
29.7656
29.79
29.8188
29.8516
29.8883
29.9286
29.9722
30.019
30.0689
30.1219
30.178
30.2372
30.2997
30.3654
30.4344
30.5068
30.5828
30.6623
30.7454
30.8322
30.9228
31.0171
31.1152
31.2171
31.3228
31.4323
31.5455
31.6625
31.7833
31.9077
32.0357
32.1672
32.3021
32.4403
32.5815
32.7255
32.8721
33.0212
33.1725
33.3259
33.481
33.6377
33.7957
33.9548
34.1145
34.2747
34.4351
34.5955
34.7554
34.9143
35.0719
35.228
35.3823
35.5342
35.6833
35.8293
35.9718
36.1102
36.2444
36.3739
36.4984
36.6177
36.7316
36.8397
36.942
37.0382
37.1282
37.212
37.2897
37.361
37.4262
37.4855
37.5391
37.5872
37.6298
37.6674
37.7004
37.7293
37.7544
37.7759
37.7939
37.8092
37.822
37.8327
37.8416
37.8488
37.8546
37.8592
37.8626
37.8649
37.8664
37.867
37.867
37.8663
37.8646
37.8618
37.8574
37.8514
37.8441
37.8354
37.8253
37.8139
37.8013
37.7881
37.7746
37.7613
37.7484
37.7358
37.7234
37.711
37.6979
37.6832
37.6669
37.6493
37.6305
37.6107
37.5905
37.5708
37.5532
37.5407
37.5389
37.5459
37.5636
37.5998
37.6621
37.7628
37.9145
38.1399
38.4556
959.184
351.059
238.374
193.427
169.383
155.227
146.208
140.456
136.81
134.598
133.313
132.585
132.018
131.497
130.893
130.115
129.089
127.89
126.741
125.921
125.574
125.674
126.017
125.997
124.91
122.141
117.416
110.789
102.187
91.5443
79.7498
67.862
57.1135
48.2703
41.5266
36.6313
33.1933
30.8034
29.1617
28.0434
27.2868
26.7779
26.4379
26.2129
26.0663
25.9735
25.9179
25.8886
25.8788
25.8863
25.9084
25.9366
25.9696
26.0069
26.0481
26.0929
26.141
26.1922
26.2464
26.3036
26.3636
26.4265
26.4924
26.5612
26.633
26.7079
26.7858
26.867
26.9514
27.039
27.1299
27.2241
27.3217
27.4226
27.5267
27.6342
27.7449
27.8589
27.9761
28.0964
28.2199
28.3464
28.4759
28.6084
28.7435
28.8813
29.0214
29.1638
29.3082
29.4544
29.6024
29.7519
29.9029
30.0549
30.208
30.3617
30.5159
30.6704
30.8249
30.9791
31.1327
31.2856
31.4372
31.5874
31.7358
31.882
32.0256
32.1664
32.304
32.438
32.5682
32.6943
32.8161
32.9335
33.0463
33.1544
33.2575
33.3556
33.4486
33.5365
33.6194
33.6973
33.7704
33.839
33.9031
33.9629
34.0188
34.0708
34.1194
34.1648
34.2072
34.2469
34.2842
34.3193
34.3525
34.384
34.414
34.4425
34.4698
34.4959
34.5209
34.5448
34.5676
34.5895
34.6102
34.6297
34.6478
34.6643
34.6791
34.692
34.703
34.7121
34.7194
34.7251
34.7295
34.7329
34.7356
34.7376
34.7389
34.7395
34.7398
34.7385
34.7344
34.728
34.7205
34.7115
34.7014
34.6907
34.6803
34.6719
34.6682
34.6718
34.6833
34.7066
34.7467
34.8105
34.9075
35.0496
35.2535
35.5344
907.323
352.532
240.358
195.27
172.202
158.376
149.686
144.169
140.735
138.834
137.592
136.658
135.749
134.873
133.974
133.055
132.194
131.679
131.871
132.913
134.607
136.85
139.384
141.654
142.878
142.077
138.165
131.087
120.286
105.951
90.8358
75.5492
61.5235
49.9689
41.2858
35.1763
31.0233
28.2451
26.3961
25.1736
24.3698
23.8445
23.504
23.2862
23.15
23.0684
23.0238
23.0042
23.0047
23.0221
23.0492
23.0817
23.1188
23.1599
23.2046
23.2525
23.3034
23.3571
23.4136
23.4727
23.5344
23.5988
23.6658
23.7355
23.8079
23.883
23.961
24.0417
24.1253
24.2118
24.3012
24.3935
24.4887
24.5868
24.6877
24.7915
24.8981
25.0074
25.1196
25.2344
25.3519
25.4721
25.5949
25.7202
25.8479
25.9779
26.1098
26.2437
26.3793
26.5166
26.6554
26.7956
26.937
27.0795
27.2229
27.3671
27.5119
27.657
27.8023
27.9475
28.0924
28.2368
28.3804
28.5229
28.6639
28.8033
28.9408
29.0759
29.2086
29.3384
29.465
29.5884
29.7082
29.8244
29.9369
30.0454
30.1498
30.2502
30.3466
30.4388
30.527
30.6112
30.6917
30.7686
30.842
30.9121
30.9791
31.043
31.1042
31.1627
31.2188
31.2727
31.3246
31.3746
31.4229
31.4696
31.5149
31.5589
31.6016
31.6432
31.6836
31.7228
31.7609
31.7978
31.8334
31.8676
31.9003
31.9313
31.9604
31.9876
32.0127
32.0357
32.0568
32.076
32.0935
32.1095
32.1243
32.1378
32.1501
32.161
32.1708
32.1786
32.1839
32.187
32.1884
32.1881
32.1868
32.1847
32.183
32.1831
32.1868
32.1968
32.2149
32.2442
32.2891
32.3556
32.4516
32.5869
32.7753
33.0301
811.128
350.659
243.297
197.31
175.363
161.662
153.539
148.239
145.024
143.134
141.858
140.953
140.199
139.368
138.522
137.85
137.645
138.165
139.57
141.934
145.267
149.524
154.35
159.406
164.43
168.284
169.035
164.125
151.564
134.829
112.801
89.8597
70.3101
54.4777
42.8878
35.001
29.856
26.5562
24.4378
23.0814
22.2154
21.6654
21.3189
21.1039
20.9741
20.9001
20.8628
20.8502
20.8565
20.8774
20.906
20.9398
20.9779
21.0197
21.0646
21.1124
21.1628
21.2157
21.271
21.3287
21.3887
21.4511
21.5159
21.583
21.6525
21.7245
21.799
21.8759
21.9553
22.0373
22.1218
22.2088
22.2984
22.3905
22.485
22.5819
22.6813
22.7831
22.8872
22.9937
23.1025
23.2136
23.3272
23.443
23.561
23.6808
23.8025
23.9258
24.0507
24.1771
24.3048
24.4339
24.5641
24.6953
24.8274
24.9603
25.0939
25.2279
25.3622
25.4967
25.631
25.765
25.8986
26.0313
26.163
26.2934
26.4223
26.5494
26.6745
26.7973
26.9175
27.0352
27.15
27.262
27.371
27.4768
27.5795
27.6789
27.775
27.8679
27.9577
28.0443
28.128
28.2088
28.2869
28.3623
28.4353
28.5059
28.5743
28.6405
28.7048
28.7672
28.828
28.8871
28.9448
29.0011
29.0561
29.1098
29.1623
29.2137
29.2639
29.313
29.3608
29.4075
29.4528
29.4966
29.539
29.5795
29.6182
29.6549
29.6895
29.7221
29.7527
29.7812
29.808
29.833
29.8564
29.8782
29.8985
29.917
29.9339
29.9487
29.9612
29.9715
29.98
29.9868
29.9924
29.9974
30.0028
30.0099
30.0202
30.0361
30.0597
30.0941
30.1432
30.2123
30.3081
30.4391
30.6167
30.8524
684.153
340.741
245.54
202.206
180.952
167.487
159.461
154.358
151.552
150.283
150.092
150.246
150.224
149.74
148.969
148.32
148.252
149.029
151.023
154.363
158.963
164.801
171.748
179.539
187.711
195.46
201.181
203.91
198.363
178.66
151.385
117.798
86.379
62.9426
46.6047
36.0676
29.5264
25.5323
23.0745
21.5567
20.6181
20.0389
19.684
19.4699
19.3446
19.2759
19.2435
19.2352
19.2441
19.2658
19.2942
19.3274
19.3645
19.4048
19.4478
19.4934
19.5412
19.5912
19.6434
19.6976
19.754
19.8124
19.8729
19.9355
20.0002
20.0671
20.1362
20.2074
20.2809
20.3565
20.4344
20.5145
20.5968
20.6813
20.7679
20.8566
20.9474
21.0403
21.1352
21.2322
21.3312
21.4322
21.5351
21.64
21.7466
21.855
21.9649
22.0763
22.1892
22.3035
22.419
22.5357
22.6536
22.7724
22.8922
23.0127
23.134
23.2558
23.378
23.5006
23.6232
23.7457
23.8679
23.9897
24.1108
24.2309
24.3499
24.4675
24.5835
24.6978
24.8101
24.9204
25.0285
25.1345
25.2382
25.3394
25.4381
25.5342
25.6279
25.719
25.8077
25.8939
25.9779
26.0596
26.1392
26.2168
26.2924
26.3662
26.4382
26.5085
26.5772
26.6444
26.7102
26.7746
26.8377
26.8996
26.9603
27.0199
27.0783
27.1357
27.1919
27.2469
27.3008
27.3535
27.4048
27.4547
27.5033
27.5501
27.5952
27.6383
27.6795
27.7187
27.7559
27.7912
27.8246
27.8562
27.886
27.9141
27.9404
27.9648
27.9874
28.0079
28.0262
28.0424
28.0567
28.0694
28.081
28.092
28.1035
28.1165
28.1326
28.1537
28.1823
28.2211
28.2737
28.3448
28.4403
28.5676
28.736
28.9552
525.517
319.909
244.949
208.106
189.135
176.602
168.802
164.015
162.12
162.484
164.432
167.137
169.317
170.181
169.816
168.779
168.086
168.416
170.16
173.687
178.74
185.232
193.209
202.797
213.446
224.742
234.912
243.149
246.936
239.635
209.309
166.053
116.116
77.7276
53.05
38.3275
29.8259
24.9384
22.081
20.3884
19.378
18.7736
18.4138
18.2027
18.0828
18.0192
17.9908
17.9853
17.9953
18.0164
18.0433
18.0745
18.1092
18.1466
18.1864
18.2283
18.2722
18.318
18.3656
18.4151
18.4664
18.5195
18.5745
18.6314
18.6901
18.7508
18.8134
18.8779
18.9443
19.0127
19.0831
19.1553
19.2295
19.3057
19.3837
19.4635
19.5452
19.6288
19.7141
19.8012
19.8901
19.9807
20.073
20.167
20.2625
20.3595
20.458
20.5579
20.6591
20.7616
20.8654
20.9702
21.0762
21.1831
21.291
21.3997
21.5092
21.6193
21.73
21.841
21.9524
22.0638
22.1751
22.2863
22.397
22.507
22.6163
22.7246
22.8317
22.9375
23.0418
23.1446
23.2456
23.345
23.4426
23.5383
23.6321
23.7239
23.8139
23.9019
23.9881
24.0724
24.155
24.2359
24.3152
24.3929
24.4691
24.5439
24.6173
24.6893
24.7601
24.8296
24.898
24.9652
25.0313
25.0964
25.1604
25.2234
25.2853
25.3462
25.4061
25.4649
25.5226
25.5791
25.6343
25.6881
25.7405
25.7913
25.8404
25.8877
25.9331
25.9767
26.0183
26.0582
26.0961
26.1323
26.1666
26.1991
26.2298
26.2586
26.2855
26.3103
26.3331
26.3538
26.3728
26.3903
26.4068
26.4229
26.4394
26.4575
26.4785
26.5045
26.5374
26.5802
26.636
26.7091
26.8047
26.9295
27.0911
27.2971
344.942
306.469
246.096
212.948
197.799
188.146
181.891
178.137
177.654
179.903
185.223
192.301
198.995
203.533
205.288
204.927
203.663
202.938
203.473
205.576
209.691
216.232
225.116
236.082
248.474
260.755
271.644
283.336
295.003
299.929
285.784
238.23
165.796
100.596
61.9752
41.2165
30.3024
24.4868
21.2767
19.461
18.4178
17.814
17.4651
17.2661
17.1561
17.0995
17.0756
17.0723
17.0825
17.102
17.1264
17.1546
17.1857
17.2191
17.2544
17.2916
17.3306
17.3711
17.4133
17.457
17.5024
17.5494
17.598
17.6483
17.7003
17.7539
17.8093
17.8664
17.9252
17.9857
18.048
18.1119
18.1776
18.245
18.3141
18.3848
18.4572
18.5313
18.6069
18.6841
18.7629
18.8433
18.9251
19.0085
19.0932
19.1794
19.2669
19.3557
19.4458
19.5371
19.6296
19.7232
19.8178
19.9135
20.0101
20.1076
20.206
20.305
20.4046
20.5048
20.6053
20.7061
20.807
20.9079
21.0085
21.1089
21.2087
21.3079
21.4062
21.5036
21.5999
21.695
21.7889
21.8815
21.9727
22.0625
22.1509
22.2378
22.3233
22.4073
22.49
22.5713
22.6512
22.73
22.8074
22.8838
22.9589
23.033
23.106
23.1779
23.2488
23.3187
23.3877
23.4557
23.5227
23.5888
23.654
23.7183
23.7816
23.8439
23.9053
23.9656
24.0249
24.083
24.1398
24.1954
24.2495
24.3021
24.353
24.4023
24.4498
24.4956
24.5396
24.5817
24.6221
24.6607
24.6974
24.7324
24.7654
24.7966
24.8259
24.8532
24.8785
24.902
24.9238
24.9443
24.9639
24.9833
25.0031
25.0245
25.0489
25.0779
25.1137
25.1589
25.2164
25.2902
25.3848
25.506
25.6599
25.8525
161.203
282.145
254.899
221.181
206.069
199.773
196.962
195.975
197.305
201.71
210.622
222.713
235.525
246.242
252.997
255.621
255.411
254.033
252.879
252.994
254.723
259.975
268.95
280.789
294.185
307.045
316.727
326.129
340.492
359.851
361.278
327.532
235.453
130.263
71.8845
43.8759
30.5892
24.0161
20.5821
18.7243
17.6952
17.1181
16.7937
16.6133
16.516
16.4674
16.4477
16.4458
16.4555
16.4727
16.4941
16.5187
16.5456
16.5745
16.6051
16.6373
16.6709
16.706
16.7425
16.7804
16.8197
16.8605
16.9027
16.9464
16.9915
17.0382
17.0864
17.1362
17.1874
17.2403
17.2946
17.3505
17.4079
17.4669
17.5273
17.5893
17.6527
17.7176
17.784
17.8518
17.921
17.9916
18.0636
18.1369
18.2115
18.2874
18.3646
18.443
18.5226
18.6033
18.6852
18.7681
18.8521
18.9371
19.0231
19.1099
19.1976
19.286