/*--------------------------------*- C++ -*----------------------------------*\
| =========                 |                                                 |
| \\      /  F ield         | OpenFOAM: The Open Source CFD Toolbox           |
|  \\    /   O peration     | Version:  v1906                                 |
|   \\  /    A nd           | Web:      www.OpenFOAM.com                      |
|    \\/     M anipulation  |                                                 |
\*---------------------------------------------------------------------------*/
FoamFile
{
    version     2.0;
    format      ascii;
    class       volScalarField;
    location    "200";
    object      k;
}
// * * * * * * * * * * * * * * * * * * * * * * * * * * * * * * * * * * * * * //

dimensions      [0 2 -2 0 0 0 0];


internalField   nonuniform List<scalar> 
12225
(
2.25874
2.22676
2.16224
2.09238
2.02651
1.96675
1.91432
1.86792
1.82791
1.79236
1.7622
1.73542
1.71567
1.7004
1.68892
1.68159
1.67481
1.67422
2.2503
2.13789
1.98593
1.87311
1.78213
1.71515
1.66295
1.62005
1.58542
1.55549
1.53217
1.51017
1.49501
1.47836
1.46951
1.45577
1.44956
1.43458
2.25787
2.21903
2.14403
2.07246
2.00539
1.94632
1.89499
1.84989
1.81085
1.7763
1.74671
1.72001
1.69779
1.67719
1.66097
1.64503
1.63397
1.62154
2.25843
2.23562
2.18854
2.13696
2.08604
2.03857
1.99556
1.95668
1.92196
1.89073
1.86306
1.83811
1.81628
1.79657
1.77958
1.7642
1.75189
1.74007
2.25897
2.24491
2.21586
2.18158
2.14616
2.11156
2.07885
2.04831
2.02014
1.99424
1.9707
1.94921
1.92989
1.91244
1.89702
1.88332
1.87197
1.86183
2.25913
2.24884
2.22869
2.20388
2.17729
2.1505
2.12449
2.09973
2.07647
2.05481
2.03485
2.01652
1.99986
1.9848
1.97142
1.9597
1.94993
1.9417
2.25929
2.25134
2.23691
2.21883
2.19902
2.17867
2.15855
2.1391
2.12059
2.10317
2.08699
2.07206
2.05846
2.04624
2.03546
2.0262
2.01874
2.01308
2.25937
2.2528
2.24187
2.2281
2.21279
2.19683
2.18084
2.16522
2.15023
2.13605
2.12284
2.11067
2.09963
2.08982
2.08134
2.07434
2.06905
2.06594
2.25945
2.25392
2.2454
2.23476
2.22287
2.21039
2.1978
2.18545
2.17356
2.16232
2.15189
2.14236
2.13385
2.12648
2.12038
2.11572
2.11278
2.11191
2.25951
2.2547
2.24783
2.23938
2.22994
2.22001
2.20995
2.20007
2.19057
2.18164
2.17342
2.16604
2.15962
2.15432
2.15028
2.1477
2.1469
2.14786
2.25958
2.25535
2.24969
2.2429
2.23535
2.22743
2.21944
2.21162
2.20417
2.19725
2.19101
2.18559
2.18112
2.17777
2.17571
2.17517
2.17616
2.17914
2.25963
2.2558
2.25096
2.24527
2.23902
2.2325
2.22596
2.2196
2.21362
2.20816
2.20338
2.19943
2.19645
2.1946
2.19409
2.19493
2.19743
2.20228
2.25968
2.25619
2.25197
2.24714
2.24191
2.23651
2.23114
2.22599
2.22122
2.217
2.21347
2.21079
2.2091
2.20859
2.20927
2.2114
2.21547
2.2219
2.25973
2.25652
2.25282
2.24872
2.24436
2.23991
2.23555
2.23145
2.22776
2.22464
2.22224
2.22071
2.22023
2.22082
2.2227
2.22628
2.23184
2.23985
2.25978
2.25682
2.25356
2.25006
2.24643
2.24279
2.23931
2.23613
2.2334
2.23128
2.22991
2.22947
2.22999
2.23167
2.23489
2.23988
2.24695
2.2565
2.25981
2.25705
2.25412
2.25107
2.24798
2.24497
2.24216
2.23969
2.23771
2.23639
2.23588
2.23624
2.23763
2.24044
2.24487
2.25121
2.25976
2.2709
2.25984
2.25721
2.25449
2.25174
2.24901
2.24641
2.24406
2.24208
2.24063
2.23988
2.23995
2.24088
2.24305
2.24676
2.25225
2.25982
2.26979
2.28253
2.25985
2.25724
2.25459
2.25193
2.24933
2.24687
2.24466
2.24285
2.24158
2.24103
2.2413
2.24253
2.24514
2.24941
2.25567
2.26426
2.27557
2.29001
2.25979
2.25706
2.25424
2.25138
2.24853
2.24579
2.24326
2.24109
2.23942
2.23845
2.23837
2.23923
2.24146
2.24552
2.25178
2.26072
2.27287
2.28884
2.25973
2.25673
2.25351
2.25011
2.24661
2.24311
2.23973
2.23661
2.23392
2.23182
2.23052
2.2303
2.23124
2.23386
2.23879
2.24656
2.25794
2.27378
2.25962
2.25624
2.25243
2.24823
2.24376
2.23914
2.23453
2.23008
2.22594
2.22227
2.21929
2.21722
2.21638
2.21699
2.21947
2.22472
2.23359
2.24719
2.25956
2.25575
2.25114
2.24585
2.24007
2.23399
2.2278
2.22168
2.21577
2.21026
2.2053
2.20111
2.19793
2.19611
2.19609
2.19797
2.20295
2.2123
2.25945
2.25499
2.24914
2.24214
2.23433
2.22601
2.21747
2.2089
2.2005
2.19242
2.18482
2.17787
2.17176
2.16673
2.16311
2.16141
2.1621
2.16585
2.25942
2.25416
2.24652
2.23708
2.2265
2.21526
2.20374
2.19222
2.18089
2.16992
2.15945
2.14961
2.14053
2.13238
2.12537
2.11981
2.11617
2.1152
2.25931
2.25264
2.24174
2.22804
2.21271
2.19658
2.1802
2.16395
2.14808
2.13279
2.11818
2.10437
2.09143
2.07944
2.06849
2.05872
2.05029
2.04386
2.25927
2.25056
2.23432
2.21425
2.19242
2.17001
2.14772
2.12598
2.10505
2.08508
2.06617
2.04836
2.03166
2.01609
2.00168
1.98847
1.97667
1.9664
2.25891
2.24481
2.21641
2.1826
2.14741
2.11264
2.07925
2.04779
2.01844
1.9912
1.96598
1.94268
1.92117
1.90135
1.88307
1.86633
1.85064
1.83647
2.25872
2.23441
2.18581
2.13384
2.08328
2.03531
1.99077
1.95022
1.9134
1.87995
1.84954
1.8219
1.79667
1.77372
1.75268
1.73357
1.71604
1.70126
2.25333
2.17273
2.05405
1.9531
1.87051
1.80136
1.74485
1.69899
1.6604
1.6274
1.59874
1.57391
1.55194
1.53287
1.51569
1.5009
1.48721
1.47452
2.25474
2.20865
2.14502
2.08307
2.02531
1.9727
1.92496
1.88182
1.84286
1.8076
1.77555
1.74629
1.71952
1.69483
1.67218
1.65104
1.63169
1.61328
0.0934782
0.0838491
0.075246
0.0638696
0.089297
0.151459
0.253608
0.344898
0.427511
0.503149
0.57275
0.637127
0.696865
0.75236
0.803983
0.85202
0.896759
0.938309
0.976709
1.01197
1.04405
1.07291
1.09865
1.12173
1.14211
1.15982
1.17482
1.18705
1.19619
1.20127
1.20351
1.20297
1.19653
1.18568
1.17529
1.16397
1.15254
1.14087
1.12914
1.1174
1.10585
1.09457
1.08364
1.07308
1.06295
1.05325
1.044
1.0352
1.02687
1.01902
1.01187
1.00527
0.998846
0.989771
0.985228
0.982378
0.979397
0.975932
0.971964
0.967611
0.963022
0.958318
0.953598
0.948926
0.944353
0.939905
0.9356
0.931444
0.92744
0.923583
0.919871
0.916294
0.912848
0.909522
0.906313
0.903202
0.900209
0.897333
0.894552
0.891844
0.889201
0.886614
0.884083
0.881603
0.879175
0.876799
0.874478
0.872211
0.869998
0.867836
0.865722
0.863653
0.86163
0.859655
0.857731
0.85586
0.854043
0.852282
0.850578
0.84893
0.847339
0.845806
0.844331
0.842914
0.841556
0.840254
0.839007
0.837813
0.836668
0.835568
0.834512
0.833493
0.832511
0.831559
0.830636
0.829737
0.828861
0.828003
0.827164
0.82634
0.82553
0.824733
0.823951
0.823181
0.822425
0.821687
0.820969
0.820271
0.819593
0.818934
0.818295
0.817674
0.817069
0.816478
0.815898
0.815322
0.814744
0.814155
0.813544
0.812894
0.812193
0.811437
0.81063
0.809779
0.808895
0.80799
0.807071
0.806139
0.805219
0.804312
0.803385
0.802424
0.801393
0.800273
0.799121
0.797933
0.796744
0.79555
0.794338
0.793125
0.791897
0.790679
0.789451
0.788178
0.786866
0.785518
0.784171
0.782778
0.781392
0.779875
0.778215
0.776179
0.773887
0.770912
0.767521
0.762602
0.756818
0.746958
0.734662
0.68586
0.239352
0.381408
0.53702
0.618083
0.710479
0.800438
0.878068
0.943512
1.00382
1.06362
1.12483
1.18682
1.24856
1.30895
1.3672
1.42288
1.47586
1.52608
1.57353
1.61826
1.66035
1.6998
1.73625
1.76968
1.8003
1.82795
1.85248
1.87376
1.89177
1.90646
1.9179
1.9262
1.932
1.9354
1.93668
1.93632
1.93453
1.9314
1.92704
1.92154
1.91502
1.90757
1.89924
1.89009
1.88017
1.86951
1.85817
1.84617
1.83354
1.8203
1.80654
1.7925
1.77953
1.77067
1.76613
1.76246
1.75797
1.75238
1.74577
1.73842
1.73057
1.72245
1.71423
1.70602
1.6979
1.68992
1.68212
1.6745
1.66708
1.65985
1.6528
1.64594
1.63925
1.63272
1.62634
1.6201
1.61399
1.608
1.60211
1.59632
1.59062
1.585
1.57947
1.57402
1.56865
1.56337
1.55818
1.55307
1.54804
1.54309
1.5382
1.53338
1.52863
1.52395
1.51935
1.51482
1.51037
1.50599
1.50168
1.49745
1.49329
1.4892
1.48518
1.48121
1.47731
1.47346
1.46966
1.46591
1.46219
1.4585
1.45483
1.45117
1.44753
1.44389
1.44025
1.43661
1.43295
1.42928
1.42559
1.42188
1.41815
1.4144
1.41063
1.40685
1.40306
1.39927
1.3955
1.39173
1.38797
1.38423
1.3805
1.3768
1.37311
1.36945
1.3658
1.36217
1.35855
1.35492
1.35126
1.34756
1.34381
1.33999
1.33614
1.33226
1.32837
1.32448
1.3206
1.31675
1.31294
1.30918
1.30544
1.30171
1.29798
1.29423
1.2905
1.2868
1.28317
1.2796
1.27608
1.27262
1.26921
1.26585
1.26252
1.25913
1.25575
1.25242
1.24915
1.24595
1.24279
1.23949
1.23604
1.23238
1.22859
1.22448
1.22019
1.21498
1.2094
1.20125
1.19015
1.15274
0.466279
0.758316
0.961407
1.06096
1.14604
1.21729
1.2839
1.34747
1.41094
1.47412
1.53617
1.59596
1.6527
1.70616
1.75664
1.80475
1.85111
1.8962
1.94026
1.9833
2.02518
2.06564
2.10433
2.14083
2.17469
2.2055
2.23294
2.25675
2.27682
2.29327
2.30631
2.31629
2.32361
2.3286
2.33157
2.33283
2.33284
2.33156
2.32914
2.32569
2.3213
2.31605
2.30998
2.30316
2.29563
2.28746
2.2787
2.26945
2.25976
2.24976
2.2396
2.22956
2.22
2.21119
2.20289
2.19449
2.18571
2.17657
2.16715
2.15755
2.14787
2.13818
2.12854
2.119
2.10959
2.10034
2.09125
2.08233
2.07358
2.065
2.05658
2.04832
2.0402
2.03221
2.02434
2.01657
2.00891
2.00133
1.99385
1.98645
1.97912
1.97187
1.96469
1.95759
1.95055
1.94358
1.93668
1.92985
1.9231
1.91641
1.90979
1.90325
1.89678
1.89039
1.88407
1.87784
1.87169
1.86562
1.85963
1.85372
1.84789
1.84213
1.83644
1.83082
1.82525
1.81974
1.81427
1.80884
1.80345
1.79807
1.79272
1.78737
1.78202
1.77666
1.77129
1.7659
1.76047
1.75502
1.74953
1.744
1.73844
1.73284
1.72721
1.72156
1.71589
1.71021
1.70453
1.69885
1.69318
1.68752
1.68189
1.67627
1.67069
1.66513
1.6596
1.6541
1.64861
1.64314
1.63768
1.6322
1.62671
1.62122
1.61573
1.61026
1.60481
1.5994
1.59402
1.5887
1.58343
1.57822
1.57307
1.56798
1.56295
1.55798
1.55307
1.54824
1.54349
1.53881
1.53421
1.52967
1.52521
1.52082
1.51649
1.51226
1.50812
1.50409
1.50019
1.49643
1.49283
1.48936
1.48597
1.48261
1.47928
1.47591
1.47256
1.46895
1.46533
1.4607
1.45328
1.43275
0.587833
0.947098
1.17212
1.27899
1.36642
1.43968
1.5098
1.57661
1.64074
1.70138
1.75838
1.81177
1.86212
1.91025
1.95701
2.003
2.04852
2.09359
2.13803
2.18152
2.22372
2.26424
2.30267
2.33856
2.37135
2.4006
2.42602
2.44744
2.46485
2.47841
2.48844
2.49542
2.49984
2.50208
2.50271
2.50208
2.50037
2.49775
2.49437
2.4903
2.4856
2.4803
2.47442
2.46798
2.461
2.45355
2.44568
2.43745
2.42896
2.42032
2.41165
2.4031
2.39473
2.3865
2.37823
2.36983
2.36127
2.35259
2.34381
2.335
2.32619
2.31742
2.30871
2.30011
2.29161
2.28323
2.27498
2.26685
2.25884
2.25095
2.24317
2.23549
2.22791
2.22041
2.21298
2.20562
2.19832
2.19107
2.18388
2.17674
2.16965
2.16263
2.15565
2.14874
2.14189
2.13509
2.12836
2.12169
2.11509
2.10856
2.10209
2.0957
2.08938
2.08314
2.07696
2.07086
2.06483
2.05887
2.05297
2.04714
2.04137
2.03564
2.02997
2.02433
2.01871
2.01312
2.00755
2.00198
1.99641
1.99083
1.98522
1.97959
1.97392
1.96821
1.96244
1.95662
1.95073
1.94477
1.93875
1.93265
1.92648
1.92024
1.91394
1.90758
1.90118
1.89472
1.88824
1.88173
1.8752
1.86866
1.86212
1.85558
1.84906
1.84256
1.83609
1.82964
1.82321
1.81682
1.81044
1.80409
1.79775
1.79145
1.78517
1.77894
1.77275
1.76662
1.76055
1.75454
1.74861
1.74277
1.737
1.73132
1.72573
1.72022
1.71481
1.70948
1.70424
1.69908
1.69399
1.68897
1.68402
1.67913
1.67431
1.66958
1.66493
1.66038
1.65592
1.65155
1.64725
1.64306
1.639
1.63505
1.63121
1.62743
1.62372
1.6199
1.616
1.6111
1.60394
1.58908
0.662475
1.04678
1.28935
1.40569
1.50158
1.58063
1.65374
1.72065
1.78288
1.84049
1.89433
1.94524
1.9942
2.04185
2.08856
2.13445
2.17948
2.22352
2.2664
2.30794
2.34791
2.386
2.42173
2.45464
2.48426
2.51011
2.53179
2.54909
2.56202
2.57085
2.57601
2.57819
2.57811
2.57619
2.57303
2.56908
2.56464
2.55988
2.55485
2.54958
2.54406
2.53825
2.53216
2.52575
2.51904
2.51205
2.50483
2.49741
2.48988
2.48229
2.4747
2.46715
2.45964
2.45215
2.44466
2.43717
2.42967
2.42218
2.41471
2.40728
2.39989
2.39256
2.38531
2.37814
2.37105
2.36406
2.35716
2.35035
2.34363
2.33699
2.33042
2.32393
2.31751
2.31115
2.30484
2.29858
2.29238
2.28623
2.28015
2.27412
2.26815
2.26223
2.25638
2.25059
2.24486
2.23919
2.23359
2.22806
2.22259
2.2172
2.21187
2.20662
2.20142
2.19629
2.19121
2.18619
2.18121
2.17628
2.17138
2.16651
2.16166
2.15682
2.15198
2.14714
2.14228
2.13739
2.13247
2.12751
2.1225
2.11742
2.11228
2.10706
2.10176
2.09637
2.09089
2.08531
2.07963
2.07385
2.06796
2.06197
2.05589
2.04971
2.04344
2.0371
2.03068
2.0242
2.01767
2.0111
2.00448
1.99784
1.99119
1.98452
1.97784
1.97117
1.96449
1.95783
1.95118
1.94454
1.93792
1.93133
1.92475
1.91821
1.91169
1.90522
1.89879
1.89242
1.88612
1.87989
1.87375
1.86771
1.86178
1.85596
1.85025
1.84468
1.83922
1.83389
1.82869
1.8236
1.81862
1.81375
1.80898
1.80433
1.79979
1.79535
1.79101
1.78677
1.78264
1.77862
1.77468
1.77084
1.76711
1.76349
1.76
1.75665
1.75349
1.75041
1.74744
1.74375
1.73875
1.72773
0.705917
1.09686
1.35182
1.47713
1.58052
1.66367
1.7384
1.80507
1.86648
1.92334
1.9768
2.0274
2.07566
2.12191
2.16641
2.20934
2.25086
2.29113
2.33027
2.36835
2.40531
2.44089
2.47459
2.50566
2.5333
2.55677
2.57548
2.58908
2.59765
2.60163
2.60187
2.59904
2.59403
2.5876
2.58042
2.57301
2.56568
2.55855
2.55167
2.545
2.53849
2.53206
2.52564
2.51919
2.51268
2.5061
2.49948
2.49282
2.48616
2.47954
2.47296
2.46643
2.45995
2.45349
2.44707
2.44068
2.43433
2.42802
2.42176
2.41556
2.40943
2.40336
2.39738
2.39147
2.38565
2.37992
2.37426
2.3687
2.36321
2.3578
2.35246
2.3472
2.34201
2.33688
2.33182
2.32685
2.32195
2.31712
2.31237
2.30768
2.30307
2.29853
2.29405
2.28965
2.28531
2.28104
2.27684
2.2727
2.26862
2.26461
2.26066
2.25676
2.2529
2.24908
2.2453
2.24153
2.23779
2.23405
2.23031
2.22656
2.22279
2.21899
2.21515
2.21126
2.20732
2.2033
2.19922
2.19504
2.19077
2.1864
2.18193
2.17734
2.17263
2.16779
2.16283
2.15774
2.15252
2.14717
2.1417
2.13611
2.1304
2.12459
2.11867
2.11267
2.10659
2.10044
2.09423
2.08797
2.08167
2.07533
2.06897
2.06258
2.05619
2.04978
2.04337
2.03694
2.03052
2.02409
2.01766
2.01123
2.00481
1.99839
1.992
1.98562
1.97929
1.97299
1.96676
1.96059
1.9545
1.9485
1.9426
1.93682
1.93114
1.92559
1.92017
1.91487
1.9097
1.90465
1.89972
1.89492
1.89023
1.88567
1.88123
1.8769
1.87269
1.86859
1.8646
1.86074
1.857
1.85338
1.8499
1.84655
1.84336
1.84033
1.83751
1.83485
1.83233
1.82939
1.82549
1.81793
0.732779
1.12652
1.39073
1.52431
1.63432
1.72143
1.7986
1.86641
1.92831
1.98492
2.03747
2.08635
2.1321
2.17503
2.2156
2.25426
2.29153
2.32787
2.36369
2.39922
2.43441
2.46884
2.50175
2.53216
2.55894
2.58099
2.59741
2.60768
2.61212
2.61141
2.60633
2.598
2.58756
2.57612
2.56454
2.55342
2.54305
2.53354
2.52486
2.51689
2.50948
2.50251
2.49584
2.48939
2.4831
2.47692
2.47084
2.46484
2.45893
2.45312
2.44739
2.44173
2.43615
2.43063
2.42518
2.4198
2.41448
2.40924
2.40407
2.39897
2.39396
2.38902
2.38417
2.3794
2.37472
2.37012
2.36561
2.36118
2.35683
2.35256
2.34837
2.34426
2.34023
2.33627
2.33239
2.32859
2.32487
2.32123
2.31767
2.31419
2.31079
2.30747
2.30422
2.30105
2.29794
2.29491
2.29194
2.28904
2.28621
2.28342
2.28069
2.27799
2.27532
2.27267
2.27003
2.26739
2.26476
2.26211
2.25943
2.25673
2.25398
2.25118
2.24831
2.24538
2.24237
2.23926
2.23606
2.23276
2.22934
2.2258
2.22214
2.21835
2.21443
2.21036
2.20616
2.20181
2.19732
2.19269
2.18793
2.18304
2.17802
2.17289
2.16766
2.16233
2.15692
2.15142
2.14586
2.14025
2.13458
2.12886
2.12312
2.11734
2.11153
2.10571
2.09986
2.094
2.08813
2.08225
2.07636
2.07047
2.06458
2.0587
2.05283
2.04697
2.04114
2.03535
2.02961
2.02392
2.0183
2.01276
2.0073
2.00194
1.99668
1.99153
1.98649
1.98156
1.97673
1.97203
1.96742
1.96292
1.95853
1.95424
1.95004
1.94594
1.94194
1.93803
1.93422
1.93052
1.92693
1.92345
1.9201
1.91689
1.91382
1.91091
1.90819
1.90559
1.90309
1.9002
1.89653
1.89015
0.747108
1.14402
1.41516
1.55682
1.67322
1.76423
1.84402
1.91291
1.97466
2.02968
2.07949
2.12459
2.16584
2.20378
2.23911
2.27256
2.30499
2.33723
2.37004
2.40385
2.43861
2.4737
2.50799
2.54
2.56809
2.59068
2.60643
2.61469
2.61601
2.61092
2.6006
2.58667
2.57078
2.55438
2.53853
2.52391
2.51081
2.49925
2.48908
2.4801
2.47207
2.46477
2.45803
2.45171
2.44572
2.43997
2.43443
2.42906
2.42385
2.41876
2.4138
2.40894
2.40418
2.39952
2.39493
2.39044
2.38603
2.3817
2.37745
2.37329
2.36921
2.36522
2.36131
2.35749
2.35375
2.3501
2.34653
2.34304
2.33964
2.33632
2.33309
2.32993
2.32685
2.32386
2.32095
2.31811
2.31536
2.31269
2.3101
2.30759
2.30515
2.30279
2.30049
2.29827
2.29612
2.29402
2.29198
2.29
2.28806
2.28616
2.2843
2.28246
2.28063
2.27882
2.27701
2.2752
2.27337
2.27151
2.26963
2.2677
2.26571
2.26367
2.26156
2.25937
2.25709
2.25472
2.25224
2.24966
2.24696
2.24414
2.2412
2.23812
2.23491
2.23156
2.22808
2.22445
2.22069
2.2168
2.21277
2.20862
2.20435
2.19996
2.19547
2.19088
2.18621
2.18145
2.17662
2.17173
2.16677
2.16177
2.15673
2.15164
2.14653
2.14138
2.1362
2.13101
2.12579
2.12057
2.11533
2.11009
2.10484
2.09961
2.09438
2.08917
2.08398
2.07883
2.07371
2.06865
2.06364
2.05869
2.05382
2.04902
2.0443
2.03966
2.03511
2.03065
2.02627
2.02198
2.01778
2.01366
2.00962
2.00566
2.00178
1.99798
1.99426
1.99062
1.98706
1.9836
1.98023
1.97697
1.97383
1.97082
1.96795
1.96524
1.96269
1.96025
1.95785
1.95513
1.95171
1.94626
0.755695
1.1557
1.43126
1.58032
1.70272
1.79745
1.8796
1.9489
2.00957
2.06199
2.10806
2.14837
2.18412
2.21611
2.2454
2.27325
2.30114
2.3302
2.36137
2.39511
2.43109
2.46832
2.50519
2.53988
2.57042
2.5949
2.6115
2.61934
2.61873
2.61011
2.59503
2.57569
2.55434
2.53294
2.51288
2.49491
2.4793
2.46595
2.45457
2.44482
2.43637
2.42892
2.42223
2.41613
2.41048
2.40518
2.40017
2.39539
2.3908
2.38638
2.38211
2.37797
2.37395
2.37004
2.36622
2.3625
2.35888
2.35534
2.35189
2.34853
2.34525
2.34206
2.33895
2.33593
2.33298
2.33012
2.32735
2.32465
2.32203
2.31949
2.31703
2.31466
2.31235
2.31013
2.30798
2.30591
2.30392
2.302
2.30015
2.29837
2.29666
2.29501
2.29343
2.29191
2.29044
2.28903
2.28766
2.28634
2.28505
2.28378
2.28254
2.28132
2.2801
2.27888
2.27766
2.27642
2.27516
2.27388
2.27255
2.27119
2.26977
2.26829
2.26674
2.26512
2.26341
2.26162
2.25972
2.25773
2.25562
2.2534
2.25106
2.2486
2.24601
2.24329
2.24045
2.23747
2.23437
2.23115
2.2278
2.22434
2.22077
2.21709
2.21332
2.20945
2.20549
2.20146
2.19735
2.19318
2.18895
2.18467
2.18034
2.17597
2.17155
2.16711
2.16263
2.15813
2.1536
2.14906
2.1445
2.13993
2.13536
2.1308
2.12623
2.12169
2.11716
2.11265
2.10818
2.10375
2.09936
2.09502
2.09073
2.0865
2.08233
2.07823
2.07419
2.07022
2.06631
2.06247
2.05869
2.05497
2.05131
2.04771
2.04417
2.0407
2.03729
2.03394
2.03067
2.02747
2.02436
2.02134
2.01843
2.01564
2.01299
2.01046
2.00807
2.00576
2.00346
2.00086
1.99767
1.99295
0.753585
1.15798
1.43784
1.59324
1.72046
1.81805
1.90175
1.97073
2.0298
2.07916
2.12098
2.15575
2.18537
2.21133
2.2351
2.25829
2.2827
2.30998
2.3411
2.376
2.4135
2.45198
2.48972
2.52519
2.55696
2.58349
2.60298
2.61351
2.61471
2.60598
2.58872
2.56553
2.53953
2.51351
2.48947
2.46841
2.45057
2.43572
2.42341
2.41315
2.40448
2.39705
2.39054
2.38474
2.37949
2.37466
2.37017
2.36595
2.36196
2.35817
2.35454
2.35106
2.3477
2.34446
2.34132
2.33829
2.33535
2.33249
2.32973
2.32705
2.32445
2.32193
2.31949
2.31712
2.31484
2.31263
2.31049
2.30843
2.30645
2.30453
2.30269
2.30093
2.29923
2.2976
2.29605
2.29456
2.29313
2.29177
2.29048
2.28924
2.28806
2.28694
2.28587
2.28485
2.28387
2.28294
2.28204
2.28117
2.28033
2.2795
2.2787
2.2779
2.2771
2.2763
2.27549
2.27466
2.2738
2.27292
2.27201
2.27104
2.27003
2.26897
2.26784
2.26664
2.26536
2.26401
2.26256
2.26102
2.25938
2.25764
2.25578
2.25382
2.25174
2.24955
2.24724
2.24481
2.24227
2.23961
2.23685
2.23398
2.23101
2.22794
2.22479
2.22155
2.21823
2.21484
2.21138
2.20786
2.20428
2.20065
2.19697
2.19325
2.18949
2.18569
2.18186
2.178
2.17411
2.1702
2.16627
2.16233
2.15837
2.15441
2.15045
2.1465
2.14256
2.13863
2.13472
2.13085
2.127
2.12319
2.11943
2.1157
2.11202
2.10838
2.10479
2.10125
2.09776
2.09431
2.09091
2.08756
2.08425
2.08098
2.07777
2.0746
2.07149
2.06842
2.06543
2.06249
2.05964
2.05687
2.05419
2.05163
2.04917
2.04684
2.04461
2.04243
2.04024
2.0378
2.03487
2.03085
0.747454
1.15261
1.43291
1.59235
1.72391
1.82382
1.90877
1.97741
2.03498
2.08127
2.11912
2.1496
2.17514
2.19727
2.2182
2.23982
2.26393
2.29185
2.32375
2.35843
2.39382
2.42804
2.46003
2.48932
2.5159
2.53982
2.56073
2.57741
2.58703
2.58692
2.57519
2.5535
2.52579
2.49656
2.46921
2.44546
2.42573
2.40969
2.39673
2.38618
2.3775
2.37022
2.36399
2.35856
2.35374
2.3494
2.34542
2.34175
2.33833
2.33511
2.33207
2.32918
2.32642
2.32378
2.32125
2.31881
2.31647
2.31421
2.31203
2.30994
2.30791
2.30596
2.30409
2.30228
2.30054
2.29887
2.29727
2.29574
2.29427
2.29287
2.29153
2.29025
2.28903
2.28788
2.28678
2.28575
2.28476
2.28384
2.28296
2.28214
2.28136
2.28063
2.27995
2.2793
2.27868
2.2781
2.27755
2.27702
2.2765
2.27601
2.27552
2.27503
2.27454
2.27405
2.27354
2.27302
2.27247
2.2719
2.27129
2.27064
2.26995
2.2692
2.2684
2.26754
2.2666
2.26559
2.26451
2.26333
2.26207
2.26072
2.25927
2.25772
2.25607
2.25432
2.25246
2.2505
2.24843
2.24627
2.244
2.24164
2.23919
2.23666
2.23404
2.23134
2.22858
2.22575
2.22285
2.2199
2.21689
2.21383
2.21072
2.20757
2.20438
2.20115
2.19789
2.19459
2.19127
2.18791
2.18454
2.18115
2.17775
2.17433
2.17091
2.16748
2.16406
2.16065
2.15725
2.15387
2.15051
2.14717
2.14386
2.14058
2.13733
2.13412
2.13093
2.12779
2.12467
2.12159
2.11854
2.11552
2.11253
2.10957
2.10665
2.10377
2.10093
2.09813
2.09538
2.09268
2.09006
2.0875
2.08503
2.08266
2.08038
2.07819
2.07608
2.07401
2.07191
2.06959
2.06688
2.06339
0.734107
1.13649
1.41917
1.5815
1.71497
1.81563
1.90118
1.96965
2.02622
2.07037
2.10577
2.1345
2.15965
2.18257
2.20502
2.22849
2.25441
2.28314
2.31368
2.34364
2.37084
2.3943
2.41414
2.43093
2.44542
2.45858
2.4722
2.48877
2.50893
2.52733
2.53562
2.52821
2.50696
2.47877
2.45015
2.42481
2.40387
2.38714
2.37389
2.36335
2.35485
2.34787
2.34203
2.33703
2.33268
2.32883
2.32537
2.32223
2.31933
2.31665
2.31414
2.31179
2.30956
2.30745
2.30544
2.30352
2.30169
2.29994
2.29827
2.29666
2.29512
2.29365
2.29225
2.2909
2.28962
2.28839
2.28723
2.28612
2.28507
2.28407
2.28313
2.28224
2.28141
2.28063
2.27989
2.27921
2.27857
2.27798
2.27743
2.27692
2.27645
2.27602
2.27562
2.27525
2.27491
2.27459
2.2743
2.27402
2.27375
2.2735
2.27325
2.27299
2.27274
2.27248
2.2722
2.27191
2.2716
2.27125
2.27088
2.27047
2.27002
2.26953
2.26898
2.26838
2.26771
2.26698
2.26618
2.2653
2.26435
2.26331
2.26219
2.26098
2.25967
2.25828
2.25679
2.25521
2.25354
2.25178
2.24993
2.248
2.24598
2.24389
2.24172
2.23948
2.23718
2.23482
2.23239
2.22992
2.22739
2.22481
2.22218
2.21952
2.21681
2.21406
2.21127
2.20845
2.2056
2.20272
2.19981
2.19688
2.19394
2.19097
2.188
2.18502
2.18204
2.17905
2.17607
2.1731
2.17014
2.1672
2.16427
2.16136
2.15848
2.15561
2.15276
2.14993
2.14713
2.14435
2.14159
2.13885
2.13613
2.13344
2.13077
2.12813
2.12553
2.12295
2.12042
2.11794
2.11551
2.11315
2.11086
2.10865
2.10653
2.10448
2.1025
2.10054
2.09855
2.09639
2.09393
2.09094
0.706712
1.10001
1.39195
1.55678
1.69191
1.794
1.88062
1.95015
2.0074
2.05293
2.09134
2.12466
2.15456
2.1815
2.20678
2.23157
2.25679
2.28168
2.30449
2.32281
2.33561
2.34359
2.3485
2.35218
2.35587
2.35976
2.36346
2.3687
2.38315
2.41334
2.45054
2.47441
2.47435
2.45566
2.42994
2.40507
2.38411
2.36743
2.3544
2.3442
2.33612
2.32961
2.32425
2.31975
2.31591
2.31256
2.3096
2.30695
2.30455
2.30236
2.30034
2.29846
2.2967
2.29505
2.2935
2.29203
2.29064
2.28932
2.28806
2.28687
2.28575
2.28467
2.28366
2.2827
2.28179
2.28093
2.28013
2.27937
2.27866
2.278
2.27738
2.27681
2.27629
2.27581
2.27537
2.27497
2.2746
2.27428
2.27399
2.27373
2.27351
2.27331
2.27315
2.273
2.27288
2.27278
2.27269
2.27261
2.27254
2.27248
2.27242
2.27236
2.27229
2.27221
2.27212
2.27202
2.27189
2.27174
2.27156
2.27135
2.2711
2.27081
2.27048
2.27009
2.26965
2.26915
2.26859
2.26796
2.26726
2.26648
2.26563
2.26471
2.2637
2.2626
2.26143
2.26017
2.25883
2.25741
2.25592
2.25434
2.25269
2.25097
2.24918
2.24733
2.24542
2.24345
2.24142
2.23934
2.23721
2.23504
2.23281
2.23055
2.22824
2.22589
2.2235
2.22108
2.21862
2.21614
2.21362
2.21109
2.20852
2.20594
2.20335
2.20074
2.19812
2.1955
2.19287
2.19025
2.18763
2.18501
2.1824
2.1798
2.17721
2.17464
2.17207
2.16951
2.16697
2.16444
2.16192
2.15942
2.15692
2.15444
2.15198
2.14955
2.14713
2.14474
2.14239
2.14008
2.13782
2.13561
2.13347
2.1314
2.12939
2.12746
2.12558
2.12372
2.12183
2.11982
2.11759
2.11501
0.655689
1.03843
1.35039
1.52247
1.66044
1.76569
1.85511
1.92856
1.99079
2.04353
2.0904
2.13146
2.16725
2.19763
2.22355
2.24587
2.26486
2.27932
2.28781
2.2894
2.28389
2.27258
2.25794
2.2431
2.2317
2.22758
2.23202
2.24062
2.24976
2.27082
2.31989
2.38187
2.41946
2.42238
2.40591
2.38459
2.36527
2.34963
2.33745
2.328
2.32061
2.31473
2.30996
2.30602
2.3027
2.29986
2.29739
2.29522
2.29328
2.29153
2.28993
2.28847
2.28713
2.28588
2.28471
2.28362
2.2826
2.28165
2.28075
2.27991
2.27912
2.27837
2.27768
2.27704
2.27644
2.27588
2.27537
2.2749
2.27447
2.27408
2.27373
2.27342
2.27314
2.2729
2.2727
2.27253
2.27239
2.27229
2.27221
2.27216
2.27213
2.27212
2.27214
2.27218
2.27223
2.2723
2.27237
2.27246
2.27255
2.27265
2.27274
2.27283
2.27292
2.27299
2.27306
2.27311
2.27314
2.27314
2.27312
2.27308
2.27299
2.27287
2.27271
2.2725
2.27225
2.27194
2.27157
2.27114
2.27065
2.2701
2.26947
2.26878
2.26801
2.26716
2.26624
2.26525
2.26418
2.26304
2.26183
2.26055
2.2592
2.25778
2.2563
2.25476
2.25317
2.25151
2.24981
2.24805
2.24625
2.24439
2.24249
2.24055
2.23856
2.23654
2.23447
2.23237
2.23023
2.22806
2.22586
2.22363
2.22138
2.21911
2.21681
2.2145
2.21217
2.20983
2.20749
2.20514
2.20278
2.20043
2.19807
2.19571
2.19336
2.19101
2.18866
2.18632
2.18398
2.18164
2.17932
2.17699
2.17468
2.17237
2.17008
2.1678
2.16554
2.1633
2.1611
2.15893
2.1568
2.15473
2.15271
2.15075
2.14886
2.14704
2.14526
2.14351
2.14175
2.13991
2.13792
2.13572
0.585506
0.958041
1.29015
1.47939
1.62578
1.73779
1.83271
1.91289
1.98426
2.04831
2.10723
2.16048
2.2058
2.24076
2.26528
2.28054
2.28819
2.28878
2.28242
2.26797
2.24534
2.21475
2.17763
2.13718
2.09803
2.06654
2.05272
2.06478
2.09623
2.13072
2.17736
2.25836
2.34066
2.37745
2.37714
2.36287
2.34694
2.33336
2.32263
2.31431
2.30784
2.30272
2.29862
2.29528
2.2925
2.29016
2.28816
2.28642
2.2849
2.28355
2.28233
2.28124
2.28024
2.27933
2.2785
2.27773
2.27702
2.27637
2.27577
2.27521
2.2747
2.27424
2.27381
2.27343
2.27308
2.27278
2.27251
2.27228
2.27208
2.27192
2.27179
2.27169
2.27163
2.27159
2.27159
2.27161
2.27167
2.27174
2.27184
2.27196
2.2721
2.27226
2.27244
2.27263
2.27283
2.27305
2.27327
2.2735
2.27373
2.27396
2.27419
2.27442
2.27464
2.27485
2.27505
2.27524
2.2754
2.27555
2.27567
2.27576
2.27582
2.27585
2.27584
2.27579
2.27569
2.27554
2.27534
2.27509
2.27477
2.2744
2.27396
2.27346
2.27289
2.27226
2.27155
2.27078
2.26994
2.26903
2.26806
2.26701
2.26591
2.26474
2.26352
2.26223
2.26089
2.2595
2.25805
2.25656
2.25501
2.25342
2.25178
2.2501
2.24837
2.2466
2.2448
2.24295
2.24107
2.23915
2.23721
2.23523
2.23322
2.23119
2.22914
2.22706
2.22497
2.22286
2.22074
2.2186
2.21646
2.21431
2.21215
2.20998
2.20781
2.20564
2.20346
2.20128
2.19909
2.19691
2.19472
2.19254
2.19036
2.18818
2.18601
2.18385
2.18171
2.17959
2.1775
2.17544
2.17342
2.17144
2.16952
2.16766
2.16586
2.16411
2.16243
2.16077
2.15912
2.15744
2.15567
2.1538
0.491138
0.868137
1.20236
1.41619
1.58126
1.70769
1.81327
1.90382
1.98757
2.06745
2.14652
2.22008
2.28125
2.32416
2.34726
2.35271
2.34635
2.33092
2.30893
2.28007
2.24248
2.19522
2.13938
2.07654
2.0109
1.94928
1.89951
1.87491
1.89063
1.95291
2.03274
2.12684
2.24425
2.3221
2.34416
2.33983
2.32877
2.31807
2.3093
2.30241
2.29703
2.2928
2.28942
2.2867
2.28447
2.28261
2.28105
2.27971
2.27857
2.27756
2.27668
2.2759
2.2752
2.27458
2.27402
2.27352
2.27307
2.27266
2.2723
2.27199
2.27171
2.27147
2.27126
2.27109
2.27096
2.27086
2.27079
2.27075
2.27074
2.27077
2.27083
2.27091
2.27102
2.27116
2.27133
2.27151
2.27173
2.27196
2.27221
2.27248
2.27277
2.27308
2.27339
2.27372
2.27406
2.27441
2.27477
2.27513
2.27549
2.27585
2.2762
2.27656
2.2769
2.27724
2.27757
2.27788
2.27817
2.27844
2.27869
2.27892
2.27912
2.27928
2.27941
2.2795
2.27955
2.27955
2.2795
2.2794
2.27925
2.27904
2.27877
2.27844
2.27805
2.2776
2.27708
2.2765
2.27586
2.27515
2.27437
2.27354
2.27264
2.27168
2.27067
2.2696
2.26847
2.26729
2.26606
2.26478
2.26345
2.26207
2.26065
2.25917
2.25766
2.2561
2.2545
2.25286
2.25118
2.24947
2.24772
2.24594
2.24412
2.24228
2.24041
2.23852
2.2366
2.23466
2.23271
2.23073
2.22874
2.22673
2.22472
2.22268
2.22064
2.21859
2.21653
2.21446
2.21238
2.2103
2.20821
2.20612
2.20403
2.20194
2.19986
2.19778
2.19572
2.19368
2.19166
2.18967
2.18772
2.18582
2.18397
2.18218
2.18044
2.17877
2.17716
2.17559
2.17405
2.17252
2.17095
2.16938
0.370923
0.781293
1.09855
1.32919
1.51959
1.67085
1.79566
1.90194
1.99964
2.09812
2.19958
2.29783
2.38182
2.44084
2.46987
2.47067
2.4546
2.42275
2.38266
2.33598
2.28178
2.21853
2.14603
2.06621
1.98308
1.90276
1.83539
1.78883
1.77174
1.79461
1.88053
2.00606
2.15374
2.26922
2.3136
2.31893
2.31279
2.30501
2.29825
2.29282
2.28855
2.28518
2.2825
2.28035
2.27861
2.27718
2.27599
2.275
2.27415
2.27343
2.27281
2.27227
2.2718
2.27139
2.27104
2.27073
2.27047
2.27025
2.27007
2.26992
2.2698
2.26972
2.26968
2.26966
2.26968
2.26972
2.2698
2.2699
2.27003
2.27019
2.27038
2.27059
2.27083
2.27109
2.27138
2.27168
2.27201
2.27236
2.27273
2.27311
2.27351
2.27392
2.27435
2.27478
2.27523
2.27568
2.27614
2.2766
2.27707
2.27753
2.27799
2.27845
2.27889
2.27934
2.27977
2.28018
2.28058
2.28097
2.28133
2.28166
2.28198
2.28226
2.28251
2.28272
2.28289
2.28302
2.28311
2.28314
2.28313
2.28306
2.28294
2.28277
2.28253
2.28224
2.28189
2.28148
2.28101
2.28047
2.27988
2.27922
2.27851
2.27774
2.27691
2.27603
2.2751
2.27411
2.27307
2.27198
2.27084
2.26965
2.26842
2.26714
2.26581
2.26444
2.26303
2.26157
2.26007
2.25854
2.25697
2.25536
2.25371
2.25203
2.25033
2.24859
2.24682
2.24503
2.24321
2.24137
2.23951
2.23762
2.23572
2.2338
2.23186
2.22991
2.22794
2.22596
2.22397
2.22196
2.21995
2.21794
2.21591
2.21389
2.21187
2.20986
2.20786
2.20588
2.20393
2.202
2.20011
2.19827
2.19647
2.19474
2.19307
2.19146
2.18992
2.18844
2.18701
2.18561
2.18424
2.18293
0.223167
0.74519
1.03049
1.25141
1.45465
1.63094
1.78017
1.90534
2.01777
2.13057
2.24867
2.36734
2.47402
2.55408
2.59789
2.60364
2.58577
2.54429
2.48883
2.42426
2.35181
2.27126
2.18274
2.08804
1.99116
1.89885
1.82294
1.76991
1.74009
1.74145
1.78495
1.90681
2.08827
2.23612
2.2945
2.30501
2.30164
2.29581
2.2905
2.28618
2.28276
2.28006
2.27792
2.27622
2.27484
2.27373
2.27281
2.27205
2.27142
2.27089
2.27044
2.27007
2.26975
2.26948
2.26926
2.26908
2.26893
2.26883
2.26875
2.26871
2.2687
2.26872
2.26877
2.26884
2.26895
2.26908
2.26924
2.26943
2.26964
2.26987
2.27014
2.27042