/*--------------------------------*- C++ -*----------------------------------*\
| =========                 |                                                 |
| \\      /  F ield         | OpenFOAM: The Open Source CFD Toolbox           |
|  \\    /   O peration     | Version:  v1906                                 |
|   \\  /    A nd           | Web:      www.OpenFOAM.com                      |
|    \\/     M anipulation  |                                                 |
\*---------------------------------------------------------------------------*/
FoamFile
{
    version     2.0;
    format      ascii;
    class       volScalarField;
    location    "200";
    object      nut;
}
// * * * * * * * * * * * * * * * * * * * * * * * * * * * * * * * * * * * * * //

dimensions      [0 2 -1 0 0 0 0];


internalField   nonuniform List<scalar> 
12225
(
5.38048e-05
5.34225e-05
5.26428e-05
5.17852e-05
5.09631e-05
5.02057e-05
4.95314e-05
4.89269e-05
4.83986e-05
4.7925e-05
4.75179e-05
4.71548e-05
4.68841e-05
4.66739e-05
4.65137e-05
4.64102e-05
4.63163e-05
4.63024e-05
0.000743687
0.00027493
0.00020909
0.000187068
0.000174047
0.000169444
0.0001655
0.00016219
0.000159576
0.000157451
0.000155978
0.000154622
0.000154138
0.000153218
0.000153959
0.000153238
0.000154833
0.000153112
0.00337139
0.000966013
0.000668961
0.000563128
0.000504882
0.000473668
0.000451067
0.000434546
0.000422483
0.00041304
0.000405521
0.000399489
0.000395094
0.00039139
0.00038965
0.000387703
0.000389493
0.000388265
0.00784778
0.0022931
0.0014744
0.00117756
0.00102079
0.00092958
0.000868638
0.000824986
0.000793519
0.000769107
0.000749799
0.00073503
0.000723691
0.000714697
0.000708178
0.000703177
0.000702625
0.000699666
0.0127635
0.004328
0.00271172
0.00210742
0.00179247
0.00160477
0.00148026
0.00139161
0.00132646
0.00127665
0.00123749
0.00120651
0.00118275
0.00116301
0.00114786
0.00113687
0.00113165
0.00112439
0.0171151
0.00693391
0.00437207
0.00335032
0.00281111
0.00248412
0.00226599
0.00211053
0.00199523
0.00190692
0.00183749
0.00178206
0.00173808
0.00170247
0.00167392
0.00165284
0.00163816
0.00162405
0.0205962
0.00988641
0.00642167
0.00491752
0.00410196
0.0035988
0.00326015
0.00301774
0.00283692
0.00269782
0.00258821
0.00250041
0.00242979
0.00237263
0.00232652
0.0022907
0.00226474
0.00224134
0.0232422
0.0129333
0.00876477
0.00677197
0.00564705
0.00493697
0.00445236
0.00410247
0.00383951
0.00363595
0.00347476
0.00334502
0.00323976
0.003154
0.00308434
0.00302893
0.00298674
0.00295114
0.0252079
0.0158713
0.0112864
0.00886373
0.00742751
0.00649533
0.00584809
0.00537549
0.0050173
0.00473812
0.00451584
0.0043361
0.00418939
0.00406913
0.0039707
0.00389113
0.00382823
0.00377544
0.0266554
0.0185571
0.0138559
0.0111125
0.00939406
0.00824119
0.00742344
0.00681752
0.00635324
0.00598821
0.00569547
0.00545725
0.00526154
0.0051
0.00496667
0.00485739
0.00476872
0.00469268
0.0277232
0.0209162
0.0163577
0.0134323
0.0114899
0.0101378
0.00915478
0.00841375
0.00783865
0.00738193
0.00701267
0.00671006
0.00645977
0.00625164
0.00607832
0.00593441
0.00581348
0.00570934
0.0284476
0.0227424
0.018478
0.0155126
0.0134352
0.0119361
0.0108187
0.00996108
0.00928635
0.00874476
0.00830304
0.00793832
0.00763453
0.00738006
0.00716628
0.00698514
0.0068309
0.00669767
0.0290083
0.0243034
0.0204365
0.0175369
0.0153931
0.0137863
0.0125555
0.0115917
0.0108219
0.0101965
0.00968139
0.00925249
0.00889242
0.00858837
0.00832917
0.00810717
0.0079165
0.00774837
0.0294898
0.025756
0.0223966
0.0196735
0.0175369
0.0158634
0.0145391
0.0134762
0.0126108
0.0118972
0.0113022
0.0108015
0.0103772
0.0100139
0.00970105
0.00943111
0.00919491
0.00898249
0.0298848
0.0270293
0.0242381
0.0217941
0.0197521
0.0180728
0.0166929
0.0155528
0.0146034
0.0138061
0.0131314
0.0125563
0.0120616
0.0116333
0.0112617
0.0109357
0.0106452
0.0103783
0.0301888
0.0280617
0.0258264
0.0237223
0.0218506
0.0202307
0.0188446
0.0176621
0.0166519
0.015786
0.0150408
0.014395
0.0138319
0.0133402
0.0129076
0.0125224
0.0121729
0.0118461
0.030399
0.0288021
0.0270243
0.0252449
0.0235715
0.0220534
0.0207035
0.0195156
0.0184753
0.0175655
0.0167685
0.0160664
0.0154482
0.0149018
0.014415
0.013976
0.0135723
0.01319
0.0305054
0.0291858
0.0276674
0.0260906
0.0245555
0.0231205
0.0218124
0.0206374
0.0195912
0.0186637
0.0178412
0.0171101
0.0164615
0.0158839
0.0153659
0.0148957
0.0144608
0.0140465
0.0304717
0.0290659
0.0274689
0.0258325
0.0242585
0.0228018
0.0214843
0.0203082
0.0192661
0.0183459
0.017534
0.0168142
0.016177
0.0156127
0.01511
0.0146584
0.014246
0.0138599
0.0302301
0.0282099
0.0260699
0.0240356
0.0222088
0.0206138
0.0192386
0.0180576
0.017043
0.0161692
0.0154143
0.0147601
0.0141888
0.0136898
0.0132549
0.012874
0.0125384
0.0122377
0.0298188
0.0268221
0.0239422
0.0214566
0.0194022
0.0177256
0.0163552
0.0152269
0.0142892
0.0135027
0.0128376
0.0122715
0.0117878
0.0113718
0.0110131
0.0107071
0.0104479
0.0102302
0.0291369
0.024702
0.0209779
0.0181277
0.0159853
0.0143585
0.0130993
0.0121044
0.0113035
0.0106482
0.0101048
0.00964946
0.00926531
0.00894062
0.00866633
0.00843272
0.00823907
0.00808514
0.028033
0.0217101
0.01728
0.0143357
0.0123324
0.0109127
0.00986612
0.00906801
0.00844222
0.00794033
0.00753048
0.0071911
0.00690725
0.0066686
0.00646796
0.00630094
0.00616361
0.00605493
0.0262514
0.017812
0.0131429
0.0104887
0.00884893
0.00775523
0.00698044
0.006406
0.00596472
0.00561618
0.00533484
0.00510389
0.00491192
0.0047511
0.00461593
0.0045028
0.00440963
0.00433809
0.0233789
0.0132031
0.00902112
0.00699331
0.00583931
0.0051037
0.00459664
0.00422792
0.00394852
0.00372996
0.00355483
0.00341185
0.00329338
0.00319433
0.00311077
0.00304024
0.00298021
0.00293299
0.018903
0.00845415
0.00544934
0.00418454
0.00350654
0.00308667
0.00280202
0.00259821
0.00244515
0.00232604
0.00223097
0.00215359
0.0020895
0.00203607
0.00199074
0.00195247
0.00191944
0.00189305
0.0125838
0.00438825
0.00278811
0.00217197
0.00185008
0.00165195
0.00151836
0.00142447
0.00135397
0.00129902
0.0012553
0.00121979
0.00119035
0.00116613
0.00114494
0.00112723
0.00111103
0.00109788
0.00562599
0.00171114
0.00115517
0.000945482
0.000836531
0.000768359
0.000722855
0.000692451
0.000668049
0.000648453
0.0006328
0.000619708
0.000608397
0.000598856
0.000590249
0.000583154
0.000576119
0.00057145
0.00117122
0.000435506
0.000327127
0.000284555
0.000262682
0.00024843
0.000241255
0.000236811
0.000232674
0.00022893
0.00022558
0.000222676
0.00022004
0.00021782
0.000215708
0.000214035
0.000212256
0.000210674
7.08579e-05
7.013e-05
6.91124e-05
6.81074e-05
6.71566e-05
6.6279e-05
6.54724e-05
6.4735e-05
6.4062e-05
6.34468e-05
6.28825e-05
6.23629e-05
6.18838e-05
6.14388e-05
6.10278e-05
6.06416e-05
6.02861e-05
5.99458e-05
1.81823e-05
3.6929e-05
3.52282e-05
3.18089e-05
3.68264e-05
4.79083e-05
6.21545e-05
7.29672e-05
8.14841e-05
8.85485e-05
9.45721e-05
9.98066e-05
0.000104421
0.000108523
0.000112197
0.000115505
0.000118496
0.000121205
0.000123653
0.000125857
0.000127828
0.000129573
0.000131101
0.000132453
0.000133631
0.000134643
0.000135489
0.00013617
0.000136699
0.00013697
0.000137063
0.000137094
0.000136791
0.000136024
0.000135366
0.000134619
0.00013387
0.000133099
0.00013232
0.000131536
0.000130756
0.000129992
0.000129245
0.000128516
0.000127808
0.000127123
0.000126464
0.00012583
0.000125223
0.000124642
0.000124097
0.000123596
0.000123184
0.000122453
0.000122025
0.000121755
0.00012149
0.000121196
0.000120869
0.000120515
0.000120143
0.000119761
0.000119377
0.000118994
0.000118616
0.000118244
0.000117881
0.000117527
0.000117182
0.000116845
0.000116517
0.000116197
0.000115885
0.00011558
0.000115282
0.00011499
0.000114703
0.000114424
0.000114151
0.000113883
0.000113618
0.000113356
0.000113098
0.000112842
0.000112589
0.000112339
0.000112091
0.000111847
0.000111605
0.000111367
0.00011113
0.000110896
0.000110664
0.000110435
0.000110208
0.000109984
0.000109762
0.000109544
0.000109328
0.000109116
0.000108906
0.0001087
0.000108496
0.000108295
0.000108097
0.000107902
0.00010771
0.000107521
0.000107333
0.000107149
0.000106966
0.000106784
0.000106605
0.000106427
0.000106249
0.000106073
0.000105897
0.000105722
0.000105547
0.000105372
0.000105197
0.000105022
0.000104847
0.000104672
0.000104497
0.000104322
0.000104148
0.000103973
0.000103799
0.000103625
0.000103451
0.000103278
0.000103104
0.000102931
0.000102758
0.000102584
0.000102409
0.000102234
0.000102057
0.000101877
0.000101694
0.000101506
0.000101313
0.000101117
0.000100917
0.000100714
0.000100509
0.000100302
0.000100093
9.98862e-05
9.96786e-05
9.9467e-05
9.92556e-05
9.90301e-05
9.88071e-05
9.85746e-05
9.83436e-05
9.81092e-05
9.78731e-05
9.76355e-05
9.73959e-05
9.71548e-05
9.69133e-05
9.66678e-05
9.6418e-05
9.61638e-05
9.59084e-05
9.56494e-05
9.53893e-05
9.5121e-05
9.48465e-05
9.45439e-05
9.42255e-05
9.38638e-05
9.3475e-05
9.2992e-05
9.24549e-05
9.16669e-05
9.07256e-05
8.74752e-05
2.88902e-05
0.000124017
0.000232135
0.000286988
0.000317862
0.000341939
0.000358994
0.000377975
0.000400039
0.00042422
0.00045445
0.000487816
0.000522858
0.000558266
0.000592685
0.000624656
0.000655499
0.00068607
0.000715794
0.000744107
0.000770439
0.000793839
0.000812455
0.000829698
0.000846527
0.000862983
0.000879023
0.000894809
0.000910239
0.000924293
0.000938278
0.000951836
0.000965365
0.000977255
0.000986848
0.000994875
0.0010018
0.00100752
0.00101194
0.00101507
0.00101693
0.00101757
0.00101703
0.00101531
0.00101244
0.00100844
0.00100333
0.000997071
0.000989631
0.000980949
0.000971087
0.000960638
0.000952113
0.000950305
0.000954374
0.000959603
0.000963476
0.000965667
0.000966315
0.000965811
0.000964562
0.00096288
0.00096099
0.000959038
0.000957119
0.000955288
0.000953574
0.000951989
0.000950538
0.000949216
0.000948017
0.000946934
0.000945961
0.000945089
0.000944312
0.000943619
0.000942991
0.000942417
0.000941896
0.000941425
0.000941003
0.000940629
0.000940301
0.000940016
0.000939772
0.000939572
0.00093941
0.000939276
0.000939166
0.000939069
0.000938972
0.000938871
0.000938767
0.000938662
0.000938551
0.00093843
0.000938292
0.000938133
0.000937946
0.000937709
0.000937424
0.000937092
0.000936712
0.00093628
0.000935793
0.000935247
0.000934639
0.000933965
0.000933221
0.000932403
0.000931511
0.000930543
0.000929498
0.000928377
0.000927179
0.000925907
0.000924562
0.000923147
0.000921665
0.000920116
0.000918504
0.000916832
0.000915104
0.000913329
0.000911514
0.000909676
0.000907813
0.000905924
0.000904014
0.000902086
0.000900147
0.000898201
0.000896252
0.000894304
0.000892357
0.000890409
0.00088845
0.000886472
0.000884459
0.000882375
0.000880206
0.000877962
0.000875664
0.000873334
0.000870986
0.000868634
0.00086629
0.000863951
0.000861642
0.000859393
0.000856912
0.000853855
0.000850807
0.000846709
0.000843497
0.000839576
0.000836165
0.00083237
0.000828597
0.000824856
0.000821141
0.00081745
0.000813731
0.000809885
0.00080604
0.000802272
0.000798605
0.000795057
0.00079155
0.000787649
0.000783789
0.000778807
0.000773695
0.000767954
0.000761065
0.000752937
0.000741391
0.000726042
0.000699849
0.000624619
4.03604e-05
0.000233278
0.000407787
0.000517448
0.000600152
0.000668558
0.000730118
0.000790004
0.000856472
0.000931723
0.00100856
0.00108579
0.0011619
0.00123556
0.00130585
0.00137264
0.00143638
0.00149742
0.00155573
0.0016111
0.0016635
0.00171319
0.00176098
0.00180797
0.00185422
0.00190016
0.00194469
0.00198613
0.00202674
0.00206559
0.00210256
0.00213687
0.00216794
0.00219508
0.00221831
0.00223806
0.00225543
0.00227016
0.00228229
0.00229205
0.00229966
0.00230531
0.00230922
0.00231155
0.00231242
0.00231195
0.00231024
0.0023074
0.00230359
0.00229914
0.00229486
0.00229212
0.00229237
0.00229528
0.00229814
0.00229906
0.00229788
0.00229511
0.0022913
0.00228691
0.00228228
0.00227764
0.00227313
0.00226883
0.0022648
0.00226104
0.00225755
0.00225434
0.00225137
0.00224864
0.00224612
0.0022438
0.00224167
0.0022397
0.00223788
0.00223619
0.00223459
0.00223306
0.00223162
0.00223026
0.00222898
0.00222778
0.00222664
0.00222556
0.00222454
0.00222354
0.00222257
0.0022216
0.00222062
0.00221962
0.00221858
0.00221751
0.0022164
0.00221524
0.00221402
0.00221273
0.00221135
0.00220987
0.00220828
0.00220656
0.00220471
0.00220273
0.00220059
0.00219831
0.00219587
0.00219325
0.00219047
0.00218751
0.00218436
0.00218104
0.00217753
0.00217384
0.00216996
0.00216591
0.00216168
0.00215728
0.00215271
0.00214798
0.00214311
0.0021381
0.00213297
0.00212772
0.00212238
0.00211696
0.00211148
0.00210595
0.00210039
0.00209481
0.00208922
0.00208363
0.00207805
0.00207248
0.00206693
0.00206139
0.00205585
0.00205031
0.0020447
0.00203901
0.00203317
0.00202702
0.00202055
0.0020139
0.00200717
0.00200043
0.00199374
0.0019871
0.00198054
0.00197405
0.00196764
0.00196123
0.0019546
0.00194763
0.00194027
0.00193256
0.00192481
0.00191694
0.00190902
0.00190087
0.00189248
0.00188387
0.00187511
0.00186606
0.00185675
0.00184624
0.00183625
0.00182662
0.00181726
0.00180884
0.00179959
0.00179103
0.00178197
0.00177244
0.0017624
0.00175171
0.00173975
0.00172616
0.00170831
0.00168497
0.0016432
0.00153581
4.53815e-05
0.000280625
0.000523718
0.000700837
0.000845265
0.000967594
0.00108407
0.00120277
0.00132311
0.00144177
0.00155875
0.0016732
0.00178402
0.00189034
0.00199084
0.00208684
0.00217821
0.00226749
0.00235528
0.0024399
0.00252192
0.0026026
0.00268286
0.00276258
0.00284004
0.00291776
0.00299413
0.00306874
0.0031411
0.00321004
0.00327454
0.00333362
0.00338656
0.00343273
0.00347259
0.00350667
0.00353538
0.00355899
0.00357801
0.00359306
0.00360472
0.0036135
0.00361984
0.00362407
0.00362652
0.00362745
0.00362714
0.0036259
0.00362414
0.00362242
0.00362138
0.0036214
0.00362207
0.00362213
0.00362045
0.00361689
0.00361193
0.00360611
0.00359986
0.00359349
0.00358722
0.00358117
0.00357542
0.00357001
0.00356495
0.00356024
0.00355586
0.0035518
0.00354804
0.00354455
0.00354131
0.00353831
0.00353553
0.00353296
0.00353055
0.00352826
0.00352605
0.00352392
0.00352186
0.00351987
0.00351797
0.00351615
0.00351439
0.00351268
0.00351101
0.00350934
0.00350764
0.0035059
0.00350408
0.00350217
0.00350016
0.00349804
0.00349581
0.00349343
0.00349089
0.00348817
0.00348525
0.00348212
0.00347876
0.00347518
0.00347136
0.0034673
0.00346297
0.00345837
0.0034535
0.00344835
0.00344292
0.00343722
0.00343125
0.003425
0.0034185
0.00341174
0.00340473
0.00339749
0.00339001
0.00338232
0.00337444
0.00336638
0.00335817
0.00334982
0.00334137
0.00333284
0.00332426
0.00331566
0.00330706
0.00329849
0.00328996
0.0032815
0.00327309
0.00326476
0.0032565
0.00324831
0.00324018
0.00323208
0.00322398
0.00321583
0.00320756
0.00319909
0.00319022
0.00318045
0.00316987
0.00315903
0.00314817
0.0031374
0.00312676
0.00311628
0.00310595
0.00309574
0.00308562
0.00307547
0.00306515
0.00305456
0.00304365
0.00303244
0.00302102
0.00300939
0.00299746
0.00298497
0.00297183
0.00295811
0.0029439
0.00292806
0.0029111
0.00289488
0.00287887
0.00286302
0.00284771
0.00283323
0.00281808
0.00280314
0.00278818
0.00277304
0.00275774
0.00274186
0.00272499
0.00270577
0.00268215
0.00264944
0.00259447
0.00247724
4.82174e-05
0.00030115
0.000605359
0.000849879
0.00105814
0.00124951
0.00142706
0.00159653
0.0017595
0.00191622
0.00206643
0.00220996
0.00234709
0.00247822
0.00260404
0.00272547
0.00284373
0.00295988
0.00307423
0.00318702
0.00329954
0.00341254
0.00352648
0.00364128
0.00375709
0.00387404
0.00399142
0.00410841
0.00422356
0.00433509
0.00444091
0.00453923
0.00462873
0.00470755
0.00477543
0.00483278
0.00488027
0.00491864
0.00494878
0.00497197
0.00498939
0.00500207
0.00501089
0.00501659
0.0050198
0.00502105
0.00502082
0.00501959
0.00501779
0.00501577
0.00501366
0.00501119
0.0050078
0.00500291
0.00499642
0.00498867
0.00498014
0.00497124
0.00496225
0.00495338
0.00494476
0.00493647
0.00492854
0.00492101
0.00491386
0.0049071
0.00490069
0.00489461
0.00488885
0.00488338
0.00487817
0.00487321
0.00486849
0.00486398
0.0048596
0.00485527
0.004851
0.00484679
0.00484266
0.0048386
0.00483461
0.00483066
0.00482671
0.00482274
0.00481872
0.00481461
0.00481035
0.00480591
0.00480129
0.00479649
0.00479149
0.00478628
0.00478084
0.00477515
0.00476917
0.00476289
0.0047563
0.0047494
0.00474218
0.00473465
0.00472679
0.0047186
0.00471007
0.00470122
0.00469205
0.00468256
0.00467277
0.00466269
0.00465233
0.0046417
0.00463083
0.00461972
0.00460839
0.00459685
0.00458513
0.00457325
0.00456126
0.00454918
0.00453704
0.00452487
0.00451271
0.00450061
0.00448859
0.00447671
0.00446497
0.0044534
0.00444201
0.00443082
0.00441982
0.00440899
0.00439833
0.0043878
0.00437738
0.00436701
0.00435664
0.00434619
0.00433557
0.00432465
0.00431329
0.00430141
0.00428915
0.00427675
0.00426435
0.00425202
0.00423979
0.00422767
0.00421566
0.00420373
0.00419183
0.00417988
0.00416783
0.0041556
0.00414319
0.0041306
0.00411785
0.00410489
0.00409147
0.00407701
0.0040616
0.00404548
0.00402879
0.00401102
0.00399281
0.00397477
0.00395698
0.00393958
0.00392294
0.00390668
0.00389075
0.00387525
0.0038593
0.00384334
0.00382784
0.00381149
0.00379423
0.00377451
0.00374921
0.00371276
0.00365201
0.00353382
4.97955e-05
0.000310849
0.00066478
0.000968668
0.00124183
0.00149058
0.00171936
0.00193229
0.00213117
0.00231723
0.00249089
0.0026526
0.00280632
0.00295476
0.00309972
0.00324237
0.00338408
0.00352596
0.00366876
0.00381221
0.00395636
0.00410369
0.00425486
0.00440966
0.00456841
0.00473204
0.00490089
0.00507411
0.00524975
0.00542502
0.00559703
0.00576094
0.00591247
0.00604794
0.00616547
0.00626447
0.00634539
0.00640955
0.00645902
0.00649619
0.00652326
0.00654224
0.0065548
0.00656236
0.00656605
0.00656681
0.00656537
0.00656229
0.00655798
0.00655261
0.00654614
0.00653835
0.00652904
0.00651817
0.00650613
0.0064933
0.00648003
0.00646663
0.00645331
0.00644021
0.00642743
0.00641501
0.00640298
0.00639135
0.00638009
0.00636921
0.00635867
0.00634844
0.0063385
0.00632883
0.00631937
0.0063101
0.00630103
0.00629212
0.00628324
0.0062744
0.00626561
0.00625687
0.00624815
0.00623943
0.00623068
0.00622185
0.00621292
0.00620384
0.0061946
0.00618511
0.00617527
0.00616504
0.00615455
0.00614386
0.00613291
0.00612167
0.00611011
0.00609821
0.00608594
0.00607331
0.00606034
0.00604702
0.00603338
0.0060194
0.00600509
0.00599044
0.00597549
0.00596025
0.00594474
0.00592899
0.005913
0.00589681
0.00588044
0.0058639
0.00584723
0.00583043
0.00581348
0.00579646
0.00577945
0.00576247
0.00574555
0.00572871
0.00571197
0.00569536
0.00567896
0.00566282
0.00564699
0.00563146
0.00561627
0.00560141
0.0055869
0.00557273
0.00555888
0.00554532
0.00553201
0.0055189
0.00550593
0.00549305
0.00548018
0.00546723
0.00545413
0.00544078
0.00542716
0.00541327
0.00539923
0.00538515
0.0053711
0.00535712
0.00534323
0.00532943
0.00531572
0.00530206
0.00528845
0.00527483
0.00526117
0.00524746
0.00523369
0.00521985
0.00520591
0.00519171
0.00517677
0.00515954
0.00514107
0.00512196
0.00510247
0.00508253
0.00506249
0.00504275
0.0050235
0.00500494
0.00498719
0.00497018
0.00495399
0.00493857
0.00492338
0.00490822
0.00489157
0.00487496
0.0048587
0.00483974
0.00481382
0.00477334
0.00470726
0.00458998
5.07208e-05
0.00031829
0.000711762
0.00106967
0.00139555
0.00169226
0.00196185
0.00220743
0.00243088
0.0026344
0.0028205
0.00299328
0.00315708
0.00331424
0.00346719
0.00361831
0.00377034
0.00392587
0.00408718
0.00425525
0.00442944
0.00461249
0.00480361
0.00500032
0.00520319
0.00541715
0.00564548
0.00588853
0.00614546
0.00641253
0.00668315
0.00694812
0.00719819
0.00742569
0.00762508
0.00779355
0.0079309
0.0080392
0.0081219
0.008183
0.00822653
0.00825614
0.00827495
0.0082855
0.0082898
0.00828939
0.0082854
0.00827865
0.00826965
0.00825867
0.00824585
0.00823127
0.00821509
0.00819763
0.00817926
0.00816031
0.00814103
0.0081217
0.00810252
0.00808361
0.008065
0.00804672
0.00802877
0.00801115
0.00799384
0.00797683
0.00796008
0.00794355
0.00792721
0.00791106
0.00789499
0.00787883
0.00786266
0.00784657
0.00783043
0.00781425
0.007798
0.00778166
0.0077652
0.0077486
0.00773182
0.00771482
0.00769759
0.00768015
0.00766243
0.0076443
0.0076257
0.0076064
0.00758664
0.00756698
0.00754706
0.00752683
0.00750625
0.0074853
0.00746397
0.0074423
0.00742034
0.00739809
0.00737557
0.0073528
0.00732976
0.00730648
0.00728301
0.00725939
0.00723564
0.00721179
0.00718786
0.00716389
0.0071399
0.00711593
0.007092
0.00706802
0.00704398
0.0070203
0.00699697
0.00697383
0.00695094
0.0069283
0.00690594
0.00688393
0.00686242
0.00684147
0.00682103
0.00680109
0.00678166
0.00676276
0.0067444
0.00672652
0.0067091
0.00669207
0.00667538
0.00665896
0.00664275
0.00662667
0.00661066
0.00659462
0.0065785
0.00656225
0.00654587
0.0065294
0.00651289
0.0064964
0.00647996
0.0064636
0.00644733
0.00643114
0.00641504
0.00639903
0.00638311
0.00636727
0.00635151
0.00633583
0.00632022
0.00630466
0.00628906
0.00627322
0.00625669
0.00623888
0.00622016
0.00620087
0.00618124
0.00616134
0.00614141
0.00612175
0.00610252
0.00608391
0.00606599
0.00604877
0.00603228
0.00601641
0.00600075
0.00598459
0.00596585
0.00594699
0.00592799
0.00590567
0.00587581
0.00583105
0.00576063
0.00564542
5.11927e-05
0.000324689
0.000746387
0.00113919
0.00150956
0.00184391
0.00214293
0.00240912
0.00264585
0.0028543
0.00304215
0.00321249
0.00337071
0.00351966
0.00366304
0.00380454
0.00394891
0.0041015
0.00426776
0.00445188
0.00465588
0.00487863
0.00511407
0.00535095
0.0055879
0.0058445
0.0061307
0.0064511
0.00680825
0.00719536
0.00759952
0.00800777
0.00840491
0.00877423
0.00910288
0.00938294
0.00961196
0.00979213
0.00992872
0.0100285
0.0100985
0.0101453
0.0101742
0.0101897
0.0101952
0.0101933
0.0101858
0.010174
0.0101589
0.0101409
0.0101205
0.0100981
0.010074
0.0100488
0.0100229
0.00999643
0.00996953
0.00994243
0.00991559
0.00988906
0.00986278
0.00983672
0.00981087
0.00978523
0.00975977
0.00973447
0.00970928
0.00968417
0.00965917
0.00963443
0.00960977
0.00958395
0.00955735
0.00953148
0.00950556
0.00947945
0.0094531
0.0094265
0.00939961
0.0093724
0.00934487
0.00931696
0.00928868
0.00926
0.00923087
0.00920119
0.00917108
0.00914063
0.0091099
0.00907889
0.00904757
0.00901594
0.008984
0.00895173
0.00891919
0.00888644
0.00885351
0.00882041
0.00878717
0.0087538
0.0087203
0.00868671
0.00865313
0.00861958
0.0085861
0.00855271
0.00851945
0.00848636
0.00845347
0.00842083
0.00838844
0.0083563
0.00832447
0.00829307
0.00826216
0.00823175
0.00820183
0.00817231
0.00814325
0.0081149
0.00808763
0.00806109
0.00803516
0.00800988
0.00798531
0.00796154
0.00793847
0.00791603
0.00789415
0.00787276
0.00785179
0.00783119
0.00781088
0.00779079
0.00777082
0.00775091
0.00773102
0.00771111
0.00769119
0.00767127
0.00765138
0.00763154
0.00761178
0.0075921
0.00757252
0.00755306
0.00753373
0.00751455
0.00749555
0.00747676
0.00745818
0.00743984
0.00742173
0.0074038
0.00738596
0.00736797
0.00734953
0.00733037
0.00731063
0.00729049
0.00727015
0.00724971
0.00722939
0.00720939
0.00718986
0.00717093
0.00715267
0.00713509
0.00711816
0.00710171
0.00708531
0.00706793
0.00704758
0.00702693
0.00700545
0.00697979
0.00694552
0.00689622
0.00682178
0.00670781
5.14299e-05
0.000330746
0.00076794
0.00118
0.00157945
0.0019359
0.00225583
0.00253522
0.0027785
0.00298822
0.00317059
0.00332865
0.0034691
0.00359587
0.00371485
0.00383282
0.00395852
0.00410018
0.00426507
0.00445816
0.00467967
0.00492444
0.00518102
0.00543159
0.00567955
0.00595764
0.00628274
0.00666635
0.00711762
0.00763702
0.00820973
0.00881335
0.00941392
0.00998659
0.0105068
0.0109558
0.0113251
0.0116158
0.0118353
0.0119945
0.0121051
0.0121781
0.0122227
0.0122462
0.0122545
0.0122515
0.0122403
0.012223
0.0122011
0.0121754
0.0121467
0.0121157
0.0120826
0.0120485
0.012014
0.0119796
0.011944
0.0119068
0.0118704
0.0118347
0.0117991
0.0117636
0.0117282
0.0116927
0.0116572
0.0116217
0.011586
0.0115502
0.0115143
0.0114781
0.0114416
0.0114046
0.0113673
0.0113298
0.011292
0.0112538
0.0112152
0.0111762
0.0111368
0.0110969
0.0110565
0.0110157
0.0109744
0.0109327
0.0108905
0.0108478
0.0108048
0.0107614
0.0107178
0.0106739
0.0106297
0.0105852
0.0105405
0.0104955
0.0104505
0.0104054
0.0103602
0.010315
0.0102698
0.0102246
0.0101795
0.0101345
0.0100897
0.0100452
0.010001
0.00995702
0.00991344
0.00987027
0.00982755
0.00978532
0.00974363
0.00970248
0.00966191
0.00962199
0.00958277
0.00954431
0.0095066
0.00946963
0.00943344
0.00939816
0.00936394
0.00933068
0.0092982
0.00926655
0.00923594
0.00920652
0.00917783
0.00914986
0.00912252
0.00909574
0.0090695
0.00904376
0.0090184
0.00899331
0.00896843
0.0089437
0.00891907
0.00889452
0.00887003
0.00884563
0.0088213
0.00879707
0.00877295
0.00874894
0.00872508
0.0087014
0.00867792
0.00865471
0.00863182
0.00860928
0.00858713
0.0085654
0.00854407
0.00852308
0.00850231
0.00848157
0.00846065
0.00843939
0.00841785
0.00839615
0.00837441
0.00835279
0.00833146
0.00831058
0.00829027
0.0082706
0.00825161
0.00823329
0.00821557
0.00819822
0.00818068
0.00816146
0.00813971
0.00811769
0.00809359
0.00806433
0.00802558
0.0079717
0.0078935
0.00778006
5.13217e-05
0.000334617
0.000780372
0.00119861
0.00161055
0.00197531
0.00230312
0.00258464
0.00282545
0.0030275
0.00319535
0.00333079
0.00344338
0.00354025
0.00363009
0.00372193
0.00382717
0.00395638
0.00411715
0.00431095
0.00453186
0.00477024
0.00501349
0.0052469
0.00547569
0.00574527
0.00608009
0.00649806
0.00702055
0.00765626
0.00839337
0.00921608
0.0100816
0.0109313
0.0117168
0.0124066
0.0129796
0.0134321
0.0137732
0.0140194
0.0141894
0.0143008
0.0143686
0.0144048
0.0144183
0.0144155
0.0144013
0.0143787
0.01435
0.0143166
0.0142796
0.0142397
0.0141966
0.0141515
0.0141071
0.0140623
0.0140169
0.0139713
0.0139257
0.0138801
0.0138343
0.0137884
0.0137422
0.0136959
0.0136493
0.0136024
0.0135552
0.0135076
0.0134596
0.0134112
0.0133623
0.0133129
0.013263
0.0132127
0.0131618
0.0131104
0.0130584
0.013006
0.012953
0.0128995
0.0128454
0.0127908
0.0127357
0.0126802
0.0126242
0.0125679
0.0125112
0.0124542
0.012397
0.0123395
0.0122819
0.0122241
0.0121661
0.0121082
0.0120502
0.0119922
0.0119344
0.0118766
0.011819
0.0117616
0.0117045
0.0116477
0.0115913
0.0115353
0.0114798
0.0114249
0.0113705
0.0113168
0.0112637
0.0112114
0.0111599
0.0111092
0.0110594
0.0110104
0.0109624
0.0109154
0.0108694
0.0108244
0.0107804
0.0107375
0.0106958
0.0106553
0.0106157
0.0105772
0.0105399
0.0105036
0.0104683
0.0104339
0.0104001
0.0103669
0.0103345
0.0103028
0.0102715
0.0102404
0.0102097
0.0101792
0.0101489
0.0101187
0.0100887
0.0100588
0.0100291
0.00999948
0.00997007
0.00994084
0.00991183
0.00988308
0.00985465
0.00982665
0.00979915
0.00977219
0.00974581
0.00972003
0.00969482
0.00967011
0.00964579
0.00962171
0.00959769
0.00957365
0.00954959
0.00952561
0.00950179
0.00947828
0.0094553
0.00943296
0.00941129
0.00939032
0.00937008
0.00935053
0.00933152
0.00931277
0.00929361
0.00927242
0.00924938
0.00922536
0.00919812
0.00916478
0.0091214
0.00906271
0.00898053
0.00886632
5.10649e-05
0.000335563
0.000776041
0.00119094
0.00160392
0.00196624
0.00229142
0.00256609
0.0027959
0.00298252
0.00312916
0.00324038
0.00332993
0.00340623
0.00348068
0.00356323
0.00366444
0.00379215
0.00394796
0.00412459
0.00430924
0.00449001
0.00466174
0.00482769
0.00500269
0.00522898
0.00553386
0.00594324
0.00648782
0.00719968
0.00808254
0.00912524
0.0102702
0.0114585
0.0125975
0.0136109
0.0144649
0.0151436
0.0156557
0.0160241
0.0162772
0.0164425
0.0165432
0.0165978
0.01662
0.0166198
0.0166038
0.016577
0.0165424
0.0165018
0.016455
0.0164034
0.0163512
0.0162983
0.016245
0.016191
0.0161365
0.0160816
0.0160264
0.0159707
0.0159147
0.0158583
0.0158015
0.0157442
0.0156865
0.0156282
0.0155694
0.01551
0.01545
0.0153893
0.0153281
0.0152661
0.0152036
0.0151403
0.0150765
0.015012
0.0149468
0.0148811
0.0148148
0.0147478
0.0146804
0.0146123
0.0145438
0.0144748
0.0144054
0.0143357
0.0142656
0.0141954
0.0141249
0.0140543
0.0139837
0.0139129
0.0138422
0.0137715
0.0137009
0.0136304
0.0135602
0.0134902
0.0134205
0.0133511
0.0132823
0.0132139
0.013146
0.0130787
0.0130121
0.0129462
0.012881
0.0128168
0.0127534
0.012691
0.0126296
0.0125693
0.01251
0.0124518
0.0123948
0.012339
0.0122844
0.012231
0.0121788
0.0121279
0.0120783
0.01203
0.0119829
0.0119369
0.0118921
0.0118484
0.0118058
0.0117642
0.0117233
0.0116832
0.0116439
0.0116052
0.0115669
0.0115292
0.0114917
0.0114546
0.0114177
0.0113811
0.0113447
0.0113085
0.0112725
0.0112367
0.0112012
0.0111659
0.0111309
0.0110963
0.0110622
0.0110288
0.0109962
0.0109642
0.0109329
0.0109024
0.0108727
0.0108436
0.010815
0.0107869
0.0107592
0.0107316
0.0107044
0.0106774
0.0106507
0.0106246
0.0105994
0.010575
0.0105513
0.0105285
0.0105064
0.0104851
0.0104643
0.0104436
0.0104224
0.0103991
0.0103744
0.0103477
0.0103168
0.0102792
0.010231
0.0101673
0.0100808
0.00996426
5.0566e-05
0.000331126
0.00076042
0.00116376
0.00156273
0.0019113
0.00222495
0.00248588
0.00270083
0.00286615
0.00299359
0.00309271
0.00317964
0.00326035
0.00334311
0.00343508
0.0035434
0.00366834
0.00380131
0.00392579
0.00402855
0.0041054
0.00416233
0.00422113
0.00430877
0.00445399
0.00468473
0.0050317
0.00554398
0.00627965
0.00725574
0.00847697
0.00990372
0.011456
0.0130108
0.0144459
0.0156681
0.0166495
0.0173921
0.0179253
0.0182901
0.0185274
0.0186724
0.0187524
0.0187877
0.0187927
0.0187771
0.0187475
0.0187079
0.0186592
0.018603
0.0185449
0.0184857
0.0184254
0.0183643
0.0183023
0.0182396
0.0181762
0.0181123
0.0180477
0.0179825
0.0179167
0.0178502
0.0177831
0.0177153
0.0176467
0.0175774
0.0175074
0.0174365
0.0173649
0.0172924
0.0172192
0.0171452
0.0170704
0.0169949
0.0169186
0.0168417
0.016764
0.0166858
0.0166069
0.0165274
0.0164474
0.0163668
0.0162857
0.0162043
0.0161225
0.0160405
0.0159583
0.015876
0.0157936
0.0157112
0.0156287
0.0155464
0.0154641
0.0153821
0.0153003
0.0152187
0.0151375
0.0150567
0.0149764
0.0148966
0.0148173
0.0147387
0.0146608
0.0145837
0.0145075
0.0144322
0.014358
0.0142848
0.0142127
0.0141419
0.0140722
0.0140038
0.0139367
0.0138708
0.0138063
0.0137431
0.0136813
0.0136208
0.0135618
0.0135041
0.0134478
0.0133927
0.0133389
0.0132863
0.0132349
0.0131845
0.0131352
0.0130868
0.0130391
0.0129923
0.0129461
0.0129004
0.0128553
0.0128106
0.0127662
0.0127222
0.0126784
0.012635
0.0125918
0.012549
0.0125065
0.0124643
0.0124225
0.0123812
0.0123404
0.0123002
0.0122608
0.0122223
0.0121846
0.0121479
0.0121121
0.0120772
0.0120431
0.0120098
0.0119771
0.011945
0.0119134
0.0118822
0.0118517
0.0118215
0.0117921
0.0117641
0.0117371
0.0117109
0.0116856
0.0116611
0.0116374
0.0116143
0.0115911
0.0115673
0.0115419
0.0115148