/*--------------------------------*- C++ -*----------------------------------*\
| =========                 |                                                 |
| \\      /  F ield         | OpenFOAM: The Open Source CFD Toolbox           |
|  \\    /   O peration     | Version:  v1906                                 |
|   \\  /    A nd           | Web:      www.OpenFOAM.com                      |
|    \\/     M anipulation  |                                                 |
\*---------------------------------------------------------------------------*/
FoamFile
{
    version     2.0;
    format      ascii;
    class       volScalarField;
    location    "200";
    object      p;
}
// * * * * * * * * * * * * * * * * * * * * * * * * * * * * * * * * * * * * * //

dimensions      [0 2 -2 0 0 0 0];


internalField   nonuniform List<scalar> 
12225
(
0.532335
-0.673893
-0.734764
-0.756607
-0.914579
-1.08133
-1.223
-1.36101
-1.50484
-1.65485
-1.8125
-1.98368
-2.1756
-2.39831
-2.65962
-2.98782
-3.43838
-4.15671
-1.22732
-1.74628
-1.91486
-1.91747
-1.9953
-2.08912
-2.17337
-2.26618
-2.37364
-2.49348
-2.62635
-2.77554
-2.94801
-3.14967
-3.39464
-3.702
-4.11125
-4.65464
-0.64228
-1.42656
-1.57719
-1.56249
-1.61809
-1.69634
-1.77333
-1.86003
-1.96042
-2.07286
-2.19818
-2.33934
-2.50235
-2.69217
-2.92032
-3.19314
-3.52919
-3.88242
-1.29641
-1.76698
-1.99639
-2.08779
-2.20346
-2.31681
-2.41512
-2.51393
-2.62106
-2.73755
-2.8655
-3.00847
-3.1713
-3.35853
-3.5782
-3.83358
-4.11954
-4.40912
-1.10488
-1.5674
-1.79438
-1.87195
-1.95686
-2.04052
-2.11737
-2.1994
-2.29142
-2.39372
-2.5074
-2.63487
-2.77895
-2.94289
-3.12631
-3.33379
-3.54545
-3.7358
-1.4803
-1.78574
-2.0036
-2.12336
-2.24991
-2.37144
-2.48264
-2.59301
-2.70769
-2.8285
-2.95755
-3.09763
-3.25126
-3.42146
-3.60686
-3.80366
-3.99392
-4.16463
-1.41337
-1.66483
-1.87667
-1.9914
-2.10005
-2.19853
-2.28783
-2.37723
-2.4713
-2.57162
-2.67954
-2.79655
-2.9233
-3.05985
-3.20436
-3.35342
-3.48478
-3.58357
-1.65109
-1.83781
-2.02382
-2.14749
-2.27374
-2.39388
-2.50754
-2.6205
-2.73585
-2.85514
-2.9798
-3.11121
-3.25033
-3.39599
-3.544
-3.68935
-3.81895
-3.92551
-1.63528
-1.76585
-1.93795
-2.05492
-2.16867
-2.2724
-2.36857
-2.4628
-2.55813
-2.65608
-2.75753
-2.86288
-2.97172
-3.08361
-3.19412
-3.29868
-3.38174
-3.43649
-1.79243
-1.90476
-2.05473
-2.16945
-2.28877
-2.40318
-2.51375
-2.62352
-2.73411
-2.84657
-2.96157
-3.07937
-3.19853
-3.31731
-3.43208
-3.53869
-3.63013
-3.70451
-1.79676
-1.86539
-1.99549
-2.09934
-2.20594
-2.30615
-2.40167
-2.495
-2.58751
-2.67994
-2.77232
-2.86484
-2.95663
-3.04602
-3.12944
-3.20297
-3.25822
-3.29154
-1.89384
-1.9624
-2.07998
-2.18057
-2.28837
-2.39339
-2.49625
-2.59795
-2.69901
-2.79991
-2.90043
-2.99972
-3.0967
-3.18956
-3.27558
-3.35167
-3.41653
-3.46737
-1.90387
-1.9454
-2.04499
-2.1345
-2.22971
-2.32163
-2.41068
-2.49764
-2.5829
-2.66674
-2.74917
-2.82977
-2.9074
-2.98043
-3.04631
-3.10332
-3.14789
-3.18153
-1.97852
-2.02392
-2.11269
-2.19775
-2.29166
-2.38655
-2.48117
-2.57491
-2.66707
-2.75695
-2.84382
-2.92662
-3.00417
-3.0749
-3.13797
-3.19139
-3.23542
-3.26623
-1.98905
-2.01492
-2.08566
-2.15809
-2.23682
-2.31545
-2.39241
-2.46739
-2.54007
-2.6104
-2.67796
-2.74201
-2.80182
-2.85685
-2.90657
-2.94967
-2.98741
-3.01774
-2.03706
-2.06571
-2.12744
-2.19398
-2.2683
-2.34571
-2.42341
-2.49979
-2.57339
-2.64307
-2.70731
-2.76493
-2.81559
-2.85867
-2.89345
-2.91932
-2.93618
-2.94415
-2.04067
-2.06177
-2.11188
-2.1691
-2.23214
-2.29736
-2.36215
-2.42536
-2.4863
-2.54437
-2.59872
-2.6492
-2.69625
-2.73935
-2.77905
-2.81421
-2.84832
-2.87593
-2.02066
-2.03572
-2.07434
-2.1204
-2.17113
-2.22357
-2.2746
-2.32228
-2.36513
-2.40176
-2.43103
-2.45254
-2.46624
-2.47221
-2.47033
-2.46195
-2.44647
-2.42856
-2.02428
-2.05177
-2.10275
-2.16005
-2.22217
-2.28683
-2.3515
-2.41485
-2.47624
-2.53484
-2.59027
-2.64254
-2.69172
-2.73727
-2.78003
-2.81837
-2.85568
-2.88487
-1.85985
-1.86613
-1.89652
-1.93176
-1.96693
-1.99922
-2.02577
-2.04547
-2.05748
-2.06159
-2.05739
-2.04519
-2.02502
-1.9978
-1.96332
-1.92427
-1.88055
-1.83954
-1.86595
-1.90992
-1.97879
-2.04572
-2.11344
-2.18005
-2.24304
-2.30172
-2.35594
-2.40549
-2.45055
-2.49162
-2.52967
-2.56482
-2.59891
-2.63098
-2.66582
-2.69546
-1.66632
-1.68372
-1.74156
-1.79161
-1.83401
-1.8674
-1.88992
-1.90232
-1.9056
-1.90047
-1.8874
-1.86666
-1.83847
-1.80294
-1.75909
-1.70768
-1.64544
-1.57951
-1.68232
-1.76188
-1.86867
-1.95503
-2.03605
-2.11151
-2.17823
-2.23666
-2.28777
-2.33205
-2.37016
-2.403
-2.43189
-2.45788
-2.48419
-2.51277
-2.55156
-2.5967
-1.41161
-1.48394
-1.59903
-1.66785
-1.71504
-1.74677
-1.76261
-1.76655
-1.76219
-1.75112
-1.73403
-1.71151
-1.6837
-1.65046
-1.6102
-1.56157
-1.49602
-1.41326
-1.47001
-1.62609
-1.78792
-1.89275
-1.98489
-2.06777
-2.13434
-2.18708
-2.2297
-2.26365
-2.28996
-2.30988
-2.32486
-2.33617
-2.34637
-2.35837
-2.38391
-2.43052
-1.0527
-1.29229
-1.47094
-1.52841
-1.55632
-1.57339
-1.57526
-1.56805
-1.55727
-1.54347
-1.52615
-1.50551
-1.48181
-1.45511
-1.42468
-1.38953
-1.33948
-1.26224
-1.24231
-1.54031
-1.76204
-1.86442
-1.95244
-2.02827
-2.07703
-2.10765
-2.12899
-2.14322
-2.15106
-2.15372
-2.15252
-2.14807
-2.1415
-2.13413
-2.13569
-2.16271
-0.504317
-1.10612
-1.26195
-1.22905
-1.21832
-1.22771
-1.22839
-1.22435
-1.22124
-1.21704
-1.20964
-1.19913
-1.18591
-1.17005
-1.15159
-1.13112
-1.10298
-1.05238
-1.12891
-1.51184
-1.72713
-1.72673
-1.75031
-1.77893
-1.78853
-1.79126
-1.79486
-1.79764
-1.79751
-1.79449
-1.78906
-1.78123
-1.77105
-1.75896
-1.74997
-1.75885
0.743019
-0.374397
-0.436241
-0.403135
-0.485753
-0.584384
-0.652801
-0.703765
-0.747813
-0.78447
-0.812681
-0.83353
-0.848334
-0.857686
-0.86198
-0.861286
-0.854506
-0.84033
-2.5874
-2.70751
-2.71257
-2.67433
-2.6823
-2.7751
-2.93438
-3.12889
-3.34538
-3.5807
-3.82563
-4.07154
-4.30828
-4.52802
-4.72261
-4.88716
-5.01542
-5.10419
-5.14993
-5.15475
-5.11792
-5.03403
-4.88995
-4.68724
-4.43485
-4.13992
-3.80703
-3.44252
-3.05133
-2.63813
-2.20352
-1.74994
-1.28175
-0.803642
-0.3198
0.16647
0.652738
1.13618
1.61438
2.08524
2.54668
2.99726
3.43545
3.86042
4.27113
4.66729
5.04824
5.41408
5.76453
6.10013
6.42089
6.72703
7.02002
7.3056
7.58601
7.85824
8.12039
8.37232
8.61399
8.84596
9.0686
9.28264
9.48861
9.68724
9.87899
10.0645
10.2442
10.4185
10.5878
10.7525
10.9129
11.0692
11.2218
11.3708
11.5164
11.6589
11.7983
11.9348
12.0685
12.1997
12.3283
12.4547
12.5787
12.7007
12.8205
12.9384
13.0544
13.1686
13.281
13.3918
13.5011
13.6088
13.715
13.8196
13.9229
14.0247
14.1251
14.2241
14.3218
14.4182
14.5132
14.6068
14.6991
14.7901
14.8796
14.9677
15.0545
15.1398
15.2238
15.3063
15.3873
15.4668
15.5448
15.6214
15.6963
15.7698
15.8416
15.9119
15.9805
16.0476
16.1131
16.1769
16.239
16.2995
16.3584
16.4156
16.4711
16.5249
16.5771
16.6276
16.6765
16.7236
16.769
16.8128
16.8549
16.8953
16.9342
16.9715
17.0073
17.0417
17.0748
17.1065
17.137
17.1662
17.1942
17.221
17.2466
17.2712
17.2946
17.3169
17.3383
17.3586
17.378
17.3965
17.4141
17.4308
17.4467
17.4619
17.4764
17.4902
17.5036
17.5165
17.5292
17.5419
17.5549
17.5682
17.5823
17.5977
17.6152
17.6358
17.6602
17.6895
17.7259
17.7719
17.8332
17.9153
18.0365
18.2047
18.5034
18.8646
-2.5238
-2.89382
-3.01005
-3.0594
-3.10082
-3.25484
-3.47411
-3.75501
-4.08064
-4.43739
-4.80634
-5.17131
-5.51751
-5.83443
-6.11307
-6.34778
-6.53312
-6.66663
-6.74524
-6.76661
-6.726
-6.62813
-6.48881
-6.31875
-6.11234
-5.86785
-5.58438
-5.26396
-4.9088
-4.52169
-4.1049
-3.66304
-3.2017
-2.72614
-2.23998
-1.74732
-1.25093
-0.75321
-0.257099
0.234969
0.720655
1.19818
1.66586
2.12252
2.56705
2.99886
3.41735
3.82237
4.21374
4.59176
4.95628
5.30755
5.64752
5.96827
6.26439
6.54423
6.81162
7.06932
7.31845
7.55963
7.79312
8.01931
8.23848
8.45103
8.65726
8.85757
9.05225
9.24168
9.4261
9.60586
9.78116
9.95232
10.1195
10.283
10.4428
10.5993
10.7525
10.9027
11.0498
11.1941
11.3358
11.4748
11.6114
11.7457
11.8777
12.0075
12.1351
12.2607
12.3844
12.5061
12.6261
12.7442
12.8606
12.9752
13.0881
13.1994
13.309
13.417
13.5234
13.6282
13.7314
13.833
13.933
14.0314
14.1283
14.2235
14.3171
14.4091
14.4995
14.5882
14.6753
14.7608
14.8446
14.9267
15.0071
15.0859
15.1629
15.2382
15.3119
15.3838
15.454
15.5224
15.5892
15.6541
15.7173
15.7788
15.8385
15.8965
15.9527
16.0072
16.06
16.1111
16.1605
16.2083
16.2544
16.2989
16.3419
16.3833
16.4233
16.4618
16.4989
16.5348
16.5693
16.6025
16.6344
16.6652
16.6948
16.7232
16.7504
16.7765
16.8016
16.8256
16.8486
16.8706
16.8916
16.9117
16.9309
16.9492
16.9668
16.9837
17
17.0158
17.0311
17.0462
17.0613
17.0768
17.0928
17.11
17.1283
17.1488
17.1727
17.2016
17.2373
17.2816
17.3395
17.4139
17.5214
17.6585
17.9043
18.1894
-2.21241
-2.84588
-3.09382
-3.38903
-3.56664
-3.78978
-4.0066
-4.24588
-4.49141
-4.74134
-4.98623
-5.22271
-5.44621
-5.6544
-5.8433
-6.00988
-6.14901
-6.25688
-6.32881
-6.3616
-6.35091
-6.29559
-6.19343
-6.03993
-5.83421
-5.58166
-5.28564
-4.95091
-4.58175
-4.18237
-3.75595
-3.30715
-2.8417
-2.36336
-1.87471
-1.38048
-0.88474
-0.389746
0.101794
0.587352
1.06479
1.53233
1.98847
2.4321
2.86233
3.27862
3.68053
4.06792
4.44067
4.79894
5.14294
5.47275
5.78817
6.09142
6.38289
6.66352
6.93515
7.19843
7.45303
7.69926
7.93734
8.16764
8.39046
8.60623
8.8153
9.01807
9.21488
9.40613
9.59211
9.77317
9.94959
10.1216
10.2896
10.4536
10.6139
10.7707
10.9241
11.0744
11.2215
11.3659
11.5074
11.6463
11.7828
11.9168
12.0485
12.1779
12.3053
12.4305
12.5538
12.6752
12.7947
12.9125
13.0285
13.1428
13.2553
13.3663
13.4755
13.5832
13.6893
13.7937
13.8966
13.9979
14.0976
14.1957
14.2922
14.3871
14.4804
14.572
14.6621
14.7505
14.8373
14.9225
15.006
15.0878
15.168
15.2464
15.3232
15.3983
15.4716
15.5433
15.6132
15.6814
15.7479
15.8126
15.8756
15.9368
15.9964
16.0542
16.1103
16.1646
16.2172
16.268
16.3171
16.3644
16.4101
16.454
16.4964
16.5372
16.5765
16.6145
16.6512
16.6866
16.7207
16.7537
16.7853
16.8158
16.8452
16.8733
16.9003
16.9262
16.951
16.9748
16.9976
17.0194
17.0404
17.0606
17.08
17.0986
17.1165
17.1338
17.1506
17.1669
17.183
17.199
17.2149
17.231
17.2477
17.2657
17.2857
17.3082
17.3338
17.3636
17.3996
17.4437
17.501
17.573
17.6755
17.7998
18.0064
18.1831
-2.28194
-3.1659
-3.47437
-3.89904
-4.16279
-4.48341
-4.76881
-5.07048
-5.36391
-5.66343
-5.96444
-6.26711
-6.56289
-6.84503
-7.10327
-7.32967
-7.51559
-7.65574
-7.74481
-7.78064
-7.76148
-7.68883
-7.56297
-7.38438
-7.15727
-6.88398
-6.56724
-6.21104
-5.81929
-5.39658
-4.94709
-4.47569
-3.98668
-3.48406
-2.9722
-2.4547
-1.93517
-1.41687
-0.90253
-0.394674
0.104571
0.593432
1.07034
1.53404
1.98348
2.41816
2.83775
3.2422
3.63142
4.00557
4.36479
4.70989
5.04162
5.35963
5.66416
5.95626
6.23683
6.50707
6.76759
7.01903
7.26192
7.49679
7.7241
7.94435
8.15793
8.36526
8.56672
8.76266
8.95342
9.1393
9.32059
9.49754
9.6704
9.83937
10.0046
10.1664
10.3248
10.48
10.6321
10.7814
10.9278
11.0716
11.2128
11.3516
11.488
11.6221
11.754
11.8837
12.0113
12.137
12.2608
12.3827
12.5027
12.6209
12.7373
12.852
12.9649
13.0761
13.1856
13.2935
13.3996
13.5041
13.6069
13.7081
13.8076
13.9054
14.0015
14.0959
14.1887
14.2797
14.3691
14.4567
14.5425
14.6266
14.709
14.7896
14.8684
14.9455
15.0208
15.0944
15.1661
15.2361
15.3043
15.3707
15.4353
15.4981
15.5592
15.6184
15.676
15.7318
15.7859
15.8383
15.8891
15.9382
15.9856
16.0314
16.0756
16.1183
16.1594
16.199
16.2372
16.274
16.3094
16.3436
16.3765
16.4082
16.4387
16.468
16.4961
16.5231
16.549
16.5737
16.5973
16.6198
16.6412
16.6616
16.681
16.6996
16.7173
16.7344
16.7508
16.7667
16.7822
16.7975
16.8129
16.8285
16.8445
16.8611
16.8787
16.8987
16.9224
16.9504
16.9843
17.0252
17.0778
17.1415
17.231
17.3313
17.4928
17.6213
-2.88952
-3.87852
-4.14562
-4.6019
-4.84172
-5.16159
-5.41506
-5.6901
-5.94712
-6.2117
-6.46974
-6.72397
-6.96456
-7.18765
-7.38436
-7.55081
-7.68065
-7.77069
-7.81607
-7.81467
-7.76292
-7.65905
-7.50452
-7.30196
-7.05135
-6.755
-6.41561
-6.03742
-5.62493
-5.18304
-4.71562
-4.22764
-3.72401
-3.20895
-2.68618
-2.16004
-1.63421
-1.11131
-0.594411
-0.0859213
0.412071
0.897883
1.36989
1.82688
2.26849
2.69503
3.10639
3.50252
3.88341
4.24935
4.60073
4.93825
5.26255
5.57465
5.87517
6.16498
6.4446
6.71459
6.97532
7.22724
7.47074
7.70627
7.93422
8.15504
8.36911
8.57683
8.77855
8.97464
9.16541
9.35119
9.53225
9.70888
9.88132
10.0498
10.2145
10.3755
10.533
10.6875
10.8388
10.9872
11.1328
11.2757
11.416
11.5539
11.6894
11.8226
11.9537
12.0826
12.2095
12.3345
12.4576
12.5789
12.6983
12.816
12.9319
13.046
13.1585
13.2693
13.3784
13.4858
13.5915
13.6956
13.798
13.8987
13.9978
14.0951
14.1908
14.2848
14.3771
14.4677
14.5566
14.6438
14.7292
14.8129
14.8949
14.9752
15.0536
15.1304
15.2053
15.2785
15.35
15.4196
15.4875
15.5536
15.618
15.6806
15.7414
15.8005
15.8579
15.9134
15.9672
16.0192
16.0695
16.118
16.1648
16.21
16.2535
16.2956
16.3362
16.3754
16.4133
16.4499
16.4852
16.5193
16.5522
16.5838
16.6143
16.6437
16.6718
16.6989
16.725
16.75
16.7741
16.7974
16.8197
16.8412
16.8619
16.8818
16.9009
16.9193
16.937
16.9542
16.9708
16.9872
17.0035
17.0202
17.0375
17.0559
17.0756
17.0966
17.1202
17.1472
17.1797
17.2183
17.2676
17.3254
17.4056
17.4853
17.6141
17.6427
-3.74389
-4.74738
-4.95273
-5.42824
-5.64058
-5.98106
-6.24133
-6.55203
-6.84215
-7.14993
-7.44633
-7.73759
-8.00687
-8.25274
-8.46646
-8.64577
-8.7839
-8.87918
-8.92672
-8.92495
-8.87156
-8.7652
-8.60031
-8.37939
-8.10417
-7.77899
-7.40832
-6.99794
-6.55298
-6.07922
-5.58173
-5.06538
-4.5346
-3.99374
-3.44666
-2.8975
-2.34973
-1.80654
-1.27093
-0.745046
-0.230438
0.271411
0.758965
1.23115
1.68711
2.12658
2.54954
2.95625
3.34699
3.72227
4.08255
4.42852
4.76073
5.07982
5.38644
5.68134
5.96508
6.23833
6.50172
6.75591
7.00145
7.23891
7.46877
7.69151
7.90756
8.11732
8.32118
8.51948
8.71255
8.90069
9.08416
9.26322
9.43807
9.60896
9.77615
9.93992
10.1003
10.2575
10.4116
10.5627
10.7109
10.8564
10.9994
11.1399
11.2779
11.4137
11.5472
11.6785
11.8077
11.935
12.0603
12.1837
12.3053
12.425
12.5429
12.659
12.7733
12.886
12.9969
13.1061
13.2136
13.3193
13.4234
13.5258
13.6264
13.7253
13.8225
13.918
14.0117
14.1037
14.1939
14.2823
14.3689
14.4537
14.5367
14.6179
14.6973
14.7749
14.8507
14.9247
14.997
15.0674
15.136
15.2028
15.2678
15.331
15.3924
15.4521
15.5101
15.5664
15.6209
15.6737
15.7249
15.7743
15.8221
15.8682
15.9126
15.9554
15.9966
16.0364
16.0746
16.1114
16.1469
16.181
16.2139
16.2456
16.276
16.3052
16.3333
16.3601
16.3857
16.4102
16.4335
16.4556
16.4766
16.4966
16.5156
16.5339
16.5513
16.5682
16.5844
16.6002
16.6156
16.6308
16.6458
16.6609
16.6762
16.6925
16.7102
16.7301
16.7528
16.7789
16.8098
16.8459
16.8914
16.943
17.0137
17.0797
17.1853
17.2067
-4.64389
-5.62127
-5.76203
-6.23807
-6.40314
-6.74202
-6.97465
-7.27778
-7.54172
-7.82384
-8.07756
-8.32132
-8.53679
-8.73067
-8.89332
-9.0269
-9.12615
-9.18953
-9.20971
-9.18378
-9.10499
-8.97119
-8.78135
-8.53611
-8.23647
-7.88628
-7.49056
-7.05588
-6.58771
-6.09192
-5.57443
-5.04064
-4.49462
-3.94044
-3.38196
-2.82236
-2.26442
-1.71153
-1.16726
-0.634319
-0.114825
0.38968
0.877966
1.34941
1.80367
2.24085
2.66109
3.06483
3.45252
3.8248
4.1823
4.52581
4.85604
5.17379
5.4797
5.77445
6.05863
6.33291
6.59781
6.85386
7.10151
7.34124
7.57346
7.79859
8.017
8.22908
8.43516
8.6356
8.83068
9.02072
9.20597
9.38669
9.56311
9.73547
9.90407
10.0692
10.2309
10.3892
10.5444
10.6965
10.8457
10.9921
11.136
11.2772
11.4161
11.5525
11.6869
11.8191
11.9492
12.0773
12.2035
12.3277
12.45
12.5705
12.689
12.8058
12.9207
13.0339
13.1453
13.255
13.3629
13.4689
13.5733
13.6759
13.7767
13.8757
13.973
14.0685
14.1623
14.2542
14.3444
14.4328
14.5195
14.6043
14.6874
14.7687
14.8482
14.9259
15.0018
15.0759
15.1482
15.2187
15.2874
15.3544
15.4195
15.4829
15.5445
15.6043
15.6623
15.7186
15.7731
15.8258
15.8768
15.926
15.9736
16.0196
16.064
16.1069
16.1484
16.1885
16.2273
16.2648
16.301
16.336
16.3697
16.4023
16.4336
16.4638
16.4929
16.5208
16.5478
16.5738
16.5988
16.6229
16.6461
16.6685
16.6899
16.7104
16.7299
16.7487
16.7666
16.7838
16.8005
16.8167
16.8328
16.8489
16.8651
16.8816
16.8988
16.9172
16.9376
16.9604
16.9871
17.0174
17.0549
17.0945
17.148
17.1865
17.254
17.2161
-5.52611
-6.45541
-6.54593
-7.0279
-7.16223
-7.51662
-7.73932
-8.05747
-8.32054
-8.61341
-8.87219
-9.12918
-9.35612
-9.56613
-9.74678
-9.90212
-10.0228
-10.1078
-10.1497
-10.1436
-10.079
-9.95076
-9.75484
-9.49162
-9.16397
-8.77838
-8.34326
-7.86803
-7.36084
-6.83021
-6.28278
-5.72292
-5.15306
-4.57526
-3.99271
-3.40947
-2.82945
-2.25631
-1.69343
-1.14349
-0.608656
-0.0904046
0.410157
0.892522
1.35644
1.80214
2.22996
2.64053
3.03444
3.4125
3.77539
4.12393
4.45881
4.78078
5.09049
5.3887
5.67608
5.95329
6.22091
6.47952
6.72963
6.97175
7.20633
7.43381
7.65459
7.86905
8.07755
8.28041
8.47795
8.67046
8.85821
9.04145
9.22043
9.3954
9.56655
9.73399
9.89787
10.0584
10.2157
10.37
10.5214
10.67
10.8158
10.9591
11.0999
11.2383
11.3744
11.5084
11.6402
11.7699
11.8976
12.0232
12.1468
12.2686
12.3885
12.5066
12.6228
12.7371
12.8497
12.9605
13.0695
13.1766
13.282
13.3856
13.4874
13.5874
13.6856
13.7819
13.8765
13.9692
14.0601
14.1491
14.2362
14.3216
14.405
14.4866
14.5664
14.6444
14.7206
14.7949
14.8674
14.938
15.0068
15.0739
15.1391
15.2025
15.2642
15.3241
15.3823
15.4388
15.4935
15.5465
15.5977
15.6473
15.695
15.7411
15.7856
15.8283
15.8695
15.9091
15.9473
15.9841
16.0195
16.0536
16.0865
16.1181
16.1486
16.1778
16.2059
16.2327
16.2584
16.2828
16.306
16.3281
16.3492
16.3692
16.3883
16.4066
16.4242
16.4412
16.4576
16.4735
16.4889
16.504
16.5188
16.5337
16.549
16.5652
16.5824
16.601
16.6215
16.6442
16.6704
16.6996
16.7352
16.7718
16.8203
16.8531
16.9105
16.8722
-6.33246
-7.19943
-7.24533
-7.72366
-7.82305
-8.17964
-8.37398
-8.68417
-8.91878
-9.19423
-9.42525
-9.66037
-9.86261
-10.0553
-10.2233
-10.3781
-10.5098
-10.6173
-10.6882
-10.7113
-10.6681
-10.5497
-10.3519
-10.0713
-9.71063
-9.27905
-8.7898
-8.25865
-7.69918
-7.12357
-6.53945
-5.94871
-5.35102
-4.74775
-4.14168
-3.5363
-2.93562
-2.3437
-1.76437
-1.2006
-0.654673
-0.127948
0.378761
0.865357
1.33201
1.77935
2.20805
2.61901
3.01311
3.39131
3.75448
4.10355
4.43933
4.76265
5.07425
5.37486
5.66507
5.94549
6.21667
6.47911
6.73326
6.97958
7.21844
7.45025
7.67536
7.89411
8.10682
8.3138
8.51536
8.71176
8.90327
9.09015
9.27262
9.45092
9.62522
9.79573
9.96268
10.1262
10.2865
10.4436
10.5977
10.749
10.8975
11.0434
11.1868
11.3277
11.4663
11.6025
11.7364
11.8682
11.998
12.1256
12.2511
12.3747
12.4965
12.6162
12.7339
12.8498
12.9636
13.0756
13.1856
13.2939
13.4001
13.5044
13.6069
13.7075
13.8062
13.903
13.998
14.0912
14.1825
14.272
14.3596
14.4453
14.5293
14.6113
14.6915
14.7699
14.8464
14.9211
14.9939
15.0649
15.134
15.2013
15.2668
15.3305
15.3924
15.4525
15.5108
15.5673
15.622
15.675
15.7263
15.776
15.824
15.8704
15.9153
15.9588
16.0009
16.0416
16.0811
16.1193
16.1562
16.1918
16.2262
16.2594
16.2914
16.3222
16.3518
16.3804
16.4079
16.4344
16.4599
16.4845
16.508
16.5306
16.5521
16.5725
16.592
16.6105
16.6281
16.6449
16.6609
16.6764
16.6914
16.7058
16.72
16.7342
16.7489
16.7642
16.7807
16.7985
16.8184
16.8394
16.8642
16.8863
16.9151
16.9222
16.9453
16.8713
-7.02212
-7.81625
-7.83127
-8.31481
-8.39473
-8.76532
-8.94802
-9.27474
-9.51134
-9.80612
-10.0477
-10.3035
-10.5287
-10.762
-10.9909
-11.2364
-11.4861
-11.7354
-11.9578
-12.1268
-12.2063
-12.1695
-12.0019
-11.697
-11.2627
-10.7185
-10.0922
-9.41507
-8.71759
-8.02387
-7.34606
-6.68373
-6.03039
-5.38211
-4.73765
-4.098
-3.4662
-2.84612
-2.24176
-1.65619
-1.09174
-0.549527
-0.0300799
0.466927
0.942078
1.39642
1.83098
2.24703
2.64566
3.02807
3.39524
3.74817
4.08773
4.41478
4.73006
5.03431
5.32815
5.61219
5.88696
6.15299
6.41072
6.6606
6.90301
7.13835
7.36696
7.5892
7.80537
8.01578
8.22071
8.42044
8.61523
8.80531
8.99093
9.17229
9.34958
9.52301
9.69272
9.85891
10.0217
10.1813
10.3378
10.4914
10.6421
10.79
10.9353
11.0781
11.2184
11.3563
11.4919
11.6253
11.7566
11.8857
12.0128
12.1378
12.2606
12.3815
12.5004
12.6173
12.7323
12.8452
12.9564
13.0657
13.1728
13.278
13.3813
13.4826
13.5821
13.6796
13.7752
13.8688
13.9606
14.0503
14.1382
14.2241
14.3081
14.3902
14.4704
14.5487
14.6252
14.6997
14.7724
14.8432
14.9121
14.9792
15.0445
15.108
15.1698
15.2297
15.288
15.3445
15.3992
15.4521
15.5032
15.5525
15.6001
15.646
15.6902
15.7328
15.7738
15.8132
15.8512
15.8878
15.9231
15.9572
15.99
16.0216
16.052
16.0813
16.1093
16.1362
16.1619
16.1865
16.2099
16.2321
16.2534
16.2737
16.2931
16.3117
16.3296
16.3468
16.3633
16.3792
16.3946
16.4097
16.4245
16.4392
16.4539
16.4687
16.4839
16.4998
16.5166
16.5345
16.5541
16.5745
16.5979
16.6184
16.6439
16.6496
16.6668
16.6024
-7.54372
-8.27491
-8.26394
-8.74122
-8.80505
-9.18968
-9.36341
-9.70523
-9.93877
-10.242
-10.4803
-10.7507
-11.0133
-11.3361
-11.7183
-12.1887
-12.7265
-13.3034
-13.8562
-14.3319
-14.686
-14.8651
-14.8042
-14.4853
-13.9208
-13.1467
-12.2195
-11.2032
-10.1615
-9.15383
-8.22147
-7.3702
-6.58385
-5.84066
-5.12538
-4.4295
-3.7511
-3.09183
-2.45494
-1.84297
-1.2578
-0.699841
-0.168833
0.336406
0.81725
1.27547
1.71272
2.13074
2.53104
2.91508
3.28401
3.63901
3.98105
4.31108
4.62985
4.93807
5.23634
5.5252
5.80512
6.07657
6.33992
6.59556
6.84384
7.08509
7.31961
7.54772
7.76971
7.98584
8.1964
8.40164
8.6018
8.79713
8.98784
9.17415
9.35626
9.53438
9.70869
9.87936
10.0466
10.2104
10.3711
10.5287
10.6834
10.8352
10.9843
11.1307
11.2745
11.4158
11.5547
11.6912
11.8254
11.9574
12.0871
12.2146
12.34
12.4633
12.5844
12.7035
12.8204
12.9352
13.048
13.1586
13.2671
13.3736
13.4781
13.5806
13.681
13.7795
13.8761
13.9706
14.0632
14.1538
14.2424
14.3291
14.4138
14.4966
14.5774
14.6563
14.7332
14.8082
14.8812
14.9524
15.0217
15.0891
15.1547
15.2184
15.2803
15.3404
15.3987
15.4552
15.51
15.5631
15.6145
15.6642
15.7124
15.7591
15.8042
15.8479
15.8903
15.9313
15.9709
16.0093
16.0464
16.0822
16.1168
16.1501
16.1821
16.213
16.2426
16.2712
16.2987
16.3251
16.3504
16.3747
16.3979
16.42
16.441
16.4608
16.4796
16.4974
16.5141
16.5297
16.5445
16.5584
16.5716
16.5842
16.5963
16.6082
16.6201
16.6319
16.6439
16.6559
16.6682
16.6795
16.6911
16.6972
16.7036
16.688
16.6764
16.5914
-7.84683
-8.55493
-8.5211
-8.99967
-9.05908
-9.4674
-9.64906
-10.0306
-10.2903
-10.6387
-10.9299
-11.2964
-11.7119
-12.2741
-12.9903
-13.8774
-14.873
-15.8918
-16.8216
-17.5784
-18.0938
-18.3264
-18.2619
-17.9129
-17.2993
-16.4567
-15.4118
-14.179
-12.7868
-11.3203
-9.9114
-8.66017
-7.59152
-6.66079
-5.82171
-5.03895
-4.2954
-3.58527
-2.90824
-2.26492
-1.65582
-1.08004
-0.536149
-0.0217965
0.465383
0.928032
1.36848
1.78904
2.19157
2.57777
2.949
3.30657
3.6515
3.98474
4.30702
4.61903
4.92131
5.21438
5.49866
5.77458
6.04249
6.30274
6.55564
6.80152
7.04065
7.27333
7.49983
7.72041
7.93533
8.14484
8.34916
8.54854
8.74319
8.93331
9.11913
9.30081
9.47855
9.6525
9.82283
9.98968
10.1532
10.3136
10.4709
10.6252
10.7766
10.9253
11.0713
11.2147
11.3557
11.4942
11.6304
11.7642
11.8958
12.025
12.1521
12.2769
12.3995
12.5199
12.6381
12.7543
12.8682
12.9799
13.0896
13.1972
13.3026
13.406
13.5073
13.6065
13.7037
13.7987
13.8917
13.9827
14.0715
14.1583
14.2431
14.3259
14.4067
14.4855
14.5624
14.6372
14.7101
14.7811
14.8501
14.9173
14.9826
15.0461
15.1078
15.1676
15.2258
15.2821
15.3366
15.3893
15.4402
15.4894
15.5368
15.5825
15.6265
15.669
15.7098
15.7491
15.787
15.8235
15.8588
15.8928
15.9256
15.9571
15.9876
16.0168
16.0449
16.0718
16.0975
16.1221
16.1456
16.1681
16.1895
16.21
16.2296
16.2484
16.2664
16.2837
16.3003
16.3163
16.3315
16.3461
16.36
16.3735
16.3864
16.399
16.4114
16.4236
16.4359
16.4479
16.4599
16.4708
16.4813
16.4866
16.4905
16.4756
16.4591
16.386
-7.90957
-8.6307
-8.57328
-9.0475
-9.1238
-9.53681
-9.75097
-10.1574
-10.4522
-10.8411
-11.1893
-11.658
-12.24
-13.0488
-14.073
-15.2837
-16.5519
-17.7412
-18.7279
-19.4495
-19.8635
-19.9868
-19.8546
-19.4842
-18.8701
-18.0095
-16.9527
-15.8583
-14.7573
-13.4412
-11.8225
-10.1153
-8.62248
-7.39661
-6.3742
-5.47376
-4.6487
-3.87883
-3.1573
-2.48144
-1.84949
-1.25863
-0.705597
-0.186416
0.302667
0.765444
1.20512
1.62467
2.02638
2.41223
2.78381
3.14251
3.48942
3.82545
4.15129
4.46755
4.77469
5.07316
5.36327
5.64538
5.91974
6.18664
6.44634
6.69908
6.94511
7.18468
7.41801
7.64536
7.86696
8.08303
8.2938
8.49949
8.7003
8.89645
9.08815
9.27558
9.45892
9.63836
9.81404
9.98614
10.1548
10.3202
10.4823
10.6414
10.7974
10.9505
11.1009
11.2484
11.3933
11.5355
11.6753
11.8125
11.9473
12.0797
12.2097
12.3373
12.4625
12.5854
12.7059
12.8242
12.9402
13.0539
13.1654
13.2747
13.3818
13.4867
13.5894
13.6899
13.7883
13.8846
13.9787
14.0706
14.1605
14.2482
14.3338
14.4174
14.4989
14.5782
14.6556
14.7309
14.8041
14.8754
14.9448
15.0122
15.0778
15.1415
15.2033
15.2634
15.3216
15.3781
15.4328
15.4859
15.5373
15.5871
15.6353
15.6819
15.727
15.7707
15.813
15.8538
15.8933
15.9315
15.9683
16.0039
16.0381
16.071
16.1027
16.133
16.1622
16.1902
16.2171
16.2429
16.2676
16.2911
16.3135
16.3346
16.3545
16.3732
16.3908
16.4073
16.4227
16.4371
16.4506
16.4631
16.4748
16.4857
16.4959
16.5053
16.514
16.5221
16.5292
16.5352
16.5399
16.5419
16.5414
16.534
16.5215
16.4905
16.4515
16.3666
-7.72969
-8.44905
-8.40281
-8.85884
-8.97359
-9.38199
-9.64031
-10.0612
-10.3967
-10.8137
-11.2302
-11.7904
-12.5116
-13.489
-14.6904
-16.0451
-17.3869
-18.572
-19.4996
-20.1593
-20.5695
-20.7275
-20.6087
-20.21
-19.5562
-18.713
-17.7488
-16.6159
-15.3624
-14.3524
-13.2929
-11.5832
-9.68891
-8.1126
-6.88246
-5.87077
-4.98412
-4.17722
-3.43273
-2.74345
-2.10528
-1.51354
-0.963438
-0.449586
0.0329198
0.488788
0.921886
1.33562
1.73253
2.11476
2.48392
2.8414
3.18818
3.52508
3.85264
4.17138
4.48162
4.78369
5.07783
5.36427
5.64322
5.91489
6.17946
6.43716
6.68817
6.93273
7.171
7.40324
7.62966
7.85046
8.06586
8.27606
8.48126
8.68166
8.87753
9.06905
9.25636
9.43961
9.61899
9.79464
9.96666
10.1352
10.3004
10.4624
10.6213
10.7772
10.9302
11.0804
11.2277
11.3724
11.5145
11.6541
11.7911
11.9256
12.0577
12.1873
12.3145
12.4393
12.5617
12.6817
12.7993
12.9146
13.0276
13.1382
13.2466
13.3527
13.4565
13.558
13.6573
13.7543
13.849
13.9415
14.0318
14.1199
14.2058
14.2896
14.3712
14.4507
14.5281
14.6034
14.6766
14.7479
14.8171
14.8844
14.9498
15.0133
15.075
15.1349
15.1929
15.2491
15.3036
15.3562
15.407
15.4561
15.5034
15.5491
15.593
15.6354
15.6761
15.7154
15.7532
15.7897
15.8249
15.8589
15.8917
15.9232
15.9536
15.9827
16.0106
16.0374
16.063
16.0875
16.111
16.1335
16.155
16.1755
16.1952
16.2139
16.2318
16.2487
16.2647
16.2799
16.2941
16.3074
16.3198
16.3314
16.3421
16.352
16.3611
16.3693
16.3765
16.3824
16.3865
16.3881
16.3863
16.3783
16.3633
16.3334
16.2898
16.2149
-7.3132
-7.99981
-8.02127
-8.43902
-8.60999
-9.00083
-9.3042
-9.72503
-10.0973
-10.5326
-10.9918
-11.5855
-12.361
-13.396
-14.6575
-16.0546
-17.4207
-18.6168
-19.5574
-20.24
-20.6715
-20.8449
-20.7349
-20.3237
-19.6157
-18.6476
-17.5211
-16.4425
-15.3554
-14.2484
-13.5699
-12.4724
-10.4231
-8.47913
-7.00798
-5.88534
-4.95715
-4.14109
-3.40287
-2.72796
-2.10862
-1.53807
-1.0099
-0.51752
-0.0551252
0.382603
0.799894
1.20031
1.58641
1.96026
2.32333
2.6768
3.02142
3.35779
3.68625
4.00708
4.32044
4.62647
4.92526
5.2169
5.5015
5.77914
6.04993
6.31402
6.57156
6.82268
7.06756
7.30636
7.53932
7.76662
7.98844
8.20499
8.41649
8.62314
8.82511
9.02255
9.21561
9.40455
9.58949
9.77058
9.94791
10.1216
10.2919
10.4588
10.6225
10.7831
10.9406
11.0951
11.2467
11.3955
11.5416
11.6849
11.8255
11.9635
12.0988
12.2316
12.3617
12.4893
12.6143
12.7369
12.8569
12.9744
13.0895
13.2022
13.3124
13.4202
13.5257
13.6288
13.7295
13.8278
13.9238
14.0174
14.1088
14.1979
14.2847
14.3692
14.4515
14.5315
14.6094
14.6851
14.7587
14.8302
14.8997
14.9673
15.0329
15.0967
15.1585
15.2186
15.2768
15.3332
15.388
15.441
15.4924
15.5421
15.5901
15.6366
15.6815
15.7249
15.7667
15.8071
15.8461
15.8837
15.9198
15.9547
15.9882
16.0203
16.0511
16.0806
16.1089
16.1359
16.1618
16.1866
16.2101
16.2324
16.2535
16.2735
16.2922
16.3098
16.3264
16.3418
16.3562
16.3695
16.3818
16.393
16.4032
16.4123
16.4203
16.4271
16.4327
16.4369
16.4393
16.4396
16.4371
16.431
16.4197
16.4016
16.3735
16.3324
16.272
16.1909
-6.72057
-7.3123
-7.45768
-7.83132
-8.07214
-8.43629
-8.77581
-9.18971
-9.59024
-10.0205
-10.4747
-11.0392
-11.7739
-12.7392
-13.9183
-15.2273
-16.5202
-17.6679
-18.5865
-19.2631
-19.6917
-19.8622
-19.7502
-19.3536
-18.687
-17.8068
-16.7467
-15.5673
-14.4801
-13.4722
-12.9217
-12.4755
-10.6291
-8.4234
-6.77171
-5.594
-4.67935
-3.90622
-3.22191
-2.60356
-2.03971
-1.52129
-1.04072
-0.590672
-0.165154
0.241108
0.632044
1.01082
1.37951
1.73972
2.09243
2.43833
2.77775
3.11091
3.43778
3.75837
4.07256
4.38031
4.68148
4.97606
5.26399
5.54528
5.8199
6.088
6.34961
6.60489
6.85392
7.0969
7.33396
7.5653
7.79109
8.01154
8.22688
8.43729
8.64287
8.84376
9.04026
9.23247
9.42066
9.60492
9.78543
9.96227
10.1356
10.3055
10.472
10.6354
10.7957
10.953
11.1073
11.2588
11.4075
11.5534
11.6966
11.8371
11.9749
12.1101
12.2425
12.3724
12.4996
12.6242
12.7462
12.8656
12.9826
13.097
13.2089
13.3182
13.4251
13.5295
13.6314
13.7308
13.8278
13.9223
14.0144
14.1041
14.1914
14.2764
14.359
14.4394
14.5175
14.5935
14.6672
14.7388
14.8084
14.876
14.9416
15.0053
15.0672
15.1271
15.1853
15.2416
15.296
15.3487
15.3996
15.4488
15.4961
15.5418
15.5857
15.628
15.6686
15.7078
15.7455
15.7819
15.817
15.8508
15.8835
15.9148
15.9449
15.9738
16.0014
16.0279
16.0532
16.0775
16.1008
16.123
16.1441
16.1642
16.1833
16.2013
16.2183
16.2343
16.2493
16.2632
16.2761
16.2879
16.2985
16.308
16.3163
16.3234
16.329
16.3331
16.3351
16.335
16.3317
16.3248
16.3119
16.2929
16.2622
16.222
16.157
16.0839
-6.09046
-6.54214
-6.79109
-7.14772
-7.43902
-7.77897
-8.12776
-8.52654
-8.92993
-9.34258
-9.77237
-10.2735
-10.9011
-11.7099
-12.7077
-13.8427
-15.0062
-16.0857
-16.9872
-17.666
-18.0945
-18.258
-18.1412
-17.7487
-17.1013
-16.2478
-15.2836
-14.2954
-13.3312
-12.3392
-11.6831
-11.6646
-10.3222
-7.82487
-6.00321
-4.80005
-3.94476
-3.26705
-2.68855
-2.17483
-1.7085
-1.27781
-0.874051
-0.489754
-0.1195
0.24118
0.595085
0.944368
1.28999
1.63265
1.97238
2.30918
2.64262
2.97239
3.29797
3.61896
3.93489
4.24543
4.55023
4.84906
5.14173
5.4281
5.7081
5.98166
6.24889
6.50977
6.76448
7.0131
7.25578
7.49261
7.72385
7.94962
8.17015
8.38564
8.59622
8.80215
9.00348
9.20053
9.39334
9.58215
9.76706
9.94823
10.1258
10.2998
10.4704
10.6377
10.8019
10.9629
11.121
11.276
11.4281
11.5773
11.7236
11.8672
12.008
12.1459
12.2811
12.4135
12.5432
12.6702
12.7945