/*--------------------------------*- C++ -*----------------------------------*\
| =========                 |                                                 |
| \\      /  F ield         | OpenFOAM: The Open Source CFD Toolbox           |
|  \\    /   O peration     | Version:  v1906                                 |
|   \\  /    A nd           | Web:      www.OpenFOAM.com                      |
|    \\/     M anipulation  |                                                 |
\*---------------------------------------------------------------------------*/
FoamFile
{
    version     2.0;
    format      ascii;
    class       surfaceScalarField;
    location    "200";
    object      phi;
}
// * * * * * * * * * * * * * * * * * * * * * * * * * * * * * * * * * * * * * //

dimensions      [0 3 -1 0 0 0 0];
oriented        oriented;


internalField   nonuniform List<scalar> 
24170
(
3.08304e-06
1.0537e-07
2.98779e-06
9.52502e-08
2.92238e-06
6.54129e-08
2.86764e-06
5.47389e-08
2.82051e-06
4.71385e-08
2.77983e-06
4.06769e-08
2.74447e-06
3.53714e-08
2.71362e-06
3.08533e-08
2.68691e-06
2.67162e-08
2.66415e-06
2.27574e-08
2.64522e-06
1.89399e-08
2.63003e-06
1.51962e-08
2.61878e-06
1.12559e-08
2.61205e-06
6.73611e-09
2.61029e-06
1.75025e-09
2.6143e-06
-4.02525e-09
2.62793e-06
-1.36341e-08
-4.60295e-08
2.67401e-06
3.44271e-06
7.99035e-08
3.44405e-06
9.39128e-08
3.43248e-06
7.69861e-08
3.41912e-06
6.80964e-08
3.40476e-06
6.14984e-08
3.39048e-06
5.49626e-08
3.37679e-06
4.90613e-08
3.36384e-06
4.38112e-08
3.35167e-06
3.88858e-08
3.34035e-06
3.40751e-08
3.32996e-06
2.93428e-08
3.32059e-06
2.45649e-08
3.31231e-06
1.95413e-08
3.30523e-06
1.3807e-08
3.30026e-06
6.71634e-09
3.2994e-06
-3.18633e-09
3.30593e-06
-2.01759e-08
-5.39147e-08
3.31384e-06
3.67636e-06
6.60605e-08
3.67893e-06
9.13463e-08
3.67361e-06
8.23092e-08
3.66673e-06
7.49698e-08
3.66e-06
6.82355e-08
3.65391e-06
6.10544e-08
3.64855e-06
5.44222e-08
3.6439e-06
4.8468e-08
3.63994e-06
4.28461e-08
3.63671e-06
3.73161e-08
3.63428e-06
3.17758e-08
3.6328e-06
2.60493e-08
3.63248e-06
1.98616e-08
3.6336e-06
1.26858e-08
3.63654e-06
3.7771e-09
3.64213e-06
-8.77034e-09
3.64931e-06
-2.7339e-08
-5.79811e-08
3.65342e-06
3.93558e-06
5.58697e-08
3.94346e-06
8.34633e-08
3.9461e-06
7.96732e-08
3.94689e-06
7.41759e-08
3.94673e-06
6.83919e-08
3.94601e-06
6.17753e-08
3.94512e-06
5.53152e-08
3.94434e-06
4.92468e-08
3.94387e-06
4.33201e-08
3.94385e-06
3.73383e-08
3.94444e-06
3.11848e-08
3.94582e-06
2.46709e-08
3.9482e-06
1.74802e-08
3.95185e-06
9.03244e-09
3.957e-06
-1.37858e-09
3.96353e-06
-1.52936e-08
3.97089e-06
-3.46905e-08
-6.38766e-08
3.97679e-06
4.21823e-06
4.47661e-08
4.22807e-06
7.36246e-08
4.2326e-06
7.51472e-08
4.23479e-06
7.19885e-08
4.23604e-06
6.71356e-08
4.23691e-06
6.09092e-08
4.23777e-06
5.44639e-08
4.23884e-06
4.81766e-08
4.24026e-06
4.19042e-08
4.24211e-06
3.54873e-08
4.2445e-06
2.87959e-08
4.24756e-06
2.16177e-08
4.2514e-06
1.36382e-08
4.25611e-06
4.32519e-09
4.26178e-06
-7.042e-09
4.2682e-06
-2.17038e-08
4.27374e-06
-4.02073e-08
-6.46154e-08
4.2745e-06
4.51721e-06
3.66391e-08
4.52631e-06
6.45293e-08
4.53267e-06
6.87839e-08
4.53762e-06
6.70381e-08
4.54185e-06
6.29084e-08
4.54556e-06
5.71984e-08
4.54901e-06
5.10172e-08
4.55243e-06
4.47563e-08
4.55599e-06
3.83411e-08
4.55983e-06
3.16464e-08
4.56408e-06
2.45435e-08
4.56888e-06
1.68182e-08
4.57437e-06
8.15221e-09
4.58056e-06
-1.8646e-09
4.58728e-06
-1.3766e-08
4.59399e-06
-2.84044e-08
4.60012e-06
-4.63239e-08
-6.82849e-08
4.60379e-06
4.84002e-06
2.93402e-08
4.84896e-06
5.55846e-08
4.85564e-06
6.21062e-08
4.86072e-06
6.19644e-08
4.86491e-06
5.87184e-08
4.86858e-06
5.35349e-08
4.87204e-06
4.75519e-08
4.87557e-06
4.12309e-08
4.87931e-06
3.45997e-08
4.88337e-06
2.75885e-08
4.88783e-06
2.00885e-08
4.89273e-06
1.19177e-08
4.8981e-06
2.7911e-09
4.90394e-06
-7.70474e-09
4.91008e-06
-1.98981e-08
4.91601e-06
-3.43257e-08
4.92039e-06
-5.06982e-08
-6.92817e-08
4.92141e-06
5.18545e-06
2.34751e-08
5.19351e-06
4.75247e-08
5.20065e-06
5.49658e-08
5.20704e-06
5.55747e-08
5.213e-06
5.27561e-08
5.21865e-06
4.78839e-08
5.22416e-06
4.20468e-08
5.22968e-06
3.57039e-08
5.23535e-06
2.89296e-08
5.24126e-06
2.16845e-08
5.24748e-06
1.38676e-08
5.25408e-06
5.31802e-09
5.26101e-06
-4.13786e-09
5.26809e-06
-1.47834e-08
5.27505e-06
-2.68611e-08
5.28135e-06
-4.06164e-08
5.28667e-06
-5.60023e-08
-7.24838e-08
5.28987e-06
5.55592e-06
1.88976e-08
5.56322e-06
4.02189e-08
5.57022e-06
4.79703e-08
5.57645e-06
4.93395e-08
5.58207e-06
4.71383e-08
5.58722e-06
4.27396e-08
5.5921e-06
3.71734e-08
5.59688e-06
3.0916e-08
5.60171e-06
2.41051e-08
5.60665e-06
1.67518e-08
5.61172e-06
8.79711e-09
5.61695e-06
9.10129e-11
5.62233e-06
-9.52367e-09
5.62778e-06
-2.02247e-08
5.633e-06
-3.20754e-08
5.63755e-06
-4.51586e-08
5.64058e-06
-5.90331e-08
-7.34171e-08
5.64153e-06
5.95397e-06
1.4702e-08
5.96074e-06
3.34543e-08
5.96757e-06
4.11336e-08
5.97408e-06
4.28312e-08
5.9803e-06
4.09221e-08
5.98628e-06
3.67519e-08
5.99219e-06
3.12712e-08
5.99816e-06
2.49465e-08
6.00431e-06
1.7952e-08
6.01073e-06
1.03327e-08
6.01745e-06
2.07416e-09
6.02443e-06
-6.88441e-09
6.03154e-06
-1.66299e-08
6.03857e-06
-2.72607e-08
6.04529e-06
-3.8793e-08
6.05139e-06
-5.12471e-08
6.05668e-06
-6.4313e-08
-7.74429e-08
6.0607e-06
6.37956e-06
1.19533e-08
6.38544e-06
2.7579e-08
6.39253e-06
3.40424e-08
6.4001e-06
3.52604e-08
6.40787e-06
3.31541e-08
6.41564e-06
2.89801e-08
6.42332e-06
2.359e-08
6.43087e-06
1.74049e-08
6.43823e-06
1.05918e-08
6.44537e-06
3.19704e-09
6.45225e-06
-4.80725e-09
6.45884e-06
-1.34779e-08
6.46508e-06
-2.2868e-08
6.47086e-06
-3.30393e-08
6.47601e-06
-4.39406e-08
6.48019e-06
-5.54192e-08
6.48293e-06
-6.70548e-08
-7.83947e-08
6.48389e-06
5.74347e-06
9.31452e-09
5.74817e-06
2.28806e-08
5.75307e-06
2.91399e-08
5.75754e-06
3.07936e-08
5.76154e-06
2.91551e-08
5.76522e-06
2.52961e-08
5.76885e-06
1.99675e-08
5.77264e-06
1.36127e-08
5.77676e-06
6.47567e-09
5.78126e-06
-1.30606e-09
5.78612e-06
-9.66392e-09
5.79122e-06
-1.85761e-08
5.79642e-06
-2.80624e-08
5.80151e-06
-3.81292e-08
5.80625e-06
-4.86807e-08
5.81034e-06
-5.9502e-08
5.81375e-06
-7.04568e-08
-8.08172e-08
5.81618e-06
7.00004e-06
7.43077e-09
7.00483e-06
1.80898e-08
7.01114e-06
2.28312e-08
7.0181e-06
2.38367e-08
7.02521e-06
2.2046e-08
7.03216e-06
1.83419e-08
7.03881e-06
1.33206e-08
7.04508e-06
7.33817e-09
7.05096e-06
5.9645e-10
7.05644e-06
-6.78557e-09
7.06153e-06
-1.47467e-08
7.06624e-06
-2.32903e-08
7.07059e-06
-3.24031e-08
7.07447e-06
-4.2012e-08
7.07774e-06
-5.19367e-08
7.08028e-06
-6.20326e-08
7.08188e-06
-7.2058e-08
-8.18538e-08
7.08293e-06
8.53326e-06
5.02289e-09
8.53842e-06
1.29227e-08
8.54501e-06
1.62467e-08
8.55253e-06
1.6316e-08
8.56071e-06
1.38633e-08
8.56934e-06
9.71449e-09
8.57823e-06
4.43581e-09
8.58719e-06
-1.62931e-09
8.59607e-06
-8.27776e-09
8.60468e-06
-1.53951e-08
8.6129e-06
-2.29638e-08
8.62062e-06
-3.10052e-08
8.62769e-06
-3.94698e-08
8.63393e-06
-4.82449e-08
8.6392e-06
-5.72016e-08
8.64338e-06
-6.62044e-08
8.64641e-06
-7.50792e-08
-8.33768e-08
8.64794e-06
1.0401e-05
3.27491e-09
1.04059e-05
8.02117e-09
1.04125e-05
9.66135e-09
1.04197e-05
9.11769e-09
1.04268e-05
6.73213e-09
1.04336e-05
2.93138e-09
1.044e-05
-1.97433e-09
1.04461e-05
-7.76521e-09
1.04521e-05
-1.42584e-08
1.0458e-05
-2.1312e-08
1.04639e-05
-2.88585e-08
1.04697e-05
-3.6811e-08
1.04753e-05
-4.50287e-08
1.04804e-05
-5.33888e-08
1.0485e-05
-6.17873e-08
1.04889e-05
-7.00862e-08
1.04921e-05
-7.82202e-08
-8.59141e-08
1.04946e-05
1.2679e-05
1.0902e-09
1.26843e-05
2.68938e-09
1.26916e-05
2.33883e-09
1.27004e-05
3.99355e-10
1.271e-05
-2.89989e-09
1.27201e-05
-7.20679e-09
1.27304e-05
-1.22375e-08
1.27404e-05
-1.77995e-08
1.27499e-05
-2.37444e-08
1.27586e-05
-2.99728e-08
1.27662e-05
-3.64488e-08
1.27725e-05
-4.31123e-08
1.27773e-05
-4.98999e-08
1.27807e-05
-5.67549e-08
1.27825e-05
-6.35991e-08
1.27828e-05
-7.03425e-08
1.27815e-05
-7.69307e-08
-8.30571e-08
1.27786e-05
1.54551e-05
-8.24461e-10
1.54603e-05
-2.53354e-09
1.54677e-05
-5.01999e-09
1.54762e-05
-8.15861e-09
1.54853e-05
-1.19269e-08
1.54943e-05
-1.62384e-08
1.55031e-05
-2.10124e-08
1.55115e-05
-2.61929e-08
1.55194e-05
-3.17125e-08
1.55269e-05
-3.74722e-08
1.55339e-05
-4.34168e-08
1.55403e-05
-4.95012e-08
1.55461e-05
-5.56692e-08
1.55512e-05
-6.18392e-08
1.55555e-05
-6.79511e-08
1.55591e-05
-7.39051e-08
1.55618e-05
-7.96936e-08
-8.49764e-08
1.55638e-05
1.88392e-05
-2.34269e-09
1.88439e-05
-7.29181e-09
1.8851e-05
-1.20689e-08
1.88595e-05
-1.66476e-08
1.88686e-05
-2.1114e-08
1.88779e-05
-2.55119e-08
1.88868e-05
-2.98686e-08
1.88948e-05
-3.42253e-08
1.89017e-05
-3.86146e-08
1.89072e-05
-4.29789e-08
1.89111e-05
-4.72814e-08
1.89132e-05
-5.15742e-08
1.89134e-05
-5.58663e-08
1.89116e-05
-6.01263e-08
1.8908e-05
-6.43377e-08
1.89026e-05
-6.84786e-08
1.88955e-05
-7.2582e-08
-7.6538e-08
1.88871e-05
2.2967e-05
-6.02653e-09
2.29753e-05
-1.55904e-08
2.29864e-05
-2.31411e-08
2.29991e-05
-2.9323e-08
2.30125e-05
-3.4552e-08
2.30261e-05
-3.91096e-08
2.30394e-05
-4.32061e-08
2.30522e-05
-4.6997e-08
2.30642e-05
-5.06151e-08
2.30753e-05
-5.41065e-08
2.30855e-05
-5.74296e-08
2.30945e-05
-6.05906e-08
2.31023e-05
-6.3622e-08
2.31087e-05
-6.65235e-08
2.31136e-05
-6.92531e-08
2.31168e-05
-7.17504e-08
2.31183e-05
-7.40479e-08
-7.56745e-08
2.31174e-05
1.6811e-05
-6.35172e-09
1.68139e-05
-1.84889e-08
1.68185e-05
-2.76968e-08
1.68237e-05
-3.45128e-08
1.68287e-05
-3.95784e-08
1.6833e-05
-4.34366e-08
1.68363e-05
-4.6502e-08
1.68384e-05
-4.90573e-08
1.6839e-05
-5.1274e-08
1.68382e-05
-5.32736e-08
1.68359e-05
-5.5091e-08
1.6832e-05
-5.67301e-08
1.68266e-05
-5.81878e-08
1.68196e-05
-5.95188e-08
1.68111e-05
-6.07694e-08
1.68013e-05
-6.19786e-08
1.67904e-05
-6.31785e-08
-6.47731e-08
1.67795e-05
1.46384e-05
-1.01744e-08
1.46457e-05
-2.58318e-08
1.46544e-05
-3.63988e-08
1.46635e-05
-4.36107e-08
1.46725e-05
-4.85757e-08
1.46811e-05
-5.19995e-08
1.4689e-05
-5.44341e-08
1.46962e-05
-5.62556e-08
1.47026e-05
-5.76904e-08
1.47082e-05
-5.8869e-08
1.4713e-05
-5.98748e-08
1.4717e-05
-6.07578e-08
1.47204e-05
-6.15421e-08
1.47231e-05
-6.21954e-08
1.47251e-05
-6.27883e-08
1.47264e-05
-6.32916e-08
1.4727e-05
-6.38018e-08
-6.36623e-08
1.47259e-05
1.27414e-05
-1.14148e-08
1.27458e-05
-3.03047e-08
1.27514e-05
-4.19178e-08
1.27566e-05
-4.88222e-08
1.27608e-05
-5.28303e-08
1.27638e-05
-5.50274e-08
1.27656e-05
-5.61906e-08
1.27661e-05
-5.67997e-08
1.27655e-05
-5.7099e-08
1.27639e-05
-5.72029e-08
1.27612e-05
-5.71594e-08
1.27574e-05
-5.69843e-08
1.27525e-05
-5.668e-08
1.27465e-05
-5.62129e-08
1.27393e-05
-5.55187e-08
1.27306e-05
-5.45923e-08
1.27202e-05
-5.33908e-08
-5.2657e-08
1.27092e-05
1.10963e-05
-1.67867e-08
1.11053e-05
-3.92651e-08
1.11145e-05
-5.11271e-08
1.11231e-05
-5.74535e-08
1.1131e-05
-6.07049e-08
1.11379e-05
-6.20013e-08
1.1144e-05
-6.2211e-08
1.11491e-05
-6.1898e-08
1.11533e-05
-6.13273e-08
1.11567e-05
-6.06227e-08
1.11594e-05
-5.98569e-08
1.11615e-05
-5.90667e-08
1.11631e-05
-5.82813e-08
1.11644e-05
-5.75147e-08
1.11657e-05
-5.68308e-08
1.11674e-05
-5.62934e-08
1.11701e-05
-5.60796e-08
-5.54372e-08
1.11729e-05
9.65953e-06
-2.11024e-08
9.66736e-06
-4.70981e-08
9.6743e-06
-5.80679e-08
9.67933e-06
-6.24781e-08
9.68254e-06
-6.39215e-08
9.68419e-06
-6.36473e-08
9.68458e-06
-6.26005e-08
9.68401e-06
-6.13308e-08
9.68269e-06
-6.00063e-08
9.68073e-06
-5.86666e-08
9.6782e-06
-5.73267e-08
9.67512e-06
-5.59906e-08
9.67147e-06
-5.46358e-08
9.66718e-06
-5.32204e-08
9.66198e-06
-5.1637e-08
9.65551e-06
-4.98197e-08
9.64676e-06
-4.73325e-08
-4.46563e-08
9.63598e-06
8.41332e-06
-2.90686e-08
8.42433e-06
-5.81102e-08
8.4336e-06
-6.73354e-08
8.44113e-06
-7.00099e-08
8.4473e-06
-7.00877e-08
8.45211e-06
-6.84598e-08
8.45568e-06
-6.61717e-08
8.4582e-06
-6.3856e-08
8.45985e-06
-6.1649e-08
8.46074e-06
-5.95545e-08
8.46099e-06
-5.75814e-08
8.46072e-06
-5.57247e-08
8.46006e-06
-5.39746e-08
8.45915e-06
-5.23163e-08
8.45832e-06
-5.08079e-08
8.45803e-06
-4.95263e-08
8.45977e-06
-4.90681e-08
-4.91409e-08
8.46425e-06
7.32769e-06
-3.94699e-08
7.33903e-06
-6.94565e-08
7.34498e-06
-7.32834e-08
7.34722e-06
-7.2246e-08
7.34736e-06
-7.02347e-08
7.34617e-06
-6.72638e-08
7.34416e-06
-6.41636e-08
7.34168e-06
-6.13793e-08
7.33889e-06
-5.88508e-08
7.33582e-06
-5.64858e-08
7.3325e-06
-5.42614e-08
7.32895e-06
-5.21763e-08
7.32517e-06
-5.01958e-08
7.32116e-06
-4.83106e-08
7.3168e-06
-4.64393e-08
7.31179e-06
-4.45218e-08
7.30454e-06
-4.18154e-08
-3.78028e-08
7.2932e-06
6.38111e-06
-5.05173e-08
6.39254e-06
-8.08803e-08
6.39862e-06
-7.93663e-08
6.40188e-06
-7.55122e-08
6.40317e-06
-7.15128e-08
6.40273e-06
-6.68279e-08
6.40105e-06
-6.24839e-08
6.39851e-06
-5.88409e-08
6.39537e-06
-5.57061e-08
6.39178e-06
-5.28954e-08
6.38786e-06
-5.03472e-08
6.3837e-06
-4.80137e-08
6.37937e-06
-4.58649e-08
6.37492e-06
-4.38595e-08
6.37051e-06
-4.20218e-08
6.36632e-06
-4.03336e-08
6.36405e-06
-3.95446e-08
-4.02126e-08
6.36646e-06
5.56288e-06
-6.7934e-08
5.56863e-06
-8.66278e-08
5.56367e-06
-7.44064e-08
5.55549e-06
-6.73304e-08
5.54678e-06
-6.28007e-08
5.53825e-06
-5.82998e-08
5.53013e-06
-5.43582e-08
5.52236e-06
-5.10727e-08
5.51484e-06
-4.81806e-08
5.50748e-06
-4.55432e-08
5.50025e-06
-4.31195e-08
5.49313e-06
-4.08893e-08
5.4861e-06
-3.88266e-08
5.47916e-06
-3.69261e-08
5.4723e-06
-3.51532e-08
5.46554e-06
-3.35701e-08
5.45744e-06
-3.14534e-08
-2.73574e-08
5.44459e-06
4.853e-06
-9.33287e-08
4.85865e-06
-9.22708e-08
4.84863e-06
-6.43947e-08
4.83731e-06
-5.60122e-08
4.82479e-06
-5.02739e-08
4.81218e-06
-4.56833e-08
4.79995e-06
-4.21265e-08
4.78818e-06
-3.93018e-08
4.77685e-06
-3.68546e-08
4.76592e-06
-3.46123e-08
4.75533e-06
-3.25341e-08
4.74506e-06
-3.06093e-08
4.73507e-06
-2.88359e-08
4.72535e-06
-2.72026e-08
4.71594e-06
-2.57403e-08
4.70682e-06
-2.44531e-08
4.69957e-06
-2.41996e-08
-2.53805e-08
4.69759e-06
4.10935e-06
4.01708e-06
3.95268e-06
3.89667e-06
3.8464e-06
3.80071e-06
3.75859e-06
3.71929e-06
3.68243e-06
3.64782e-06
3.61528e-06
3.58468e-06
3.55584e-06
3.52864e-06
3.5029e-06
3.47845e-06
3.45425e-06
3.42887e-06
1.54862e-07
-1.53994e-07
1.83843e-07
-2.74353e-08
9.20831e-08
9.22458e-08
-1.5098e-07
2.44008e-07
-4.30406e-07
2.79522e-07
-7.17191e-07
2.87054e-07
-1.00458e-06
2.87352e-07
-1.2897e-06
2.85126e-07
-1.56724e-06
2.77527e-07
-1.83166e-06
2.6432e-07
-2.07808e-06
2.46458e-07
-2.30357e-06
2.25349e-07
-2.50581e-06
2.02323e-07
-2.68437e-06
1.78409e-07
-2.83859e-06
1.54333e-07
-2.96923e-06
1.30488e-07
-3.07619e-06
1.07105e-07
-3.16059e-06
8.42589e-08
-3.22248e-06
6.20343e-08
-3.26306e-06
4.04323e-08
-3.28255e-06
1.96261e-08
-3.28288e-06
1.64699e-10
-3.26589e-06
-1.68869e-08
-3.23457e-06
-3.14766e-08
-3.19057e-06
-4.39262e-08
-3.13581e-06
-5.49096e-08
-3.07095e-06
-6.47942e-08
-2.99725e-06
-7.38102e-08
-2.91515e-06
-8.20402e-08
-2.82574e-06
-8.94936e-08
-2.72962e-06
-9.6063e-08
-2.62771e-06
-1.01951e-07
-2.52026e-06
-1.07408e-07
-2.40778e-06
-1.12484e-07
-2.29087e-06
-1.16883e-07
-2.1702e-06
-1.20659e-07
-2.04627e-06
-1.23914e-07
-1.91968e-06
-1.26559e-07
-1.79105e-06
-1.28633e-07
-1.66084e-06
-1.30156e-07
-1.52971e-06
-1.31163e-07
-1.39798e-06
-1.31664e-07
-1.26632e-06
-1.31713e-07
-1.13491e-06
-1.3132e-07
-1.00445e-06
-1.30545e-07
-8.74964e-07
-1.29379e-07
-7.47157e-07
-1.27898e-07
-6.20968e-07
-1.26053e-07
-4.97192e-07
-1.23874e-07
-3.7589e-07
-1.21159e-07
-2.58318e-07
-1.17684e-07
-1.45469e-07
-1.12728e-07
-3.99529e-08
-1.05625e-07
6.19265e-08
-1.01787e-07
1.67143e-07
-1.05336e-07
2.75112e-07
-1.07908e-07
3.82769e-07
-1.07754e-07
4.88897e-07
-1.0609e-07
5.92231e-07
-1.03432e-07
6.92504e-07
-1.00252e-07
7.89318e-07
-9.68966e-08
8.82836e-07
-9.3509e-08
9.72973e-07
-9.02223e-08
1.06003e-06
-8.70604e-08
1.14403e-06
-8.40761e-08
1.22528e-06
-8.12497e-08
1.30382e-06
-7.86014e-08
1.37993e-06
-7.60978e-08
1.45363e-06
-7.37502e-08
1.52517e-06
-7.15243e-08
1.59455e-06
-6.94309e-08
1.66201e-06
-6.74387e-08
1.72752e-06
-6.55601e-08
1.79131e-06
-6.37664e-08
1.85335e-06
-6.20691e-08
1.91381e-06
-6.04375e-08
1.97267e-06
-5.8884e-08
2.03008e-06
-5.73878e-08
2.08601e-06
-5.5959e-08
2.1406e-06
-5.45701e-08
2.1938e-06
-5.32325e-08
2.24573e-06
-5.1925e-08
2.29634e-06
-5.06611e-08
2.34576e-06
-4.94203e-08
2.39394e-06
-4.82188e-08
2.44098e-06
-4.70417e-08
2.48684e-06
-4.59035e-08
2.53159e-06
-4.47897e-08
2.57522e-06
-4.37058e-08
2.61777e-06
-4.26488e-08
2.65931e-06
-4.16117e-08
2.69986e-06
-4.0597e-08
2.73944e-06
-3.961e-08
2.77808e-06
-3.8652e-08
2.8158e-06
-3.77236e-08
2.85262e-06
-3.68239e-08
2.88858e-06
-3.59546e-08
2.9237e-06
-3.51152e-08
2.95802e-06
-3.43081e-08
2.99158e-06
-3.35321e-08
3.02439e-06
-3.27904e-08
3.05651e-06
-3.20799e-08
3.08796e-06
-3.14046e-08
3.11877e-06
-3.07601e-08
3.14897e-06
-3.0152e-08
3.1786e-06
-2.95743e-08
3.20767e-06
-2.9032e-08
3.23623e-06
-2.85173e-08
3.26429e-06
-2.80348e-08
3.2919e-06
-2.75758e-08
3.31906e-06
-2.7145e-08
3.34581e-06
-2.67335e-08
3.37217e-06
-2.6346e-08
3.39815e-06
-2.59735e-08
3.42378e-06
-2.56208e-08
3.44907e-06
-2.52785e-08
3.47402e-06
-2.49519e-08
3.49865e-06
-2.46319e-08
3.52297e-06
-2.4324e-08
3.54699e-06
-2.40193e-08
3.57071e-06
-2.3722e-08
3.59415e-06
-2.34251e-08
3.61731e-06
-2.31349e-08
3.64018e-06
-2.28453e-08
3.66275e-06
-2.25627e-08
3.68504e-06
-2.22787e-08
3.70704e-06
-2.20001e-08
3.72877e-06
-2.17199e-08
3.75021e-06
-2.14459e-08
3.77138e-06
-2.11706e-08
3.79227e-06
-2.09009e-08
3.81289e-06
-2.06282e-08
3.83323e-06
-2.03575e-08
3.85329e-06
-2.00784e-08
3.87307e-06
-1.9794e-08
3.89254e-06
-1.94925e-08
3.91169e-06
-1.91758e-08
3.9305e-06
-1.88331e-08
3.94893e-06
-1.84689e-08
3.96697e-06
-1.80745e-08
3.98458e-06
-1.76539e-08
4.00175e-06
-1.7202e-08
4.01845e-06
-1.67256e-08
4.03466e-06
-1.62245e-08
4.05035e-06
-1.5708e-08
4.06552e-06
-1.5177e-08
4.08016e-06
-1.46398e-08
4.09426e-06
-1.40956e-08
4.10781e-06
-1.35524e-08
4.12083e-06
-1.3009e-08
4.1333e-06
-1.24674e-08
4.14523e-06
-1.19269e-08
4.15662e-06
-1.13822e-08
4.16747e-06
-1.08386e-08
4.17777e-06
-1.02917e-08
4.18753e-06
-9.74846e-09
4.19675e-06
-9.20731e-09
4.20543e-06
-8.66822e-09
4.21357e-06
-8.13294e-09
4.22119e-06
-7.59585e-09
4.22826e-06
-7.0576e-09
4.23479e-06
-6.50092e-09
4.24072e-06
-5.91144e-09
4.24601e-06
-5.26703e-09
4.25064e-06
-4.60398e-09
4.25458e-06
-3.91191e-09
4.25775e-06
-3.15283e-09
4.26007e-06
-2.28732e-09
4.26125e-06
-1.16036e-09
4.26062e-06
6.62334e-10
4.25737e-06
3.26909e-09
4.25081e-06
6.58546e-09
4.24004e-06
1.07862e-08
4.22358e-06
1.64813e-08
4.19918e-06
2.44178e-08
4.16244e-06
3.67609e-08
4.1059e-06
5.65642e-08
4.01555e-06
9.03792e-08
3.85306e-06
1.62514e-07
2.39944e-07
3.61314e-06
-1.1523e-07
-3.82799e-08
-3.62596e-07
2.20275e-07
-6.09413e-07
3.39194e-07
-8.21652e-07
4.56416e-07
-1.0491e-06
5.07017e-07
-1.2892e-06
5.27226e-07
-1.52302e-06
5.21181e-07
-1.73661e-06
4.98722e-07
-1.92229e-06
4.63205e-07
-2.07873e-06
4.20727e-07
-2.2079e-06
3.75637e-07
-2.3139e-06
3.31297e-07
-2.4011e-06
2.89541e-07
-2.47393e-06
2.51178e-07
-2.53578e-06
2.1622e-07
-2.58965e-06
1.84296e-07
-2.63735e-06
1.5486e-07
-2.68047e-06
1.27321e-07
-2.71951e-06
1.01139e-07
-2.75504e-06
7.59111e-08
-2.78678e-06
5.14141e-08
-2.81403e-06
2.73707e-08
-2.83424e-06
3.35227e-09
-2.84556e-06
-2.02036e-08
-2.84592e-06
-4.35467e-08
-2.83472e-06
-6.61533e-08
-2.81183e-06
-8.76622e-08
-2.77784e-06
-1.07842e-07
-2.73333e-06
-1.2654e-07
-2.67917e-06
-1.43671e-07
-2.61608e-06
-1.59145e-07
-2.54495e-06
-1.73085e-07
-2.46643e-06
-1.85919e-07
-2.38153e-06
-1.97381e-07
-2.29107e-06
-2.07342e-07
-2.19566e-06
-2.16065e-07
-2.09582e-06
-2.23741e-07
-1.99217e-06
-2.30204e-07
-1.88539e-06
-2.35411e-07
-1.77609e-06
-2.39439e-07
-1.6649e-06
-2.4236e-07
-1.55231e-06
-2.4424e-07
-1.43887e-06
-2.45162e-07
-1.32498e-06
-2.45199e-07
-1.21108e-06
-2.44452e-07
-1.09745e-06
-2.43e-07
-9.8441e-07
-2.4095e-07
-8.72084e-07
-2.38369e-07
-7.60604e-07
-2.35359e-07
-6.49766e-07
-2.31994e-07
-5.38972e-07
-2.28482e-07
-4.26617e-07
-2.25079e-07
-3.10413e-07
-2.21836e-07
-1.938e-07
-2.18399e-07
-8.41795e-08
-2.14968e-07
1.93193e-08
-2.11405e-07
1.18631e-07
-2.07079e-07
2.14618e-07
-2.0208e-07
3.08067e-07
-1.96897e-07
3.99382e-07
-1.91571e-07
4.88688e-07
-1.86218e-07
5.76088e-07
-1.80916e-07
6.61598e-07
-1.75751e-07
7.45289e-07
-1.7076e-07
8.27171e-07
-1.65977e-07
9.07313e-07
-1.61398e-07
9.85726e-07
-1.5703e-07
1.06248e-06
-1.52852e-07
1.13758e-06
-1.48867e-07
1.21111e-06
-1.45056e-07
1.28309e-06
-1.41419e-07
1.35359e-06
-1.37939e-07
1.42263e-06
-1.34617e-07
1.4903e-06
-1.31433e-07
1.5566e-06
-1.28381e-07
1.62161e-06
-1.25442e-07
1.68534e-06
-1.22616e-07
1.74784e-06
-1.19887e-07
1.80912e-06
-1.17249e-07
1.86923e-06
-1.1468e-07
1.92817e-06
-1.1218e-07
1.98597e-06
-1.09734e-07
2.04264e-06
-1.07349e-07
2.09823e-06
-1.05014e-07
2.15274e-06
-1.02739e-07
2.2062e-06
-1.00516e-07
2.25863e-06
-9.8353e-08
2.31006e-06
-9.62407e-08
2.36049e-06
-9.41793e-08
2.40995e-06
-9.21642e-08
2.45849e-06
-9.01903e-08
2.50612e-06
-8.82602e-08
2.55288e-06
-8.63762e-08
2.59876e-06
-8.4544e-08
2.64379e-06
-8.27609e-08
2.68799e-06
-8.10291e-08
2.73139e-06
-7.93461e-08
2.77399e-06
-7.77154e-08
2.81583e-06
-7.61359e-08
2.85691e-06
-7.46117e-08
2.89728e-06
-7.3142e-08
2.93695e-06
-7.17282e-08
2.97594e-06
-7.03701e-08
3.01428e-06
-6.90683e-08
3.05198e-06
-6.7823e-08
3.08907e-06
-6.66329e-08
3.12556e-06
-6.54967e-08
3.16147e-06
-6.4411e-08
3.19683e-06
-6.33731e-08
3.23164e-06
-6.23782e-08
3.26593e-06
-6.14231e-08
3.29971e-06
-6.05024e-08
3.33298e-06
-5.96124e-08
3.36576e-06
-5.87474e-08
3.39805e-06
-5.7904e-08
3.42985e-06
-5.70766e-08
3.46116e-06
-5.6262e-08
3.49198e-06
-5.5456e-08
3.52231e-06
-5.4656e-08
3.55214e-06
-5.38564e-08
3.58147e-06
-5.30553e-08
3.6103e-06
-5.22483e-08
3.63862e-06
-5.14365e-08
3.6664e-06
-5.06166e-08
3.69364e-06
-4.97897e-08
3.72031e-06
-4.89531e-08
3.74643e-06
-4.81088e-08
3.77196e-06
-4.7254e-08
3.7969e-06
-4.63904e-08
3.82124e-06
-4.55145e-08
3.84496e-06
-4.46264e-08
3.86805e-06
-4.37207e-08
3.89048e-06
-4.27958e-08
3.91223e-06
-4.18446e-08
3.9333e-06
-4.08648e-08
3.95364e-06
-3.98492e-08
3.97325e-06
-3.8796e-08
3.9921e-06
-3.77015e-08
4.01017e-06
-3.65675e-08
4.02746e-06
-3.53913e-08
4.04396e-06
-3.41726e-08
4.05964e-06
-3.29098e-08
4.07451e-06
-3.16086e-08
4.08855e-06
-3.02742e-08
4.10175e-06
-2.89159e-08
4.11411e-06
-2.75387e-08
4.12562e-06
-2.61492e-08
4.13628e-06
-2.47488e-08
4.14607e-06
-2.33436e-08
4.155e-06
-2.19348e-08
4.16307e-06
-2.05262e-08
4.17026e-06
-1.911e-08
4.17657e-06
-1.76858e-08
4.18198e-06
-1.62373e-08
4.18646e-06
-1.47669e-08
4.18999e-06
-1.32639e-08
4.19253e-06
-1.17351e-08
4.19405e-06
-1.01752e-08
4.19452e-06
-8.58864e-09
4.19391e-06
-6.97304e-09
4.19221e-06
-5.33566e-09
4.18941e-06
-3.68357e-09
4.18558e-06
-2.06363e-09
4.18086e-06
-5.28129e-10
4.17533e-06
9.53215e-10
4.16896e-06
2.47106e-09
4.16177e-06
4.06122e-09
4.15375e-06
5.75539e-09
4.14505e-06
7.55825e-09
4.13621e-06
9.52213e-09
4.12774e-06
1.17574e-08
4.1198e-06
1.45439e-08
4.11249e-06
1.81093e-08
4.10592e-06
2.30687e-08
4.10034e-06
3.00126e-08
4.09637e-06
4.07488e-08
4.09462e-06
5.83374e-08
4.09798e-06
8.70418e-08
4.10622e-06
1.54289e-07
2.5721e-07
4.08898e-06
-3.4626e-07
3.08177e-07
-6.26318e-07
5.00498e-07
-8.81481e-07
5.94391e-07
-1.10287e-06
6.7789e-07
-1.30487e-06
7.0903e-07
-1.48893e-06
7.11322e-07
-1.6538e-06
6.86052e-07
-1.80132e-06
6.46247e-07
-1.93584e-06
5.97719e-07
-2.06315e-06
5.48018e-07
-2.18732e-06
4.99806e-07
-2.31071e-06
4.54647e-07
-2.43323e-06
4.12069e-07
-2.55334e-06
3.71254e-07
-2.66833e-06
3.31233e-07
-2.77541e-06
2.91333e-07
-2.87164e-06
2.51124e-07
-2.95481e-06
2.10467e-07
-3.02304e-06
1.69402e-07
-3.07525e-06
1.28099e-07
-3.11054e-06
8.67446e-08
-3.12875e-06
4.55579e-08
-3.13039e-06
5.01341e-09
-3.11684e-06
-3.37696e-08
-3.08968e-06
-7.06862e-08
-3.05033e-06
-1.05517e-07
-2.99991e-06
-1.38075e-07
-2.9395e-06
-1.68264e-07
-2.86999e-06
-1.96045e-07
-2.79222e-06
-2.21451e-07
-2.70682e-06
-2.44549e-07
-2.61446e-06
-2.65444e-07
-2.51614e-06
-2.84243e-07
-2.41265e-06
-3.00874e-07
-2.3047e-06
-3.15285e-07
-2.193e-06
-3.27759e-07
-2.07814e-06
-3.38603e-07
-1.96073e-06
-3.47607e-07
-1.84142e-06
-3.54724e-07
-1.72074e-06
-3.60112e-07
-1.59923e-06
-3.63874e-07
-1.47734e-06
-3.66121e-07
-1.35553e-06
-3.66975e-07
-1.23416e-06
-3.66567e-07
-1.11357e-06
-3.65048e-07
-9.94015e-07
-3.6255e-07
-8.75778e-07
-3.59191e-07
-7.59097e-07
-3.55051e-07
-6.44257e-07
-3.50203e-07
-5.31561e-07
-3.4469e-07
-4.21432e-07
-3.38616e-07
-3.14404e-07
-3.32108e-07
-2.10822e-07
-3.25421e-07
-1.10179e-07
-3.19044e-07
-1.21305e-08
-3.13021e-07
8.34102e-08
-3.06947e-07
1.76926e-07
-3.00598e-07
2.68705e-07
-2.93861e-07
3.58686e-07
-2.86883e-07
4.46888e-07
-2.79776e-07
5.33327e-07
-2.7266e-07
6.18036e-07
-2.65628e-07
7.01041e-07
-2.58761e-07
7.82375e-07
-2.52098e-07
8.62058e-07
-2.45665e-07
9.40122e-07
-2.39465e-07
1.01659e-06
-2.33505e-07
1.09152e-06
-2.27783e-07
1.16496e-06
-2.22303e-07
1.23696e-06
-2.17058e-07
1.30758e-06
-2.12043e-07
1.37688e-06
-2.07244e-07
1.44491e-06
-2.0265e-07
1.51171e-06
-1.98239e-07
1.57733e-06
-1.94001e-07
1.64181e-06
-1.89921e-07
1.70517e-06
-1.85985e-07
1.76745e-06
-1.82167e-07
1.82865e-06
-1.78449e-07
1.88878e-06
-1.74814e-07
1.94786e-06
-1.71262e-07
2.0059e-06
-1.67789e-07
2.06295e-06
-1.644e-07
2.11902e-06
-1.6109e-07
2.17413e-06
-1.5786e-07
2.22832e-06
-1.54707e-07
2.28159e-06
-1.51634e-07
2.33397e-06
-1.48633e-07
2.38546e-06
-1.45693e-07
2.43607e-06
-1.42809e-07
2.48583e-06
-1.39978e-07
2.53476e-06
-1.37203e-07
2.58286e-06
-1.3449e-07
2.63016e-06
-1.31844e-07
2.67666e-06
-1.29266e-07
2.72238e-06
-1.26756e-07
2.76735e-06
-1.24316e-07
2.81158e-06
-1.21949e-07
2.85511e-06
-1.19661e-07
2.89796e-06
-1.17455e-07
2.94016e-06
-1.15331e-07
2.98173e-06
-1.13291e-07
3.02271e-06
-1.11331e-07
3.06311e-06
-1.09453e-07
3.10296e-06
-1.07655e-07
3.14228e-06
-1.05936e-07
3.18109e-06
-1.04293e-07
3.21942e-06
-1.02723e-07
3.25728e-06
-1.01221e-07
3.29469e-06
-9.97844e-08
3.33168e-06
-9.8405e-08
3.36826e-06
-9.70809e-08
3.40445e-06
-9.58051e-08
3.44028e-06
-9.4575e-08
3.47576e-06
-9.33832e-08
3.51091e-06
-9.22256e-08
3.54574e-06
-9.10938e-08
3.58026e-06
-8.9982e-08
3.61448e-06
-8.88809e-08
3.6484e-06
-8.77846e-08
3.68203e-06
-8.66859e-08
3.71537e-06
-8.55834e-08
3.74842e-06
-8.44749e-08
3.78117e-06
-8.33622e-08
3.81362e-06
-8.22437e-08
3.84579e-06
-8.11203e-08
3.87767e-06
-7.99893e-08
3.90926e-06
-7.88501e-08
3.94057e-06
-7.76982e-08
3.97158e-06
-7.65305e-08
4.00229e-06
-7.53409e-08
4.03268e-06
-7.41242e-08
4.06275e-06
-7.28726e-08
4.09247e-06
-7.15785e-08
4.12183e-06
-7.02321e-08
4.15079e-06
-6.88236e-08
4.17933e-06
-6.73433e-08
4.2074e-06
-6.57849e-08
4.23496e-06
-6.41455e-08
4.26197e-06
-6.24266e-08
4.28841e-06
-6.06341e-08
4.31426e-06
-5.87772e-08
4.3395e-06
-5.68687e-08
4.36414e-06
-5.49237e-08
4.38817e-06
-5.29578e-08
4.41161e-06
-5.09854e-08
4.43448e-06
-4.90193e-08
4.45679e-06
-4.70688e-08
4.47859e-06
-4.51415e-08
4.49989e-06
-4.3239e-08
4.52072e-06
-4.13591e-08
4.5411e-06
-3.94954e-08
4.56106e-06
-3.76397e-08
4.5806e-06
-3.57842e-08
4.59976e-06
-3.39254e-08
4.61855e-06
-3.20598e-08
4.637e-06
-3.01854e-08
4.65512e-06
-2.82938e-08
4.6729e-06
-2.63741e-08
4.69034e-06
-2.44113e-08
4.70739e-06
-2.23907e-08
4.72399e-06
-2.0288e-08
4.74001e-06
-1.80844e-08
4.75524e-06
-1.57632e-08
4.76949e-06
-1.32969e-08
4.78263e-06
-1.06733e-08
4.79455e-06
-7.86339e-09
4.805e-06
-4.69075e-09
4.81343e-06
-8.81005e-10
4.81948e-06
3.47008e-09
4.82299e-06
8.24e-09
4.82377e-06
1.37634e-08
4.82142e-06
2.04504e-08
4.81531e-06
2.91764e-08
4.80449e-06
4.08352e-08
4.78736e-06
5.78754e-08
4.76204e-06
8.36475e-08
4.72444e-06
1.24633e-07
4.67714e-06
2.0158e-07
3.19739e-07
4.61461e-06
-3.3751e-07
6.45787e-07
-6.08348e-07
7.71423e-07
-8.42871e-07
8.28924e-07
-1.04055e-06
8.75607e-07
-1.20674e-06
8.75218e-07
-1.34939e-06
8.53985e-07
-1.47761e-06
8.14275e-07
-1.60231e-06
7.70937e-07
-1.7311e-06
7.26505e-07
-1.86666e-06
6.83543e-07
-2.00648e-06
6.39627e-07
-2.14578e-06
5.93912e-07
-2.27852e-06
5.44816e-07
-2.39979e-06
4.92489e-07
-2.5058e-06
4.37253e-07
-2.59451e-06
3.80011e-07
-2.66501e-06
3.21648e-07
-2.71763e-06
2.63065e-07
-2.75312e-06
2.04921e-07
-2.77279e-06
1.47757e-07
-2.77793e-06
9.19151e-08
-2.77001e-06
3.76292e-08
-2.75016e-06
-1.4816e-08
-2.71858e-06
-6.53546e-08
-2.67596e-06
-1.13294e-07
-2.62305e-06
-1.58433e-07
-2.56052e-06
-2.00596e-07
-2.48915e-06
-2.39642e-07
-2.40969e-06
-2.75499e-07
-2.32294e-06
-3.08201e-07
-2.22963e-06
-3.37866e-07
-2.13049e-06
-3.64587e-07
-2.02635e-06
-3.88385e-07
-1.91803e-06
-4.09188e-07
-1.80619e-06
-4.27127e-07
-1.69134e-06
-4.42606e-07
-1.57422e-06
-4.55722e-07
-1.45551e-06
-4.66315e-07
-1.33575e-06
-4.74482e-07
-1.21546e-06
-4.80405e-07
-1.0951e-06
-4.84226e-07
-9.75125e-07
-4.86094e-07
-8.55933e-07
-4.86167e-07
-7.37878e-07
-4.84619e-07
-6.21279e-07
-4.81648e-07
-5.06373e-07
-4.77455e-07
-3.93329e-07
-4.72239e-07
-2.82221e-07
-4.66157e-07
-1.73077e-07
-4.59351e-07
-6.58524e-08
-4.51916e-07
3.94486e-08
-4.4392e-07
1.42745e-07
-4.35406e-07
2.43817e-07
-4.26497e-07
3.42119e-07
-4.17348e-07
4.37226e-07
-4.0813e-07
5.2912e-07
-3.98843e-07
6.17999e-07
-3.89479e-07
7.04211e-07
-3.80074e-07
7.88037e-07
-3.7071e-07
8.6971e-07
-3.6145e-07
9.49411e-07
-3.52362e-07
1.02728e-06
-3.43503e-07
1.10343e-06
-3.34913e-07
1.17794e-06
-3.26607e-07
1.25087e-06
-3.18594e-07
1.32228e-06
-3.10877e-07
1.39224e-06
-3.03462e-07
1.4608e-06
-2.96345e-07
1.52802e-06
-2.89524e-07
1.59394e-06
-2.82984e-07
1.65861e-06
-2.76709e-07
1.72203e-06
-2.70675e-07
1.78424e-06
-2.6486e-07
1.84524e-06
-2.59241e-07
1.90505e-06
-2.53809e-07
1.96368e-06
-2.48552e-07
2.02113e-06
-2.43444e-07
2.07741e-06
-2.38448e-07
2.1325e-06
-2.33545e-07
2.18641e-06
-2.28728e-07
2.23915e-06
-2.24004e-07
2.29073e-06
-2.19374e-07
2.34116e-06
-2.14837e-07
2.39045e-06
-2.10385e-07
2.4386e-06
-2.06014e-07
2.48562e-06
-2.01729e-07
2.53152e-06
-1.97531e-07
2.57628e-06
-1.93404e-07
2.61991e-06
-1.89341e-07
2.66242e-06
-1.85343e-07
2.70384e-06
-1.81417e-07
2.7442e-06
-1.77573e-07
2.78353e-06
-1.73826e-07
2.82186e-06
-1.70182e-07
2.85924e-06
-1.66645e-07
2.89569e-06
-1.63218e-07
2.93128e-06
-1.59907e-07
2.96605e-06
-1.5672e-07
3.00006e-06
-1.53663e-07
3.03334e-06
-1.5074e-07
3.06596e-06
-1.47948e-07
3.09797e-06
-1.45284e-07
3.12939e-06
-1.42742e-07
3.16027e-06
-1.40322e-07
3.19065e-06
-1.38021e-07
3.22056e-06
-1.35834e-07
3.25003e-06
-1.33755e-07
3.27909e-06