/*--------------------------------*- C++ -*----------------------------------*\
| =========                 |                                                 |
| \\      /  F ield         | OpenFOAM: The Open Source CFD Toolbox           |
|  \\    /   O peration     | Version:  v1906                                 |
|   \\  /    A nd           | Web:      www.OpenFOAM.com                      |
|    \\/     M anipulation  |                                                 |
\*---------------------------------------------------------------------------*/
FoamFile
{
    version     2.0;
    format      ascii;
    class       volSymmTensorField;
    location    "200";
    object      R;
}
// * * * * * * * * * * * * * * * * * * * * * * * * * * * * * * * * * * * * * //

dimensions      [0 2 -2 0 0 0 0];


internalField   nonuniform List<symmTensor> 
12225
(
(1.62917 -0.333432 0 1.3608 0 1.52751)
(1.99604 -0.597777 0 0.915185 0 1.54229)
(2.15 -0.586362 0 0.685865 0 1.48862)
(2.16337 -0.548618 0 0.595183 0 1.42621)
(2.13142 -0.521677 0 0.55045 0 1.37114)
(2.08623 -0.50222 0 0.522701 0 1.32456)
(2.0406 -0.487247 0 0.502607 0 1.28544)
(1.99759 -0.474921 0 0.486595 0 1.25166)
(1.95925 -0.464681 0 0.473558 0 1.223)
(1.92463 -0.455816 0 0.462414 0 1.19767)
(1.89477 -0.448448 0 0.453228 0 1.1764)
(1.86843 -0.442113 0 0.445088 0 1.15733)
(1.84917 -0.438088 0 0.439142 0 1.14302)
(1.83519 -0.434741 0 0.434017 0 1.13159)
(1.82401 -0.433446 0 0.431217 0 1.12262)
(1.81843 -0.43105 0 0.427205 0 1.11754)
(1.81009 -0.433649 0 0.429566 0 1.10996)
(1.81382 -0.429624 0 0.419635 0 1.11498)
(1.52371 -0.0379224 0 1.46013 0 1.51676)
(1.57644 -0.140283 0 1.18725 0 1.51209)
(1.58651 -0.189716 0 0.928456 0 1.45688)
(1.57183 -0.208908 0 0.775251 0 1.39915)
(1.54301 -0.21757 0 0.678304 0 1.34296)
(1.51835 -0.224594 0 0.613919 0 1.29804)
(1.49689 -0.230781 0 0.568075 0 1.26094)
(1.47753 -0.236185 0 0.533569 0 1.229)
(1.46141 -0.241229 0 0.50701 0 1.20241)
(1.44673 -0.245409 0 0.485632 0 1.17862)
(1.43566 -0.249818 0 0.468868 0 1.15981)
(1.42464 -0.252783 0 0.454312 0 1.14137)
(1.4174 -0.257064 0 0.443882 0 1.12874)
(1.40967 -0.258606 0 0.433051 0 1.114)
(1.40438 -0.263188 0 0.428039 0 1.1066)
(1.39854 -0.26234 0 0.418768 0 1.09422)
(1.39117 -0.266684 0 0.418582 0 1.08937)
(1.37885 -0.257015 0 0.41319 0 1.07712)
(1.51157 -0.00804477 0 1.49398 0 1.51018)
(1.53434 -0.0356555 0 1.38532 0 1.51841)
(1.54604 -0.0611451 0 1.23677 0 1.50524)
(1.54284 -0.0793884 0 1.12076 0 1.48132)
(1.52851 -0.0929267 0 1.03047 0 1.4518)
(1.51157 -0.104837 0 0.958471 0 1.42259)
(1.49436 -0.115594 0 0.900294 0 1.39533)
(1.47743 -0.125338 0 0.852401 0 1.36994)
(1.46186 -0.134361 0 0.812685 0 1.34716)
(1.44728 -0.14246 0 0.779183 0 1.32614)
(1.43446 -0.150215 0 0.751119 0 1.30784)
(1.42262 -0.156881 0 0.726827 0 1.29058)
(1.41211 -0.163672 0 0.707125 0 1.27635)
(1.40333 -0.168847 0 0.688902 0 1.26215)
(1.39324 -0.17469 0 0.676886 0 1.25183)
(1.38938 -0.177898 0 0.661294 0 1.23938)
(1.37256 -0.181114 0 0.661288 0 1.23409)
(1.38671 -0.178423 0 0.636524 0 1.21985)
(1.51146 -0.0059681 0 1.49437 0 1.51102)
(1.52695 -0.0159207 0 1.42284 0 1.52145)
(1.53919 -0.0288245 0 1.31532 0 1.52256)
(1.54212 -0.0410168 0 1.21752 0 1.51428)
(1.53677 -0.0510921 0 1.13554 0 1.49978)
(1.52752 -0.0600044 0 1.06692 0 1.48269)
(1.51652 -0.0681228 0 1.00962 0 1.46498)
(1.50463 -0.0755685 0 0.961443 0 1.44729)
(1.49276 -0.0825032 0 0.920769 0 1.43038)
(1.48109 -0.0888238 0 0.886165 0 1.4142)
(1.47004 -0.0947584 0 0.856799 0 1.39927)
(1.45955 -0.0999944 0 0.831585 0 1.38509)
(1.44961 -0.104937 0 0.81057 0 1.37238)
(1.44072 -0.108849 0 0.792257 0 1.36017)
(1.43117 -0.112355 0 0.778286 0 1.34969)
(1.42484 -0.113907 0 0.76442 0 1.33914)
(1.41358 -0.113953 0 0.758609 0 1.33159)
(1.41559 -0.110632 0 0.741752 0 1.32279)
(1.5098 -0.004394 0 1.49847 0 1.50967)
(1.52062 -0.00832029 0 1.4508 0 1.51839)
(1.53161 -0.013989 0 1.37635 0 1.52377)
(1.53704 -0.0206542 0 1.3034 0 1.52272)
(1.53667 -0.0269067 0 1.23908 0 1.51657)
(1.53275 -0.0328517 0 1.18289 0 1.50747)
(1.52674 -0.0385959 0 1.13413 0 1.49683)
(1.51941 -0.0440831 0 1.09184 0 1.48538)
(1.51141 -0.0492927 0 1.05514 0 1.47373)
(1.50311 -0.0541113 0 1.02327 0 1.46211)
(1.49481 -0.0585696 0 0.995699 0 1.45088)
(1.48663 -0.0624867 0 0.971812 0 1.43997)
(1.47863 -0.0659276 0 0.951446 0 1.4297)
(1.4711 -0.0684984 0 0.933936 0 1.41984)
(1.4635 -0.0702574 0 0.919712 0 1.41082)
(1.45732 -0.0704781 0 0.907123 0 1.40219)
(1.45052 -0.068923 0 0.898207 0 1.39522)
(1.44926 -0.0652793 0 0.885516 0 1.38889)
(1.5097 -0.00392713 0 1.49887 0 1.50969)
(1.51817 -0.00521909 0 1.46232 0 1.51719)
(1.52771 -0.00723992 0 1.40598 0 1.52369)
(1.53395 -0.0105372 0 1.34778 0 1.52603)
(1.53618 -0.0140914 0 1.29394 0 1.52446)
(1.53549 -0.017698 0 1.24532 0 1.52018)
(1.53279 -0.0213333 0 1.20205 0 1.51415)
(1.52867 -0.0248937 0 1.16383 0 1.50696)
(1.52364 -0.0282983 0 1.13018 0 1.49912)
(1.51804 -0.0314435 0 1.10066 0 1.49093)
(1.51215 -0.0342786 0 1.0749 0 1.48266)
(1.50614 -0.0366665 0 1.05248 0 1.47442)
(1.50013 -0.038537 0 1.03319 0 1.4664)
(1.49434 -0.039623 0 1.01665 0 1.45861)
(1.48876 -0.0397656 0 1.00275 0 1.45132)
(1.4841 -0.0385742 0 0.990786 0 1.44451)
(1.48008 -0.0358105 0 0.98101 0 1.43877)
(1.47913 -0.0315983 0 0.970274 0 1.434)
(1.50939 -0.00315561 0 1.49976 0 1.50943)
(1.51606 -0.00357344 0 1.47099 0 1.51563)
(1.524 -0.00372563 0 1.428 0 1.52183)
(1.53006 -0.0047907 0 1.38219 0 1.52542)
(1.53338 -0.00628878 0 1.33853 0 1.52613)
(1.53443 -0.00802872 0 1.2983 0 1.5246)
(1.53378 -0.00994948 0 1.26188 0 1.52144)
(1.53184 -0.0119281 0 1.22925 0 1.5171)
(1.52898 -0.013846 0 1.20022 0 1.51197)
(1.5255 -0.0155866 0 1.17453 0 1.50631)
(1.52165 -0.0170526 0 1.15195 0 1.50038)
(1.51759 -0.0181094 0 1.13224 0 1.4943)
(1.51349 -0.0186355 0 1.1152 0 1.48823)
(1.50956 -0.0184305 0 1.10063 0 1.48228)
(1.50596 -0.0173127 0 1.08831 0 1.47665)
(1.50317 -0.015087 0 1.07775 0 1.47147)
(1.50158 -0.0116269 0 1.06873 0 1.46717)
(1.50215 -0.00725304 0 1.06019 0 1.46381)
(1.50945 -0.002717 0 1.49978 0 1.50951)
(1.51506 -0.00272269 0 1.47565 0 1.51489)
(1.5217 -0.00192527 0 1.44154 0 1.52049)
(1.52732 -0.00168251 0 1.4044 0 1.52448)
(1.5311 -0.00186103 0 1.36806 0 1.52641)
(1.5332 -0.00232647 0 1.33389 0 1.52657)
(1.53392 -0.00300216 0 1.30245 0 1.52531)
(1.53353 -0.00376382 0 1.27394 0 1.52295)
(1.53233 -0.00448652 0 1.24833 0 1.51979)
(1.53054 -0.00505333 0 1.22552 0 1.51605)
(1.52837 -0.00535425 0 1.20537 0 1.51193)
(1.52601 -0.00526082 0 1.18774 0 1.50758)
(1.52365 -0.00464213 0 1.17247 0 1.50314)
(1.52149 -0.0033394 0 1.15938 0 1.49877)
(1.51979 -0.00120614 0 1.14826 0 1.49463)
(1.51893 0.00183583 0 1.13883 0 1.49092)
(1.5193 0.00575267 0 1.13091 0 1.48788)
(1.52167 0.0104305 0 1.12455 0 1.48567)
(1.50941 -0.00212851 0 1.50002 0 1.50947)
(1.51418 -0.00203186 0 1.47952 0 1.51413)
(1.51974 -0.00080039 0 1.45203 0 1.51903)
(1.52477 0.00025904 0 1.42182 0 1.52294)
(1.5286 0.00103194 0 1.39176 0 1.52538)
(1.5312 0.00155542 0 1.36313 0 1.52645)
(1.53274 0.00188339 0 1.33652 0 1.52634)
(1.5334 0.00212185 0 1.31222 0 1.52528)
(1.53338 0.00238759 0 1.29028 0 1.52347)
(1.53288 0.00279447 0 1.27067 0 1.5211)
(1.53208 0.00345505 0 1.25335 0 1.51834)
(1.53115 0.00448998 0 1.23823 0 1.51533)
(1.53029 0.006021 0 1.22519 0 1.51221)
(1.52972 0.00816524 0 1.21411 0 1.50912)
(1.52972 0.0110092 0 1.20481 0 1.50623)
(1.53059 0.014531 0 1.19713 0 1.50371)
(1.53275 0.0186052 0 1.19101 0 1.5018)
(1.53626 0.0227181 0 1.18697 0 1.50059)
(1.50946 -0.00172792 0 1.50005 0 1.50951)
(1.51371 -0.00157221 0 1.48198 0 1.51371)
(1.51846 -0.000154377 0 1.45918 0 1.51802)
(1.52295 0.00134242 0 1.43413 0 1.52169)
(1.52666 0.0026722 0 1.4089 0 1.52433)
(1.52953 0.00380398 0 1.38457 0 1.52592)
(1.53161 0.00477483 0 1.36174 0 1.52656)
(1.53301 0.00567811 0 1.34074 0 1.52639)
(1.5339 0.00662332 0 1.32168 0 1.52557)
(1.53443 0.00772034 0 1.30461 0 1.52425)
(1.53476 0.00907839 0 1.28952 0 1.52256)
(1.53506 0.0108067 0 1.27638 0 1.52063)
(1.53554 0.0130095 0 1.26512 0 1.51859)
(1.5364 0.0157696 0 1.25565 0 1.51658)
(1.53791 0.0191236 0 1.24789 0 1.51475)
(1.54035 0.022983 0 1.2418 0 1.51326)
(1.54408 0.0272097 0 1.23747 0 1.51224)
(1.54824 0.0306824 0 1.23561 0 1.51187)
(1.50944 -0.0012713 0 1.50023 0 1.50949)
(1.51327 -0.0010582 0 1.48414 0 1.51329)
(1.51736 0.000425223 0 1.46496 0 1.51706)
(1.52134 0.00221512 0 1.44405 0 1.5204)
(1.52484 0.00401461 0 1.42286 0 1.52301)
(1.52777 0.00573457 0 1.40226 0 1.52484)
(1.53016 0.00737703 0 1.38282 0 1.52591)
(1.53207 0.00900358 0 1.36484 0 1.52633)
(1.53364 0.0106994 0 1.3485 0 1.52621)
(1.53499 0.0125565 0 1.33386 0 1.52565)
(1.53626 0.0146687 0 1.32098 0 1.52478)
(1.53763 0.0171262 0 1.30985 0 1.5237)
(1.53926 0.0200065 0 1.30045 0 1.52254)
(1.54138 0.0233579 0 1.29275 0 1.52141)
(1.54423 0.027179 0 1.28672 0 1.52045)
(1.54811 0.0313703 0 1.28244 0 1.5198)
(1.55249 0.0351646 0 1.28024 0 1.5196)
(1.5584 0.0390652 0 1.28005 0 1.51982)
(1.50942 -0.000967244 0 1.50038 0 1.50946)
(1.51302 -0.000682409 0 1.48556 0 1.51303)
(1.51671 0.000798354 0 1.46874 0 1.51646)
(1.52035 0.0026761 0 1.45062 0 1.51956)
(1.5237 0.00464779 0 1.43221 0 1.52212)
(1.52667 0.00660399 0 1.41426 0 1.52407)
(1.52926 0.00853848 0 1.39724 0 1.52541)
(1.53154 0.0105044 0 1.38145 0 1.52621)
(1.53359 0.0125789 0 1.36709 0 1.52656)
(1.53553 0.0148458 0 1.35426 0 1.52653)
(1.5375 0.0173859 0 1.34302 0 1.52624)
(1.53966 0.0202699 0 1.33342 0 1.52578)
(1.54218 0.0235507 0 1.32546 0 1.52525)
(1.54525 0.027249 0 1.31917 0 1.52478)
(1.54913 0.031336 0 1.31459 0 1.52446)
(1.55345 0.0352311 0 1.31197 0 1.52444)
(1.55912 0.039438 0 1.31102 0 1.52473)
(1.56632 0.0435411 0 1.31284 0 1.5254)
(1.50938 -0.000650727 0 1.50058 0 1.5094)
(1.51276 -0.000250753 0 1.48686 0 1.51276)
(1.51609 0.00121022 0 1.47197 0 1.51587)
(1.51938 0.00309807 0 1.45619 0 1.51871)
(1.52251 0.0051307 0 1.44017 0 1.52113)
(1.52542 0.00719363 0 1.42449 0 1.5231)
(1.52811 0.00927788 0 1.40956 0 1.5246)
(1.53064 0.011432 0 1.39566 0 1.52567)
(1.53307 0.0137285 0 1.383 0 1.52638)
(1.53552 0.0162446 0 1.37171 0 1.52678)
(1.53809 0.0190505 0 1.36188 0 1.52698)
(1.54094 0.0222008 0 1.3536 0 1.52703)
(1.54422 0.0257327 0 1.34693 0 1.52705)
(1.54813 0.0296618 0 1.34193 0 1.52712)
(1.55234 0.0334869 0 1.33888 0 1.52733)
(1.55773 0.0377847 0 1.33729 0 1.52779)
(1.56446 0.0422434 0 1.33795 0 1.52853)
(1.57252 0.0464065 0 1.34176 0 1.52952)
(1.50932 -0.000386104 0 1.5008 0 1.50934)
(1.51254 0.00015501 0 1.48797 0 1.51253)
(1.5156 0.00163991 0 1.47465 0 1.5154)
(1.51861 0.00360612 0 1.46082 0 1.51801)
(1.52154 0.00580922 0 1.44687 0 1.5203)
(1.52437 0.00812867 0 1.43319 0 1.52226)
(1.52712 0.0105355 0 1.42012 0 1.52386)
(1.52984 0.0130531 0 1.40792 0 1.52515)
(1.53259 0.0157307 0 1.39679 0 1.52615)
(1.53547 0.0186255 0 1.38688 0 1.52694)
(1.53858 0.021789 0 1.37834 0 1.52756)
(1.54205 0.0252633 0 1.37129 0 1.52809)
(1.54606 0.0290902 0 1.3658 0 1.5286)
(1.55023 0.0328212 0 1.36228 0 1.52914)
(1.55545 0.0371046 0 1.36008 0 1.52987)
(1.56187 0.0417253 0 1.35988 0 1.5308)
(1.56944 0.0463264 0 1.36231 0 1.53193)
(1.57835 0.0506937 0 1.36809 0 1.53326)
(1.50923 -7.37636e-05 0 1.50108 0 1.50924)
(1.51229 0.000673796 0 1.48909 0 1.51226)
(1.51513 0.00217201 0 1.47706 0 1.51493)
(1.51794 0.00413629 0 1.46482 0 1.51737)
(1.52073 0.00639283 0 1.45256 0 1.51957)
(1.52352 0.00884424 0 1.44055 0 1.52152)
(1.52634 0.0114608 0 1.42907 0 1.52321)
(1.52924 0.0142546 0 1.41835 0 1.52468)
(1.53228 0.0172599 0 1.40859 0 1.52593)
(1.53555 0.0205174 0 1.39997 0 1.52703)
(1.53914 0.0240588 0 1.39267 0 1.52801)
(1.54319 0.027926 0 1.38682 0 1.52894)
(1.5473 0.0316818 0 1.38288 0 1.5298)
(1.55238 0.036037 0 1.38014 0 1.53082)
(1.55855 0.0408663 0 1.37922 0 1.53201)
(1.56575 0.0458889 0 1.38066 0 1.53334)
(1.57409 0.0509515 0 1.38498 0 1.53482)
(1.58372 0.0558451 0 1.39286 0 1.53641)
(1.50913 0.000165624 0 1.50136 0 1.50913)
(1.51207 0.00112804 0 1.49 0 1.51203)
(1.51477 0.00266287 0 1.47892 0 1.51456)
(1.5174 0.00460049 0 1.46789 0 1.51685)
(1.52005 0.0068212 0 1.45696 0 1.51895)
(1.52279 0.00925569 0 1.44628 0 1.52087)
(1.52565 0.0118862 0 1.43604 0 1.52263)
(1.5287 0.0147296 0 1.42645 0 1.52423)
(1.53201 0.0178233 0 1.4177 0 1.52572)
(1.53568 0.0212098 0 1.40997 0 1.52712)
(1.53977 0.0249074 0 1.40352 0 1.52846)
(1.54387 0.0284928 0 1.39895 0 1.52966)
(1.54881 0.0326519 0 1.39545 0 1.531)
(1.55482 0.0374195 0 1.39355 0 1.5325)
(1.56179 0.0425642 0 1.39382 0 1.53413)
(1.56983 0.0480137 0 1.39669 0 1.53589)
(1.57906 0.0536762 0 1.4027 0 1.53777)
(1.58957 0.059474 0 1.41249 0 1.53974)
(1.50903 0.000451273 0 1.50162 0 1.50903)
(1.51188 0.00169699 0 1.49071 0 1.51182)
(1.5145 0.00331383 0 1.4802 0 1.51428)
(1.51708 0.00524784 0 1.46987 0 1.51652)
(1.51971 0.00745552 0 1.4597 0 1.51861)
(1.52247 0.00991148 0 1.44979 0 1.52056)
(1.52542 0.0126151 0 1.44029 0 1.5224)
(1.52863 0.0155871 0 1.43138 0 1.52415)
(1.53219 0.0188704 0 1.42324 0 1.52583)
(1.53625 0.0225459 0 1.41602 0 1.5275)
(1.54023 0.0260719 0 1.41072 0 1.52894)
(1.5448 0.0299941 0 1.4065 0 1.53046)
(1.55043 0.0346225 0 1.40351 0 1.53216)
(1.55707 0.0398057 0 1.40242 0 1.53403)
(1.56477 0.0454765 0 1.40369 0 1.53604)
(1.57365 0.0516374 0 1.40776 0 1.53822)
(1.58385 0.0582704 0 1.41515 0 1.54058)
(1.5955 0.0653297 0 1.42649 0 1.54308)
(1.50896 0.00061918 0 1.50177 0 1.50895)
(1.51179 0.00206469 0 1.49097 0 1.51172)
(1.51443 0.00370314 0 1.48056 0 1.51419)
(1.51703 0.00553909 0 1.47037 0 1.51647)
(1.51969 0.00758133 0 1.46036 0 1.5186)
(1.52251 0.00984486 0 1.45059 0 1.52063)
(1.52556 0.0123557 0 1.44119 0 1.52258)
(1.52891 0.0151516 0 1.43231 0 1.52447)
(1.53268 0.0182845 0 1.42414 0 1.52634)
(1.53699 0.0218281 0 1.41684 0 1.52823)
(1.54121 0.0252397 0 1.4115 0 1.5299)
(1.54625 0.0292357 0 1.40708 0 1.53173)
(1.55247 0.0340186 0 1.404 0 1.53381)
(1.55982 0.0394963 0 1.40291 0 1.5361)
(1.56844 0.045712 0 1.40426 0 1.53864)
(1.57852 0.0527616 0 1.40853 0 1.54147)
(1.59026 0.0607417 0 1.41627 0 1.54462)
(1.60381 0.0697748 0 1.4281 0 1.54811)
(1.50903 0.000947654 0 1.50154 0 1.50902)
(1.51198 0.00274088 0 1.4902 0 1.51194)
(1.51476 0.00449732 0 1.47915 0 1.51457)
(1.51752 0.00631302 0 1.46823 0 1.51702)
(1.52033 0.00826976 0 1.45741 0 1.51932)
(1.52329 0.0104326 0 1.44677 0 1.52152)
(1.52646 0.0128572 0 1.43644 0 1.52364)
(1.52992 0.0155972 0 1.42657 0 1.52569)
(1.53378 0.0187093 0 1.41735 0 1.52772)
(1.53813 0.0222348 0 1.40902 0 1.52975)
(1.54283 0.0260125 0 1.40218 0 1.53173)
(1.54782 0.0299608 0 1.39699 0 1.53365)
(1.5542 0.0348967 0 1.39278 0 1.53594)
(1.56204 0.0407816 0 1.3904 0 1.53861)
(1.57148 0.0476492 0 1.39039 0 1.54169)
(1.58289 0.0557011 0 1.39323 0 1.54532)
(1.59666 0.065163 0 1.39945 0 1.54964)
(1.61322 0.0762744 0 1.40968 0 1.55478)
(1.50928 0.00109018 0 1.5009 0 1.50927)
(1.51261 0.00293758 0 1.48831 0 1.51255)
(1.51573 0.00452447 0 1.47578 0 1.51552)
(1.51882 0.00603843 0 1.46311 0 1.51829)
(1.52195 0.00762144 0 1.45036 0 1.52091)
(1.52518 0.00937318 0 1.43766 0 1.52338)
(1.52855 0.0113647 0 1.42519 0 1.52572)
(1.53213 0.0136517 0 1.41315 0 1.52794)
(1.53602 0.0162851 0 1.40173 0 1.53009)
(1.54031 0.0193109 0 1.39113 0 1.53219)
(1.54512 0.0227607 0 1.38162 0 1.53431)
(1.5507 0.0267779 0 1.37335 0 1.53654)
(1.55649 0.0309015 0 1.36729 0 1.5387)
(1.56402 0.0361611 0 1.36231 0 1.54139)
(1.5736 0.0426794 0 1.35926 0 1.54471)
(1.58554 0.0505982 0 1.35877 0 1.5488)
(1.60055 0.0603024 0 1.36137 0 1.55395)
(1.6194 0.0722628 0 1.36769 0 1.56046)
(1.50945 0.00140196 0 1.50033 0 1.50946)
(1.5131 0.00342 0 1.48629 0 1.51309)
(1.51662 0.00491428 0 1.47179 0 1.51645)
(1.52011 0.00623816 0 1.45674 0 1.51961)
(1.52359 0.00761076 0 1.44136 0 1.52255)
(1.52707 0.00915867 0 1.42594 0 1.52527)
(1.53057 0.010955 0 1.41075 0 1.52775)
(1.53414 0.0130428 0 1.396 0 1.53002)
(1.53786 0.0154549 0 1.3819 0 1.53211)
(1.54183 0.0182275 0 1.36863 0 1.53408)
(1.54621 0.0214118 0 1.35636 0 1.536)
(1.55122 0.0251128 0 1.34525 0 1.53797)
(1.55726 0.02954 0 1.33535 0 1.54015)
(1.56353 0.034037 0 1.32812 0 1.54232)
(1.5717 0.0396947 0 1.32211 0 1.54512)
(1.58264 0.0469567 0 1.31791 0 1.54889)
(1.59699 0.0560785 0 1.31627 0 1.55392)
(1.61589 0.0675497 0 1.31777 0 1.56072)
(1.50963 0.00160216 0 1.49984 0 1.50964)
(1.51364 0.00359897 0 1.48424 0 1.51361)
(1.51764 0.00487415 0 1.46723 0 1.51741)
(1.52166 0.00595516 0 1.44906 0 1.52099)
(1.52557 0.00709938 0 1.43031 0 1.52426)
(1.52932 0.00843114 0 1.41152 0 1.52714)
(1.53291 0.010014 0 1.39306 0 1.52963)
(1.53637 0.0118762 0 1.37521 0 1.53177)
(1.5398 0.0140321 0 1.35815 0 1.5336)
(1.54329 0.0164999 0 1.34203 0 1.5352)
(1.547 0.0193143 0 1.32695 0 1.53665)
(1.55114 0.0225478 0 1.31301 0 1.53805)
(1.55604 0.0263415 0 1.30025 0 1.53957)
(1.56216 0.0309235 0 1.28868 0 1.54138)
(1.56866 0.0355391 0 1.28019 0 1.54334)
(1.57695 0.041088 0 1.27306 0 1.54594)
(1.58866 0.0484202 0 1.26743 0 1.54982)
(1.60482 0.0580117 0 1.26433 0 1.55544)
(1.50974 0.00209994 0 1.49939 0 1.50977)
(1.51426 0.00417159 0 1.4815 0 1.51422)
(1.51904 0.00532319 0 1.46057 0 1.51867)
(1.5238 0.00637209 0 1.43768 0 1.5228)
(1.52822 0.00758865 0 1.41406 0 1.52637)
(1.53221 0.00905098 0 1.39052 0 1.52929)
(1.53577 0.0107841 0 1.36756 0 1.5316)
(1.53897 0.0127806 0 1.34548 0 1.53335)
(1.54189 0.0150222 0 1.32446 0 1.53464)
(1.54466 0.0175 0 1.30462 0 1.53556)
(1.54742 0.0202226 0 1.28602 0 1.53621)
(1.55034 0.0232247 0 1.26871 0 1.5367)
(1.55365 0.0265783 0 1.25271 0 1.53716)
(1.55763 0.030388 0 1.23812 0 1.53772)
(1.56252 0.0347188 0 1.22519 0 1.53852)
(1.56945 0.0402459 0 1.21339 0 1.53997)
(1.57699 0.0456915 0 1.20531 0 1.54189)
(1.58807 0.0528894 0 1.19844 0 1.54519)
(1.50975 0.0023979 0 1.49933 0 1.50977)
(1.51483 0.00444197 0 1.47881 0 1.51467)
(1.52062 0.00561982 0 1.45259 0 1.51983)
(1.52622 0.00687829 0 1.42356 0 1.52438)
(1.53107 0.00838203 0 1.39402 0 1.52791)
(1.53503 0.0101336 0 1.3651 0 1.53038)
(1.5382 0.0121408 0 1.33737 0 1.53191)
(1.54069 0.0143861 0 1.31109 0 1.53266)
(1.54266 0.0168354 0 1.28634 0 1.53277)
(1.54428 0.019464 0 1.26316 0 1.53241)
(1.5457 0.0222632 0 1.24151 0 1.5317)
(1.5471 0.0252422 0 1.22136 0 1.53077)
(1.54865 0.0284313 0 1.20268 0 1.52973)
(1.55058 0.0318845 0 1.18545 0 1.52873)
(1.55315 0.0356806 0 1.16969 0 1.52789)
(1.55686 0.0400176 0 1.15532 0 1.52744)
(1.562 0.0448576 0 1.14277 0 1.52757)
(1.56995 0.0510174 0 1.13169 0 1.52876)
(1.50988 0.00323155 0 1.49885 0 1.50989)
(1.51621 0.00546061 0 1.47327 0 1.5158)
(1.52366 0.00722402 0 1.43783 0 1.52199)
(1.53035 0.0095018 0 1.39893 0 1.5268)
(1.53547 0.0121453 0 1.36016 0 1.5298)
(1.53905 0.0149739 0 1.32295 0 1.53116)
(1.54135 0.0179472 0 1.28786 0 1.5312)
(1.54262 0.0210338 0 1.25509 0 1.53019)
(1.54311 0.0241867 0 1.22466 0 1.5284)
(1.54306 0.0273774 0 1.19647 0 1.52604)
(1.54267 0.0305974 0 1.1704 0 1.5233)
(1.54211 0.0338491 0 1.14633 0 1.52031)
(1.54153 0.0371447 0 1.12413 0 1.51721)
(1.5411 0.0405105 0 1.10369 0 1.5141)
(1.54097 0.0439885 0 1.08493 0 1.51107)
(1.54139 0.0476782 0 1.06779 0 1.50826)
(1.5425 0.0516765 0 1.05234 0 1.50574)
(1.54513 0.0563136 0 1.03867 0 1.50392)
(1.50966 0.00351967 0 1.49928 0 1.50961)
(1.51744 0.006855 0 1.46727 0 1.5164)
(1.52694 0.0105426 0 1.4186 0 1.52311)
(1.53427 0.014808 0 1.3674 0 1.52682)
(1.53864 0.0191834 0 1.31871 0 1.5275)
(1.54053 0.0234704 0 1.27367 0 1.52583)
(1.54057 0.0277271 0 1.23237 0 1.52251)
(1.53932 0.0319853 0 1.19461 0 1.51803)
(1.53716 0.036199 0 1.16012 0 1.51281)
(1.53444 0.0403363 0 1.12859 0 1.50714)
(1.53139 0.0443893 0 1.09973 0 1.50123)
(1.52821 0.0483585 0 1.07327 0 1.49524)
(1.52504 0.0522497 0 1.04899 0 1.48928)
(1.52202 0.0560834 0 1.0267 0 1.48346)
(1.51928 0.0598889 0 1.00623 0 1.47784)
(1.51698 0.0637181 0 0.987445 0 1.47253)
(1.51547 0.0676088 0 0.970184 0 1.46768)
(1.51486 0.0714819 0 0.954539 0 1.46341)
(1.5108 0.00509322 0 1.49643 0 1.51059)
(1.52244 0.0117628 0 1.44762 0 1.51956)
(1.53504 0.0207254 0 1.37203 0 1.52574)
(1.54239 0.0297414 0 1.29688 0 1.52592)
(1.54451 0.0377898 0 1.2289 0 1.52142)
(1.5428 0.0447575 0 1.16865 0 1.51383)
(1.53862 0.0510039 0 1.11549 0 1.50439)
(1.53303 0.0568003 0 1.06856 0 1.49398)
(1.52662 0.0621928 0 1.02708 0 1.48318)
(1.51982 0.06723 0 0.990248 0 1.47233)
(1.51293 0.0719666 0 0.957377 0 1.46165)
(1.50616 0.0764411 0 0.927917 0 1.45129)
(1.4996 0.0806779 0 0.901403 0 1.44132)
(1.49341 0.0847102 0 0.877466 0 1.43183)
(1.48758 0.0885507 0 0.855783 0 1.42279)
(1.48224 0.0922294 0 0.836124 0 1.4143)
(1.47699 0.0957108 0 0.818197 0 1.40609)
(1.4722 0.0991193 0 0.802244 0 1.3985)
(1.5099 0.00585422 0 1.49837 0 1.50918)
(1.52719 0.0257121 0 1.42396 0 1.51767)
(1.54265 0.0460813 0 1.31275 0 1.51623)
(1.54668 0.0612334 0 1.21617 0 1.50484)
(1.54253 0.0730173 0 1.13586 0 1.48816)
(1.53329 0.0825522 0 1.06845 0 1.46887)
(1.52175 0.09091 0 1.01091 0 1.44887)
(1.50965 0.0985884 0 0.961415 0 1.42939)
(1.49752 0.105587 0 0.918514 0 1.41077)
(1.48573 0.111974 0 0.881 0 1.39318)
(1.47449 0.117835 0 0.847937 0 1.37665)
(1.46396 0.123243 0 0.818607 0 1.36124)
(1.4541 0.12824 0 0.792403 0 1.34683)
(1.44504 0.132884 0 0.76891 0 1.33348)
(1.43668 0.137227 0 0.747677 0 1.321)
(1.42906 0.141282 0 0.728574 0 1.30951)
(1.42234 0.145254 0 0.711004 0 1.29874)
(1.41719 0.148723 0 0.695759 0 1.28958)
(1.51891 0.0284857 0 1.47291 0 1.51484)
(1.56347 0.11216 0 1.26323 0 1.51875)
(1.58352 0.161385 0 1.03729 0 1.48729)
(1.57612 0.182489 0 0.88633 0 1.44375)
(1.55766 0.193303 0 0.783401 0 1.39995)
(1.53414 0.199744 0 0.710181 0 1.35839)
(1.51197 0.205206 0 0.655773 0 1.32196)
(1.49285 0.210466 0 0.614114 0 1.29101)
(1.47587 0.215421 0 0.580963 0 1.26398)
(1.46082 0.220042 0 0.55385 0 1.24013)
(1.44739 0.224304 0 0.531249 0 1.21884)
(1.43572 0.228271 0 0.512133 0 1.19996)
(1.42531 0.231937 0 0.495704 0 1.18287)
(1.41649 0.235356 0 0.481505 0 1.16773)
(1.4085 0.238544 0 0.469061 0 1.15381)
(1.40205 0.241509 0 0.458154 0 1.14159)
(1.39585 0.244348 0 0.448493 0 1.13008)
(1.38989 0.246778 0 0.43968 0 1.11946)
(1.59275 0.29196 0 1.39579 0 1.52093)
(1.91621 0.578658 0 0.968018 0 1.53308)
(2.06896 0.585522 0 0.73215 0 1.48893)
(2.10321 0.552724 0 0.627885 0 1.43505)
(2.09186 0.525203 0 0.573505 0 1.38526)
(2.06345 0.50487 0 0.540171 0 1.34178)
(2.02889 0.489143 0 0.516932 0 1.3041)
(1.99319 0.476351 0 0.499133 0 1.27131)
(1.95866 0.465541 0 0.484602 0 1.24246)
(1.92611 0.456124 0 0.472275 0 1.21681)
(1.89576 0.447754 0 0.461567 0 1.19378)
(1.86752 0.440211 0 0.452109 0 1.17295)
(1.84136 0.433362 0 0.443664 0 1.15401)
(1.81696 0.427092 0 0.436046 0 1.13666)
(1.79445 0.421318 0 0.429131 0 1.12078)
(1.77321 0.41601 0 0.422832 0 1.10603)
(1.75383 0.411 0 0.416999 0 1.09256)
(1.73504 0.406322 0 0.411746 0 1.07979)
(0.0420611 0.0129843 0 0.0707712 0 0.0741242)
(0.0508571 -0.00295963 0 0.0460038 0 0.0708374)
(0.0573844 -0.00904328 0 0.0312157 0 0.0618918)
(0.0521508 0.00138182 0 0.0222292 0 0.0533593)
(0.0771163 0.0126673 0 0.0283805 0 0.0730972)
(0.138162 0.0207062 0 0.0451878 0 0.119568)
(0.24403 0.0289372 0 0.0677968 0 0.195389)
(0.336717 0.0396909 0 0.0889509 0 0.264128)
(0.417969 0.0519232 0 0.109751 0 0.327302)
(0.489527 0.0646201 0 0.130819 0 0.385952)
(0.552552 0.07702 0 0.152537 0 0.440411)
(0.608154 0.0887977 0 0.175149 0 0.49095)
(0.657182 0.09977 0 0.198822 0 0.537725)
(0.700259 0.109871 0 0.223643 0 0.580818)
(0.737933 0.119089 0 0.24968 0 0.620353)
(0.770649 0.127411 0 0.276953 0 0.656438)
(0.798832 0.134776 0 0.305463 0 0.689224)
(0.822762 0.14111 0 0.335109 0 0.718747)
(0.842699 0.146355 0 0.365692 0 0.745026)
(0.858897 0.150497 0 0.396939 0 0.7681)
(0.871589 0.153599 0 0.428495 0 0.78801)
(0.881011 0.155658 0 0.45996 0 0.804842)
(0.887527 0.15631 0 0.490951 0 0.818823)
(0.891733 0.155723 0 0.521288 0 0.83044)
(0.893852 0.154205 0 0.55052 0 0.839843)
(0.894071 0.151592 0 0.578362 0 0.847217)
(0.892436 0.148038 0 0.604557 0 0.852656)
(0.888928 0.143478 0 0.628943 0 0.856227)
(0.883494 0.137798 0 0.651031 0 0.857864)
(0.877309 0.131812 0 0.667558 0 0.857676)
(0.870626 0.126262 0 0.679928 0 0.856473)
(0.85378 0.117236 0 0.700241 0 0.851921)
(0.837862 0.106347 0 0.709667 0 0.845534)
(0.818083 0.0867896 0 0.715795 0 0.837489)
(0.800646 0.0688835 0 0.720007 0 0.829932)
(0.783697 0.0499497 0 0.722309 0 0.821937)
(0.768309 0.0312069 0 0.722517 0 0.814253)
(0.754197 0.0126468 0 0.720804 0 0.806739)
(0.741452 -0.00558587 0 0.717351 0 0.799476)
(0.730042 -0.0234569 0 0.712281 0 0.792473)
(0.720108 -0.0407959 0 0.705769 0 0.785813)
(0.711652 -0.0574628 0 0.697976 0 0.77951)
(0.70464 -0.0733807 0 0.689059 0 0.773571)
(0.699015 -0.0884777 0 0.679167 0 0.767987)
(0.694709 -0.102701 0 0.668455 0 0.762742)
(0.691632 -0.116008 0 0.657064 0 0.757801)
(0.689697 -0.128378 0 0.645158 0 0.75314)
(0.688799 -0.139805 0 0.632878 0 0.748718)
(0.688842 -0.150318 0 0.620393 0 0.744498)
(0.689756 -0.159999 0 0.60785 0 0.740441)
(0.691684 -0.16908 0 0.595461 0 0.736586)
(0.694593 -0.178022 0 0.583174 0 0.732779)
(0.698975 -0.188936 0 0.569696 0 0.729022)
(0.708302 -0.201705 0 0.544575 0 0.726665)
(0.717002 -0.21081 0 0.526966 0 0.726488)
(0.724712 -0.216401 0 0.513243 0 0.726802)
(0.731408 -0.219581 0 0.500704 0 0.726682)
(0.736871 -0.22113 0 0.489072 0 0.72592)
(0.741075 -0.22164 0 0.478331 0 0.724523)
(0.744251 -0.221528 0 0.468344 0 0.722627)
(0.74668 -0.221056 0 0.458978 0 0.720386)
(0.748595 -0.220374 0 0.450113 0 0.717927)
(0.750172 -0.219573 0 0.441677 0 0.715347)
(0.751526 -0.218703 0 0.433616 0 0.712711)
(0.752738 -0.217797 0 0.425902 0 0.710066)
(0.753859 -0.216873 0 0.418509 0 0.707442)
(0.754922 -0.215941 0 0.41142 0 0.704859)
(0.755946 -0.215008 0 0.404615 0 0.702326)
(0.756946 -0.214077 0 0.398084 0 0.69985)
(0.757926 -0.213151 0 0.391808 0 0.697432)
(0.758891 -0.21223 0 0.385778 0 0.695073)
(0.75984 -0.211316 0 0.379978 0 0.692769)
(0.760776 -0.210408 0 0.374399 0 0.690521)
(0.761696 -0.209508 0 0.369025 0 0.688323)
(0.762603 -0.208614 0 0.363848 0 0.686176)
(0.763483 -0.207725 0 0.358854 0 0.684067)
(0.764367 -0.206844 0 0.354036 0 0.682014)
(0.765265 -0.205974 0 0.349386 0 0.680016)
(0.766153 -0.205109 0 0.344891 0 0.67806)
(0.767018 -0.204245 0 0.340537 0 0.676132)
(0.767855 -0.203382 0 0.336318 0 0.674228)
(0.76866 -0.202521 0 0.332225 0 0.672343)
(0.769434 -0.201661 0 0.328254 0 0.670477)
(0.770176 -0.200803 0 0.324402 0 0.668627)
(0.770887 -0.19995 0 0.320667 0 0.666795)
(0.771569 -0.199102 0 0.317047 0 0.664982)
(0.772225 -0.198261 0 0.31354 0 0.663191)
(0.772856 -0.197428 0 0.310145 0 0.661421)
(0.773463 -0.196605 0 0.306859 0 0.659674)
(0.774046 -0.195791 0 0.303677 0 0.657949)
(0.774605 -0.19499 0 0.300595 0 0.656243)
(0.775138 -0.194202 0 0.297612 0 0.654556)
(0.775648 -0.193428 0 0.294723 0 0.652889)
(0.776138 -0.192669 0 0.29193 0 0.651243)
(0.77661 -0.191927 0 0.289232 0 0.649621)
(0.777067 -0.191204 0 0.286627 0 0.648026)
(0.777512 -0.190502 0 0.284115 0 0.646458)
(0.777948 -0.189821 0 0.281695 0 0.644921)
(0.778377 -0.189165 0 0.279365 0 0.643415)
(0.778799 -0.188532 0 0.277122 0 0.641939)
(0.779217 -0.187926 0 0.274966 0 0.640496)
(0.779632 -0.187346 0 0.272893 0 0.639086)
(0.780047 -0.186794 0 0.270903 0 0.637711)
(0.780464 -0.186269 0 0.268993 0 0.636371)
(0.780884 -0.185773 0 0.267161 0 0.635067)
(0.781308 -0.185305 0 0.265402 0 0.633798)
(0.781736 -0.184864 0 0.263715 0 0.632563)
(0.782168 -0.18445 0 0.262095 0 0.631362)
(0.782604 -0.184062 0 0.26054 0 0.630192)
(0.783041 -0.183699 0 0.259045 0 0.629051)
(0.783479 -0.183361 0 0.257607 0 0.627937)
(0.783915 -0.183046 0 0.256223 0 0.626849)
(0.78435 -0.182752 0 0.254889 0 0.625783)
(0.78478 -0.182479 0 0.253601 0 0.624737)
(0.785204 -0.182225 0 0.252358 0 0.62371)
(0.78562 -0.181988 0 0.251155 0 0.622699)
(0.786029 -0.181768 0 0.249991 0 0.621702)
(0.786427 -0.181564 0 0.248862 0 0.620719)
(0.786814 -0.181374 0 0.247767 0 0.619747)
(0.78719 -0.181197 0 0.246704 0 0.618785)
(0.787555 -0.181033 0 0.245671 0 0.617834)
(0.787908 -0.180881 0 0.244667 0 0.616892)
(0.788251 -0.18074 0 0.243691 0 0.615959)
(0.788584 -0.180609 0 0.242741 0 0.615037)
(0.788908 -0.180489 0 0.241818 0 0.614124)
(0.789229 -0.180379 0 0.240919 0 0.613225)
(0.789551 -0.180278 0 0.240045 0 0.612342)
(0.789874 -0.180186 0 0.239195 0 0.611473)
(0.790199 -0.180104 0 0.238367 0 0.610619)
(0.790529 -0.180029 0 0.237559 0 0.60978)
(0.790864 -0.179961 0 0.23677 0 0.608956)
(0.791206 -0.179901 0 0.235997 0 0.608145)
(0.791555 -0.179845 0 0.235238 0 0.607346)
(0.79191 -0.179793 0 0.23449 0 0.606556)
(0.792271 -0.179743 0 0.23375 0 0.605774)
(0.792634 -0.179692 0 0.233015 0 0.604995)
(0.792994 -0.179639 0 0.232281 0 0.604213)
(0.793343 -0.179579 0 0.231545 0 0.603422)
(0.793671 -0.179511 0 0.230804 0 0.602614)
(0.793962 -0.179431 0 0.230052 0 0.601775)
(0.794203 -0.179334 0 0.229286 0 0.600897)
(0.794389 -0.179222 0 0.228507 0 0.599977)
(0.794522 -0.179094 0 0.227719 0 0.599019)
(0.794605 -0.178954 0 0.226924 0 0.59803)
(0.794645 -0.178803 0 0.226129 0 0.597017)
(0.794652 -0.178644 0 0.225338 0 0.59599)
(0.79463 -0.178481 0 0.224555 0 0.594956)
(0.794582 -0.178315 0 0.223781 0 0.593915)
(0.794528 -0.17815 0 0.223023 0 0.592886)
(0.794469 -0.177987 0 0.222282 0 0.591873)
(0.794378 -0.177822 0 0.221549 0 0.590844)
(0.794242 -0.177652 0 0.220819 0 0.589788)
(0.794029 -0.177472 0 0.220082 0 0.588675)
(0.793724 -0.177279 0 0.219333 0 0.587488)
(0.793375 -0.177081 0 0.218587 0 0.58628)
(0.792982 -0.176879 0 0.217841 0 0.585042)
(0.792576 -0.176678 0 0.217105 0 0.583808)
(0.792156 -0.176479 0 0.216375 0 0.58257)
(0.791712 -0.17628 0 0.215647 0 0.581317)
(0.791259 -0.176082 0 0.214925 0 0.580065)
(0.790787 -0.175883 0 0.214204 0 0.578803)
(0.790316 -0.175688 0 0.213491 0 0.57755)
(0.789829 -0.175493 0 0.212781 0 0.57629)
(0.789293 -0.175292 0 0.212065 0 0.574999)
(0.788706 -0.175083 0 0.211346 0 0.573681)
(0.788072 -0.174866 0 0.210622 0 0.572342)
(0.787427 -0.174645 0 0.209905 0 0.571011)
(0.786724 -0.174409 0 0.209179 0 0.569653)
(0.786019 -0.174169 0 0.208457 0 0.568308)
(0.785173 -0.173889 0 0.207706 0 0.566872)
(0.784171 -0.173548 0 0.206919 0 0.565339)
(0.782777 -0.173102 0 0.206033 0 0.563549)
(0.781137 -0.172551 0 0.205065 0 0.561572)
(0.778768 -0.171826 0 0.203911 0 0.559146)