/*--------------------------------*- C++ -*----------------------------------*\
| =========                 |                                                 |
| \\      /  F ield         | OpenFOAM: The Open Source CFD Toolbox           |
|  \\    /   O peration     | Version:  v1906                                 |
|   \\  /    A nd           | Web:      www.OpenFOAM.com                      |
|    \\/     M anipulation  |                                                 |
\*---------------------------------------------------------------------------*/
FoamFile
{
    version     2.0;
    format      ascii;
    class       volVectorField;
    location    "200";
    object      U;
}
// * * * * * * * * * * * * * * * * * * * * * * * * * * * * * * * * * * * * * //

dimensions      [0 1 -1 0 0 0 0];


internalField   nonuniform List<vector> 
12225
(
(9.79743 -0.108859 0)
(9.50801 -0.357047 0)
(9.26791 -0.488805 0)
(9.07287 -0.541727 0)
(8.91452 -0.560879 0)
(8.77939 -0.56719 0)
(8.66083 -0.568442 0)
(8.55693 -0.567377 0)
(8.46674 -0.565221 0)
(8.38918 -0.562468 0)
(8.32392 -0.559541 0)
(8.27025 -0.556428 0)
(8.22852 -0.553723 0)
(8.19938 -0.551646 0)
(8.18674 -0.551152 0)
(8.18912 -0.551185 0)
(8.2151 -0.548683 0)
(8.27608 -0.569536 0)
(10.0492 0.150327 0)
(10.091 0.259414 0)
(10.0685 0.318742 0)
(10.0263 0.362662 0)
(9.98436 0.39215 0)
(9.94284 0.410674 0)
(9.90174 0.422528 0)
(9.86246 0.430196 0)
(9.82566 0.434913 0)
(9.79128 0.437423 0)
(9.75945 0.43833 0)
(9.73047 0.43795 0)
(9.70456 0.436407 0)
(9.68216 0.433559 0)
(9.66328 0.42941 0)
(9.65346 0.422671 0)
(9.65797 0.403794 0)
(9.68349 0.362618 0)
(10.0166 0.00762875 0)
(10.0504 -0.0111269 0)
(10.0429 -0.0538969 0)
(10.0212 -0.0947114 0)
(10.0017 -0.129932 0)
(9.98458 -0.159325 0)
(9.96895 -0.182912 0)
(9.95518 -0.201871 0)
(9.94339 -0.217616 0)
(9.93359 -0.231259 0)
(9.92572 -0.2435 0)
(9.92034 -0.255019 0)
(9.91757 -0.266431 0)
(9.91869 -0.278785 0)
(9.92354 -0.293422 0)
(9.93488 -0.312223 0)
(9.95263 -0.337128 0)
(9.96979 -0.383245 0)
(10.0097 0.0581091 0)
(10.0396 0.0970407 0)
(10.0524 0.114059 0)
(10.0545 0.132736 0)
(10.0548 0.151183 0)
(10.0538 0.16714 0)
(10.0515 0.180584 0)
(10.0492 0.191708 0)
(10.0475 0.200655 0)
(10.0468 0.207657 0)
(10.0474 0.21297 0)
(10.0498 0.216709 0)
(10.0543 0.21879 0)
(10.0619 0.218797 0)
(10.0728 0.216077 0)
(10.0879 0.207112 0)
(10.1057 0.18751 0)
(10.1244 0.150355 0)
(10.0095 0.0196272 0)
(10.0412 0.0280762 0)
(10.058 0.0201051 0)
(10.0639 0.00804114 0)
(10.0675 -0.00636665 0)
(10.0699 -0.02224 0)
(10.0718 -0.037973 0)
(10.0739 -0.0528931 0)
(10.0768 -0.0670887 0)
(10.0806 -0.0808271 0)
(10.0856 -0.0944286 0)
(10.092 -0.108333 0)
(10.1001 -0.123156 0)
(10.1102 -0.139851 0)
(10.1225 -0.159418 0)
(10.1367 -0.183005 0)
(10.1529 -0.211995 0)
(10.1608 -0.251617 0)
(10.0059 0.0329601 0)
(10.0292 0.0610187 0)
(10.0467 0.0714707 0)
(10.0582 0.0788095 0)
(10.0681 0.0854939 0)
(10.0769 0.0915068 0)
(10.0847 0.0971347 0)
(10.0922 0.102273 0)
(10.0999 0.106626 0)
(10.108 0.109987 0)
(10.1169 0.112218 0)
(10.1269 0.113117 0)
(10.1382 0.112381 0)
(10.1511 0.109436 0)
(10.1656 0.103019 0)
(10.1808 0.0912249 0)
(10.1954 0.0723451 0)
(10.2076 0.0451433 0)
(10.0046 0.0155323 0)
(10.0248 0.0281376 0)
(10.0418 0.029114 0)
(10.0531 0.0257924 0)
(10.0625 0.0198185 0)
(10.0705 0.0117355 0)
(10.0778 0.00247459 0)
(10.0849 -0.00746079 0)
(10.0923 -0.017977 0)
(10.1004 -0.0291352 0)
(10.1091 -0.0410967 0)
(10.1188 -0.0541754 0)
(10.1294 -0.0688735 0)
(10.1409 -0.0857139 0)
(10.1535 -0.105106 0)
(10.1661 -0.128003 0)
(10.1781 -0.154486 0)
(10.1835 -0.186493 0)
(10.0032 0.0198161 0)
(10.0189 0.0419075 0)
(10.0343 0.0519251 0)
(10.0469 0.057327 0)
(10.0588 0.060574 0)
(10.07 0.0625029 0)
(10.0807 0.063781 0)
(10.0912 0.0645966 0)
(10.102 0.0648442 0)
(10.1131 0.064352 0)
(10.1248 0.0629154 0)
(10.1371 0.0602808 0)
(10.1502 0.0560702 0)
(10.1639 0.0495828 0)
(10.1776 0.0400971 0)
(10.1907 0.0268117 0)
(10.202 0.00926753 0)
(10.2111 -0.0117165 0)
(10.002 0.0109147 0)
(10.0142 0.0225166 0)
(10.0281 0.0259156 0)
(10.0398 0.0253285 0)
(10.0504 0.0222025 0)
(10.0601 0.0171526 0)
(10.069 0.0107739 0)
(10.0777 0.00334139 0)
(10.0863 -0.00510849 0)
(10.095 -0.0146385 0)
(10.104 -0.0253965 0)
(10.1133 -0.0376321 0)
(10.1229 -0.0515507 0)
(10.1327 -0.0674275 0)
(10.1425 -0.0855208 0)
(10.1514 -0.10614 0)
(10.159 -0.128995 0)
(10.1621 -0.154539 0)
(10.0017 0.0119841 0)
(10.0121 0.0287168 0)
(10.0243 0.037779 0)
(10.0354 0.0426032 0)
(10.0461 0.0447748 0)
(10.0563 0.045181 0)
(10.0662 0.0444994 0)
(10.0761 0.0430408 0)
(10.0863 0.0408612 0)
(10.0968 0.0378923 0)
(10.1079 0.0339899 0)
(10.1194 0.0288935 0)
(10.1313 0.0222372 0)
(10.1433 0.0136395 0)
(10.155 0.00281147 0)
(10.1658 -0.0105724 0)
(10.1755 -0.0264922 0)
(10.1836 -0.0438577 0)
(10.0007 0.00721776 0)
(10.0078 0.0163281 0)
(10.0188 0.0198437 0)
(10.0303 0.0201006 0)
(10.0425 0.0180627 0)
(10.0547 0.0142547 0)
(10.0668 0.00905291 0)
(10.0788 0.00260117 0)
(10.0905 -0.0050981 0)
(10.1019 -0.0141028 0)
(10.1129 -0.0244968 0)
(10.1235 -0.0363718 0)
(10.1336 -0.049819 0)
(10.143 -0.0649796 0)
(10.1517 -0.0819282 0)
(10.1592 -0.100747 0)
(10.1649 -0.120892 0)
(10.1678 -0.142698 0)
(10.001 0.00733679 0)
(10.0081 0.0188262 0)
(10.0172 0.0252458 0)
(10.0253 0.0282218 0)
(10.0327 0.0287089 0)
(10.0393 0.027514 0)
(10.0455 0.025224 0)
(10.0519 0.0221384 0)
(10.0588 0.0183491 0)
(10.0662 0.0138157 0)
(10.0744 0.00838644 0)
(10.0832 0.00185917 0)
(10.0922 -0.00600203 0)
(10.1012 -0.0154488 0)
(10.1099 -0.02661 0)
(10.1178 -0.0393737 0)
(10.1242 -0.0536968 0)
(10.1298 -0.0681417 0)
(10.0002 0.00459737 0)
(10.0051 0.0113375 0)
(10.0137 0.0146544 0)
(10.0233 0.0157414 0)
(10.0335 0.014795 0)
(10.0436 0.0120107 0)
(10.0534 0.00752076 0)
(10.0626 0.00140877 0)
(10.0713 -0.00626593 0)
(10.0794 -0.0154361 0)
(10.087 -0.0260232 0)
(10.094 -0.0379937 0)
(10.1005 -0.051359 0)
(10.1064 -0.0661045 0)
(10.1116 -0.0821067 0)
(10.1157 -0.0992471 0)
(10.1189 -0.117306 0)
(10.1203 -0.136495 0)
(10.0005 0.0043568 0)
(10.0051 0.0117695 0)
(10.0124 0.0158479 0)
(10.0207 0.0173621 0)
(10.03 0.0168677 0)
(10.0399 0.0150706 0)
(10.0502 0.0124664 0)
(10.0607 0.00931207 0)
(10.0712 0.00568094 0)
(10.0815 0.00151449 0)
(10.0914 -0.00335911 0)
(10.1008 -0.00919588 0)
(10.1095 -0.0161906 0)
(10.1174 -0.0244366 0)
(10.1241 -0.0339194 0)
(10.1298 -0.0446131 0)
(10.1339 -0.0564012 0)
(10.1369 -0.0683898 0)
(10.0001 0.00213505 0)
(10.0033 0.00523921 0)
(10.0093 0.00625844 0)
(10.0161 0.00570401 0)
(10.0231 0.00354787 0)
(10.0298 -0.000160366 0)
(10.0361 -0.00540481 0)
(10.0421 -0.0121684 0)
(10.0479 -0.0204019 0)
(10.0536 -0.0300308 0)
(10.0593 -0.0410194 0)
(10.065 -0.0533156 0)
(10.0705 -0.0667879 0)
(10.0757 -0.0812882 0)
(10.0804 -0.0967018 0)
(10.0846 -0.112883 0)
(10.0879 -0.129624 0)
(10.0907 -0.147035 0)
(10.0002 0.00168498 0)
(10.0032 0.00478556 0)
(10.0085 0.00642691 0)
(10.0148 0.00676277 0)
(10.0222 0.00592389 0)
(10.03 0.00419202 0)
(10.0382 0.00178996 0)
(10.0462 -0.001154 0)
(10.054 -0.00457217 0)
(10.0612 -0.00847211 0)
(10.0677 -0.0129403 0)
(10.0732 -0.0180381 0)
(10.0777 -0.023801 0)
(10.0809 -0.0302806 0)
(10.083 -0.0374966 0)
(10.0838 -0.0454051 0)
(10.0834 -0.0541403 0)
(10.0818 -0.0628516 0)
(10.0001 -0.00039086 0)
(10.0024 -0.00167755 0)
(10.0067 -0.00402497 0)
(10.012 -0.00734086 0)
(10.0177 -0.0116971 0)
(10.0237 -0.0171216 0)
(10.0294 -0.0236322 0)
(10.035 -0.0312418 0)
(10.0403 -0.0399366 0)
(10.0453 -0.0496709 0)
(10.05 -0.0604122 0)
(10.0544 -0.0721021 0)
(10.0583 -0.084683 0)
(10.0618 -0.0980672 0)
(10.0649 -0.112154 0)
(10.0675 -0.126829 0)
(10.0695 -0.141892 0)
(10.0712 -0.157407 0)
(10 -0.000513169 0)
(10.0016 -0.00139369 0)
(10.0049 -0.00238633 0)
(10.0091 -0.00354397 0)
(10.0139 -0.00489863 0)
(10.0189 -0.0064243 0)
(10.0238 -0.00809907 0)
(10.0283 -0.00993695 0)
(10.0323 -0.0119529 0)
(10.0356 -0.0141282 0)
(10.0382 -0.0165013 0)
(10.0398 -0.019153 0)
(10.0404 -0.0221305 0)
(10.04 -0.0254596 0)
(10.0386 -0.0291877 0)
(10.0362 -0.0333007 0)
(10.0329 -0.0380064 0)
(10.0286 -0.0426644 0)
(10.0003 -0.00327956 0)
(10.0029 -0.00995628 0)
(10.0073 -0.016693 0)
(10.0126 -0.0235361 0)
(10.0184 -0.0306153 0)
(10.0243 -0.0380532 0)
(10.0302 -0.0459531 0)
(10.0359 -0.05441 0)
(10.0413 -0.0635167 0)
(10.0464 -0.0732329 0)
(10.0511 -0.0834756 0)
(10.0552 -0.0942925 0)
(10.0589 -0.105693 0)
(10.062 -0.117604 0)
(10.0645 -0.129986 0)
(10.0664 -0.142796 0)
(10.0673 -0.155963 0)
(10.0678 -0.169444 0)
(9.99982 -0.00333068 0)
(10.0006 -0.00904241 0)
(10.0031 -0.0134527 0)
(10.0061 -0.0168812 0)
(10.0092 -0.0195523 0)
(10.0121 -0.0216404 0)
(10.0144 -0.0232918 0)
(10.016 -0.0246239 0)
(10.0169 -0.0257499 0)
(10.0168 -0.0267838 0)
(10.0159 -0.0277313 0)
(10.0141 -0.028576 0)
(10.0113 -0.0293709 0)
(10.0076 -0.0301971 0)
(10.003 -0.0309995 0)
(9.99753 -0.0317312 0)
(9.99147 -0.0324451 0)
(9.98456 -0.0327993 0)
(10.0005 -0.00576813 0)
(10.0046 -0.0168669 0)
(10.0104 -0.0263135 0)
(10.0166 -0.0344487 0)
(10.0228 -0.0417079 0)
(10.0289 -0.0484679 0)
(10.0346 -0.0550384 0)
(10.0397 -0.0616276 0)
(10.0444 -0.0683343 0)
(10.0485 -0.0752029 0)
(10.0521 -0.08226 0)
(10.0551 -0.0894991 0)
(10.0576 -0.0968545 0)
(10.0597 -0.104321 0)
(10.0612 -0.112056 0)
(10.0625 -0.120126 0)
(10.0629 -0.128648 0)
(10.0635 -0.13793 0)
(9.9999 -0.00563626 0)
(10.0021 -0.014643 0)
(10.0066 -0.020543 0)
(10.011 -0.0242716 0)
(10.0148 -0.0263938 0)
(10.0177 -0.0272751 0)
(10.0195 -0.0272691 0)
(10.0204 -0.0266631 0)
(10.0204 -0.0256735 0)
(10.0195 -0.0244545 0)
(10.0178 -0.0231098 0)
(10.0153 -0.021724 0)
(10.0119 -0.0203802 0)
(10.0076 -0.019022 0)
(10.0025 -0.0175914 0)
(9.99621 -0.0160086 0)
(9.98899 -0.0142357 0)
(9.97977 -0.0116939 0)
(10.0011 -0.0103202 0)
(10.0083 -0.0277051 0)
(10.0171 -0.0400217 0)
(10.0252 -0.0493673 0)
(10.0327 -0.0571604 0)
(10.0394 -0.0641593 0)
(10.0453 -0.0708724 0)
(10.0503 -0.0775638 0)
(10.0545 -0.0842947 0)
(10.0579 -0.0910339 0)
(10.0606 -0.097726 0)
(10.0628 -0.104299 0)
(10.0644 -0.110682 0)
(10.0657 -0.116839 0)
(10.0667 -0.122747 0)
(10.0681 -0.128424 0)
(10.0697 -0.134025 0)
(10.0732 -0.140295 0)
(10.0009 -0.00869055 0)
(10.0079 -0.0200462 0)
(10.0166 -0.0250455 0)
(10.0229 -0.0263731 0)
(10.027 -0.0252444 0)
(10.0295 -0.0222389 0)
(10.0305 -0.0180512 0)
(10.0303 -0.0132685 0)
(10.0293 -0.00825951 0)
(10.0276 -0.00326398 0)
(10.0253 0.00155344 0)
(10.0224 0.00608189 0)
(10.0189 0.0102457 0)
(10.0148 0.0140226 0)
(10.01 0.0174034 0)
(10.004 0.0203386 0)
(9.99674 0.0230537 0)
(9.98563 0.0264231 0)
(10.0026 -0.0204394 0)
(10.0158 -0.0463473 0)
(10.0288 -0.0608943 0)
(10.0385 -0.0717437 0)
(10.0465 -0.0817182 0)
(10.0531 -0.0913457 0)
(10.0581 -0.100886 0)
(10.0616 -0.110362 0)
(10.0641 -0.119588 0)
(10.0656 -0.128388 0)
(10.0662 -0.136661 0)
(10.0662 -0.144353 0)
(10.0656 -0.151417 0)
(10.0646 -0.15781 0)
(10.0634 -0.163472 0)
(10.0628 -0.16834 0)
(10.0627 -0.172447 0)
(10.0674 -0.176323 0)
(10.0044 -0.0120793 0)
(10.0228 -0.0220841 0)
(10.0357 -0.0199606 0)
(10.0404 -0.0125282 0)
(10.0415 -0.00205787 0)
(10.0407 0.0103065 0)
(10.0384 0.0230384 0)
(10.0352 0.0351369 0)
(10.0316 0.0462283 0)
(10.0276 0.0562128 0)
(10.0232 0.0650819 0)
(10.0185 0.0728742 0)
(10.0135 0.0796602 0)
(10.0082 0.0855053 0)
(10.0025 0.0904394 0)
(9.99607 0.094431 0)
(9.98882 0.0973991 0)
(9.97549 0.0998735 0)
(10.0056 -0.0441636 0)
(10.0274 -0.0826274 0)
(10.0421 -0.102605 0)
(10.0484 -0.122489 0)
(10.0515 -0.142853 0)
(10.0522 -0.161678 0)
(10.0505 -0.178537 0)
(10.047 -0.193443 0)
(10.0424 -0.206367 0)
(10.0371 -0.217423 0)
(10.0312 -0.226837 0)
(10.0248 -0.234832 0)
(10.0181 -0.241578 0)
(10.0112 -0.247225 0)
(10.0042 -0.251854 0)
(9.99755 -0.255482 0)
(9.99118 -0.257942 0)
(9.9917 -0.258945 0)
(10.0127 -0.00423735 0)
(10.0429 0.00675315 0)
(10.0424 0.0403945 0)
(10.0266 0.0760846 0)
(10.0099 0.108774 0)
(9.99461 0.136948 0)
(9.97974 0.159924 0)
(9.96534 0.178135 0)
(9.95156 0.192535 0)
(9.9382 0.203965 0)
(9.92507 0.213018 0)
(9.91213 0.220138 0)
(9.89938 0.225665 0)
(9.88676 0.229865 0)
(9.87438 0.232909 0)
(9.86184 0.234907 0)
(9.84975 0.235741 0)
(9.83069 0.235646 0)
(10.0322 -0.126764 0)
(10.0676 -0.225995 0)
(10.0593 -0.280876 0)
(10.0334 -0.323705 0)
(10.007 -0.354477 0)
(9.98129 -0.375131 0)
(9.95558 -0.389196 0)
(9.93052 -0.398916 0)
(9.90657 -0.405488 0)
(9.88357 -0.409676 0)
(9.86131 -0.412037 0)
(9.83971 -0.412982 0)
(9.81872 -0.412805 0)
(9.79833 -0.411732 0)
(9.77845 -0.409916 0)
(9.75946 -0.407606 0)
(9.74098 -0.404745 0)
(9.73164 -0.400879 0)
(9.86102 0.0768058 0)
(9.66134 0.273815 0)
(9.48523 0.392673 0)
(9.33475 0.44699 0)
(9.20861 0.469283 0)
(9.09665 0.477601 0)
(8.99293 0.479438 0)
(8.89601 0.477982 0)
(8.80541 0.474748 0)
(8.72048 0.470458 0)
(8.64066 0.465457 0)
(8.56557 0.459932 0)
(8.49489 0.453992 0)
(8.42826 0.447726 0)
(8.36535 0.441131 0)
(8.30566 0.43438 0)
(8.24891 0.426562 0)
(8.18923 0.418427 0)
(-0.168475 -0.442146 -7.92356e-20)
(0.170527 -0.450278 6.46318e-20)
(0.22817 -0.225537 0)
(0.00849835 0.117792 0)
(-0.265312 0.196725 0)
(-0.519966 0.195416 -2.61119e-20)
(-0.770052 0.187125 0)
(-1.02117 0.177512 0)
(-1.27403 0.159215 0)
(-1.51644 0.129896 0)
(-1.74527 0.0902467 1.49507e-20)
(-1.95654 0.0422938 0)
(-2.14808 -0.0114987 0)
(-2.31872 -0.0687521 0)
(-2.46804 -0.127325 0)
(-2.59614 -0.185387 1.40794e-20)
(-2.70323 -0.241333 0)
(-2.78969 -0.293809 0)
(-2.85607 -0.341561 0)
(-2.90322 -0.383355 0)
(-2.93184 -0.4178 0)
(-2.94205 -0.443825 0)
(-2.93392 -0.461691 0)
(-2.91366 -0.475945 1.25933e-20)
(-2.88102 -0.488024 -1.21751e-20)
(-2.83804 -0.498815 1.16977e-20)
(-2.78561 -0.508806 1.11556e-20)
(-2.72468 -0.518202 0)
(-2.65615 -0.526972 0)
(-2.58055 -0.534924 -9.12393e-21)
(-2.49807 -0.542074 -8.30111e-21)
(-2.41023 -0.549063 0)
(-2.31738 -0.555512 0)
(-2.21931 -0.562917 -5.33532e-21)
(-2.11734 -0.570759 0)
(-2.01117 -0.57831 0)
(-1.90192 -0.585781 1.56693e-21)
(-1.78982 -0.593258 0)
(-1.67549 -0.600818 -1.49846e-21)
(-1.55941 -0.608553 -6.46995e-21)
(-1.44208 -0.616543 0)
(-1.32392 -0.624846 0)
(-1.2054 -0.633586 0)
(-1.08691 -0.642876 0)
(-0.968813 -0.652875 0)
(-0.851456 -0.663723 -3.60075e-20)
(-0.735161 -0.675641 -4.31622e-20)
(-0.62023 -0.688806 -5.13427e-20)
(-0.506978 -0.703425 0)
(-0.39572 -0.719518 7.1834e-20)
(-0.286929 -0.736819 0)
(-0.182206 -0.754094 -1.00574e-19)
(-0.0834714 -0.769321 -1.19366e-19)
(0.00994649 -0.767148 0)
(0.10435 -0.745911 0)
(0.201853 -0.720147 0)
(0.300815 -0.694107 -1.1071e-19)
(0.398979 -0.669152 0)
(0.495198 -0.646129 0)
(0.588798 -0.62514 0)
(0.679491 -0.606065 0)
(0.767197 -0.588701 0)
(0.851951 -0.572859 0)
(0.93386 -0.55834 0)
(1.01307 -0.544995 0)
(1.08972 -0.532673 8.28125e-20)
(1.16399 -0.521268 0)
(1.236 -0.510669 0)
(1.30591 -0.500804 -7.8862e-20)
(1.37382 -0.491591 -7.77864e-20)
(1.43985 -0.48298 0)
(1.50411 -0.474907 7.59035e-20)
(1.5667 -0.467336 -7.50749e-20)
(1.62769 -0.460213 0)
(1.68718 -0.453514 7.3605e-20)
(1.74525 -0.447193 0)
(1.80194 -0.441232 0)
(1.85732 -0.435603 -7.17738e-20)
(1.91144 -0.430291 0)
(1.96435 -0.425266 7.07496e-20)
(2.0161 -0.420515 0)
(2.06671 -0.416014 -6.98543e-20)
(2.11621 -0.411757 -6.94486e-20)
(2.16465 -0.407724 -6.90699e-20)
(2.21204 -0.403913 -1.37428e-19)
(2.25842 -0.40031 1.36763e-19)
(2.30381 -0.396912 0)
(2.34822 -0.393705 0)
(2.3917 -0.390684 0)
(2.43423 -0.387841 1.34489e-19)
(2.47586 -0.385164 1.34011e-19)
(2.51666 -0.382647 -1.33563e-19)
(2.55663 -0.380284 0)
(2.59579 -0.378068 1.32749e-19)
(2.63417 -0.375996 1.3238e-19)
(2.67178 -0.374059 1.32034e-19)
(2.70866 -0.372255 0)
(2.74482 -0.370578 0)
(2.7803 -0.369026 0)
(2.81513 -0.367592 1.30841e-19)
(2.84933 -0.366276 0)
(2.88294 -0.36507 0)
(2.916 -0.363975 -1.30105e-19)
(2.94852 -0.362984 0)
(2.98054 -0.362098 0)
(3.01209 -0.361311 -1.29457e-19)
(3.04318 -0.360622 0)
(3.07386 -0.360025 0)
(3.10414 -0.35952 1.28863e-19)
(3.13406 -0.3591 1.28673e-19)
(3.16364 -0.358763 0)
(3.19291 -0.358504 -1.28297e-19)
(3.22187 -0.358319 0)
(3.25057 -0.358203 1.27924e-19)
(3.279 -0.358155 0)
(3.30719 -0.358166 1.27547e-19)
(3.33515 -0.358238 1.27356e-19)
(3.36289 -0.358364 0)
(3.39042 -0.358546 0)
(3.41774 -0.358779 0)
(3.44487 -0.359065 0)
(3.47182 -0.359401 0)
(3.49859 -0.359789 0)
(3.52518 -0.360225 0)
(3.55158 -0.360709 1.25723e-19)
(3.5778 -0.361235 -1.25501e-19)
(3.60384 -0.361803 0)
(3.62971 -0.362407 0)
(3.6554 -0.363048 0)
(3.68092 -0.363724 0)
(3.70627 -0.36444 -2.48649e-19)
(3.73146 -0.365199 0)
(3.75648 -0.366009 2.47641e-19)
(3.78134 -0.366877 -2.47123e-19)
(3.80602 -0.367817 0)
(3.83052 -0.368833 0)
(3.85482 -0.369934 0)
(3.87889 -0.371122 2.44984e-19)
(3.90272 -0.372396 2.44442e-19)
(3.92627 -0.373749 0)
(3.94953 -0.375174 2.43375e-19)
(3.97246 -0.376659 2.42853e-19)
(3.99505 -0.378196 -2.42339e-19)
(4.01727 -0.379775 0)
(4.0391 -0.381395 0)
(4.06051 -0.383055 -2.40848e-19)
(4.08151 -0.384756 0)
(4.10208 -0.386502 0)
(4.12221 -0.388299 0)
(4.1419 -0.39015 0)
(4.16117 -0.392062 2.38558e-19)
(4.17999 -0.394036 2.38141e-19)
(4.19838 -0.39607 0)
(4.21633 -0.398148 2.37415e-19)
(4.23384 -0.400262 0)
(4.2509 -0.40239 0)
(4.26752 -0.404522 2.36429e-19)
(4.2837 -0.406642 0)
(4.29944 -0.408737 2.35836e-19)
(4.31475 -0.410794 0)
(4.32961 -0.412801 0)
(4.34403 -0.414748 2.35056e-19)
(4.35797 -0.416609 0)
(4.37139 -0.418302 2.34643e-19)
(4.38424 -0.419723 0)
(4.39649 -0.420861 0)
(4.40811 -0.421743 0)
(4.41898 -0.422365 -2.342e-19)
(4.42903 -0.422684 0)
(4.43778 -0.422377 2.34328e-19)
(4.4442 -0.421116 0)
(4.44761 -0.418921 0)
(4.4473 -0.415804 0)
(4.44189 -0.411546 0)
(4.42992 -0.405792 0)
(4.40704 -0.397666 0)
(4.37048 -0.385576 0)
(4.30018 -0.367643 -4.98343e-19)
(4.20617 -0.331971 0)
(3.93642 -0.295956 0)
(-0.540381 -0.214832 1.64398e-19)
(-0.103792 0.221727 -7.43588e-20)
(-0.462729 0.423254 0)
(-0.607384 0.63998 2.35161e-20)
(-0.833595 0.726649 0)
(-1.03755 0.770376 8.36703e-21)
(-1.25441 0.781146 -1.87201e-20)
(-1.45515 0.773327 -1.84398e-20)
(-1.63459 0.748919 0)
(-1.78701 0.713444 -1.85194e-20)
(-1.91403 0.672059 -8.26594e-21)
(-2.01837 0.6293 0)
(-2.1042 0.588164 0)
(-2.17549 0.55024 0)
(-2.23578 0.515896 0)
(-2.28788 0.484619 -8.82078e-21)
(-2.33388 0.45541 0)
(-2.37531 0.426989 1.92403e-20)
(-2.41314 0.398122 0)
(-2.44765 0.367765 0)
(-2.47868 0.335445 -1.8369e-20)
(-2.50606 0.301221 0)
(-2.53015 0.265883 1.73497e-20)
(-2.54598 0.231854 -7.4601e-21)
(-2.55276 0.200743 7.07765e-21)
(-2.54921 0.172185 -6.66642e-21)
(-2.53514 0.146031 -6.22739e-21)
(-2.51079 0.122162 0)
(-2.47672 0.100515 0)
(-2.43354 0.0810651 4.76919e-21)
(-2.38189 0.0640481 -6.20085e-21)
(-2.32265 0.0492793 0)
(-2.25641 0.0355418 0)
(-2.18391 0.0237861 2.52856e-21)
(-2.10596 0.0142788 0)
(-2.02332 0.00613752 0)
(-1.93625 -0.000784565 -6.90676e-22)
(-1.84539 -0.00614568 0)
(-1.7513 -0.0101199 1.43714e-21)
(-1.65457 -0.0127843 2.53718e-21)
(-1.55575 -0.0142703 0)
(-1.45535 -0.0146945 0)
(-1.35382 -0.014208 9.21557e-21)
(-1.25159 -0.0129295 1.20783e-20)
(-1.14906 -0.011026 1.50045e-20)
(-1.04654 -0.00862598 -6.84758e-21)
(-0.944299 -0.00593227 1.27126e-20)
(-0.842547 -0.00308757 3.85549e-20)
(-0.741412 -0.000326396 -2.75e-20)
(-0.640878 0.0021742 -1.76914e-20)
(-0.540692 0.00402591 0)
(-0.44014 0.00481409 2.13321e-20)
(-0.336161 0.00451944 -1.85449e-20)
(-0.228502 0.00650418 0)
(-0.125181 0.012074 0)
(-0.0286132 0.0186422 0)
(0.0638892 0.0253267 2.9273e-20)
(0.152995 0.0321906 0)
(0.239632 0.0391697 -5.57401e-20)
(0.324304 0.0461697 0)
(0.407226 0.0529966 -5.76335e-20)
(0.488482 0.059555 0)
(0.568118 0.0657393 5.93443e-20)
(0.646169 0.071535 0)
(0.722671 0.0769103 -6.08421e-20)
(0.797658 0.081901 2.89145e-20)
(0.871163 0.0865153 0)
(0.943221 0.0908073 6.27163e-20)
(1.01387 0.0947945 3.33184e-20)
(1.08314 0.0985286 3.35224e-20)
(1.15108 0.102022 0)
(1.21774 0.105318 3.07737e-20)
(1.28315 0.108421 3.40479e-20)
(1.34736 0.111365 0)
(1.41041 0.114157 -3.4339e-20)
(1.47234 0.116835 6.61422e-20)
(1.53318 0.119398 0)
(1.59297 0.121874 3.47071e-20)
(1.65173 0.124265 0)
(1.70949 0.1266 -1.0222e-19)
(1.76627 0.128876 0)
(1.82208 0.131117 1.02898e-19)
(1.87694 0.133316 3.51868e-20)
(1.93087 0.135493 -3.29736e-20)
(1.98389 0.13764 -6.62073e-20)
(2.03603 0.139766 6.6456e-20)
(2.08731 0.141862 0)
(2.13773 0.143938 0)
(2.18733 0.145993 0)
(2.2361 0.148028 -2.10056e-19)
(2.28409 0.150051 -7.14699e-20)
(2.33133 0.152058 7.15844e-20)
(2.37783 0.154042 0)
(2.42361 0.155998 6.81318e-20)
(2.46868 0.157924 -7.19048e-20)
(2.51307 0.15982 -7.20044e-20)
(2.55678 0.161686 0)
(2.59984 0.163518 0)
(2.64227 0.165318 0)
(2.68409 0.167083 -7.23737e-20)
(2.72531 0.168813 0)
(2.76596 0.170511 1.4195e-19)
(2.80606 0.172175 2.14791e-19)
(2.84563 0.173809 -1.42377e-19)
(2.8847 0.175411 0)
(2.92327 0.176986 -6.99243e-20)
(2.96136 0.178533 0)
(2.999 0.180057 -1.43138e-19)
(3.03621 0.181561 7.02633e-20)
(3.07299 0.183048 7.03673e-20)
(3.10937 0.18452 0)
(3.14535 0.18598 2.17002e-19)
(3.18096 0.187429 -1.43924e-19)
(3.21619 0.18887 -7.33198e-20)
(3.25105 0.190305 0)
(3.28555 0.191737 -7.34071e-20)
(3.31969 0.193166 -2.17864e-19)
(3.35346 0.194599 0)
(3.38687 0.196035 -1.44619e-19)
(3.41991 0.197482 -1.44708e-19)
(3.45258 0.198939 -1.44789e-19)
(3.48487 0.200411 0)
(3.51677 0.201896 0)
(3.54828 0.203395 0)
(3.57937 0.204904 7.13986e-20)
(3.61004 0.206423 7.36329e-20)
(3.64026 0.207949 0)
(3.67004 0.209485 1.45108e-19)
(3.69936 0.211028 1.45117e-19)
(3.72821 0.212585 0)
(3.75657 0.214161 1.47182e-19)
(3.78442 0.215771 2.90176e-19)
(3.81176 0.217425 -1.47089e-19)
(3.83855 0.219144 -1.43018e-19)
(3.86477 0.22094 0)
(3.89041 0.222832 0)
(3.91545 0.224827 0)
(3.93985 0.22693 -1.46743e-19)
(3.96361 0.229135 1.4287e-19)
(3.9867 0.23144 2.89442e-19)
(4.00911 0.233829 -1.46537e-19)
(4.03083 0.236292 1.42804e-19)
(4.05185 0.238812 1.46423e-19)
(4.07215 0.241381 0)
(4.09172 0.243985 0)
(4.11056 0.24662 -1.42742e-19)
(4.12866 0.249283 0)
(4.146 0.251975 0)
(4.16258 0.254694 2.88754e-19)
(4.17839 0.257442 0)
(4.19343 0.260216 1.42656e-19)
(4.20769 0.263014 -1.45958e-19)
(4.22116 0.265829 0)
(4.23382 0.268653 1.42785e-19)
(4.24565 0.271468 0)
(4.25662 0.274261 0)
(4.26669 0.27701 -1.46151e-19)
(4.27582 0.279705 2.89324e-19)
(4.28398 0.282334 -1.46293e-19)
(4.29113 0.284893 0)
(4.29725 0.287377 0)
(4.30231 0.289785 1.43621e-19)
(4.30633 0.292085 0)
(4.30941 0.294179 1.43985e-19)
(4.31173 0.295939 0)
(4.31328 0.297418 0)
(4.31402 0.298683 0)
(4.31398 0.299738 1.47525e-19)
(4.31311 0.300542 0)
(4.31176 0.301049 -1.47919e-19)
(4.31074 0.301256 0)
(4.31026 0.301248 0)
(4.31049 0.301101 2.94845e-19)
(4.31135 0.301005 -2.95712e-19)
(4.31347 0.301102 0)
(4.31592 0.302058 0)
(4.32295 0.30474 0)
(4.3262 0.311032 9.13276e-19)
(4.35337 0.331711 0)
(4.35043 0.352325 -6.39556e-19)
(-0.701923 0.276205 -3.20402e-21)
(-0.314979 0.680049 5.30455e-20)
(-0.717989 0.882157 0)
(-0.863178 1.06387 -3.02516e-20)
(-1.07998 1.13944 0)
(-1.24164 1.15556 0)
(-1.4017 1.11394 -1.95128e-21)
(-1.53892 1.03593 1.16698e-20)
(-1.66426 0.931893 1.34036e-20)
(-1.78 0.81775 1.17553e-20)
(-1.89201 0.703141 0)
(-2.00279 0.594431 0)
(-2.11349 0.494156 -1.29646e-20)
(-2.22311 0.402821 -2.57327e-20)
(-2.32964 0.31962 2.55322e-20)
(-2.43047 0.243469 0)
(-2.52293 0.173337 2.50625e-20)
(-2.60469 0.108481 -1.15193e-20)
(-2.67391 0.0484128 0)
(-2.72925 -0.00722214 2.39664e-20)
(-2.7698 -0.0588422 1.08927e-20)
(-2.79509 -0.107018 -2.28908e-20)
(-2.80533 -0.15217 -1.02652e-20)
(-2.80069 -0.194058 0)
(-2.78365 -0.235478 2.03902e-20)
(-2.75497 -0.275209 1.93389e-20)
(-2.7159 -0.312459 0)
(-2.66737 -0.346787 1.70376e-20)
(-2.61028 -0.377974 0)
(-2.54536 -0.405991 1.45171e-20)
(-2.47322 -0.430935 5.98194e-21)
(-2.39443 -0.453054 0)
(-2.30977 -0.472575 0)
(-2.22003 -0.489512 0)
(-2.1258 -0.503748 0)
(-2.02792 -0.515354 0)
(-1.92677 -0.524923 0)
(-1.82289 -0.532394 3.3303e-21)
(-1.71695 -0.537539 -2.3327e-21)
(-1.60941 -0.540588 0)
(-1.50077 -0.541688 0)
(-1.39146 -0.540976 0)
(-1.28192 -0.538604 -9.19278e-22)
(-1.17249 -0.534708 -6.36496e-21)
(-1.06349 -0.529446 -1.47389e-20)
(-0.955203 -0.522949 1.7665e-20)
(-0.847854 -0.515351 9.824e-21)
(-0.741679 -0.506722 -1.22316e-20)
(-0.636906 -0.497142 9.71447e-22)
(-0.533809 -0.48666 -1.41716e-20)
(-0.432679 -0.475448 0)
(-0.333974 -0.463779 -1.70185e-20)
(-0.238333 -0.452247 1.06743e-21)
(-0.145554 -0.442454 0)
(-0.0550456 -0.434557 0)
(0.0331615 -0.427131 2.21542e-20)
(0.119463 -0.419653 0)
(0.20421 -0.411858 0)
(0.287476 -0.403797 -2.3688e-20)
(0.36921 -0.395583 -5.09186e-20)
(0.44944 -0.387363 2.71556e-20)
(0.528181 -0.379245 0)
(0.605465 -0.371329 -2.85294e-20)
(0.681313 -0.363666 0)
(0.755751 -0.356294 -2.80407e-20)
(0.828797 -0.349211 -3.03726e-20)
(0.900476 -0.342423 6.01838e-20)
(0.970821 -0.335918 2.98163e-20)
(1.03988 -0.329702 0)
(1.10769 -0.323763 -6.33533e-20)
(1.17431 -0.318106 0)
(1.23981 -0.312717 -9.8653e-20)
(1.30421 -0.307593 -6.61474e-20)
(1.36757 -0.302714 -6.70062e-20)
(1.42992 -0.298067 6.78319e-20)
(1.4913 -0.293635 -1.03663e-19)
(1.55175 -0.28942 0)
(1.61128 -0.285399 0)
(1.66992 -0.28156 7.08443e-20)
(1.72767 -0.277879 1.07977e-19)
(1.78453 -0.274349 0)
(1.84054 -0.270959 -3.70776e-20)
(1.8957 -0.267714 0)
(1.95004 -0.264611 1.11733e-19)
(2.00359 -0.261653 1.2549e-21)
(2.05637 -0.258835 -1.23612e-21)
(2.10839 -0.256154 -7.57564e-20)
(2.15968 -0.253602 0)
(2.21023 -0.251171 7.68015e-20)
(2.26007 -0.248856 1.1656e-21)
(2.30919 -0.246647 0)
(2.35764 -0.244542 0)
(2.4054 -0.24254 0)
(2.45251 -0.240639 -8.02859e-20)
(2.49897 -0.238836 0)
(2.54479 -0.237126 0)
(2.58999 -0.235505 0)
(2.6346 -0.233973 0)
(2.67863 -0.232526 0)
(2.72211 -0.231167 -8.16693e-20)
(2.76507 -0.229894 0)
(2.80753 -0.228707 -8.34162e-20)
(2.84952 -0.227606 -8.37666e-20)
(2.89106 -0.226591 8.41083e-20)
(2.93217 -0.22566 0)
(2.97288 -0.224812 8.47662e-20)
(3.0132 -0.224044 0)
(3.05315 -0.223352 8.53911e-20)
(3.09275 -0.222733 -8.56915e-20)
(3.13203 -0.22218 -2.56129e-19)
(3.17101 -0.221689 0)
(3.20969 -0.221252 -2.57845e-19)
(3.24811 -0.220862 -8.50421e-20)
(3.28628 -0.220515 0)
(3.32422 -0.220204 -1.72907e-19)
(3.36195 -0.219926 -1.73406e-19)
(3.39948 -0.219676 2.61684e-19)
(3.43683 -0.219454 0)
(3.47399 -0.219257 8.82349e-20)
(3.51099 -0.219083 8.84396e-20)
(3.54782 -0.218929 2.64252e-19)
(3.58449 -0.218795 0)
(3.62099 -0.218676 0)
(3.65733 -0.21857 0)
(3.69351 -0.218474 8.77014e-20)
(3.72953 -0.218384 0)
(3.76539 -0.218301 0)
(3.8011 -0.218225 -8.96774e-20)
(3.83665 -0.21816 -8.97769e-20)
(3.87205 -0.218112 0)
(3.90728 -0.218089 0)
(3.94235 -0.218103 -1.79996e-19)
(3.97723 -0.218167 0)
(4.01192 -0.218292 1.80166e-19)
(4.04639 -0.218489 1.78729e-19)
(4.08062 -0.218765 0)
(4.11459 -0.219121 0)
(4.14825 -0.219552 -1.7881e-19)
(4.18156 -0.220049 -1.44411e-21)
(4.21448 -0.220599 -1.43455e-21)
(4.24699 -0.221187 0)
(4.27905 -0.2218 -3.59158e-19)
(4.31066 -0.222432 0)
(4.3418 -0.223082 0)
(4.37247 -0.223754 0)
(4.40268 -0.224451 1.80176e-19)
(4.43244 -0.22518 0)
(4.46178 -0.225947 -3.57304e-19)
(4.49073 -0.226756 -1.79917e-19)
(4.5193 -0.227607 0)
(4.54753 -0.228495 -1.79695e-19)
(4.57545 -0.229406 0)
(4.60306 -0.230319 0)
(4.63039 -0.231212 -5.35572e-19)
(4.65746 -0.232063 3.55999e-19)
(4.6843 -0.232849 0)
(4.71092 -0.233553 3.55601e-19)
(4.73735 -0.234166 -1.79015e-19)
(4.76359 -0.234682 0)
(4.78964 -0.235101 0)
(4.81547 -0.235428 0)
(4.84103 -0.235662 -5.33529e-19)
(4.86624 -0.235793 0)
(4.89091 -0.235759 -1.78685e-19)
(4.9148 -0.235453 0)
(4.93775 -0.234864 0)
(4.95964 -0.234005 0)
(4.98036 -0.232792 0)
(4.99949 -0.231034 0)
(5.01632 -0.228585 0)
(5.03072 -0.225602 -3.54674e-19)
(5.04251 -0.221991 0)
(5.05147 -0.217532 -1.79072e-19)
(5.05686 -0.211729 5.35844e-19)
(5.05827 -0.204056 0)
(5.05348 -0.193273 0)
(5.04266 -0.177268 -3.62329e-19)
(5.01841 -0.153297 -3.69835e-19)
(4.98741 -0.107718 3.74143e-19)
(4.93182 -0.0350752 3.94067e-19)
(-0.712817 0.891938 -1.24596e-19)
(-0.282127 1.19724 -7.12347e-20)
(-0.700401 1.33355 -3.42112e-20)
(-0.818065 1.44669 -1.67005e-20)
(-1.01383 1.46606 0)
(-1.13473 1.43562 2.52248e-20)
(-1.25985 1.36235 -1.37514e-20)
(-1.36764 1.27463 0)
(-1.48089 1.1842 -1.00538e-20)
(-1.59889 1.10226 0)
(-1.72335 1.02841 2.20884e-20)
(-1.84969 0.961789 0)
(-1.97304 0.898277 9.5643e-21)
(-2.08811 0.834651 1.89901e-20)
(-2.19104 0.768494 -1.88718e-20)
(-2.2792 0.698718 0)
(-2.35134 0.624939 -1.86162e-20)
(-2.40727 0.547422 0)
(-2.44753 0.466718 0)
(-2.47305 0.383647 -1.78907e-20)
(-2.48502 0.299105 0)
(-2.48473 0.214149 -1.64485e-21)
(-2.47335 0.130342 0)
(-2.45155 0.0506614 0)
(-2.41936 -0.0223566 1.38743e-21)
(-2.37762 -0.0891125 -1.42022e-20)
(-2.32692 -0.149899 -1.45647e-20)
(-2.26787 -0.204945 -1.23957e-20)
(-2.20118 -0.254466 0)
(-2.12752 -0.298738 -2.19801e-20)
(-2.04757 -0.338071 0)
(-1.96197 -0.372722 -9.41112e-21)
(-1.87138 -0.402852 0)
(-1.77657 -0.428438 0)
(-1.67832 -0.449687 6.23313e-21)
(-1.57692 -0.467422 0)
(-1.47304 -0.482005 -4.12333e-21)
(-1.36733 -0.493051 7.45065e-22)
(-1.26034 -0.500772 3.33551e-21)
(-1.15251 -0.505495 -1.97852e-21)
(-1.0443 -0.507467 0)
(-0.936122 -0.506953 0)
(-0.828351 -0.504226 1.42625e-21)
(-0.721337 -0.499587 0)
(-0.615383 -0.493374 4.72243e-21)
(-0.510751 -0.485887 -5.69802e-21)
(-0.407616 -0.477367 -6.66215e-21)
(-0.306099 -0.467991 0)
(-0.206238 -0.457917 8.55262e-21)
(-0.108029 -0.447232 9.47607e-21)
(-0.0114234 -0.436007 -1.94492e-20)
(0.0835387 -0.424247 1.11136e-20)
(0.176783 -0.411964 1.18159e-20)
(0.267892 -0.399127 0)
(0.356323 -0.385992 0)
(0.441869 -0.372581 -1.3751e-20)
(0.524657 -0.358874 0)
(0.604954 -0.345011 0)
(0.683073 -0.331196 3.10107e-20)
(0.759238 -0.31756 3.21053e-20)
(0.833634 -0.30422 0)
(0.906406 -0.291271 0)
(0.977667 -0.278783 0)
(1.0475 -0.266782 0)
(1.11595 -0.255272 3.70175e-20)
(1.18309 -0.244244 -3.69121e-20)
(1.24897 -0.233694 -3.87426e-20)
(1.31364 -0.223614 -7.81603e-20)
(1.37716 -0.213995 0)
(1.43957 -0.204817 9.35729e-22)
(1.5009 -0.196054 0)
(1.56119 -0.187675 4.25618e-20)
(1.62045 -0.179649 9.01096e-22)
(1.67868 -0.171937 4.39215e-20)
(1.73591 -0.164522 -4.45703e-20)
(1.79214 -0.157375 8.68136e-22)
(1.84738 -0.15046 0)
(1.90164 -0.143737 -4.55611e-20)
(1.9549 -0.137178 -4.69874e-20)
(2.00715 -0.130765 -9.42776e-20)
(2.05841 -0.1245 0)
(2.10868 -0.118382 4.78315e-20)
(2.15798 -0.112409 0)