# vtk DataFile Version 2.0
track0
ASCII
DATASET POLYDATA
POINTS 11254 double
-0.0205 0.001 1e-05
-0.0202034 0.000999977 1e-05
-0.0199069 0.00100003 1e-05
-0.0196103 0.00100017 1e-05
-0.0193137 0.00100039 1e-05
-0.0190172 0.0010007 1e-05
-0.0187132 0.00100129 1e-05
-0.0184093 0.00100139 1e-05
-0.0181054 0.00100139 1e-05
-0.0178015 0.0010013 1e-05
-0.0174976 0.0010011 1e-05
-0.0172058 0.00100121 1e-05
-0.016914 0.00100063 1e-05
-0.0166222 0.000999878 1e-05
-0.0163305 0.000998958 1e-05
-0.0160387 0.000997866 1e-05
-0.0157586 0.000997263 1e-05
-0.0154784 0.000995704 1e-05
-0.0151983 0.000993876 1e-05
-0.0149182 0.000991776 1e-05
-0.0146381 0.000989398 1e-05
-0.0143692 0.000987752 1e-05
-0.0141002 0.000984802 1e-05
-0.0138313 0.000981475 1e-05
-0.0135624 0.000977767 1e-05
-0.0132934 0.000973673 1e-05
-0.0130353 0.000970719 1e-05
-0.0127771 0.000966094 1e-05
-0.012519 0.000961066 1e-05
-0.0122608 0.000955631 1e-05
-0.0120025 0.000949784 1e-05
-0.0117547 0.000945654 1e-05
-0.0115068 0.00093968 1e-05
-0.011259 0.000933211 1e-05
-0.0110112 0.000926418 1e-05
-0.0107632 0.00091992 1e-05
-0.0105252 0.000915135 1e-05
-0.0102873 0.000908797 1e-05
-0.0100494 0.000901526 1e-05
-0.0098115 0.000894101 1e-05
-0.00957337 0.000887732 1e-05
-0.00934491 0.000883047 1e-05
-0.00911648 0.000877094 1e-05
-0.00888809 0.000869913 1e-05
-0.00865969 0.000862905 1e-05
-0.00843108 0.000857391 1e-05
-0.00821175 0.00085353 1e-05
-0.00799244 0.000848534 1e-05
-0.00777316 0.000842437 1e-05
-0.00755388 0.000836619 1e-05
-0.00733443 0.00083243 1e-05
-0.00712387 0.000829974 1e-05
-0.00691332 0.000826324 1e-05
-0.00670279 0.00082151 1e-05
-0.00649225 0.000817155 1e-05
-0.0062816 0.000814892 1e-05
-0.00607944 0.000814733 1e-05
-0.00587729 0.000813588 1e-05
-0.00567515 0.000811476 1e-05
-0.005473 0.000810166 1e-05
-0.00527083 0.000811432 1e-05
-0.00507675 0.000815112 1e-05
-0.00488267 0.000818598 1e-05
-0.00468859 0.000821893 1e-05
-0.00449452 0.000826254 1e-05
-0.00430044 0.000833051 1e-05
-0.00411412 0.000841918 1e-05
-0.00392783 0.000851421 1e-05
-0.00374157 0.00086155 1e-05
-0.00355538 0.000872858 1e-05
-0.00336883 0.000885844 1e-05
-0.00318995 0.000899928 1e-05
-0.00301114 0.000914861 1e-05
-0.0028324 0.000930674 1e-05
-0.00265376 0.000947433 1e-05
-0.00247443 0.000965205 1e-05
-0.0023553 0.000977527 1e-05
-0.00223619 0.000990029 1e-05
-0.00211709 0.00100262 1e-05
-0.001998 0.00101531 1e-05
-0.00189084 0.00102682 1e-05
-0.00183582 0.00103276 1e-05
-0.00178082 0.00103876 1e-05
-0.00172581 0.00104479 1e-05
-0.00167081 0.00105087 1e-05
-0.00161577 0.00105701 1e-05
-0.0014509 0.00107535 1e-05
-0.00128601 0.00109351 1e-05
-0.00112107 0.00111121 1e-05
-0.000956077 0.00112844 1e-05
-0.000791418 0.001145 1e-05
-0.000633135 0.00115993 1e-05
-0.000474766 0.00117393 1e-05
-0.000316312 0.00118692 1e-05
-0.000157753 0.00119857 1e-05
0 0.00120856 1e-05
0.000105677 0.00121411 1e-05
0.000211403 0.00121866 1e-05
0.000317168 0.00122218 1e-05
0.000422966 0.00122448 1e-05
0.000528387 0.00122537 1e-05
0.000634886 0.00122477 1e-05
0.000741369 0.00122281 1e-05
0.000847817 0.00121944 1e-05
0.000954202 0.00121449 1e-05
0.00106088 0.00120772 1e-05
0.00116821 0.00119895 1e-05
0.00127537 0.00118836 1e-05
0.00138234 0.00117591 1e-05
0.00148909 0.00116178 1e-05
0.00159752 0.00114565 1e-05
0.00170568 0.00112765 1e-05
0.00181352 0.00110783 1e-05
0.00192084 0.00108533 1e-05
0.00202752 0.00106001 1e-05
0.00206331 0.00105045 1e-05
0.00207831 0.00104629 1e-05
0.0020933 0.00104208 1e-05
0.00210828 0.00103781 1e-05
0.00212323 0.00103349 1e-05
0.00213833 0.00102907 1e-05
0.00224733 0.00099662 1e-05
0.00235503 0.000960093 1e-05
0.0024611 0.000919049 1e-05
0.00256535 0.0008736 1e-05
0.00268334 0.000813685 1e-05
0.00272696 0.00078756 1e-05
0.00276988 0.000760311 1e-05
0.0028121 0.000731976 1e-05
0.00285373 0.000702784 1e-05
0.00288102 0.000682903 1e-05
0.00295133 0.000630409 1e-05
0.0030194 0.000575034 1e-05
0.00308518 0.000516961 1e-05
0.00314908 0.000456822 1e-05
0.00323259 0.000373615 1e-05
0.00324039 0.000365233 1e-05
0.00324817 0.000356823 1e-05
0.00325591 0.000348385 1e-05
0.00326362 0.000339919 1e-05
0.00327108 0.000331703 1e-05
0.00333105 0.000265363 1e-05
0.00338896 0.000197222 1e-05
0.00344503 0.00012756 1e-05
0.00349928 5.64649e-05 1e-05
0.00354103 0 1e-05
0.00359005 -6.79659e-05 1e-05
0.00363739 -0.000137109 1e-05
0.00368326 -0.000207234 1e-05
0.00372796 -0.000278115 1e-05
0.00378431 -0.000370853 1e-05
0.00378467 -0.000371475 1e-05
0.00378503 -0.000372097 1e-05
0.00378539 -0.00037272 1e-05
0.00378575 -0.000373342 1e-05
0.00378611 -0.000373966 1e-05
0.00383349 -0.000455953 1e-05
0.00387947 -0.000538736 1e-05
0.00392405 -0.000622281 1e-05
0.00396724 -0.000706551 1e-05
0.00400554 -0.000783804 1e-05
0.00405005 -0.000875733 1e-05
0.00409297 -0.00096842 1e-05
0.00413433 -0.00106181 1e-05
0.00417465 -0.00115565 1e-05
0.00421148 -0.00124332 1e-05
0.00423797 -0.00130767 1e-05
0.0042639 -0.00137225 1e-05
0.00428943 -0.00143699 1e-05
0.00431463 -0.00150186 1e-05
0.00434393 -0.00157842 1e-05
0.00435717 -0.00161363 1e-05
0.00437032 -0.00164888 1e-05
0.00438337 -0.00168417 1e-05
0.00439631 -0.0017195 1e-05
0.00440905 -0.00175448 1e-05
0.00445038 -0.00186822 1e-05
0.00449067 -0.00198233 1e-05
0.00453016 -0.00209672 1e-05
0.00456887 -0.00221137 1e-05
0.00460627 -0.00232305 1e-05
0.00464847 -0.00244955 1e-05
0.00468952 -0.00257644 1e-05
0.00472947 -0.00270367 1e-05
0.00476884 -0.00283108 1e-05
0.00480674 -0.00295543 1e-05
0.00482661 -0.00302123 1e-05
0.00484615 -0.00308712 1e-05
0.0048654 -0.00315311 1e-05
0.00488439 -0.00321916 1e-05
0.00490609 -0.00329572 1e-05
0.00492631 -0.00336832 1e-05
0.00494628 -0.00344098 1e-05
0.004966 -0.00351371 1e-05
0.00498547 -0.00358651 1e-05
0.00500451 -0.00365865 1e-05
0.00504541 -0.00381508 1e-05
0.00508466 -0.00397192 1e-05
0.00512208 -0.00412921 1e-05
0.00515758 -0.00428695 1e-05
0.00519059 -0.00444048 1e-05
0.00522624 -0.00461434 1e-05
0.00525906 -0.00478876 1e-05
0.00528908 -0.00496368 1e-05
0.00531734 -0.0051389 1e-05
0.00534274 -0.00530937 1e-05
0.00536872 -0.00550202 1e-05
0.00539126 -0.00569509 1e-05
0.00541224 -0.00588834 1e-05
0.00543147 -0.00608177 1e-05
0.0054487 -0.00627499 1e-05
0.00545348 -0.00633688 1e-05
0.00545816 -0.00639878 1e-05
0.00546288 -0.00646068 1e-05
0.00546764 -0.00652257 1e-05
0.00547262 -0.00658666 1e-05
0.00548459 -0.00673909 1e-05
0.00549655 -0.00689153 1e-05
0.00550848 -0.00704396 1e-05
0.00552039 -0.00719639 1e-05
0.00553227 -0.00734881 1e-05
0.00555172 -0.00758781 1e-05
0.00557628 -0.00782633 1e-05
0.00560753 -0.00806407 1e-05
0.00564739 -0.00830052 1e-05
0.00569963 -0.00854475 1e-05
0.00575963 -0.00877026 1e-05
0.00583755 -0.00899021 1e-05
0.00593709 -0.00920126 1e-05
0.00604356 -0.00939331 1e-05
0.00607985 -0.00944968 1e-05
0.00611766 -0.00950504 1e-05
0.00615702 -0.00955931 1e-05
0.00619695 -0.00961315 1e-05
0.00624374 -0.00967539 1e-05
0.00631878 -0.00977367 1e-05
0.00639633 -0.00986998 1e-05
0.00647626 -0.00996432 1e-05
0.00655833 -0.0100568 1e-05
0.00661893 -0.0101275 1e-05
0.00673321 -0.0102639 1e-05
0.00684689 -0.0104009 1e-05
0.00695975 -0.0105386 1e-05
0.00706959 -0.0106786 1e-05
0.00716812 -0.0108096 1e-05
0.00717425 -0.010818 1e-05
0.00718037 -0.0108264 1e-05
0.00718648 -0.0108349 1e-05
0.00719258 -0.0108434 1e-05
0.00719878 -0.010852 1e-05
0.00731565 -0.011015 1e-05
0.0074293 -0.0111803 1e-05
0.00754014 -0.0113474 1e-05
0.00764879 -0.011516 1e-05
0.00778313 -0.0117236 1e-05
0.00781131 -0.0117669 1e-05
0.00783949 -0.0118102 1e-05
0.00786767 -0.0118536 1e-05
0.00789591 -0.0118968 1e-05
0.00792433 -0.0119402 1e-05
0.00801387 -0.0120762 1e-05
0.00810393 -0.0122119 1e-05
0.0081945 -0.0123472 1e-05
0.00828571 -0.0124821 1e-05
0.00837203 -0.0126077 1e-05
0.00843649 -0.0127001 1e-05
0.00850144 -0.0127921 1e-05
0.00856689 -0.0128838 1e-05
0.00863286 -0.0129751 1e-05
0.00870201 -0.0130696 1e-05
0.00875471 -0.0131408 1e-05
0.00880774 -0.0132117 1e-05
0.00886112 -0.0132823 1e-05
0.00891485 -0.0133527 1e-05
0.00896551 -0.0134183 1e-05
0.00908513 -0.0135714 1e-05
0.00920635 -0.0137233 1e-05
0.00932918 -0.0138738 1e-05
0.00945391 -0.0140228 1e-05
0.0095636 -0.0141504 1e-05
0.00957213 -0.0141601 1e-05
0.00958067 -0.0141698 1e-05
0.00958921 -0.0141795 1e-05
0.00959776 -0.0141891 1e-05
0.00960638 -0.0141988 1e-05
0.00971837 -0.014325 1e-05
0.0098318 -0.0144499 1e-05
0.00994669 -0.0145735 1e-05
0.010063 -0.0146957 1e-05
0.0101663 -0.0148019 1e-05
0.0102707 -0.0149071 1e-05
0.0103761 -0.0150112 1e-05
0.0104826 -0.0151142 1e-05
0.01059 -0.0152161 1e-05
0.0107103 -0.015328 1e-05
0.010723 -0.0153396 1e-05
0.0107357 -0.0153511 1e-05
0.0107484 -0.0153626 1e-05
0.0107612 -0.0153741 1e-05
0.0107738 -0.0153855 1e-05
0.0108962 -0.0154956 1e-05
0.0110198 -0.0156045 1e-05
0.0111445 -0.0157121 1e-05
0.0112703 -0.0158182 1e-05
0.0113859 -0.0159134 1e-05
0.0115093 -0.0160127 1e-05
0.0116336 -0.0161109 1e-05
0.0117589 -0.0162078 1e-05
0.0118852 -0.0163034 1e-05
0.0120028 -0.0163904 1e-05
0.0120213 -0.0164038 1e-05
0.0120398 -0.0164171 1e-05
0.0120583 -0.0164304 1e-05
0.0120768 -0.0164437 1e-05
0.0120957 -0.0164573 1e-05
0.0122015 -0.0165327 1e-05
0.0123079 -0.0166072 1e-05
0.0124149 -0.0166808 1e-05
0.0125226 -0.0167535 1e-05
0.0126245 -0.0168212 1e-05
0.0127498 -0.0169034 1e-05
0.012876 -0.0169843 1e-05
0.013003 -0.0170639 1e-05
0.0131307 -0.0171424 1e-05
0.0132511 -0.0172153 1e-05
0.0133754 -0.0172896 1e-05
0.0135004 -0.0173626 1e-05
0.013626 -0.0174346 1e-05
0.0137521 -0.0175057 1e-05
0.0138825 -0.0175781 1e-05
0.0138856 -0.0175798 1e-05
0.0138888 -0.0175815 1e-05
0.0138919 -0.0175832 1e-05
0.013895 -0.0175849 1e-05
0.0138982 -0.0175866 1e-05
0.0140223 -0.0176542 1e-05
0.0141469 -0.0177209 1e-05
0.0142719 -0.0177868 1e-05
0.0143974 -0.0178518 1e-05
0.0145188 -0.0179137 1e-05
0.0146471 -0.0179779 1e-05
0.0147757 -0.0180413 1e-05
0.0149046 -0.0181041 1e-05
0.015034 -0.018166 1e-05
0.0151601 -0.0182251 1e-05
0.0152893 -0.0182846 1e-05
0.0154189 -0.0183434 1e-05
0.0155487 -0.0184015 1e-05
0.0156789 -0.0184587 1e-05
0.0158063 -0.0185138 1e-05
[...]
POINT_DATA 11254
 FIELD attributes 2
p 1 11254 float
4.98629 4.92025 4.83805 4.75549 4.67255 4.475 4.37166 4.23177 4.09202 3.95241 3.77564 3.72312 3.61589 3.50902 3.40251 3.23449 3.17429 3.03782 2.90207 2.76705 2.52929 2.41917 2.19421 1.97043 1.74784 1.35431 1.17685 0.823431 0.471346 0.120606 -0.494308 -0.75589 -1.21362 -1.69589 -2.2658 -3.00942 -3.39106 -3.8551 -4.42756 -5.16469 -5.96161 -6.40335 -6.84507 -7.45861 -8.23438 -9.01109 -9.4305 -9.8497 -10.4113 -11.1151 -11.82 -12.1272 -12.4339 -12.8772 -13.4726 -14.0698 -14.2312 -14.3919 -14.6639 -15.0851 -15.5099 -15.5404 -15.5707 -15.6648 -15.8507 -16.0413 -15.9391 -15.8381 -15.7874 -15.7915 -15.7984 -15.5882 -15.391 -15.2134 -15.0478 -14.9656 -14.7889 -14.626 -14.4632 -14.3005 -14.1541 -14.0772 -14.0004 -13.9236 -13.8468 -13.7314 -13.3957 -13.0745 -12.7538 -12.3887 -11.8856 -11.4003 -10.9328 -10.5498 -10.115 -9.69133 -9.35574 -9.02555 -8.74438 -8.49821 -8.2626 -8.04453 -7.83583 -7.59114 -7.29943 -7.02032 -6.75057 -6.4943 -6.24895 -6.02004 -5.80297 -5.60692 -5.46204 -5.33963 -5.24049 -5.21532 -5.20233 -5.18974 -5.17754 -5.17002 -5.16744 -5.17556 -5.18847 -5.2468 -5.23031 -5.25494 -5.31324 -5.38266 -5.31641 -5.18569 -5.10297 -5.31865 -5.5822 -5.52876 -5.3662 -5.18614 -5.18069 -5.17569 -5.17114 -5.16923 -5.16797 -5.0678 -5.01704 -4.99219 -5.12464 -5.24032 -5.19974 -5.23997 -5.40036 -5.57381 -5.81631 -5.81681 -5.8178 -5.81931 -5.82082 -5.82234 -6.02964 -6.25088 -6.4858 -6.87393 -7.3691 -7.54456 -7.73042 -8.12582 -8.62764 -9.10899 -9.23305 -9.43568 -9.68454 -9.93489 -10.2316 -10.3771 -10.5229 -10.6692 -10.8224 -10.9921 -11.3441 -11.7241 -12.1067 -12.516 -12.923 -13.2198 -13.5212 -13.8494 -14.2061 -14.6023 -14.7372 -14.8685 -14.9981 -15.1286 -15.2807 -15.4247 -15.5697 -15.7155 -15.8551 -15.9755 -16.0058 -16.1228 -16.293 -16.4602 -16.6294 -16.3967 -16.1776 -15.9732 -15.8261 -15.7408 -15.1385 -14.651 -14.1711 -13.6999 -13.2422 -12.9954 -12.7764 -12.5573 -12.338 -12.1107 -11.5996 -11.0885 -10.5774 -10.0664 -9.5711 -8.76339 -8.02419 -7.26942 -6.6291 -6.18729 -5.7164 -5.27661 -5.10447 -4.96366 -4.84719 -4.73017 -4.67765 -4.64009 -4.59667 -4.51482 -4.4345 -4.35647 -4.30467 -4.26473 -4.16521 -4.06588 -3.97064 -3.87369 -3.78305 -3.77802 -3.77298 -3.76797 -3.76325 -3.75845 -3.61832 -3.48314 -3.35473 -3.26152 -3.14681 -3.10674 -3.06667 -3.03502 -3.00581 -2.97651 -2.89631 -2.81611 -2.72349 -2.58536 -2.45588 -2.39402 -2.33232 -2.23375 -2.12896 -2.02003 -1.94462 -1.86921 -1.79597 -1.74696 -1.70118 -1.4975 -1.29294 -1.14952 -1.00901 -0.895729 -0.880541 -0.86592 -0.855797 -0.84567 -0.835468 -0.708606 -0.581056 -0.452824 -0.240508 -0.0443392 0.0492486 0.162143 0.336048 0.509834 0.702467 0.7225 0.74253 0.762557 0.774878 0.782859 0.994003 1.18563 1.37703 1.46583 1.52541 1.75185 1.93659 2.03511 2.13425 2.20228 2.23492 2.25644 2.26975 2.28307 2.29666 2.37349 2.45071 2.52833 2.65136 2.82776 2.84635 2.86422 2.98182 3.19514 3.39582 3.40328 3.50494 3.63805 3.77068 3.91073 3.91069 3.91326 3.91639 3.91952 3.92266 4.04715 4.17119 4.29476 4.38865 4.34351 4.55419 4.76523 4.8452 4.79294 4.74172 4.94723 5.10643 5.14578 5.16601 5.11049 5.25519 5.28248 5.31001 5.33777 5.36856 5.37825 5.38796 5.3977 5.40747 5.45595 5.45232 5.48879 5.52565 5.58846 5.78809 5.71324 5.66544 5.70327 5.90391 6.10006 6.02206 5.94362 6.00334 6.20061 6.39393 6.313 6.33257 6.41258 6.49227 6.67131 6.63527 6.69842 6.76135 6.82406 6.89461 6.90585 6.91708 6.9283 6.93951 6.93149 7.02344 7.09612 7.1685 7.24059 7.1676 7.36558 7.44827 7.51697 7.50028 7.39197 7.58685 7.78089 7.82452 7.7147 7.60505 7.79691 7.98878 8.02902 7.91812 7.80732 7.99623 8.12935 8.14806 8.11105 7.99924 8.18527 8.22193 8.24015 8.25861 8.1813 8.29444 8.31194 8.32966 8.34762 8.35397 8.36816 8.37062 8.37308 8.37555 8.37807 8.39268 8.40745 8.42237 8.43745 8.52805 8.46909 8.48579 8.5027 8.5198 8.6948 8.55964 8.56925 8.58567 8.65547 8.85286 8.7172 8.64997 8.66592 8.80806 9.00279 8.86672 8.73032 8.75951 8.95287 9.14505 9.00866 8.87195 8.89952 9.09037 9.28016 9.14352 9.00658 9.03264 9.22107 9.40855 9.27174 9.16175 9.19705 9.3454 9.53068 9.39376 9.33928 9.37303 9.4638 9.64698 9.51004 9.50809 9.54039 9.57671 9.75785 9.63774 9.66879 9.69974 9.73061 9.8637 9.79249 9.82227 9.85196 9.88157 9.96491 9.94041 9.96901 9.99752 10.026 10.0618 10.0589 10.0635 10.0681 10.0727 10.0774 10.1003 10.1232 10.146 10.1688 10.1564 10.2175 10.244 10.2704 10.2968 10.2475 10.3474 10.3729 10.3984 10.4238 10.3353 10.4719 10.4965 10.5211 10.5456 10.4198 10.5795 10.6151 10.6388 10.6288 10.5014 10.6591 10.7285 10.7515 10.7068 10.5801 10.7359 10.8372 10.8595 10.7821 10.6562 10.8102 10.9415 10.9631 10.855 10.73 10.8822 11.0346 11.0493 10.9257 10.8016 10.9521 11.1027 11.117 10.9944 10.8712 11.02 11.1689 11.1828 11.0611 10.9389 11.0861 11.2335 11.2469 11.1262 11.0049 11.1506 11.2965 11.3096 11.1898 11.0694 11.2137 11.3581 11.3674 11.252 11.1326 11.2754 11.399 11.4069 11.313 11.1945 11.336 11.4387 11.4467 11.3728 11.2552 11.3955 11.4789 11.487 11.4316 11.3149 11.4539 11.5195 11.5277 11.4894 11.3737 11.5115 11.5606 11.5689 11.5465 11.4317 11.5682 11.6021 11.6105 11.6027 11.4889 11.6243 11.644 11.6525 11.6584 11.5455 11.6779 11.6865 11.6951 11.7038 11.6015 11.7208 11.7295 11.7382 11.747 11.6569 11.7643 11.773 11.7819 11.7907 11.7119 11.8083 11.8172 11.8261 11.835 11.7664 11.8528 11.8618 11.8708 11.8798 11.8206 11.8978 11.9069 11.916 11.9251 11.8744 11.9433 11.9525 11.9616 11.9708 11.9278 11.9892 11.9984 12.0077 12.017 11.9811 12.0356 12.0449 12.0543 12.0637 12.0341 12.0824 12.0918 12.1012 12.1107 12.0868 12.1296 12.1391 12.1486 12.1581 12.1394 12.1772 12.1867 12.1963 12.2059 12.1918 12.2251 12.2347 12.2443 12.254 12.2441 12.2733 12.2829 12.2926 12.3023 12.2961 12.3218 12.3315 12.3412 12.351 12.348 12.3704 12.3802 12.39 12.3997 12.3996 12.4193 12.4291 12.4389 12.4487 12.451 12.4683 12.4781 12.4879 12.4977 12.5022 12.5174 12.5272 12.537 12.5468 12.5531 12.5664 12.5762 12.586 12.5958 12.6036 12.6154 12.6251 12.6349 12.6447 12.6538 12.6605 12.6664 12.6724 12.6784 12.6855 12.689 12.6926 12.6961 12.6997 12.7037 12.7129 12.7227 12.7324 12.7421 12.7533 12.7615 12.7712 12.7808 12.7905 12.8025 12.8098 12.8194 12.829 12.8386 12.8511 12.8577 12.8673 12.8768 12.8863 12.8991 12.9053 12.9147 12.9242 12.9336 12.9466 12.9524 12.9618 12.9711 12.9805 12.9934 12.9991 13.0084 13.0177 13.0269 13.0396 13.0454 13.0545 13.0637 13.0728 13.0851 13.0911 13.1001 13.1092 13.1182 13.1301 13.1362 13.1452 13.1542 13.1631 13.1743 13.1809 13.1897 13.1986 13.2074 13.2178 13.2249 13.2336 13.2423 13.251 13.2607 13.2683 13.2769 13.2855 13.2941 13.3028 13.3039 13.305 13.3062 13.3074 13.3086 13.3158 13.3231 13.3303 13.3376 13.3442 13.3531 13.3614 13.3697 13.378 13.385 13.3945 13.4027 13.4109 13.4191 13.425 13.4353 13.4434 13.4515 13.4595 13.4645 13.4756 13.4836 13.4915 13.4995 13.5035 13.5153 13.5232 13.5311 13.5389 13.5418 13.5546 13.5624 13.5701 13.5779 13.5797 13.5934 13.6011 13.6088 13.6165 13.6171 13.6318 13.6394 13.647 13.6546 13.6541 13.6698 13.6773 13.6849 13.6924 13.6906 13.7075 13.7149 13.7224 13.7299 13.7268 13.7449 13.7524 13.7598 13.7673 13.7628 13.7822 13.7896 13.7971 13.8045 13.7986 13.8194 13.8268 13.8342 13.8416 13.8343 13.8565 13.8639 13.8713 13.8787 13.8698 13.8936 13.9009 13.9083 13.9157 13.9052 13.9305 13.9379 13.9452 13.9525 13.9403 13.9674 13.9747 13.982 13.9893 13.9753 14.0041 14.0114 14.0187 14.026 14.01 14.0407 14.048 14.0552 14.0624 14.0447 14.0771 14.0843 14.0916 14.0988 14.0792 14.1134 14.1205 14.1277 14.1349 14.1134 14.1494 14.1564 14.1635 14.1706 14.1473 14.1849 14.1919 14.1988 14.2058 14.1807 14.2199 14.2268 14.2336 14.2405 14.2136 14.2544 14.2612 14.268 14.2748 14.2461 14.2886 14.2953 14.302 14.3087 14.2784 14.3224 14.3291 14.3357 14.3423 14.3103 14.3559 14.3625 14.3691 14.3756 14.342 14.3891 14.3956 14.402 14.4085 14.3733 14.4217 14.4281 14.4345 14.4408 14.404 14.4539 14.4602 14.4665 14.4728 14.4344 14.4857 14.4919 14.4981 14.5044 14.4646 14.5172 14.5233 14.5295 14.5356 14.4943 14.5482 14.5543 14.5603 14.5664 14.5237 14.5788 14.5848 14.5907 14.5966 14.5526 14.6088 14.6146 14.6203 14.6261 14.5807 14.6379 14.6435 14.6491 14.6548 14.6082 14.6662 14.6716 14.677 14.6824 14.6348 14.6935 14.6986 14.7038 14.7089 14.6602 14.7194 14.7244 14.7293 14.7342 14.6846 14.7445 14.7493 14.7541 14.7589 14.7084 14.7691 14.7738 14.7785 14.7832 14.7319 14.7935 14.7982 14.8028 14.8074 14.7552 14.8179 14.8226 14.8273 14.832 14.7789 14.8426 14.8475 14.8523 14.8571 14.8033 14.8679 14.8728 14.8776 14.8825 14.8282 14.8933 14.8983 14.9032 14.9082 14.8536 14.9191 14.9242 14.9292 14.9343 14.8796 14.9452 14.9504 14.9555 14.9606 14.9061 14.9717 14.977 14.9822 14.9875 14.9333 14.9989 15.0044 15.0099 15.0153 14.9618 15.0271 15.0327 15.0383 15.0439 14.9909 15.0558 15.0614 15.067 15.0727 15.0204 15.0845 15.0901 15.0956 15.1011 15.0494 15.1127 15.1182 15.1237 15.1292 15.0783 15.1407 15.1464 15.1522 15.158 15.1084 15.1703 15.1767 15.1831 15.1896 15.1412 15.203 15.2104 15.2179 15.2253 15.1782 15.2405 15.2491 15.2578 15.2665 15.2201 15.284 15.2937 15.3036 15.3134 15.2671 15.3341 15.3448 15.3554 15.366 15.3177 15.3892 15.4008 15.4124 15.424 15.3731 15.451 15.4639 15.4767 15.4895 15.4346 15.5188 15.5344 15.55 15.5655 15.5098 15.6036 15.6223 15.641 15.6598 15.6003 15.7016 15.7275 15.7534 15.7794 15.726 15.8457 15.8776 15.9095 15.9414 15.8789 16.0058 16.057 16.1083 16.1578 16.1235 16.293 16.3652 16.4282 16.4715 16.4055 16.5307 16.635 16.731 16.8011 16.8296 17.0557 17.0978 17.0309 16.9297 16.6238 16.519 16.3666 16.2111 16.0555 15.8845 15.9038 15.8479 15.792 15.7363 15.6166 15.643 15.5907 15.5385 15.4865 15.362 15.3666 15.3057 15.245 15.1843 15.0633 15.0748 15.0217 14.9687 14.9157 14.7996 14.8176 14.7644 14.7112 14.658 14.5334 14.5476 14.4911 14.4346 14.3781 14.2502 14.2683 14.2058 14.1433 14.0808 13.9366 13.9434 13.8752 13.8071 13.7389 13.5949 13.6031 13.5252 13.4472 13.3693 13.205 13.1883 13.1046 13.0208 12.937 12.7865 12.7804 12.6844 12.5875 12.4906 12.3045 12.2607 12.1594 12.0569 11.9545 11.7939 11.7827 11.6598 11.5356 11.4114 11.1807 11.1021 10.9747 10.8473 10.72 10.5456 10.5327 10.3713 10.2102 10.0492 9.75691 9.62231 9.47198 9.32163 9.17127 9.00475 8.99367 8.7897 8.58625 8.38326 8.01537 7.7932 7.63527 7.4772 7.31902 7.21741 7.24779 6.99223 6.73801 6.485 5.98214 5.61067 5.46893 5.32724 5.1856 5.26728 5.48072 5.10731 4.73692 4.3692 3.50229 2.75965 2.65857 2.56345 2.47372 2.98717 3.55379 2.83455 2.10811 1.37542 0