# vtk DataFile Version 2.0
track0
ASCII
DATASET POLYDATA
POINTS 11254 double
-0.0205 0.001 1e-05
-0.0202034 0.000999977 1e-05
-0.0199069 0.00100003 1e-05
-0.0196103 0.00100017 1e-05
-0.0193137 0.00100039 1e-05
-0.0190172 0.0010007 1e-05
-0.0187132 0.00100129 1e-05
-0.0184093 0.00100139 1e-05
-0.0181054 0.00100139 1e-05
-0.0178015 0.0010013 1e-05
-0.0174976 0.0010011 1e-05
-0.0172058 0.00100121 1e-05
-0.016914 0.00100063 1e-05
-0.0166222 0.000999878 1e-05
-0.0163305 0.000998958 1e-05
-0.0160387 0.000997866 1e-05
-0.0157586 0.000997263 1e-05
-0.0154784 0.000995704 1e-05
-0.0151983 0.000993876 1e-05
-0.0149182 0.000991776 1e-05
-0.0146381 0.000989398 1e-05
-0.0143692 0.000987752 1e-05
-0.0141002 0.000984802 1e-05
-0.0138313 0.000981475 1e-05
-0.0135624 0.000977767 1e-05
-0.0132934 0.000973673 1e-05
-0.0130353 0.000970719 1e-05
-0.0127771 0.000966094 1e-05
-0.012519 0.000961066 1e-05
-0.0122608 0.000955631 1e-05
-0.0120025 0.000949784 1e-05
-0.0117547 0.000945654 1e-05
-0.0115068 0.00093968 1e-05
-0.011259 0.000933211 1e-05
-0.0110112 0.000926418 1e-05
-0.0107632 0.00091992 1e-05
-0.0105252 0.000915135 1e-05
-0.0102873 0.000908797 1e-05
-0.0100494 0.000901526 1e-05
-0.0098115 0.000894101 1e-05
-0.00957337 0.000887732 1e-05
-0.00934491 0.000883047 1e-05
-0.00911648 0.000877094 1e-05
-0.00888809 0.000869913 1e-05
-0.00865969 0.000862905 1e-05
-0.00843108 0.000857391 1e-05
-0.00821175 0.00085353 1e-05
-0.00799244 0.000848534 1e-05
-0.00777316 0.000842437 1e-05
-0.00755388 0.000836619 1e-05
-0.00733443 0.00083243 1e-05
-0.00712387 0.000829974 1e-05
-0.00691332 0.000826324 1e-05
-0.00670279 0.00082151 1e-05
-0.00649225 0.000817155 1e-05
-0.0062816 0.000814892 1e-05
-0.00607944 0.000814733 1e-05
-0.00587729 0.000813588 1e-05
-0.00567515 0.000811476 1e-05
-0.005473 0.000810166 1e-05
-0.00527083 0.000811432 1e-05
-0.00507675 0.000815112 1e-05
-0.00488267 0.000818598 1e-05
-0.00468859 0.000821893 1e-05
-0.00449452 0.000826254 1e-05
-0.00430044 0.000833051 1e-05
-0.00411412 0.000841918 1e-05
-0.00392783 0.000851421 1e-05
-0.00374157 0.00086155 1e-05
-0.00355538 0.000872858 1e-05
-0.00336883 0.000885844 1e-05
-0.00318995 0.000899928 1e-05
-0.00301114 0.000914861 1e-05
-0.0028324 0.000930674 1e-05
-0.00265376 0.000947433 1e-05
-0.00247443 0.000965205 1e-05
-0.0023553 0.000977527 1e-05
-0.00223619 0.000990029 1e-05
-0.00211709 0.00100262 1e-05
-0.001998 0.00101531 1e-05
-0.00189084 0.00102682 1e-05
-0.00183582 0.00103276 1e-05
-0.00178082 0.00103876 1e-05
-0.00172581 0.00104479 1e-05
-0.00167081 0.00105087 1e-05
-0.00161577 0.00105701 1e-05
-0.0014509 0.00107535 1e-05
-0.00128601 0.00109351 1e-05
-0.00112107 0.00111121 1e-05
-0.000956077 0.00112844 1e-05
-0.000791418 0.001145 1e-05
-0.000633135 0.00115993 1e-05
-0.000474766 0.00117393 1e-05
-0.000316312 0.00118692 1e-05
-0.000157753 0.00119857 1e-05
0 0.00120856 1e-05
0.000105677 0.00121411 1e-05
0.000211403 0.00121866 1e-05
0.000317168 0.00122218 1e-05
0.000422966 0.00122448 1e-05
0.000528387 0.00122537 1e-05
0.000634886 0.00122477 1e-05
0.000741369 0.00122281 1e-05
0.000847817 0.00121944 1e-05
0.000954202 0.00121449 1e-05
0.00106088 0.00120772 1e-05
0.00116821 0.00119895 1e-05
0.00127537 0.00118836 1e-05
0.00138234 0.00117591 1e-05
0.00148909 0.00116178 1e-05
0.00159752 0.00114565 1e-05
0.00170568 0.00112765 1e-05
0.00181352 0.00110783 1e-05
0.00192084 0.00108533 1e-05
0.00202752 0.00106001 1e-05
0.00206331 0.00105045 1e-05
0.00207831 0.00104629 1e-05
0.0020933 0.00104208 1e-05
0.00210828 0.00103781 1e-05
0.00212323 0.00103349 1e-05
0.00213833 0.00102907 1e-05
0.00224733 0.00099662 1e-05
0.00235503 0.000960093 1e-05
0.0024611 0.000919049 1e-05
0.00256535 0.0008736 1e-05
0.00268334 0.000813685 1e-05
0.00272696 0.00078756 1e-05
0.00276988 0.000760311 1e-05
0.0028121 0.000731976 1e-05
0.00285373 0.000702784 1e-05
0.00288102 0.000682903 1e-05
0.00295133 0.000630409 1e-05
0.0030194 0.000575034 1e-05
0.00308518 0.000516961 1e-05
0.00314908 0.000456822 1e-05
0.00323259 0.000373615 1e-05
0.00324039 0.000365233 1e-05
0.00324817 0.000356823 1e-05
0.00325591 0.000348385 1e-05
0.00326362 0.000339919 1e-05
0.00327108 0.000331703 1e-05
0.00333105 0.000265363 1e-05
0.00338896 0.000197222 1e-05
0.00344503 0.00012756 1e-05
0.00349928 5.64649e-05 1e-05
0.00354103 0 1e-05
0.00359005 -6.79659e-05 1e-05
0.00363739 -0.000137109 1e-05
0.00368326 -0.000207234 1e-05
0.00372796 -0.000278115 1e-05
0.00378431 -0.000370853 1e-05
0.00378467 -0.000371475 1e-05
0.00378503 -0.000372097 1e-05
0.00378539 -0.00037272 1e-05
0.00378575 -0.000373342 1e-05
0.00378611 -0.000373966 1e-05
0.00383349 -0.000455953 1e-05
0.00387947 -0.000538736 1e-05
0.00392405 -0.000622281 1e-05
0.00396724 -0.000706551 1e-05
0.00400554 -0.000783804 1e-05
0.00405005 -0.000875733 1e-05
0.00409297 -0.00096842 1e-05
0.00413433 -0.00106181 1e-05
0.00417465 -0.00115565 1e-05
0.00421148 -0.00124332 1e-05
0.00423797 -0.00130767 1e-05
0.0042639 -0.00137225 1e-05
0.00428943 -0.00143699 1e-05
0.00431463 -0.00150186 1e-05
0.00434393 -0.00157842 1e-05
0.00435717 -0.00161363 1e-05
0.00437032 -0.00164888 1e-05
0.00438337 -0.00168417 1e-05
0.00439631 -0.0017195 1e-05
0.00440905 -0.00175448 1e-05
0.00445038 -0.00186822 1e-05
0.00449067 -0.00198233 1e-05
0.00453016 -0.00209672 1e-05
0.00456887 -0.00221137 1e-05
0.00460627 -0.00232305 1e-05
0.00464847 -0.00244955 1e-05
0.00468952 -0.00257644 1e-05
0.00472947 -0.00270367 1e-05
0.00476884 -0.00283108 1e-05
0.00480674 -0.00295543 1e-05
0.00482661 -0.00302123 1e-05
0.00484615 -0.00308712 1e-05
0.0048654 -0.00315311 1e-05
0.00488439 -0.00321916 1e-05
0.00490609 -0.00329572 1e-05
0.00492631 -0.00336832 1e-05
0.00494628 -0.00344098 1e-05
0.004966 -0.00351371 1e-05
0.00498547 -0.00358651 1e-05
0.00500451 -0.00365865 1e-05
0.00504541 -0.00381508 1e-05
0.00508466 -0.00397192 1e-05
0.00512208 -0.00412921 1e-05
0.00515758 -0.00428695 1e-05
0.00519059 -0.00444048 1e-05
0.00522624 -0.00461434 1e-05
0.00525906 -0.00478876 1e-05
0.00528908 -0.00496368 1e-05
0.00531734 -0.0051389 1e-05
0.00534274 -0.00530937 1e-05
0.00536872 -0.00550202 1e-05
0.00539126 -0.00569509 1e-05
0.00541224 -0.00588834 1e-05
0.00543147 -0.00608177 1e-05
0.0054487 -0.00627499 1e-05
0.00545348 -0.00633688 1e-05
0.00545816 -0.00639878 1e-05
0.00546288 -0.00646068 1e-05
0.00546764 -0.00652257 1e-05
0.00547262 -0.00658666 1e-05
0.00548459 -0.00673909 1e-05
0.00549655 -0.00689153 1e-05
0.00550848 -0.00704396 1e-05
0.00552039 -0.00719639 1e-05
0.00553227 -0.00734881 1e-05
0.00555172 -0.00758781 1e-05
0.00557628 -0.00782633 1e-05
0.00560753 -0.00806407 1e-05
0.00564739 -0.00830052 1e-05
0.00569963 -0.00854475 1e-05
0.00575963 -0.00877026 1e-05
0.00583755 -0.00899021 1e-05
0.00593709 -0.00920126 1e-05
0.00604356 -0.00939331 1e-05
0.00607985 -0.00944968 1e-05
0.00611766 -0.00950504 1e-05
0.00615702 -0.00955931 1e-05
0.00619695 -0.00961315 1e-05
0.00624374 -0.00967539 1e-05
0.00631878 -0.00977367 1e-05
0.00639633 -0.00986998 1e-05
0.00647626 -0.00996432 1e-05
0.00655833 -0.0100568 1e-05
0.00661893 -0.0101275 1e-05
0.00673321 -0.0102639 1e-05
0.00684689 -0.0104009 1e-05
0.00695975 -0.0105386 1e-05
0.00706959 -0.0106786 1e-05
0.00716812 -0.0108096 1e-05
0.00717425 -0.010818 1e-05
0.00718037 -0.0108264 1e-05
0.00718648 -0.0108349 1e-05
0.00719258 -0.0108434 1e-05
0.00719878 -0.010852 1e-05
0.00731565 -0.011015 1e-05
0.0074293 -0.0111803 1e-05
0.00754014 -0.0113474 1e-05
0.00764879 -0.011516 1e-05
0.00778313 -0.0117236 1e-05
0.00781131 -0.0117669 1e-05
0.00783949 -0.0118102 1e-05
0.00786767 -0.0118536 1e-05
0.00789591 -0.0118968 1e-05
0.00792433 -0.0119402 1e-05
0.00801387 -0.0120762 1e-05
0.00810393 -0.0122119 1e-05
0.0081945 -0.0123472 1e-05
0.00828571 -0.0124821 1e-05
0.00837203 -0.0126077 1e-05
0.00843649 -0.0127001 1e-05
0.00850144 -0.0127921 1e-05
0.00856689 -0.0128838 1e-05
0.00863286 -0.0129751 1e-05
0.00870201 -0.0130696 1e-05
0.00875471 -0.0131408 1e-05
0.00880774 -0.0132117 1e-05
0.00886112 -0.0132823 1e-05
0.00891485 -0.0133527 1e-05
0.00896551 -0.0134183 1e-05
0.00908513 -0.0135714 1e-05
0.00920635 -0.0137233 1e-05
0.00932918 -0.0138738 1e-05
0.00945391 -0.0140228 1e-05
0.0095636 -0.0141504 1e-05
0.00957213 -0.0141601 1e-05
0.00958067 -0.0141698 1e-05
0.00958921 -0.0141795 1e-05
0.00959776 -0.0141891 1e-05
0.00960638 -0.0141988 1e-05
0.00971837 -0.014325 1e-05
0.0098318 -0.0144499 1e-05
0.00994669 -0.0145735 1e-05
0.010063 -0.0146957 1e-05
0.0101663 -0.0148019 1e-05
0.0102707 -0.0149071 1e-05
0.0103761 -0.0150112 1e-05
0.0104826 -0.0151142 1e-05
0.01059 -0.0152161 1e-05
0.0107103 -0.015328 1e-05
0.010723 -0.0153396 1e-05
0.0107357 -0.0153511 1e-05
0.0107484 -0.0153626 1e-05
0.0107612 -0.0153741 1e-05
0.0107738 -0.0153855 1e-05
0.0108962 -0.0154956 1e-05
0.0110198 -0.0156045 1e-05
0.0111445 -0.0157121 1e-05
0.0112703 -0.0158182 1e-05
0.0113859 -0.0159134 1e-05
0.0115093 -0.0160127 1e-05
0.0116336 -0.0161109 1e-05
0.0117589 -0.0162078 1e-05
0.0118852 -0.0163034 1e-05
0.0120028 -0.0163904 1e-05
0.0120213 -0.0164038 1e-05
0.0120398 -0.0164171 1e-05
0.0120583 -0.0164304 1e-05
0.0120768 -0.0164437 1e-05
0.0120957 -0.0164573 1e-05
0.0122015 -0.0165327 1e-05
0.0123079 -0.0166072 1e-05
0.0124149 -0.0166808 1e-05
0.0125226 -0.0167535 1e-05
0.0126245 -0.0168212 1e-05
0.0127498 -0.0169034 1e-05
0.012876 -0.0169843 1e-05
0.013003 -0.0170639 1e-05
0.0131307 -0.0171424 1e-05
0.0132511 -0.0172153 1e-05
0.0133754 -0.0172896 1e-05
0.0135004 -0.0173626 1e-05
0.013626 -0.0174346 1e-05
0.0137521 -0.0175057 1e-05
0.0138825 -0.0175781 1e-05
0.0138856 -0.0175798 1e-05
0.0138888 -0.0175815 1e-05
0.0138919 -0.0175832 1e-05
0.013895 -0.0175849 1e-05
0.0138982 -0.0175866 1e-05
0.0140223 -0.0176542 1e-05
0.0141469 -0.0177209 1e-05
0.0142719 -0.0177868 1e-05
0.0143974 -0.0178518 1e-05
0.0145188 -0.0179137 1e-05
0.0146471 -0.0179779 1e-05
0.0147757 -0.0180413 1e-05
0.0149046 -0.0181041 1e-05
0.015034 -0.018166 1e-05
0.0151601 -0.0182251 1e-05
0.0152893 -0.0182846 1e-05
0.0154189 -0.0183434 1e-05
0.0155487 -0.0184015 1e-05
0.0156789 -0.0184587 1e-05
0.0158063 -0.0185138 1e-05
[...]
POINT_DATA 11254
 FIELD attributes 1
U 3 11254 float
10.0039 	-0.000793 	0 10.0153 	0.00181093 	0 10.0265 	0.00470153 	0 10.0378 	0.00759865 	0 10.0491 	0.0105023 	0 10.06 	0.0193172 	0 10.0745 	0.00343736 	0 10.0872 	0.00011642 	0 10.1 	-0.00323832 	0 10.1128 	-0.00662712 	0 10.121 	0.00398544 	0 10.1356 	-0.0202719 	0 10.1486 	-0.0261165 	0 10.1616 	-0.0320483 	0 10.1746 	-0.0380684 	0 10.1813 	-0.0219377 	0 10.2025 	-0.0567718 	0 10.2217 	-0.0667004 	0 10.2408 	-0.0767997 	0 10.2599 	-0.0870721 	0 10.2703 	-0.0628762 	0 10.3058 	-0.113058 	0 10.338 	-0.127894 	0 10.3701 	-0.142986 	0 10.402 	-0.158334 	0 10.4208 	-0.119216 	0 10.4764 	-0.187688 	0 10.5254 	-0.205027 	0 10.5741 	-0.222621 	0 10.6226 	-0.240469 	0 10.6493 	-0.177436 	0 10.7299 	-0.258637 	0 10.7948 	-0.281809 	0 10.8576 	-0.297618 	0 10.9098 	-0.285852 	0 10.9421 	-0.22 	0 11.0455 	-0.294254 	0 11.1338 	-0.340278 	0 11.2034 	-0.349671 	0 11.2401 	-0.300598 	0 11.266 	-0.231066 	0 11.3868 	-0.296734 	0 11.5063 	-0.361755 	0 11.5683 	-0.354987 	0 11.5712 	-0.279075 	0 11.5757 	-0.203798 	0 11.7043 	-0.266643 	0 11.8317 	-0.328946 	0 11.8804 	-0.315214 	0 11.8518 	-0.226254 	0 11.8249 	-0.137889 	0 11.9376 	-0.206953 	0 12.0491 	-0.27553 	0 12.0919 	-0.250143 	0 12.056 	-0.129479 	0 12.0217 	-0.00949378 	0 12.0992 	-0.0685148 	0 12.1759 	-0.127184 	0 12.2233 	-0.0792221 	0 12.2109 	0.0764666 	0 12.1991 	0.231324 	0 12.266 	0.220303 	0 12.3329 	0.209346 	0 12.3514 	0.277606 	0 12.3168 	0.431302 	0 12.2826 	0.58455 	0 12.3682 	0.630945 	0 12.4538 	0.677211 	0 12.433 	0.755103 	0 12.2865 	0.855266 	0 12.1412 	0.955936 	0 12.2207 	1.02063 	0 12.2382 	1.08269 	0 12.1572 	1.1405 	0 12.0565 	1.19486 	0 11.7955 	1.2201 	0 11.8226 	1.24091 	0 11.7286 	1.24025 	0 11.6347 	1.23962 	0 11.5408 	1.23902 	0 11.4564 	1.23851 	0 11.4185 	1.24372 	0 11.3807 	1.24898 	0 11.343 	1.25431 	0 11.3053 	1.25968 	0 11.2394 	1.25067 	0 11.1393 	1.22658 	0 10.9917 	1.17963 	0 10.8431 	1.13195 	0 10.6713 	1.0736 	0 10.4296 	0.983726 	0 10.3511 	0.915112 	0 10.2602 	0.841193 	1.46438e-23 10.1006 	0.741836 	4.89917e-24 9.85426 	0.624134 	-2.88191e-21 9.60736 	0.50488 	-5.69896e-21 9.51632 	0.409716 	3.64342e-20 9.42412 	0.313156 	7.86211e-20 9.27179 	0.201766 	7.50328e-20 9.05864 	0.0765137 	2.55882e-20 8.8447 	-0.0503446 	-2.36509e-20 8.74491 	-0.160904 	-3.83727e-20 8.64364 	-0.273425 	-5.30641e-20 8.49242 	-0.394955 	-5.20341e-20 8.28982 	-0.526317 	-3.40415e-20 8.08473 	-0.660649 	-1.60462e-20 7.96257 	-0.786854 	-1.02026e-20 7.83464 	-0.912042 	-4.71372e-21 7.67734 	-1.01579 	-1.34502e-21 7.50131 	-1.11599 	4.82323e-22 7.30901 	-1.2163 	1.29071e-21 7.17724 	-1.31926 	1.94602e-23 7.03858 	-1.47571 	-3.3887e-21 6.89769 	-1.63718 	-6.9073e-21 6.75461 	-1.80303 	-1.05063e-20 6.70554 	-1.86058 	-1.17498e-20 6.68281 	-1.87931 	-1.19697e-20 6.66002 	-1.89804 	-1.21872e-20 6.63717 	-1.91678 	-1.24025e-20 6.61506 	-1.93821 	-1.26541e-20 6.59351 	-1.96272 	-1.29469e-20 6.46889 	-2.19389 	-2.22943e-20 6.33846 	-2.45275 	-2.82492e-20 6.20342 	-2.70435 	-3.48647e-20 6.07987 	-3.08742 	-2.08083e-20 5.93337 	-3.55371 	-2.85445e-22 5.88114 	-3.73356 	1.96405e-21 5.82798 	-3.91165 	4.27372e-21 5.76775 	-4.04465 	5.02163e-21 5.70375 	-4.1545 	5.0063e-21 5.66082 	-4.22623 	5.01142e-21 5.5642 	-4.52658 	2.8042e-21 5.46606 	-4.82549 	5.67774e-22 5.35811 	-5.04302 	-1.15039e-22 5.24584 	-5.22694 	-1.83766e-22 5.09393 	-5.47051 	-2.74351e-22 5.0789 	-5.49409 	-2.20731e-22 5.06386 	-5.51762 	-1.6733e-22 5.04882 	-5.5411 	-1.14148e-22 5.03242 	-5.54673 	-2.18544e-22 5.01634 	-5.5495 	-3.43291e-22 4.91255 	-5.78014 	-1.21052e-21 4.79922 	-5.96207 	-1.87208e-21 4.68513 	-6.14037 	-2.52716e-21 4.54463 	-6.14592 	-2.03893e-21 4.43398 	-6.14833 	-1.65065e-21 4.36712 	-6.37851 	-2.35931e-21 4.28625 	-6.55229 	-2.61586e-21 4.18135 	-6.63095 	-2.10255e-21 4.07695 	-6.70967 	-1.59715e-21 3.94161 	-6.8092 	-9.55328e-22 3.94128 	-6.8112 	-9.29644e-22 3.94073 	-6.81254 	-9.05923e-22 3.93997 	-6.8132 	-8.84207e-22 3.93921 	-6.81386 	-8.6249e-22 3.93845 	-6.81453 	-8.40717e-22 3.83668 	-6.90796 	2.86842e-22 3.73563 	-7.00071 	1.48258e-21 3.6353 	-7.09276 	2.74512e-21 3.5391 	-7.13832 	5.31762e-21 3.45525 	-7.13606 	8.88234e-21 3.38763 	-7.31677 	1.25826e-20 3.32117 	-7.49847 	1.6342e-20 3.25219 	-7.5693 	1.51196e-20 3.16744 	-7.53895 	9.01914e-21 3.08632 	-7.49764 	2.702e-21 3.06707 	-7.63843 	-1.69502e-21 3.03781 	-7.70552 	-3.06375e-21 3.00277 	-7.72964 	-2.66975e-21 2.96797 	-7.75402 	-2.29676e-21 2.92725 	-7.78306 	-1.88199e-21 2.90797 	-7.79844 	-1.84574e-21 2.88877 	-7.81388 	-1.81484e-21 2.86965 	-7.82939 	-1.78928e-21 2.85347 	-7.83817 	-2.32707e-21 2.84518 	-7.82869 	-4.35735e-21 2.79728 	-7.92435 	-8.76885e-21 2.74965 	-7.96384 	-8.47184e-21 2.70249 	-8.00348 	-8.1176e-21 2.66569 	-7.96087 	-3.98408e-22 2.63319 	-7.89335 	9.45011e-21 2.60096 	-8.04052 	2.73706e-20 2.56855 	-8.17977 	4.40675e-20 2.52313 	-8.16463 	3.95706e-20 2.47252 	-8.11175 	3.12359e-20 2.41378 	-7.99336 	1.6342e-20 2.39814 	-8.09083 	1.52668e-20 2.36885 	-8.11935 	1.2354e-20 2.33157 	-8.10743 	8.36096e-21 2.29446 	-8.09602 	4.37448e-21 2.25169 	-8.08341 	-2.33217e-22 2.21921 	-8.07438 	-3.71207e-21 2.18681 	-8.06583 	-7.19518e-21 2.15447 	-8.05776 	-1.06825e-20 2.12359 	-8.04482 	-1.32186e-20 2.09671 	-8.0183 	-1.32143e-20 2.00566 	-8.0166 	-9.5033e-21 1.90281 	-7.99677 	-6.00931e-21 1.79325 	-7.96827 	-2.67967e-21 1.68937 	-7.85739 	-1.04754e-20 1.58869 	-7.74718 	-1.87565e-20 1.45456 	-7.73093 	-3.76889e-20 1.32299 	-7.70786 	-5.40715e-20 1.21966 	-7.56176 	-4.5841e-20 1.10051 	-7.38637 	-3.18283e-20 0.96928 	-7.18852 	-1.26324e-20 0.82543 	-7.06908 	1.93066e-20 0.740826 	-6.82428 	2.24556e-20 0.65451 	-6.58475 	2.59329e-20 0.566286 	-6.35112 	2.97768e-20 0.471607 	-6.10033 	2.7319e-20 0.454115 	-6.01048 	2.64675e-20 0.450868 	-5.91419 	2.50287e-20 0.447697 	-5.8178 	2.35922e-20 0.444607 	-5.72129 	2.21581e-20 0.441495 	-5.62123 	2.06755e-20 0.422846 	-5.39218 	1.59297e-20 0.404181 	-5.16318 	1.11847e-20 0.385498 	-4.93421 	6.44072e-21 0.366795 	-4.70528 	1.69788e-21 0.367012 	-4.5095 	-9.00444e-22 0.425917 	-4.13712 	-3.07493e-23 0.495958 	-3.7731 	-1.09065e-22 0.573046 	-3.39903 	-1.81145e-22 0.657187 	-3.07221 	5.16715e-22 0.752327 	-2.82763 	2.66607e-21 0.882534 	-2.49146 	1.38279e-20 1.02395 	-2.17098 	2.2915e-20 1.12998 	-2.03828 	1.20641e-20 1.23831 	-1.9235 	7.27465e-22 1.27836 	-1.87133 	-9.45383e-23 1.31958 	-1.8197 	-9.2411e-22 1.34542 	-1.81413 	-1.05326e-21 1.36784 	-1.81939 	-1.0203e-21 1.39412 	-1.82587 	-9.80552e-22 1.44795 	-1.79831 	-6.54132e-22 1.50298 	-1.7739 	-3.23834e-22 1.55805 	-1.75565 	0 1.57864 	-1.84104 	0 1.59377 	-1.90323 	0 1.63904 	-1.97493 	0 1.67962 	-2.04846 	0 1.68129 	-2.14391 	0 1.682 	-2.23505 	0 1.68184 	-2.31527 	0 1.68225 	-2.32197 	0 1.68267 	-2.32867 	0 1.68302 	-2.33527 	1.08897e-24 1.68256 	-2.34064 	1.76693e-23 1.68209 	-2.34609 	3.45266e-23 1.67263 	-2.43244 	-2.60058e-23 1.6635 	-2.50884 	-9.40838e-23 1.65521 	-2.56827 	-1.03695e-22 1.65369 	-2.55524 	1.21501e-22 1.65194 	-2.53929 	3.98209e-22 1.6504 	-2.53711 	-2.87611e-23 1.64886 	-2.53494 	-4.55702e-22 1.64883 	-2.52648 	-1.58169e-22 1.64925 	-2.51622 	3.48358e-22 1.6497 	-2.50594 	8.55857e-22 1.65024 	-2.48621 	1.93036e-21 1.65093 	-2.46654 	3.00227e-21 1.65246 	-2.44404 	3.55739e-21 1.65668 	-2.41097 	2.22695e-21 1.66093 	-2.38011 	9.67758e-22 1.66308 	-2.35632 	7.60597e-22 1.66536 	-2.33257 	5.51829e-22 1.66879 	-2.30974 	4.7907e-22 1.67255 	-2.28709 	4.28364e-22 1.67661 	-2.2636 	3.74315e-22 1.67996 	-2.24581 	2.22698e-22 1.68341 	-2.22807 	7.06609e-23 1.6871 	-2.21022 	-6.9112e-23 1.69246 	-2.1909 	-6.61164e-23 1.69761 	-2.17285 	-6.33963e-23 1.7053 	-2.1362 	-2.0492e-22 1.71344 	-2.09977 	-3.48774e-22 1.72538 	-2.0609 	-2.35895e-22 1.73807 	-2.02215 	-1.09392e-22 1.74992 	-1.98815 	3.59486e-23 1.75056 	-1.98586 	4.31613e-23 1.75123 	-1.98356 	4.91169e-23 1.75209 	-1.98109 	4.5123e-23 1.75296 	-1.97863 	4.11312e-23 1.75383 	-1.97616 	3.71131e-23 1.7656 	-1.94408 	-2.47294e-23 1.77779 	-1.91222 	-8.61069e-23 1.79039 	-1.88059 	-1.47003e-22 1.80347 	-1.85365 	-9.19047e-23 1.81531 	-1.83068 	-3.03923e-23 1.82658 	-1.80349 	-2.56285e-23 1.83818 	-1.77751 	-2.12584e-23 1.85014 	-1.75503 	-1.84562e-23 1.86239 	-1.73271 	-1.55174e-23 1.8763 	-1.70813 	-1.21047e-23 1.87782 	-1.7056 	-1.04498e-23 1.87935 	-1.70307 	-8.79457e-24 1.88088 	-1.70055 	-7.13914e-24 1.8825 	-1.69779 	-4.76134e-24 1.88415 	-1.69493 	-2.01365e-24 1.89786 	-1.67226 	-9.81956e-23 1.91214 	-1.64877 	-1.57444e-22 1.92674 	-1.62549 	-2.1596e-22 1.94237 	-1.59938 	-8.40269e-23 1.95706 	-1.57524 	7.53768e-23 1.97089 	-1.55602 	6.04911e-23 1.98517 	-1.53583 	5.25217e-23 2.0001 	-1.51342 	5.91101e-23 2.01532 	-1.49125 	6.52978e-23 2.02987 	-1.46985 	7.87875e-23 2.03197 	-1.4673 	4.29368e-23 2.0341 	-1.46444 	3.12942e-23 2.03625 	-1.46136 	3.75528e-23 2.03841 	-1.45829 	4.37762e-23 2.04061 	-1.45516 	5.00872e-23 2.05316 	-1.43781 	1.48468e-23 2.0659 	-1.42062 	-2.06828e-23 2.07883 	-1.40358 	-5.64986e-23 2.09114 	-1.3892 	-8.42695e-23 2.10183 	-1.37911 	-9.95426e-23 2.11719 	-1.35767 	-5.94698e-23 2.13282 	-1.3364 	-1.93705e-23 2.14728 	-1.32011 	2.88781e-23 2.16059 	-1.30853 	8.39118e-23 2.17324 	-1.29779 	1.35356e-22 2.18833 	-1.27798 	5.91233e-22 2.20229 	-1.26312 	6.99791e-22 2.21598 	-1.25001 	6.9217e-22 2.22985 	-1.23702 	6.85931e-22 2.24426 	-1.2239 	6.69076e-22 2.24463 	-1.22344 	6.78017e-22 2.24498 	-1.2231 	6.78069e-22 2.24531 	-1.22278 	6.76233e-22 2.24565 	-1.22247 	6.74397e-22 2.24598 	-1.22215 	6.72555e-22 2.25937 	-1.20985 	6.16292e-22 2.27291 	-1.19765 	5.60947e-22 2.28659 	-1.18556 	5.06515e-22 2.29967 	-1.17248 	4.4541e-22 2.30895 	-1.15494 	3.5226e-22 2.32504 	-1.14727 	2.47731e-22 2.34128 	-1.13973 	1.43957e-22 2.35424 	-1.12658 	1.50751e-22 2.36387 	-1.10862 	4.52623e-22 2.37339 	-1.09129 	7.46929e-22 2.38963 	-1.08438 	4.49683e-22 2.40474 	-1.07583 	2.00815e-22 2.41674 	-1.06288 	7.77194e-23 2.42838 	-1.04917 	-1.14456e-23 2.4379 	-1.03245 	3.55634e-23 2.44982 	-1.0278 	-2.85161e-23 2.45859 	-1.01874 	-1.67576e-23 2.46744 	-1.00976 	-4.97727e-24 2.47637 	-1.00085 	6.82457e-24 2.48627 	-0.991118 	1.98258e-23 2.48936 	-0.988165 	-4.97259e-23 2.49247 	-0.98522 	-1.19003e-22 2.49558 	-0.982282 	-1.88006e-22 2.4987 	-0.979353 	-2.56735e-22 2.50009 	-0.978637 	3.69758e-23 2.51383 	-0.964953 	8.01818e-22 2.52606 	-0.953358 	1.22547e-21 2.53842 	-0.941881 	1.64555e-21 2.54979 	-0.931952 	1.77389e-21 2.55492 	-0.930066 	3.40022e-22 2.5717 	-0.913504 	2.89344e-22 2.58753 	-0.898405 	2.01544e-22 2.59989 	-0.887649 	-2.19644e-24 2.60524 	-0.886043 	-1.56573e-22 2.6105 	-0.884496 	-3.07422e-22 2.62741 	-0.868342 	-2.05208e-22 2.64454 	-0.852294 	-1.02097e-22 2.65581 	-0.844034 	-2.10867e-22 2.66126 	-0.842773 	-1.96797e-22 2.66662 	-0.841555 	-1.82642e-22 2.68365 	-0.825765 	1.14811e-21 2.69647 	-0.815682 	1.42296e-21 2.70678 	-0.809039 	1.06293e-21 2.71718 	-0.802434 	7.06876e-22 2.72315 	-0.800954 	-6.84886e-22 2.73587 	-0.790007 	-7.79561e-22 2.74437 	-0.784654 	-6.30682e-22 2.75293 	-0.779326 	-4.81378e-22 2.76156 	-0.774023 	-3.31653e-22 2.77137 	-0.768065 	-1.62195e-22 2.77295 	-0.767124 	-1.24368e-22 2.77453 	-0.766185 	-8.65463e-23 2.77612 	-0.765246 	-4.87294e-23 2.77771 	-0.764308 	-1.09175e-23 2.77763 	-0.762123 	0 2.78962 	-0.757202 	-4.07832e-23 2.80002 	-0.750968 	-8.87989e-23 2.81051 	-0.744767 	-1.36968e-22 2.82109 	-0.738599 	-1.85289e-22 2.81917 	-0.722988 	-3.05632e-22 2.84097 	-0.726205 	1.06131e-21 2.85264 	-0.721162 	1.49405e-21 2.86316 	-0.715162 	1.81369e-21 2.8664 	-0.703478 	1.19747e-21 2.86183 	-0.685769 	-4.20274e-22 2.88379 	-0.689399 	-2.6801e-21 2.9057 	-0.692977 	-4.92876e-21 2.91438 	-0.685701 	-5.20111e-21 2.90989 	-0.668 	-3.43399e-21 2.9056 	-0.65044 	-1.66947e-21 2.92768 	-0.654479 	-4.94927e-21 2.94978 	-0.658524 	-8.2292e-21 2.95873 	-0.651929 	-7.60999e-21 2.95449 	-0.634393 	-3.5997e-21 2.95045 	-0.616983 	4.02074e-22 2.97264 	-0.621427 	4.44198e-21 2.99 	-0.621925 	6.96887e-21 2.9975 	-0.614345 	6.39289e-21 3.00017 	-0.60262 	4.59151e-21 2.99635 	-0.585353 	1.14802e-21 3.01862 	-0.590199 	1.8985e-21 3.02795 	-0.584274 	1.52774e-21 3.03577 	-0.57706 	1.01893e-21 3.04372 	-0.569912 	5.12444e-22 3.04325 	-0.5555 	-7.43624e-22 3.0595 	-0.555593 	-2.04526e-21 3.0675 	-0.548672 	-1.36391e-21 3.07562 	-0.541813 	-6.87259e-22 3.08385 	-0.535015 	-1.5256e-23 3.09113 	-0.527385 	8.33328e-22 3.09334 	-0.527294 	8.38833e-22 3.09453 	-0.526326 	8.16016e-22 3.09573 	-0.525359 	7.93191e-22 3.09693 	-0.524393 	7.70358e-22 3.09815 	-0.523412 	7.47133e-22 3.1052 	-0.517788 	5.8162e-22 3.11233 	-0.512206 	4.16262e-22 3.11955 	-0.506667 	2.51058e-22 3.12684 	-0.501169 	8.60071e-23 3.12642 	-0.502937 	0 3.14267 	-0.48958 	1.21259e-22 3.15119 	-0.483332 	3.64333e-22 3.15982 	-0.477139 	6.07922e-22 3.16855 	-0.471 	8.52018e-22 3.16131 	-0.480231 	1.34181e-21 3.18543 	-0.459903 	3.00818e-21 3.19482 	-0.453339 	3.22964e-21 3.20364 	-0.447455 	3.38257e-21 3.20722 	-0.44685 	2.84384e-21 3.19798 	-0.458832 	6.49959e-22 3.22194 	-0.438544 	5.6258e-22 3.23923 	-0.424915 	6.68399e-22 3.2482 	-0.419323 	1.00721e-21 3.24482 	-0.426348 	6.56131e-22 3.23607 	-0.43863 	1.12939e-23 3.25983 	-0.418367 	2.72663e-21 3.28399 	-0.398174 	5.45358e-21 3.29175 	-0.394255 	5.49659e-21 3.28365 	-0.406973 	3.8303e-21 3.27539 	-0.419556 	2.17298e-21 3.29888 	-0.39931 	-1.11832e-21 3.32277 	-0.379132 	-4.40872e-21 3.33097 	-0.375612 	-4.32013e-21 3.32337 	-0.388625 	-7.52124e-22 3.31559 	-0.401508 	2.79583e-21 3.33876 	-0.381275 	-6.96424e-22 3.36232 	-0.361108 	-4.19474e-21 3.37095 	-0.357965 	-5.20568e-21 3.36384 	-0.371258 	-2.9904e-21 3.35656 	-0.384429 	-7.88917e-22 3.37935 	-0.364205 	-5.93345e-22 3.40006 	-0.346914 	-4.10826e-22 3.40788 	-0.345083 	-3.07938e-22 3.40486 	-0.354779 	-5.04995e-22 3.39809 	-0.368222 	-8.00929e-22 3.42045 	-0.348001 	2.02463e-21 3.43589 	-0.336718 	3.55932e-21 3.44374 	-0.334957 	3.71327e-21 3.44627 	-0.3391 	2.97661e-21 3.44002 	-0.352803 	7.94578e-22 3.4619 	-0.332579 	3.00588e-21 3.47259 	-0.327129 	2.5119e-21 3.48045 	-0.325431 	1.33124e-21 3.48798 	-0.324163 	1.03856e-22 3.48227 	-0.338113 	-2.82479e-21 3.50225 	-0.319735 	-7.23517e-21 3.51007 	-0.318099 	-7.01867e-21 3.51793 	-0.316461 	-6.8038e-21 3.52583 	-0.314822 	-6.59054e-21 3.52468 	-0.324084 	-3.25643e-21 3.54029 	-0.311174 	-1.24063e-21 3.5481 	-0.309595 	-4.59929e-22 3.55595 	-0.308015 	3.22329e-22 3.56384 	-0.306433 	1.10614e-21 3.56713 	-0.310668 	7.77344e-22 3.57883 	-0.30311 	1.56117e-21 3.58662 	-0.301587 	1.62782e-21 3.59444 	-0.300063 	1.69542e-21 3.6023 	-0.298537 	1.76397e-21 3.60956 	-0.297836 	1.70655e-21 3.61139 	-0.296735 	1.65765e-21 3.61268 	-0.296491 	1.60334e-21 3.61396 	-0.296247 	1.54902e-21 3.61525 	-0.296002 	1.49471e-21 3.61657 	-0.295751 	1.43904e-21 3.62303 	-0.294529 	1.13471e-21 3.62952 	-0.293305 	8.30476e-22 3.63602 	-0.292079 	5.26327e-22 3.64255 	-0.290852 	2.22267e-22 3.64523 	-0.282759 	0 3.65728 	-0.288351 	1.38193e-22 3.665 	-0.286936 	3.22195e-22 3.67274 	-0.285518 	5.06284e-22 3.68052 	-0.284098 	6.90459e-22 3.67961 	-0.267764 	1.15097e-21 3.69703 	-0.281611 	3.19023e-21 3.70468 	-0.280249 	3.40503e-21 3.71236 	-0.278884 	3.61833e-21 3.72007 	-0.277517 	3.83011e-21 3.71406 	-0.253414 	1.66307e-21 3.73699 	-0.27528 	6.23939e-22 3.74457 	-0.27397 	4.16965e-22 3.75217 	-0.272658 	2.10057e-22 3.75981 	-0.271343 	3.2135e-24 3.74848 	-0.239686 	5.50719e-22 3.77543 	-0.266871 	4.40239e-23 3.78461 	-0.268086 	1.47851e-22 3.79213 	-0.266827 	3.09838e-22 3.79522 	-0.258682 	1.07215e-22 3.78296 	-0.226595 	-1.36254e-21 3.81059 	-0.253947 	-4.36827e-21 3.8249 	-0.262573 	-5.80292e-21 3.83233 	-0.261369 	-6.40883e-21 3.83043 	-0.246178 	-6.14868e-21 3.81752 	-0.214135 	-4.83662e-21 3.84582 	-0.241656 	-1.09217e-20 3.86537 	-0.257421 	-1.45385e-20 3.8727 	-0.256274 	-1.45726e-20 3.86568 	-0.234286 	-9.58943e-21 3.85209 	-0.202277 	-2.16629e-21 3.88107 	-0.22997 	3.70828e-21 3.90598 	-0.252622 	8.66305e-21 3.91321 	-0.251532 	9.24188e-21 3.9009 	-0.222972 	5.32675e-21 3.88659 	-0.190984 	8.3939e-22 3.9163 	-0.218856 	6.81324e-22 3.94553 	-0.246609 	5.17972e-22 3.95173 	-0.244248 	-4.75128e-22 3.93614 	-0.21222 	-5.59854e-22 3.92105 	-0.180237 	-6.51049e-22 3.95153 	-0.208298 	-5.09349e-21 3.98153 	-0.236242 	-9.52909e-21 3.98789 	-0.234062 	-9.48831e-21 3.97146 	-0.202021 	-4.96924e-21 3.95554 	-0.170027 	-4.4577e-22 3.98683 	-0.198289 	-2.81619e-22 4.01765 	-0.226436 	-1.12068e-22 4.02413 	-0.224422 	-6.90079e-22 4.0068 	-0.192347 	-2.15557e-21 3.98997 	-0.16032 	-3.61347e-21 4.02213 	-0.188792 	-6.74583e-21 4.05381 	-0.217151 	-9.88679e-21 4.06037 	-0.21529 	-1.04483e-20 4.04206 	-0.183163 	-8.81646e-21 4.02425 	-0.151087 	-7.17789e-21 4.05733 	-0.179772 	-9.0592e-21 4.08992 	-0.208346 	-1.09429e-20 4.09654 	-0.206628 	-8.58816e-21 4.07718 	-0.174441 	-3.70698e-21 4.05831 	-0.142305 	1.1717e-21 4.09236 	-0.171199 	1.03237e-20 4.12592 	-0.199982 	1.94842e-20 4.13182 	-0.197575 	2.1052e-20 4.11209 	-0.166152 	1.43827e-20 4.0921 	-0.133957 	7.44701e-21 4.12717 	-0.163049 	9.87725e-21 4.15763 	-0.187486 	1.18825e-20 4.16322 	-0.18488 	1.12785e-20 4.14687 	-0.158299 	8.53582e-21 4.12569 	-0.126053 	5.26398e-21 4.16185 	-0.155333 	4.15162e-21 4.18884 	-0.175311 	2.74202e-21 4.19442 	-0.172854 	5.78844e-22 4.18147 	-0.150865 	-9.68676e-22 4.15903 	-0.118573 	-2.19658e-21 4.19633 	-0.148035 	-1.02805e-20 4.21981 	-0.16379 	-1.49995e-20 4.22536 	-0.161477 	-1.52686e-20 4.21583 	-0.143836 	-1.15324e-20 4.19204 	-0.111499 	-3.94545e-21 4.23055 	-0.14114 	-2.13964e-21 4.25044 	-0.152898 	-1.74342e-21 4.25595 	-0.150722 	-2.44973e-21 4.24987 	-0.137197 	-3.7499e-21 4.22465 	-0.104812 	-6.03848e-21 4.26443 	-0.134635 	-1.80364e-20 4.28064 	-0.142612 	-2.20587e-20 4.2861 	-0.140566 	-2.24142e-20 4.28352 	-0.13093 	-2.01419e-20 4.25681 	-0.0984858 	-9.96917e-21 4.29791 	-0.128502 	-1.53538e-20 4.31035 	-0.132901 	-1.62322e-20 4.31575 	-0.130976 	-1.59965e-20 4.31672 	-0.125021 	-1.49897e-20 4.28846 	-0.0925018 	-8.90715e-21 4.33094 	-0.122713 	-1.50427e-20 4.33951 	-0.123723 	-1.42417e-20 4.34484 	-0.121913 	-1.27692e-20 4.34943 	-0.119441 	-1.11333e-20 4.31954 	-0.0868391 	-2.13785e-21 4.36289 	-0.116763 	7.83025e-21 4.36809 	-0.115042 	8.02606e-21 4.37334 	-0.113339 	8.22564e-21 4.37863 	-0.111653 	8.42897e-21 4.35007 	-0.0814792 	-1.74205e-21 4.39103 	-0.108491 	-1.33339e-20 4.39615 	-0.10687 	-1.37175e-20 4.40132 	-0.105266 	-1.41057e-20 4.40652 	-0.103678 	-1.44987e-20 4.38004 	-0.076404 	-4.70195e-21 4.41865 	-0.100705 	-2.36601e-21 4.42368 	-0.099179 	-1.05645e-21 4.42875 	-0.0976684 	2.53194e-22 4.43386 	-0.096173 	1.56293e-21 4.40942 	-0.0715972 	1.72863e-21 4.4457 	-0.0933759 	2.28908e-21 4.45063 	-0.0919413 	3.54965e-21 4.45559 	-0.090521 	4.80952e-21 4.46059 	-0.0891149 	6.0687e-21 4.43816 	-0.0670497 	7.40651e-21 4.47213 	-0.0864876 	1.2655e-20 4.47695 	-0.085141 	1.22643e-20 4.48181 	-0.0838078 	1.18755e-20 4.4867 	-0.082488 	1.14886e-20 4.46622 	-0.0627543 	6.86536e-21 4.4979 	-0.0800192 	1.34862e-20 4.50262 	-0.0787521 	1.20731e-20 4.50736 	-0.0774977 	1.06635e-20 4.51215 	-0.0762557 	9.25738e-21 4.49358 	-0.0586802 	1.22513e-21 4.52302 	-0.073943 	1.36796e-21 4.52762 	-0.0727564 	2.1087e-21 4.53226 	-0.0715815 	2.84914e-21 4.53693 	-0.0704184 	3.58928e-21 4.52024 	-0.0548379 	4.53017e-21 4.54747 	-0.0682514 	2.14839e-21 4.55196 	-0.0671416 	2.79206e-21 4.55648 	-0.0660428 	3.43394e-21 4.56103 	-0.0649549 	4.07405e-21 4.54616 	-0.0512163 	7.11955e-21 4.57121 	-0.0629202 	6.71724e-21 4.57558 	-0.0618762 	7.14405e-21 4.57998 	-0.0608425 	7.57008e-21 4.58441 	-0.059819 	7.99536e-21 4.57131 	-0.0477711 	8.99399e-21 4.59422 	-0.0579054 	1.22144e-20 4.59846 	-0.0569247 	1.05237e-20 4.60274 	-0.0559538 	8.83567e-21 4.60704 	-0.0549924 	7.15032e-21 4.59566 	-0.0444979 	1.97643e-21 4.61649 	-0.0531922 	1.36603e-21 4.62061 	-0.052271 	1.01439e-21 4.62476 	-0.0513588 	6.62707e-22 4.62894 	-0.0504557 	3.10993e-22 4.61922 	-0.0413839 	1.20084e-24 4.63802 	