# vtk DataFile Version 2.0
track0
ASCII
DATASET POLYDATA
POINTS 10647 double
-0.0205 0.001 1e-05
-0.0204991 0.00100536 1e-05
-0.0204976 0.00101063 1e-05
-0.0204947 0.00101518 1e-05
-0.0204905 0.00101864 1e-05
-0.0204746 0.00102682 1e-05
-0.0201831 0.00105563 1e-05
-0.0203616 0.00128794 1e-05
-0.0204488 0.00141936 1e-05
-0.0201625 0.0014444 1e-05
-0.0201519 0.00173163 1e-05
-0.0202219 0.00184007 1e-05
-0.0200495 0.00193025 1e-05
-0.0200808 0.00212221 1e-05
-0.0201294 0.00229098 1e-05
-0.0200087 0.00238763 1e-05
-0.0199911 0.00254123 1e-05
-0.0200041 0.00269529 1e-05
-0.0199827 0.00277425 1e-05
-0.019869 0.00287784 1e-05
-0.0198179 0.00302292 1e-05
-0.0198054 0.00317624 1e-05
-0.0197599 0.00329221 1e-05
-0.0196347 0.00340323 1e-05
-0.0195486 0.00354672 1e-05
-0.0194776 0.0036983 1e-05
-0.019391 0.0038415 1e-05
-0.0193841 0.00384734 1e-05
-0.0193107 0.00390807 1e-05
-0.0192439 0.0039759 1e-05
-0.019179 0.0040457 1e-05
-0.0191113 0.00411264 1e-05
-0.0190172 0.0041978 1e-05
-0.0189564 0.0042467 1e-05
-0.0188939 0.00429332 1e-05
-0.0188297 0.00433762 1e-05
-0.018764 0.0043796 1e-05
-0.0186584 0.00444232 1e-05
-0.0184262 0.00456523 1e-05
-0.0181851 0.00466945 1e-05
-0.0179369 0.00475562 1e-05
-0.0176828 0.00482195 1e-05
-0.0174976 0.0048535 1e-05
-0.0172058 0.0048842 1e-05
-0.0169124 0.00488592 1e-05
-0.0166199 0.00486354 1e-05
-0.0163297 0.0048203 1e-05
-0.0160387 0.00475616 1e-05
-0.0158295 0.00469339 1e-05
-0.0156239 0.00461956 1e-05
-0.0154225 0.00453503 1e-05
-0.015224 0.00444403 1e-05
-0.0152206 0.00444232 1e-05
-0.0151041 0.00438396 1e-05
-0.0149904 0.00432033 1e-05
-0.0148798 0.00425136 1e-05
-0.0147716 0.00417877 1e-05
-0.0146381 0.00408329 1e-05
-0.0145774 0.0040361 1e-05
-0.0145176 0.00398782 1e-05
-0.0144587 0.00393844 1e-05
-0.0144007 0.00388794 1e-05
-0.0143549 0.00384734 1e-05
-0.0142308 0.00373631 1e-05
-0.0141134 0.00361838 1e-05
-0.0140034 0.0034934 1e-05
-0.0138994 0.00336342 1e-05
-0.0138449 0.00329221 1e-05
-0.0137678 0.00318862 1e-05
-0.0136982 0.00307984 1e-05
-0.013635 0.00296725 1e-05
-0.0135756 0.0028526 1e-05
-0.0135384 0.00277425 1e-05
-0.0134955 0.0026776 1e-05
-0.0134596 0.00257806 1e-05
-0.0134278 0.00247718 1e-05
-0.0134005 0.00237496 1e-05
-0.0133826 0.00229098 1e-05
-0.0133676 0.0022008 1e-05
-0.0133587 0.00210982 1e-05
-0.0133551 0.00201847 1e-05
-0.0133575 0.00192709 1e-05
-0.0133661 0.00184007 1e-05
-0.013381 0.00175593 1e-05
-0.0134036 0.00167353 1e-05
-0.0134331 0.00159333 1e-05
-0.0134695 0.00151606 1e-05
-0.0135264 0.00141936 1e-05
-0.0135839 0.00134085 1e-05
-0.0136524 0.00127163 1e-05
-0.0137266 0.0012087 1e-05
-0.0138054 0.00115151 1e-05
-0.0139996 0.00102682 1e-05
-0.0141273 0.000957981 1e-05
-0.0142617 0.000903231 1e-05
-0.0143992 0.000857198 1e-05
-0.0145374 0.000813177 1e-05
-0.0146381 0.000782791 1e-05
-0.0147224 0.000758346 1e-05
-0.0148071 0.000735263 1e-05
-0.014892 0.000713333 1e-05
-0.0149775 0.000693424 1e-05
-0.0151523 0.000660566 1e-05
-0.0153296 0.000638069 1e-05
-0.0155073 0.000618958 1e-05
-0.0156852 0.000602486 1e-05
-0.0158633 0.000587996 1e-05
-0.0160387 0.000568342 1e-05
-0.0162836 0.000518442 1e-05
-0.0165323 0.000493717 1e-05
-0.016782 0.000482686 1e-05
-0.0170318 0.000475837 1e-05
-0.0174976 0.000406075 1e-05
-0.0174976 0.000406075 1e-05
-0.0174976 0.000406075 1e-05
-0.0174976 0.000406075 1e-05
-0.0174976 0.000406075 1e-05
-0.0174976 0.000406075 1e-05
-0.0174951 0.000388628 1e-05
-0.0174897 0.00037186 1e-05
-0.017482 0.000356008 1e-05
-0.0174726 0.000341097 1e-05
-0.0174557 0.000318841 1e-05
-0.0173838 0.000255072 1e-05
-0.0172967 0.000214397 1e-05
-0.0172047 0.0001866 1e-05
-0.0171106 0.000167056 1e-05
-0.0160387 4.40877e-06 1e-05
-0.0160289 3.52701e-06 1e-05
-0.016019 3.07627e-06 1e-05
-0.0160092 2.66698e-06 1e-05
-0.0159993 2.2577e-06 1e-05
-0.015945 0 1e-05
-0.0205 0.00367778 1e-05
-0.0203955 0.00371169 1e-05
-0.0203045 0.0037732 1e-05
-0.0202171 0.00383976 1e-05
-0.0201979 0.00384734 1e-05
-0.0199618 0.0039343 1e-05
-0.019766 0.00409241 1e-05
-0.0196201 0.00429748 1e-05
-0.0194752 0.00444232 1e-05
-0.0193836 0.00449614 1e-05
-0.0192963 0.00455663 1e-05
-0.0192132 0.00462285 1e-05
-0.0191277 0.00468596 1e-05
-0.0190172 0.00476144 1e-05
-0.0189141 0.00482515 1e-05
-0.0188083 0.00488434 1e-05
-0.0187001 0.00493906 1e-05
-0.0185899 0.00498944 1e-05
-0.0183685 0.00508 1e-05
-0.0181943 0.00513501 1e-05
-0.0180181 0.00518305 1e-05
-0.0178401 0.00522428 1e-05
-0.0176607 0.00525857 1e-05
-0.0174976 0.00528156 1e-05
-0.0172058 0.00530946 1e-05
-0.0169127 0.00531429 1e-05
-0.0166201 0.00529727 1e-05
-0.0163294 0.00526006 1e-05
-0.0160387 0.00520505 1e-05
-0.0159406 0.00518004 1e-05
-0.015843 0.00515305 1e-05
-0.0157459 0.00512415 1e-05
-0.0156492 0.00509404 1e-05
-0.0156061 0.00508 1e-05
-0.0154125 0.00501575 1e-05
-0.0152223 0.00494205 1e-05
-0.0150362 0.00485854 1e-05
-0.0148544 0.00476598 1e-05
-0.0146381 0.00464606 1e-05
-0.014572 0.00460531 1e-05
-0.0145065 0.00456368 1e-05
-0.0144415 0.00452116 1e-05
-0.0143771 0.00447786 1e-05
-0.0143248 0.00444232 1e-05
-0.0141514 0.00432332 1e-05
-0.0139844 0.00419531 1e-05
-0.0138253 0.00405779 1e-05
-0.0136708 0.00391505 1e-05
-0.0136004 0.00384734 1e-05
-0.013539 0.00378713 1e-05
-0.0134797 0.00372482 1e-05
-0.013422 0.0036611 1e-05
-0.0133651 0.0035966 1e-05
-0.0132934 0.00351284 1e-05
-0.0132572 0.00346871 1e-05
-0.0132213 0.00342422 1e-05
-0.0131859 0.00337937 1e-05
-0.0131511 0.00333414 1e-05
-0.0131193 0.00329221 1e-05
-0.0130413 0.00318862 1e-05
-0.0129652 0.00308359 1e-05
-0.012892 0.00297658 1e-05
-0.012822 0.00286743 1e-05
-0.0127648 0.00277425 1e-05
-0.0127072 0.0026776 1e-05
-0.012651 0.00258012 1e-05
-0.0125964 0.00248176 1e-05
-0.0125433 0.00238259 1e-05
-0.0124966 0.00229098 1e-05
-0.0124532 0.0022008 1e-05
-0.01241 0.00211048 1e-05
-0.0123672 0.00202003 1e-05
-0.0123246 0.00192945 1e-05
-0.0122838 0.00184007 1e-05
-0.0122491 0.00175593 1e-05
-0.012213 0.00167241 1e-05
-0.0121755 0.00158945 1e-05
-0.0121367 0.00150715 1e-05
-0.0120929 0.00141936 1e-05
-0.0120748 0.001384 1e-05
-0.0120552 0.00134945 1e-05
-0.0120344 0.00131569 1e-05
-0.0120121 0.00128279 1e-05
-0.0120025 0.00126983 1e-05
-0.0119652 0.00122123 1e-05
-0.0119249 0.00117509 1e-05
-0.0118816 0.00113174 1e-05
-0.0118355 0.00109146 1e-05
-0.0117501 0.00102682 1e-05
-0.0116361 0.000953567 1e-05
-0.0115142 0.000894494 1e-05
-0.0113876 0.000846152 1e-05
-0.0112582 0.000806262 1e-05
-0.0107632 0.000715851 1e-05
-0.0105252 0.000725479 1e-05
-0.0102871 0.000722969 1e-05
-0.0100489 0.000721747 1e-05
-0.00981076 0.000721316 1e-05
-0.00957337 0.000721388 1e-05
-0.00934491 0.000730994 1e-05
-0.00911627 0.000727743 1e-05
-0.00888762 0.000725523 1e-05
-0.00865897 0.000724012 1e-05
-0.00843108 0.000722997 1e-05
-0.00821175 0.000732086 1e-05
-0.00799227 0.000728109 1e-05
-0.00777277 0.00072513 1e-05
-0.00755326 0.000722871 1e-05
-0.00733443 0.000721139 1e-05
-0.00712387 0.000729578 1e-05
-0.00691317 0.000725443 1e-05
-0.00670246 0.000722224 1e-05
-0.00649174 0.000719686 1e-05
-0.0062816 0.000717659 1e-05
-0.00607944 0.000725394 1e-05
-0.00587718 0.000721511 1e-05
-0.0056749 0.000718419 1e-05
-0.00547262 0.000715926 1e-05
-0.00527083 0.000713894 1e-05
-0.00507675 0.000720939 1e-05
-0.00488258 0.000717454 1e-05
-0.00468839 0.000714633 1e-05
-0.0044942 0.000712324 1e-05
-0.00430044 0.000710417 1e-05
-0.00411412 0.00071683 1e-05
-0.00392771 0.000713777 1e-05
-0.00374129 0.000711277 1e-05
-0.00355487 0.000709213 1e-05
-0.00336883 0.000707497 1e-05
-0.00318995 0.000713385 1e-05
-0.00301099 0.00071076 1e-05
-0.00283203 0.000708604 1e-05
-0.00265306 0.000706824 1e-05
-0.00247443 0.000705347 1e-05
-0.0023027 0.00071087 1e-05
-0.00213089 0.000708706 1e-05
-0.00195908 0.000707007 1e-05
-0.00178727 0.000705685 1e-05
-0.00161577 0.000704673 1e-05
-0.0014509 0.000710308 1e-05
-0.00128594 0.000709101 1e-05
-0.00112097 0.000708511 1e-05
-0.000956006 0.000708429 1e-05
-0.000791418 0.000708768 1e-05
-0.000633135 0.000715899 1e-05
-0.000474691 0.000716366 1e-05
-0.00031625 0.000717401 1e-05
-0.000157813 0.000718911 1e-05
0 0.000720815 1e-05
0.000105677 0.000727288 1e-05
0.000211543 0.000728765 1e-05
0.000317409 0.000730186 1e-05
0.000423275 0.000731556 1e-05
0.000528387 0.00073287 1e-05
0.000634886 0.000739353 1e-05
0.000741579 0.000740178 1e-05
0.000848275 0.000740657 1e-05
0.000954971 0.000740827 1e-05
0.00106088 0.000740716 1e-05
0.00116821 0.000745859 1e-05
0.00127566 0.000745597 1e-05
0.00138311 0.00074507 1e-05
0.00149056 0.000744444 1e-05
0.00159752 0.000743729 1e-05
0.00170568 0.000748203 1e-05
0.00181393 0.000747867 1e-05
0.00192219 0.000747609 1e-05
0.00203044 0.000747425 1e-05
0.00213833 0.000747309 1e-05
0.00224733 0.000752062 1e-05
0.00235643 0.000752639 1e-05
0.00246554 0.000753335 1e-05
0.00257464 0.000754144 1e-05
0.00268334 0.000755056 1e-05
0.00279319 0.000760575 1e-05
0.00290317 0.000762081 1e-05
0.00301315 0.000763494 1e-05
0.00312312 0.000764982 1e-05
0.00323259 0.000766811 1e-05
0.00334329 0.000773051 1e-05
0.00345415 0.000775209 1e-05
0.00356502 0.000776797 1e-05
0.00367589 0.000778445 1e-05
0.00378611 0.0007809 1e-05
0.00389767 0.000787731 1e-05
0.00400941 0.000790504 1e-05
0.00412117 0.000792174 1e-05
0.00423293 0.000793967 1e-05
0.00434393 0.000797202 1e-05
0.00445636 0.000804782 1e-05
0.00456898 0.000808731 1e-05
0.00468164 0.000811074 1e-05
0.0047943 0.000813622 1e-05
0.00490609 0.000818267 1e-05
0.0050194 0.000826904 1e-05
0.00513288 0.000832706 1e-05
0.00524645 0.00083651 1e-05
0.00536002 0.000840525 1e-05
0.00547262 0.000847066 1e-05
0.00558681 0.000856867 1e-05
0.00570115 0.000864694 1e-05
0.00581561 0.000870503 1e-05
0.00593005 0.000876571 1e-05
0.00604356 0.000884944 1e-05
0.00615863 0.000895713 1e-05
0.00627382 0.000905177 1e-05
0.00638911 0.00091333 1e-05
0.00650439 0.000921599 1e-05
0.00661893 0.000931337 1e-05
0.0067349 0.000942699 1e-05
0.00685095 0.00095316 1e-05
0.00696708 0.000962786 1e-05
0.0070832 0.000972542 1e-05
0.00719878 0.00098302 1e-05
0.00731565 0.000994531 1e-05
0.00743259 0.00100532 1e-05
0.00754956 0.00101583 1e-05
[...]
POINT_DATA 10647
 FIELD attributes 2
p 1 10647 float
151.999 167.236 171.583 174.183 174.897 172.758 161.937 799.6 778.229 615.294 684.597 324.141 309.903 286.195 -21.1054 39.6297 132.191 -8.22686 -119.469 -28.518 143.858 -1.57297 -142.551 -76.1587 -17.2518 -42.8629 -184.344 -190.981 -172.858 -167.923 -183.821 -201.472 -227.293 -244.815 -263.481 -283.244 -282.855 -256.516 -302.196 -349.664 -362.631 -364.534 -370.61 -374.181 -377.52 -381.6 -364.267 -342.231 -325.678 -311.058 -289.875 -270.005 -269.682 -257.037 -245.393 -230.903 -215.824 -197.569 -189.768 -182.185 -174.827 -174.187 -174.721 -140.741 -108.98 -99.4306 -107.74 -112.681 -77.7488 -53.7573 -45.5047 -44.5938 -54.3869 -25.1537 -17.8295 -10.7706 -4.02201 -7.38896 7.53789 13.1409 18.3512 23.1013 19.7654 30.8522 33.2459 35.0733 36.2922 12.1039 34.6089 34.1461 30.7433 17.513 -61.4211 -58.2374 -69.712 -109.975 -150.336 -179.654 -201.937 -224.261 -250.583 -285.274 -353.598 -409.055 -465.054 -521.461 -584.956 -654.377 -767.711 -880.049 -993.743 -1136.43 -1404.44 -1404.44 -1404.44 -1404.44 -1404.44 -1404.44 -1402.88 -1399.63 -1395.07 -1389.54 -1383.02 -1334.08 -1282.28 -1230.41 -1179.02 -676.417 -671.905 -667.968 -664.552 -661.135 -642.289
135.779 135.673 110.979 32.9 21.6121 13.328 59.2866 -8.37079 -107.902 -104.102 -97.6198 -111.476 -126.35 -146.337 -164.11 -183.106 -203.243 -199.723 -192.509 -211.969 -232.143 -250.78 -257.17 -264.712 -271.196 -282.61 -279.011 -269.158 -260.995 -257.243 -253.429 -246.329 -239.391 -236.358 -223.866 -212.848 -201.183 -183.537 -163.151 -156.927 -150.83 -145.766 -144.547 -143.607 -113.476 -83.0953 -71.6005 -74.34 -76.0169 -58.3594 -47.3134 -42.3707 -37.4794 -31.2788 -28.2827 -25.311 -22.3647 -20.4718 -20.7598 -6.58597 2.10937 10.6538 12.1837 10.8656 26.32 41.8201 48.16 45.8447 43.599 59.0468 70.3955 74.5118 76.4141 73.2548 87.286 89.8994 92.4951 95.069 94.6252 98.4359 98.5837 98.7185 98.8395 98.8826 99.3653 99.8398 100.304 100.754 97.2596 98.2312 98.6087 98.4769 93.1234 73.599 69.3365 63.3321 57.3956 51.501 44.4388 41.3417 36.9972 32.698 28.43 23.374 22.479 19.8291 17.2277 14.6613 10.8703 11.141 9.42832 7.76172 6.12925 3.0877 3.8623 2.72695 1.63001 0.562206 -1.87811 -0.780421 -1.47337 -2.13534 -2.77333 -4.7263 -3.40808 -3.78984 -4.14646 -4.48328 -6.10162 -4.67015 -4.82605 -4.96146 -5.08046 -6.4318 -4.89069 -4.90311 -4.89545 -4.87149 -6.09847 -4.43064 -4.21985 -3.98363 -3.72646 -4.79597 -2.63116 -2.34394 -2.03062 -1.69546 -3.31373 -0.509585 -0.103296 0.300222 0.701243 -1.4792 1.18451 1.89546 2.59132 3.27579 1.71911 3.69527 4.34864 4.9593 5.56762 4.6435 5.95311 6.33495 6.71789 7.10187 6.52408 7.44365 7.70741 7.97226 8.23815 7.79601 8.58639 8.84626 9.08338 9.27748 8.84721 9.48823 9.7389 9.91969 9.98702 9.5342 9.87365 9.97144 9.9685 9.80682 9.30062 9.18207 8.9615 8.64572 8.20166 7.62417 7.0413 6.44393 5.78622 5.13588 4.48291 3.57182 2.66777 1.75432 1.01047 0.269977 -0.811471 -1.89245 -2.83863 -3.69051 -4.5322 -5.66414 -6.78254 -7.59117 -8.47415 -9.36363 -10.4121 -11.2928 -12.0492 -12.8241 -13.7126 -14.5807 -15.2567 -15.9345 -16.6141 -17.3747 -17.8646 -18.3173 -18.7725 -19.23 -19.8218 -19.968 -20.1144 -20.261 -20.4078 -20.5632 -21.1605 -21.8084 -22.4635 -23.1258 -23.8932 -24.363 -25.0867 -25.8207 -26.5651 -27.5292 -27.9364 -28.6085 -29.2926 -29.993 -30.9072 -31.2109 -31.5519 -31.9074 -32.2879 -32.776 -32.6916 -32.6601 -32.6469 -32.6613 -32.8701 -32.4938 -32.3791 -32.2798 -32.1952 -32.3934 -32.0877 -32.0976 -32.123 -32.164 -32.3888 -32.3239 -32.3896 -32.4649 -32.5498 -32.6062 -32.6455 -32.686 -32.7278 -32.7707 -32.8566 -32.8601 -32.9337 -33.0232 -33.1285 -33.3589 -33.0662 -33.007 -33.0099 -33.0904 -33.2283 -32.8698 -32.5258 -32.3658 -32.3879 -32.4243 -32.0133 -31.6572 -31.3612 -31.0793 -30.9972 -30.8214 -30.6879 -30.5615 -30.437 -30.3247 -30.1541 -29.988 -29.8264 -29.6709 -29.5246 -29.0465 -28.672 -28.3913 -28.1296 -27.8763 -27.4039 -26.9381 -26.478 -26.0267 -25.6704 -25.585 -25.4995 -25.414 -25.3287 -25.2452 -24.8446 -24.4486 -24.057 -23.6539 -23.2369 -22.6001 -21.9676 -21.3025 -20.7202 -20.1734 -19.9132 -19.642 -19.3544 -19.0673 -18.7857 -18.3234 -17.8622 -17.4019 -16.9186 -16.4157 -15.4816 -14.548 -13.615 -12.7029 -11.7906 -11.241 -10.6696 -10.0661 -9.46247 -8.8527 -8.35356 -7.85444 -7.35534 -6.84029 -6.3092 -5.02318 -3.77374 -2.58452 -1.32508 -0.0701492 1.13646 2.3844 3.67037 4.95677 6.35621 6.45277 6.54932 6.64588 6.74425 6.84601 8.30804 9.74649 11.1842 12.6504 14.1426 15.6624 17.1806 18.7298 20.2001 21.6505 22.9749 24.3304 25.6905 27.047 28.7803 28.8328 28.8852 28.9376 28.99 29.0425 30.4487 31.8401 33.2234 34.598 35.9381 37.2862 38.5594 39.7677 40.9475 42.0944 43.223 44.336 45.3448 46.2826 47.1946 48.0616 48.9082 49.6675 50.3166 50.9419 51.496 52.0259 52.4532 52.7678 53.0551 53.2393 53.3932 53.4131 53.3416 53.2313 52.9985 52.6321 52.2086 51.7587 51.2543 51.2032 51.1444 51.0829 51.0213 50.9613 50.276 49.5778 48.8665 48.1079 47.2649 46.2312 45.1887 44.0975 42.945 41.7593 41.2141 40.6643 40.1083 39.5516 38.9986 38.274 37.5494 36.8245 36.0918 35.3543 33.9852 32.6173 31.2211 29.7352 28.2299 27.6213 27.0029 26.3542 25.7036 25.1339 24.1753 23.2156 22.2548 21.245 20.2112 18.8141 17.4136 15.922 14.4222 13.2359 12.9277 12.6194 12.3077 11.9829 11.6558 9.99085 8.3264 6.61194 4.87376 3.06559 3.06317 3.06076 3.05832 3.05586 3.0534 1.44567 -0.156172 -1.76051 -3.37894 -5.03625 -5.28039 -5.52448 -5.76518 -6.00407 -6.24177 -7.47006 -8.69576 -9.92352 -11.1601 -12.4086 -12.8519 -13.2953 -13.7313 -14.1642 -14.5985 -15.4788 -16.3587 -17.239 -18.1214 -19.0054 -19.6611 -20.3175 -20.9564 -21.5905 -22.2385 -22.761 -23.2839 -23.806 -24.3229 -24.8392 -25.7308 -26.6256 -27.4802 -28.3314 -29.2292 -29.3656 -29.5021 -29.6383 -29.769 -29.8996 -30.7747 -31.6698 -32.5663 -33.4172 -34.2625 -34.5298 -34.7977 -35.0285 -35.2605 -35.5011 -36.0008 -36.504 -37.0106 -37.4673 -37.9173 -38.5473 -39.1704 -39.6991 -40.2378 -40.8031 -40.8127 -40.8219 -40.8292 -40.8366 -40.8439 -41.3216 -41.809 -42.3061 -42.7437 -43.1574 -43.543 -43.9032 -44.2067 -44.5214 -44.8485 -44.8575 -44.8652 -44.8711 -44.877 -44.883 -45.1444 -45.4156 -45.6967 -45.9553 -46.1873 -46.3802 -46.5835 -46.7368 -46.8868 -47.0429 -47.117 -47.1665 -47.2063 -47.2499 -47.3029 -47.359 -47.4166 -47.4757 -47.5342 -47.5859 -47.636 -47.6845 -47.7427 -47.7934 -47.8438 -47.8376 -47.8407 -47.8284 -47.7916 -47.7648 -47.6975 -47.6183 -47.54 -47.471 -47.3863 -47.3278 -47.2605 -47.1949 -47.131 -47.0599 -47.0006 -46.9436 -46.889 -46.8368 -46.7973 -46.6185 -46.4369 -46.2627 -46.099 -45.9683 -45.747 -45.5193 -45.2871 -45.0834 -44.897 -44.6328 -44.3751 -44.1009 -43.8546 -43.6157 -43.3053 -43.0008 -42.7115 -42.4279 -42.1507 -41.8077 -41.47 -41.1655 -40.843 -40.5262 -40.1534 -39.7853 -39.463 -39.1128 -38.7674 -38.3718 -37.9816 -37.637 -37.2647 -36.8958 -36.4826 -36.0731 -35.7058 -35.3134 -34.9246 -34.4972 -34.073 -33.6755 -33.2683 -32.864 -32.4263 -31.9914 -31.5595 -31.1413 -30.7254 -30.281 -29.8389 -29.3716 -28.9448 -28.5212 -28.074 -27.6177 -27.1469 -26.6926 -26.2644 -25.8148 -25.3462 -24.8774 -24.4103 -23.9695 -23.6148 -23.2488 -22.8836 -22.5192 -22.2157 -22.1052 -21.9947 -21.8843 -21.774 -21.6594 -21.1955 -20.7397 -20.2849 -19.8313 -19.356 -18.8813 -18.4294 -17.9865 -17.5329 -17.073 -16.6151 -16.158 -15.7118 -15.2744 -14.8365 -14.3993 -13.961 -13.5199 -13.0847 -12.6722 -12.3341 -11.9958 -11.6579 -11.3203 -11.0131 -10.9308 -10.8485 -10.7663 -10.684 -10.6022 -10.202 -9.81026 -9.41881 -9.02892 -8.64351 -8.2571 -7.87099 -7.50942 -7.15622 -6.80228 -6.4462 -6.09373 -5.74936 -5.40679 -5.08266 -4.90622 -4.73581 -4.56622 -4.39668 -4.23437 -4.08335 -3.93235 -3.78138 -3.63153 -3.48719 -3.17458 -2.87809 -2.58201 -2.29665 -2.01464 -1.72973 -1.44492 -1.17423 -0.914108 -0.658331 -0.483958 -0.316984 -0.152394 0.0121564 0.169368 0.25409 0.338808 0.423522 0.506626 0.585916 0.826618 1.05731 1.28798 1.50716 1.72284 1.94238 2.16093 2.36566 2.56765 2.76325 2.8497 2.93232 3.01281 3.0933 3.17185 3.28199 3.39214 3.50229 3.60925 3.71153 3.89467 4.07653 4.24994 4.4129 4.57631 4.73641 4.89019 5.03929 5.18837 5.33101 5.33855 5.34609 5.35363 5.36091 5.3679 5.51639 5.66409 5.81179 5.95375 6.09126 6.23113 6.37067 6.50099 6.6306 6.75698 6.79696 6.83559 6.87285 6.91011 6.94697 7.03305 7.11914 7.20523 7.28824 7.36864 7.4869 7.60516 7.71806 7.82534 7.93278 7.99443 8.05418 8.11171 8.16925 8.22612 8.27261 8.31909 8.36557 8.41033 8.45377 8.55452 8.65481 8.75136 8.84339 8.93547 9.00666 9.07598 9.14295 9.20991 9.27654 9.29835 9.32016 9.34197 9.36293 9.38327 9.47021 9.55484 9.63943 9.71878 9.79784 9.87389 9.9484 10.0209 10.0934 10.1663 10.1705 10.1747 10.1788 10.1829 10.1868 10.2616 10.336 10.4103 10.4811 10.5501 10.6206 10.6905 10.7578 10.8251 10.8915 10.9018 10.9117 10.9213 10.9308 10.9403 10.9962 11.052 11.1078 11.1599 11.2099 11.2704 11.3308 11.3885 11.4461 11.5028 11.5154 11.5279 11.5402 11.5525 11.5648 11.6092 11.6536 11.6979 11.7412 11.7835 11.839 11.8944 11.9445 11.9916 12.0382 12.0588 12.0791 12.0988 12.1186 12.1385 12.1648 12.1911 12.2174 12.2431 12.268 12.3125 12.3571 12.4001 12.4414 12.4827 12.5171 12.5507 12.5837 12.6167 12.6506 12.6578 12.665 12.6722 12.6792 12.6859 12.7239 12.7614 12.799 12.8348 12.8697 12.9046 12.9394 12.9719 13.0041 13.0356 13.0487 13.0612 13.0734 13.0855 13.0978 13.1153 13.1329 13.1505 13.1676 13.184 13.2123 13.2404 13.268 13.2947 13.3212 13.3477 13.374 13.4003 13.4265 13.4525 13.4586 13.4648 13.471 13.4771 13.4834 13.5032 13.523 13.5428 13.5623 13.581 13.6056 13.63 13.6527 13.6723 13.6919 13.7115 13.7315 13.7522 13.773 13.7942 13.8013 13.8085 13.8158 13.8231 13.8304 13.8445 13.8586 13.8727 13.8867 13.9006 13.9219 13.9436 13.9655 13.9876 14.0096 14.033 14.0561 14.0728 14.0879 14.1017 14.113 14.1229 14.1325 14.1421 14.1521 14.1554 14.1587 14.162 14.1653 14.1686 14.1817 14.1948 14.2079 14.2214 14.2358 14.2497 14.2636 14.2787 14.2952 14.3118 14.3278 14.3441 14.3608 14.3776 14.3951 14.4049 14.4104 14.4159 14.4213 14.427 14.4323 14.4377 14.4431 14.4484 14.4514 14.4574 14.4637 14.47 14.4771 14.4856 14.4935 14.5012 14.5111 14.5239 14.5366 14.5493 14.5621 14.5757 14.5891 14.6024 14.6154 14.6276 14.6398 14.6521 14.6639 14.6645 14.6651 14.6657 14.6664 14.6669 14.6768 14.6865 14.6962 14.706 14.7139 14.7212 14.7285 14.7356 14.7445 14.7538 14.7621 14.7704 14.781 14.7933 14.8057 14.8177 14.831 14.845 14.8592 14.8738 14.8769 14.8802 14.8834 14.8866 14.8896 14.9019 14.9144 14.9269 14.9397 14.9533 14.9702 14.9871 15.0032 15.0195 15.0365 15.0528 15.0701 15.0882 15.1068 15.1216 15.1226 15.1236 15.1246 15.1256 15.1266 15.1469 15.1676 15.1889 15.212 15.237 15.2555 15.2746 15.2956 15.317 15.333 15.3409 15.3488 15.3568 15.3656 15.3746 15.4053 15.4369 15.4688 15.5013 15.5368 15.5369 15.5371 15.5372 15.5373 15.5374 15.5713 15.606 15.6418 15.6789 15.7193 15.7208 15.7223 15.7237 15.7252 15.7266 15.7631 15.8001 15.8385 15.878 15.9127 15.9148 15.9169 15.9191 15.9213 15.9235 15.9601 15.9969 16.0343 16.0728 16.1095 16.1197 16.13 16.141 16.1522 16.1635 16.1966 16.2297 16.2608 16.2862 16.3119 16.3334 16.3548 16.37 16.3824 16.3946 16.4127 16.4307 16.4434 16.4444 16.4453 16.4602 16.4748 16.4824 16.4854 16.488 16.4895 16.4907 16.4894 16.485 16.4798 16.4825 16.4847 16.4832 16.4771 16.4707 16.4646 16.458 16.4478 16.4353 16.4202 16.4135 16.4066 16.3979 16.384 16.3703 16.3471 16.3228 16.2884 16.2511 16.2023 16.1991 16.1959 16.1927 16.1888 16.1849 16.1378 16.0883 16.0371 15.9797 15.9235 15.8892 15.8538 15.8154 15.7766 15.7301 15.7064 15.6826 15.6587 15.6293 15.5975 15.5331 15.4669 15.3887 15.2941 15.1999 15.13 15.0522 14.9688 14.8848 14.7707 14.7686 14.7665 14.7644 14.7622 14.7594 14.6684 14.5762 14.4836 14.3863 14.2687 14.1959 14.1209 14.0314 13.9227 13.8142 13.7512 13.6882 13.6092 13.5125 13.4158 13.3647 13.3064 13.2374 13.1624 13.0781 13.0396 12.9863 12.9296 12.8729 12.8001 12.7728 12.7283 12.6839 12.6394 12.5803 12.5617 12.5286 12.4956 12.4626 12.4157 12.4078 12.3874 12.3671 12.3467 12.3126 12.3201 12.3145 12.3089 12.3033 12.2814 12.3058 12.3128 12.3199 12.327 12.3113 12.3492 12.3645 12.3798 12.3919 12.3806 12.4253 12.453 12.4759 12.4901 12.4867 12.54 12.5823 12.6144 12.6311 12.6366 12.7001 12.7573 12.7947 12.8069 12.8144 12.8818 12.9491 13.0018 13.0392 13.0766 13.1786 13.2806 13.3443 13.3719 13.3994 13.4998 13.6001 13.7605 14.0073 14.2538 14.5918 14.9296 15.1255 15.1946 15.263 15.4047 15.5457 15.6264 15.6355 15.6325 15.6589 15.6524 15.615 15.5637 15.4736 15.392 15.253 15.1103 14.9669 14.8051 14.6304 14.4309 14.2308 14.0301 13.8334 13.6353 13.4319 13.2282 13.024 12.8272 12.654 12.4817 12.3091 12.1363 11.9684 11.8372 11.7069 11.5765 11.446 11.3181 11.2256 11.134 11.0424 10.9507 10.8616 10.7968 10.7326 10.6683 10.6041 10.5424 10.4898 10.4381 10.3864 10.3347 10.286 10.233 10.1799 10.1268 10.0738 10.022 9.95587 9.88939 9.82293 9.75649 9.69022 9.60605 9.52308 9.44012 9.35718 9.27565 9.17327 9.07558 8.9779 8.88023 8.78793 8.67085 8.55875 8.44709 8.33648 8.2293 8.09591 7.96595 7.83809 7.712 7.58749 7.43678 7.28754 7.14191 6.99852 6.85545 6.68669 6.51802 6.35779 6.2039 6.04986 5.87079 5.69178 5.51957 5.35397 5.18823 4.99843 4.80869 4.6244 4.44699 4.26946 4.0687 3.86965 3.67391 3.48058 3.2898 3.07579 2.8666 2.65878 2.45097 2.24858 2.02557 1.80863 1.59168 1.37471 1.15948 1.06294 0.967373 0.871807 0.776238 0.677685 0.543604 0.409507 0.275393 0.141262 0