# vtk DataFile Version 2.0
track0
ASCII
DATASET POLYDATA
POINTS 10647 double
-0.0205 0.001 1e-05
-0.0204991 0.00100536 1e-05
-0.0204976 0.00101063 1e-05
-0.0204947 0.00101518 1e-05
-0.0204905 0.00101864 1e-05
-0.0204746 0.00102682 1e-05
-0.0201831 0.00105563 1e-05
-0.0203616 0.00128794 1e-05
-0.0204488 0.00141936 1e-05
-0.0201625 0.0014444 1e-05
-0.0201519 0.00173163 1e-05
-0.0202219 0.00184007 1e-05
-0.0200495 0.00193025 1e-05
-0.0200808 0.00212221 1e-05
-0.0201294 0.00229098 1e-05
-0.0200087 0.00238763 1e-05
-0.0199911 0.00254123 1e-05
-0.0200041 0.00269529 1e-05
-0.0199827 0.00277425 1e-05
-0.019869 0.00287784 1e-05
-0.0198179 0.00302292 1e-05
-0.0198054 0.00317624 1e-05
-0.0197599 0.00329221 1e-05
-0.0196347 0.00340323 1e-05
-0.0195486 0.00354672 1e-05
-0.0194776 0.0036983 1e-05
-0.019391 0.0038415 1e-05
-0.0193841 0.00384734 1e-05
-0.0193107 0.00390807 1e-05
-0.0192439 0.0039759 1e-05
-0.019179 0.0040457 1e-05
-0.0191113 0.00411264 1e-05
-0.0190172 0.0041978 1e-05
-0.0189564 0.0042467 1e-05
-0.0188939 0.00429332 1e-05
-0.0188297 0.00433762 1e-05
-0.018764 0.0043796 1e-05
-0.0186584 0.00444232 1e-05
-0.0184262 0.00456523 1e-05
-0.0181851 0.00466945 1e-05
-0.0179369 0.00475562 1e-05
-0.0176828 0.00482195 1e-05
-0.0174976 0.0048535 1e-05
-0.0172058 0.0048842 1e-05
-0.0169124 0.00488592 1e-05
-0.0166199 0.00486354 1e-05
-0.0163297 0.0048203 1e-05
-0.0160387 0.00475616 1e-05
-0.0158295 0.00469339 1e-05
-0.0156239 0.00461956 1e-05
-0.0154225 0.00453503 1e-05
-0.015224 0.00444403 1e-05
-0.0152206 0.00444232 1e-05
-0.0151041 0.00438396 1e-05
-0.0149904 0.00432033 1e-05
-0.0148798 0.00425136 1e-05
-0.0147716 0.00417877 1e-05
-0.0146381 0.00408329 1e-05
-0.0145774 0.0040361 1e-05
-0.0145176 0.00398782 1e-05
-0.0144587 0.00393844 1e-05
-0.0144007 0.00388794 1e-05
-0.0143549 0.00384734 1e-05
-0.0142308 0.00373631 1e-05
-0.0141134 0.00361838 1e-05
-0.0140034 0.0034934 1e-05
-0.0138994 0.00336342 1e-05
-0.0138449 0.00329221 1e-05
-0.0137678 0.00318862 1e-05
-0.0136982 0.00307984 1e-05
-0.013635 0.00296725 1e-05
-0.0135756 0.0028526 1e-05
-0.0135384 0.00277425 1e-05
-0.0134955 0.0026776 1e-05
-0.0134596 0.00257806 1e-05
-0.0134278 0.00247718 1e-05
-0.0134005 0.00237496 1e-05
-0.0133826 0.00229098 1e-05
-0.0133676 0.0022008 1e-05
-0.0133587 0.00210982 1e-05
-0.0133551 0.00201847 1e-05
-0.0133575 0.00192709 1e-05
-0.0133661 0.00184007 1e-05
-0.013381 0.00175593 1e-05
-0.0134036 0.00167353 1e-05
-0.0134331 0.00159333 1e-05
-0.0134695 0.00151606 1e-05
-0.0135264 0.00141936 1e-05
-0.0135839 0.00134085 1e-05
-0.0136524 0.00127163 1e-05
-0.0137266 0.0012087 1e-05
-0.0138054 0.00115151 1e-05
-0.0139996 0.00102682 1e-05
-0.0141273 0.000957981 1e-05
-0.0142617 0.000903231 1e-05
-0.0143992 0.000857198 1e-05
-0.0145374 0.000813177 1e-05
-0.0146381 0.000782791 1e-05
-0.0147224 0.000758346 1e-05
-0.0148071 0.000735263 1e-05
-0.014892 0.000713333 1e-05
-0.0149775 0.000693424 1e-05
-0.0151523 0.000660566 1e-05
-0.0153296 0.000638069 1e-05
-0.0155073 0.000618958 1e-05
-0.0156852 0.000602486 1e-05
-0.0158633 0.000587996 1e-05
-0.0160387 0.000568342 1e-05
-0.0162836 0.000518442 1e-05
-0.0165323 0.000493717 1e-05
-0.016782 0.000482686 1e-05
-0.0170318 0.000475837 1e-05
-0.0174976 0.000406075 1e-05
-0.0174976 0.000406075 1e-05
-0.0174976 0.000406075 1e-05
-0.0174976 0.000406075 1e-05
-0.0174976 0.000406075 1e-05
-0.0174976 0.000406075 1e-05
-0.0174951 0.000388628 1e-05
-0.0174897 0.00037186 1e-05
-0.017482 0.000356008 1e-05
-0.0174726 0.000341097 1e-05
-0.0174557 0.000318841 1e-05
-0.0173838 0.000255072 1e-05
-0.0172967 0.000214397 1e-05
-0.0172047 0.0001866 1e-05
-0.0171106 0.000167056 1e-05
-0.0160387 4.40877e-06 1e-05
-0.0160289 3.52701e-06 1e-05
-0.016019 3.07627e-06 1e-05
-0.0160092 2.66698e-06 1e-05
-0.0159993 2.2577e-06 1e-05
-0.015945 0 1e-05
-0.0205 0.00367778 1e-05
-0.0203955 0.00371169 1e-05
-0.0203045 0.0037732 1e-05
-0.0202171 0.00383976 1e-05
-0.0201979 0.00384734 1e-05
-0.0199618 0.0039343 1e-05
-0.019766 0.00409241 1e-05
-0.0196201 0.00429748 1e-05
-0.0194752 0.00444232 1e-05
-0.0193836 0.00449614 1e-05
-0.0192963 0.00455663 1e-05
-0.0192132 0.00462285 1e-05
-0.0191277 0.00468596 1e-05
-0.0190172 0.00476144 1e-05
-0.0189141 0.00482515 1e-05
-0.0188083 0.00488434 1e-05
-0.0187001 0.00493906 1e-05
-0.0185899 0.00498944 1e-05
-0.0183685 0.00508 1e-05
-0.0181943 0.00513501 1e-05
-0.0180181 0.00518305 1e-05
-0.0178401 0.00522428 1e-05
-0.0176607 0.00525857 1e-05
-0.0174976 0.00528156 1e-05
-0.0172058 0.00530946 1e-05
-0.0169127 0.00531429 1e-05
-0.0166201 0.00529727 1e-05
-0.0163294 0.00526006 1e-05
-0.0160387 0.00520505 1e-05
-0.0159406 0.00518004 1e-05
-0.015843 0.00515305 1e-05
-0.0157459 0.00512415 1e-05
-0.0156492 0.00509404 1e-05
-0.0156061 0.00508 1e-05
-0.0154125 0.00501575 1e-05
-0.0152223 0.00494205 1e-05
-0.0150362 0.00485854 1e-05
-0.0148544 0.00476598 1e-05
-0.0146381 0.00464606 1e-05
-0.014572 0.00460531 1e-05
-0.0145065 0.00456368 1e-05
-0.0144415 0.00452116 1e-05
-0.0143771 0.00447786 1e-05
-0.0143248 0.00444232 1e-05
-0.0141514 0.00432332 1e-05
-0.0139844 0.00419531 1e-05
-0.0138253 0.00405779 1e-05
-0.0136708 0.00391505 1e-05
-0.0136004 0.00384734 1e-05
-0.013539 0.00378713 1e-05
-0.0134797 0.00372482 1e-05
-0.013422 0.0036611 1e-05
-0.0133651 0.0035966 1e-05
-0.0132934 0.00351284 1e-05
-0.0132572 0.00346871 1e-05
-0.0132213 0.00342422 1e-05
-0.0131859 0.00337937 1e-05
-0.0131511 0.00333414 1e-05
-0.0131193 0.00329221 1e-05
-0.0130413 0.00318862 1e-05
-0.0129652 0.00308359 1e-05
-0.012892 0.00297658 1e-05
-0.012822 0.00286743 1e-05
-0.0127648 0.00277425 1e-05
-0.0127072 0.0026776 1e-05
-0.012651 0.00258012 1e-05
-0.0125964 0.00248176 1e-05
-0.0125433 0.00238259 1e-05
-0.0124966 0.00229098 1e-05
-0.0124532 0.0022008 1e-05
-0.01241 0.00211048 1e-05
-0.0123672 0.00202003 1e-05
-0.0123246 0.00192945 1e-05
-0.0122838 0.00184007 1e-05
-0.0122491 0.00175593 1e-05
-0.012213 0.00167241 1e-05
-0.0121755 0.00158945 1e-05
-0.0121367 0.00150715 1e-05
-0.0120929 0.00141936 1e-05
-0.0120748 0.001384 1e-05
-0.0120552 0.00134945 1e-05
-0.0120344 0.00131569 1e-05
-0.0120121 0.00128279 1e-05
-0.0120025 0.00126983 1e-05
-0.0119652 0.00122123 1e-05
-0.0119249 0.00117509 1e-05
-0.0118816 0.00113174 1e-05
-0.0118355 0.00109146 1e-05
-0.0117501 0.00102682 1e-05
-0.0116361 0.000953567 1e-05
-0.0115142 0.000894494 1e-05
-0.0113876 0.000846152 1e-05
-0.0112582 0.000806262 1e-05
-0.0107632 0.000715851 1e-05
-0.0105252 0.000725479 1e-05
-0.0102871 0.000722969 1e-05
-0.0100489 0.000721747 1e-05
-0.00981076 0.000721316 1e-05
-0.00957337 0.000721388 1e-05
-0.00934491 0.000730994 1e-05
-0.00911627 0.000727743 1e-05
-0.00888762 0.000725523 1e-05
-0.00865897 0.000724012 1e-05
-0.00843108 0.000722997 1e-05
-0.00821175 0.000732086 1e-05
-0.00799227 0.000728109 1e-05
-0.00777277 0.00072513 1e-05
-0.00755326 0.000722871 1e-05
-0.00733443 0.000721139 1e-05
-0.00712387 0.000729578 1e-05
-0.00691317 0.000725443 1e-05
-0.00670246 0.000722224 1e-05
-0.00649174 0.000719686 1e-05
-0.0062816 0.000717659 1e-05
-0.00607944 0.000725394 1e-05
-0.00587718 0.000721511 1e-05
-0.0056749 0.000718419 1e-05
-0.00547262 0.000715926 1e-05
-0.00527083 0.000713894 1e-05
-0.00507675 0.000720939 1e-05
-0.00488258 0.000717454 1e-05
-0.00468839 0.000714633 1e-05
-0.0044942 0.000712324 1e-05
-0.00430044 0.000710417 1e-05
-0.00411412 0.00071683 1e-05
-0.00392771 0.000713777 1e-05
-0.00374129 0.000711277 1e-05
-0.00355487 0.000709213 1e-05
-0.00336883 0.000707497 1e-05
-0.00318995 0.000713385 1e-05
-0.00301099 0.00071076 1e-05
-0.00283203 0.000708604 1e-05
-0.00265306 0.000706824 1e-05
-0.00247443 0.000705347 1e-05
-0.0023027 0.00071087 1e-05
-0.00213089 0.000708706 1e-05
-0.00195908 0.000707007 1e-05
-0.00178727 0.000705685 1e-05
-0.00161577 0.000704673 1e-05
-0.0014509 0.000710308 1e-05
-0.00128594 0.000709101 1e-05
-0.00112097 0.000708511 1e-05
-0.000956006 0.000708429 1e-05
-0.000791418 0.000708768 1e-05
-0.000633135 0.000715899 1e-05
-0.000474691 0.000716366 1e-05
-0.00031625 0.000717401 1e-05
-0.000157813 0.000718911 1e-05
0 0.000720815 1e-05
0.000105677 0.000727288 1e-05
0.000211543 0.000728765 1e-05
0.000317409 0.000730186 1e-05
0.000423275 0.000731556 1e-05
0.000528387 0.00073287 1e-05
0.000634886 0.000739353 1e-05
0.000741579 0.000740178 1e-05
0.000848275 0.000740657 1e-05
0.000954971 0.000740827 1e-05
0.00106088 0.000740716 1e-05
0.00116821 0.000745859 1e-05
0.00127566 0.000745597 1e-05
0.00138311 0.00074507 1e-05
0.00149056 0.000744444 1e-05
0.00159752 0.000743729 1e-05
0.00170568 0.000748203 1e-05
0.00181393 0.000747867 1e-05
0.00192219 0.000747609 1e-05
0.00203044 0.000747425 1e-05
0.00213833 0.000747309 1e-05
0.00224733 0.000752062 1e-05
0.00235643 0.000752639 1e-05
0.00246554 0.000753335 1e-05
0.00257464 0.000754144 1e-05
0.00268334 0.000755056 1e-05
0.00279319 0.000760575 1e-05
0.00290317 0.000762081 1e-05
0.00301315 0.000763494 1e-05
0.00312312 0.000764982 1e-05
0.00323259 0.000766811 1e-05
0.00334329 0.000773051 1e-05
0.00345415 0.000775209 1e-05
0.00356502 0.000776797 1e-05
0.00367589 0.000778445 1e-05
0.00378611 0.0007809 1e-05
0.00389767 0.000787731 1e-05
0.00400941 0.000790504 1e-05
0.00412117 0.000792174 1e-05
0.00423293 0.000793967 1e-05
0.00434393 0.000797202 1e-05
0.00445636 0.000804782 1e-05
0.00456898 0.000808731 1e-05
0.00468164 0.000811074 1e-05
0.0047943 0.000813622 1e-05
0.00490609 0.000818267 1e-05
0.0050194 0.000826904 1e-05
0.00513288 0.000832706 1e-05
0.00524645 0.00083651 1e-05
0.00536002 0.000840525 1e-05
0.00547262 0.000847066 1e-05
0.00558681 0.000856867 1e-05
0.00570115 0.000864694 1e-05
0.00581561 0.000870503 1e-05
0.00593005 0.000876571 1e-05
0.00604356 0.000884944 1e-05
0.00615863 0.000895713 1e-05
0.00627382 0.000905177 1e-05
0.00638911 0.00091333 1e-05
0.00650439 0.000921599 1e-05
0.00661893 0.000931337 1e-05
0.0067349 0.000942699 1e-05
0.00685095 0.00095316 1e-05
0.00696708 0.000962786 1e-05
0.0070832 0.000972542 1e-05
0.00719878 0.00098302 1e-05
0.00731565 0.000994531 1e-05
0.00743259 0.00100532 1e-05
0.00754956 0.00101583 1e-05
[...]
POINT_DATA 10647
 FIELD attributes 1
U 3 10647 float
1.13287 	6.39882 	0 1.59177 	5.97923 	0 3.06058 	4.65986 	0 4.29066 	3.52871 	0 5.18154 	2.68 	0 7.15406 	0.707049 	0 -4.22499 	5.50123 	0 -5.18618 	7.81056 	0 7.5656 	0.661649 	0 0.172399 	4.66528 	0 -9.0509 	14.0262 	0 5.93228 	3.10448 	0 -2.52882 	15.5161 	0 -6.42132 	22.2978 	0 7.16714 	5.74066 	0 1.97789 	17.2206 	0 -2.24948 	26.6774 	0 4.29333 	15.8486 	0 9.07726 	8.26925 	0 6.22441 	17.6647 	0 2.39058 	29.3745 	0 7.48961 	19.1125 	0 11.9516 	10.5957 	0 10.978 	18.2841 	0 10.8644 	23.2118 	0 12.8643 	21.264 	0 16.0833 	13.702 	0 16.2315 	13.4303 	0 16.392 	16.6278 	0 16.8091 	18.0996 	0 17.5786 	17.3595 	0 18.3605 	16.6177 	0 19.4172 	15.6289 	0 20.1833 	15.0452 	0 20.9578 	14.464 	0 21.7397 	13.8863 	0 22.0852 	13.1225 	0 22.069 	11.6833 	0 24.2707 	10.4901 	0 26.3525 	9.15126 	0 27.0736 	7.06473 	0 27.2276 	4.63767 	0 27.354 	2.87852 	0 28.0727 	0.164772 	0 28.3297 	-2.16798 	0 28.257 	-4.21002 	0 27.1992 	-5.99467 	0 25.8047 	-7.74258 	0 25.1958 	-9.04983 	0 24.5563 	-10.3081 	0 23.349 	-10.7008 	0 22.1315 	-11.0697 	0 22.11 	-11.0757 	0 21.4815 	-12.0215 	0 20.8561 	-13.0134 	0 20.0165 	-13.4283 	0 19.1059 	-13.6598 	0 17.957 	-13.9647 	0 17.5213 	-14.1416 	0 17.0842 	-14.3216 	0 16.646 	-14.5049 	0 16.3145 	-14.4543 	0 16.0661 	-14.3799 	0 14.8111 	-14.8662 	0 13.5136 	-15.3566 	0 12.3232 	-15.4001 	0 11.4511 	-14.978 	0 10.9773 	-14.7505 	0 9.65053 	-15.0862 	0 8.5374 	-15.2016 	0 7.76391 	-14.9804 	0 6.95048 	-14.6604 	0 6.35856 	-14.2946 	0 5.14561 	-14.292 	0 4.40106 	-13.9555 	0 3.6345 	-13.6291 	0 2.84478 	-13.3148 	0 2.15493 	-12.9735 	0 1.24188 	-12.6155 	0 0.481273 	-12.2056 	0 -0.309861 	-11.8098 	0 -1.13189 	-11.4314 	0 -1.95342 	-11.0471 	0 -2.89563 	-10.55 	0 -3.70933 	-10.0872 	0 -4.5579 	-9.65365 	0 -5.43655 	-9.25422 	0 -6.44671 	-8.79199 	0 -8.0322 	-8.12111 	0 -9.01861 	-7.64178 	0 -9.97022 	-7.23749 	0 -10.7526 	-6.90421 	0 -11.6633 	-6.28748 	0 -13.1674 	-5.36656 	0 -14.0529 	-4.7025 	0 -13.1972 	-4.20294 	0 -12.3832 	-3.7388 	0 -11.8247 	-3.42905 	0 -12.4268 	-3.38746 	0 -13.0619 	-3.37063 	0 -13.8797 	-3.23262 	0 -15.0708 	-2.83305 	0 -17.5778 	-2.23067 	0 -18.2829 	-1.96666 	0 -19.3165 	-1.7882 	0 -20.6057 	-1.67638 	0 -19.9402 	-2.23458 	0 -16.3855 	-3.33879 	0 -24.5827 	-2.44396 	0 -37.2477 	-1.64564 	0 -49.6367 	-1.36071 	0 -35.242 	-5.27834 	0 1.84069 	-13.0855 	0 1.84069 	-13.0855 	0 1.84069 	-13.0855 	0 1.84069 	-13.0855 	0 1.84069 	-13.0855 	0 1.84069 	-13.0855 	0 4.23393 	-13.1223 	0 6.35745 	-13.1085 	0 8.21624 	-13.054 	0 9.84005 	-12.9681 	0 14.8272 	-13.1463 	0 23.0771 	-10.7782 	0 30.0022 	-9.06369 	0 38.0099 	-7.89328 	0 46.6049 	-7.07156 	0 0.350454 	-0.0314868 	0 1.17597 	-0.0538496 	0 1.47774 	-0.0614336 	0 1.28113 	-0.0532601 	0 1.08452 	-0.0450865 	0 0 	0 	0
9.83287 	3.19103 	0 9.65822 	6.52562 	0 10.0778 	7.67522 	0 11.8157 	4.68066 	0 12.0606 	4.44112 	0 12.962 	10.4677 	0 13.4038 	18.8449 	0 15.3396 	15.3335 	0 17.3389 	10.1863 	0 17.8515 	12.3612 	0 18.3285 	14.6068 	0 18.9064 	13.9578 	0 19.5019 	13.3185 	0 20.2728 	12.5267 	0 21.1481 	11.8328 	0 22.0471 	11.1561 	0 22.9672 	10.4969 	0 23.0547 	9.42949 	0 23.182 	7.32077 	0 24.2081 	6.59888 	0 25.2143 	5.84201 	0 26.0642 	4.98208 	0 26.0956 	3.67747 	0 26.1647 	2.50149 	0 26.7746 	0.441296 	0 27.5019 	-1.5989 	0 27.2023 	-3.48175 	0 26.2609 	-4.96943 	0 25.3006 	-6.44879 	0 25.137 	-6.95297 	0 24.9543 	-7.42919 	0 24.5345 	-7.64053 	0 24.1164 	-7.84904 	0 23.9299 	-7.94118 	0 23.2895 	-9.02463 	0 22.6939 	-10.1836 	0 22.0058 	-11.206 	0 20.8898 	-11.5805 	0 19.5583 	-12.0616 	0 19.2512 	-12.2308 	0 18.9462 	-12.403 	0 18.6545 	-12.5388 	0 18.4108 	-12.514 	0 18.2131 	-12.4943 	0 17.0548 	-13.0791 	0 15.8888 	-13.7275 	0 14.9563 	-13.8175 	0 14.1037 	-13.564 	0 13.7084 	-13.4473 	0 13.0461 	-13.7183 	0 12.5142 	-13.8105 	0 12.1049 	-13.7349 	0 11.6934 	-13.6631 	0 11.1631 	-13.5762 	0 10.9205 	-13.5562 	0 10.6765 	-13.5378 	0 10.4312 	-13.5211 	0 10.2166 	-13.4788 	0 10.0806 	-13.3877 	0 9.59796 	-13.2516 	0 8.92509 	-13.0427 	0 8.23594 	-12.8407 	0 7.68827 	-12.5228 	0 7.27531 	-12.214 	0 6.88958 	-11.9563 	0 6.49776 	-11.7022 	0 6.07463 	-11.3415 	0 5.53651 	-10.8723 	0 5.03149 	-10.446 	0 4.80739 	-10.0603 	0 4.58538 	-9.67386 	0 4.36815 	-9.28562 	0 4.03874 	-8.86657 	0 3.45803 	-8.3862 	0 3.45271 	-7.96934 	0 3.37322 	-7.47861 	0 3.30118 	-6.98707 	0 3.23799 	-6.49472 	0 3.01294 	-5.89436 	0 3.19904 	-5.64615 	0 3.35808 	-5.42844 	0 3.52436 	-5.21274 	0 3.698 	-4.9995 	0 3.77148 	-4.91413 	0 3.98816 	-4.5643 	0 4.21522 	-4.22053 	0 4.45219 	-3.88462 	0 4.69826 	-3.55835 	0 5.25162 	-3.37529 	0 6.40798 	-3.10474 	0 7.48438 	-2.85872 	0 8.50552 	-2.62052 	0 10.1175 	-1.84803 	0 15.3574 	0.621337 	0 15.4413 	-0.162747 	0 16.211 	-0.0832141 	0 16.9493 	-0.0306326 	0 17.6684 	0.00536777 	0 18.8751 	0.793653 	0 18.7468 	-0.266591 	0 19.2727 	-0.18711 	0 19.7757 	-0.130729 	0 20.2631 	-0.0902113 	0 21.169 	0.87728 	0 20.9388 	-0.379456 	0 21.3307 	-0.289474 	0 21.7018 	-0.223394 	0 22.0579 	-0.174525 	0 22.7682 	0.912495 	0 22.5046 	-0.44172 	0 22.8178 	-0.348518 	0 23.1125 	-0.278464 	0 23.3935 	-0.225564 	0 23.9792 	0.917505 	0 23.7027 	-0.455066 	0 23.9608 	-0.36632 	0 24.2032 	-0.298282 	0 24.4336 	-0.245943 	0 24.9402 	0.90524 	0 24.6533 	-0.442406 	0 24.869 	-0.361348 	0 25.0713 	-0.298088 	0 25.2634 	-0.248591 	0 25.7184 	0.885113 	0 25.4213 	-0.416312 	0 25.6028 	-0.343294 	0 25.7731 	-0.285362 	0 25.9346 	-0.239308 	0 26.3554 	0.867539 	0 26.0482 	-0.382034 	0 26.1986 	-0.315587 	0 26.3392 	-0.262044 	0 26.4722 	-0.218827 	0 26.8644 	0.863943 	0 26.5424 	-0.334329 	0 26.6705 	-0.263754 	0 26.7887 	-0.206058 	0 26.899 	-0.158818 	0 27.2802 	0.932507 	0 26.943 	-0.19724 	0 27.07 	-0.0968428 	0 27.1834 	-0.0133996 	0 27.2856 	0.056071 	0 27.7014 	1.2481 	0 27.297 	0.0803755 	1.78472e-21 27.4538 	0.179321 	9.04219e-21 27.5972 	0.263183 	1.62429e-20 27.7293 	0.334409 	2.33961e-20 28.3046 	1.7337 	4.94625e-20 27.8768 	0.389067 	1.21252e-20 27.9968 	0.375754 	1.87748e-20 28.1181 	0.363823 	2.54513e-20 28.2406 	0.353137 	3.21522e-20 28.8448 	1.75597 	7.34589e-20 28.4254 	0.219751 	6.67279e-20 28.4265 	0.127648 	5.60136e-20 28.4351 	0.0452747 	4.52652e-20 28.4502 	-0.0299872 	3.44908e-20 28.8945 	1.3846 	9.04627e-21 28.612 	-0.0696663 	1.03958e-20 28.5214 	-0.139851 	-1.5957e-21 28.4384 	-0.165712 	-1.40005e-20 28.357 	-0.189478 	-2.64122e-20 28.5497 	1.18076 	-3.54255e-20 28.428 	-0.0881141 	-2.62813e-20 28.2978 	-0.0673515 	-1.79812e-20 28.1667 	-0.0480234 	-9.67176e-21 28.0348 	-0.0300414 	-1.3534e-21 28.0109 	1.22145 	-3.19539e-20 28.0221 	0.148169 	-6.68958e-20 27.8719 	0.177746 	-6.17305e-20 27.7208 	0.205467 	-5.66781e-20 27.5689 	0.231426 	-5.17327e-20 27.3837 	1.37564 	9.32127e-21 27.4455 	0.375826 	1.32327e-20 27.3363 	0.351218 	1.87821e-20 27.2193 	0.368341 	2.43869e-20 27.0946 	0.452746 	3.07138e-20 26.8647 	1.51436 	4.75392e-20 26.8418 	0.522385 	1.44667e-19 26.812 	0.384108 	1.53447e-19 26.7798 	0.39794 	1.46475e-19 26.7362 	0.595612 	1.20608e-19 26.6364 	1.63082 	8.65926e-21 26.4081 	0.655418 	-1.1097e-19 26.3887 	0.394239 	-1.55336e-19 26.4508 	0.424547 	-1.68986e-19 26.5512 	0.773779 	-1.46406e-19 26.7229 	1.80159 	-4.65081e-20 26.3125 	0.922594 	-2.90489e-20 26.2045 	0.544972 	-1.94244e-20 26.3426 	0.595943 	-1.64543e-20 26.6439 	1.10708 	-5.08203e-20 27.0823 	2.06427 	-1.22981e-19 26.6547 	1.36284 	-1.47387e-19 26.4171 	0.884731 	-1.63888e-19 26.5847 	0.939885 	-1.64779e-19 27.0609 	1.57201 	-1.31131e-19 27.5935 	2.36849 	-8.83807e-20 27.307 	1.86909 	-4.84303e-20 27.0463 	1.37282 	-7.58603e-21 27.2023 	1.44217 	-6.6525e-21 27.6679 	2.04105 	-1.37888e-20 28.0957 	2.62932 	-2.06361e-20 28.0262 	2.30247 	-1.21005e-20 27.9757 	1.97847 	-3.68511e-21 28.0739 	2.01362 	-3.00396e-21 28.2995 	2.40614 	-9.92972e-21 28.5018 	2.79233 	-1.66627e-20 28.6521 	2.58281 	-8.07107e-21 28.8117 	2.38823 	-3.54775e-21 28.9147 	2.4294 	-7.17817e-20 28.8968 	2.61969 	-1.40346e-19 28.8423 	2.84072 	-2.09248e-19 29.1764 	2.69302 	-3.25437e-19 29.3611 	2.63658 	-3.67448e-19 29.4338 	2.64622 	-3.5552e-19 29.4577 	2.66873 	-3.35463e-19 29.1772 	2.77149 	-2.64766e-19 29.6029 	2.65609 	-4.58893e-19 29.6441 	2.63281 	-3.12523e-19 29.6871 	2.6096 	-1.66587e-19 29.7318 	2.58646 	-2.10852e-20 29.5424 	2.58655 	2.28023e-19 29.7602 	2.51729 	2.23838e-19 29.7706 	2.47813 	2.27195e-19 29.7829 	2.43902 	2.30408e-19 29.797 	2.39997 	2.33478e-19 29.8174 	2.34977 	2.37243e-19 29.8255 	2.33841 	2.4165e-19 29.8338 	2.32705 	2.46022e-19 29.8422 	2.31569 	2.50359e-19 29.8507 	2.30434 	2.54662e-19 29.8644 	2.27888 	2.24379e-19 29.8689 	2.21911 	1.75202e-19 29.8737 	2.14212 	1.2507e-19 29.8826 	2.06503 	7.50953e-20 29.8957 	1.98784 	2.52802e-20 29.9073 	1.84134 	0 29.9316 	1.83261 	-2.25451e-20 29.9192 	1.73503 	-7.44648e-20 29.9116 	1.63716 	-1.26649e-19 29.9089 	1.53899 	-1.791e-19 29.8699 	1.32598 	-2.23809e-19 29.9192 	1.364 	-5.83733e-19 29.8919 	1.2523 	-6.29447e-19 29.87 	1.14006 	-6.73565e-19 29.8522 	1.02446 	-7.06889e-19 29.7742 	0.76265 	-2.60408e-19 29.8244 	0.81289 	2.92863e-19 29.7877 	0.702516 	3.97865e-19 29.7498 	0.579441 	4.65939e-19 29.7099 	0.438645 	4.57262e-19 29.6166 	0.168791 	-1.08145e-19 29.6489 	0.196217 	-8.5938e-20 29.5994 	0.0828101 	-5.69672e-20 29.5455 	-0.0486242 	-2.73371e-20 29.4935 	-0.189834 	-4.27897e-21 29.3919 	-0.446098 	-6.37427e-20 29.4029 	-0.448977 	-1.973e-22 29.3303 	-0.583615 	0 29.2638 	-0.719635 	0 29.2039 	-0.856637 	0 29.1083 	-1.07341 	0 29.0808 	-1.13149 	9.02301e-21 29.0002 	-1.26763 	4.59e-20 28.9262 	-1.40476 	8.30058e-20 28.8589 	-1.54289 	1.20342e-19 28.7824 	-1.70964 	1.27202e-19 28.7335 	-1.78826 	-4.63758e-20 28.6648 	-1.89486 	9.78232e-21 28.6003 	-2.0021 	6.88994e-20 28.5401 	-2.10998 	1.30996e-19 28.5068 	-2.17462 	1.69769e-19 28.492 	-2.21132 	1.97861e-19 28.4778 	-2.2481 	2.26378e-19 28.4641 	-2.28496 	2.55321e-19 28.4509 	-2.3219 	2.84689e-19 28.3778 	-2.35174 	1.75215e-19 28.3528 	-2.48901 	1.18826e-19 28.2782 	-2.61879 	7.31636e-20 28.2108 	-2.74974 	2.7332e-20 28.1506 	-2.88187 	-1.86685e-20 27.8409 	-2.98998 	3.57812e-20 27.9574 	-3.13975 	5.52671e-19 27.921 	-3.26683 	7.41533e-19 27.8561 	-3.38984 	8.61378e-19 27.6491 	-3.50163 	5.85016e-19 27.3495 	-3.60706 	4.6224e-20 27.4119 	-3.73892 	-5.41757e-19 27.4793 	-3.87183 	-1.12922e-18 27.3914 	-3.98966 	-1.23917e-18 27.1466 	-4.09254 	-8.68233e-19 26.9064 	-4.19738 	-4.96167e-19 26.9301 	-4.31396 	-1.27137e-18 26.8902 	-4.4274 	-1.57333e-18 26.7794 	-4.53729 	-1.35016e-18 26.6736 	-4.64834 	-1.12225e-18 26.5035 	-4.75154 	-4.55339e-19 26.5031 	-4.79318 	-4.09018e-19 26.4652 	-4.83253 	-3.78436e-19 26.4232 	-4.87174 	-3.49991e-19 26.3819 	-4.91115 	-3.21664e-19 26.3448 	-4.94741 	-2.95829e-19 26.2954 	-5.01191 	-2.17973e-19 26.248 	-5.07693 	-1.39888e-19 26.2025 	-5.14247 	-6.15752e-20 26.1311 	-5.20421 	0 25.959 	-5.25096 	0 25.9944 	-5.36268 	0 25.9766 	-5.46582 	7.89182e-21 25.9113 	-5.56133 	2.28302e-20 25.6759 	-5.62971 	3.92384e-20 25.4431 	-5.70001 	5.56016e-20 25.4638 	-5.79215 	2.07603e-19 25.4389 	-5.87682 	2.8264e-19 25.3255 	-5.94664 	2.13302e-19 25.2152 	-6.01745 	1.42904e-19 25.0656 	-6.08364 	1.37154e-20 25.0687 	-6.09658 	7.84569e-21 25.0606 	-6.10742 	-3.93407e-22 25.044 	-6.11667 	-1.04317e-20 25.0275 	-6.12594 	-2.04747e-20 25.0114 	-6.13506 	-3.03291e-20 24.9433 	-6.18863 	-5.06118e-20 24.8773 	-6.24295 	-7.07269e-20 24.8135 	-6.298 	-9.06732e-20 24.6872 	-6.34093 	-1.09849e-19 24.4985 	-6.37219 	-1.28376e-19 24.5 	-6.42771 	-7.0404e-20 24.5032 	-6.48388 	-1.2309e-20 24.4066 	-6.52055 	0 24.2405 	-6.54677 	-1.56236e-20 24.0584 	-6.57173 	-3.72746e-20 24.0608 	-6.58402 	-1.39165e-20 24.0462 	-6.59298 	-5.2994e-21 24.0064 	-6.59704 	-1.84077e-20 23.9667 	-6.60117 	-3.15235e-20 23.9279 	-6.60528 	-4.44062e-20 23.8618 	-6.61619 	-5.19159e-20 23.7961 	-6.62732 	-5.93958e-20 23.731 	-6.63866 	-6.68457e-20 23.6212 	-6.64015 	-7.42997e-20 23.476 	-6.63389 	-8.17714e-20 23.4392 	-6.63381 	-4.87526e-20 23.4026 	-6.63385 	-1.57213e-20 23.2831 	-6.62105 	2.39689e-20 23.0787 	-6.59578 	6.50739e-20 22.8747 	-6.57085 	1.06449e-19 22.8575 	-6.55592 	2.17511e-20 22.8173 	-6.53716 	1.68424e-21 22.7433 	-6.51282 	7.69194e-20 22.6692 	-6.48846 	1.52121e-19 22.5944 	-6.46382 	2.28051e-19 22.5301 	-6.44633 	3.18669e-19 22.4658 	-6.42883 	4.09299e-19 22.4014 	-6.41135 	4.99941e-19 22.3108 	-6.38848 	4.33951e-19 22.1939 	-6.36023 	2.10749e-19 22.1123 	-6.30006 	1.30075e-19 22.0136 	-6.23822 	5.45781e-20 21.8634 	-6.17087 	0 21.6213 	-6.08968 	0 21.3798 	-6.00865 	0 21.3059 	-5.92745 	0 21.1832 	-5.84137 	-1.311e-20 21.0154 	-5.75081 	-3.83061e-20 20.8473 	-5.65977 	-6.34585e-20 20.6641 	-5.56025 	-9.0763e-20 20.6514 	-5.55364 	-9.15931e-20 20.6386 	-5.54703 	-9.24235e-20 20.6259 	-5.54041 	-9.32542e-20 20.6108 	-5.53345 	-9.60646e-20 20.5914 	-5.52582 	-1.02613e-19 20.4183 	-5.40983 	-1.05839e-19 20.236 	-5.29266 	-1.26426e-19 20.0532 	-5.17465 	-1.4748e-19 19.8306 	-5.05217 	-2.19445e-19 19.5571 	-4.92511 	-3.5828e-19 19.4164 	-4.78781 	-6.55438e-19 19.2755 	-4.64924 	-9.53011e-19 19.072 	-4.50769 	-8.89906e-19 18.8097 	-4.36646 	-4.90622e-19 18.5503 	-4.22592 	-9.59493e-20 18.4196 	-4.08322 	-2.70363e-20 18.2336 	-3.94062 	-1.14583e-20 18.0348 	-3.79714 	-8.27465e-21 17.8362 	-3.65245 	-5.05168e-21 17.5819 	-3.46546 	-8.70266e-22 17.5743 	-3.45976 	-6.53381e-22 17.5667 	-3.45405 	-4.36539e-22 17.559 	-3.44834 	-2.19743e-22 17.5514 	-3.44263 	-2.99012e-24 17.5416 	-3.43684 	9.79282e-22 17.331 	-3.26789 	0 17.1188 	-3.0976 	0 16.9071 	-2.92563 	0 16.6958 	-2.75192 	0 16.4339 	-2.58114 	4.59135e-21 16.2588 	-2.39542 	1.43724e-21 16.0687 	-2.21332 	-1.734e-21 15.8661 	-2.03396 	-4.92743e-21 15.6277 	-1.85856 	6.00591e-20 15.3825 	-1.68541 	1.44273e-19 15.2145 	-1.49463 	2.58424e-19 15.048 	-1.30149 	3.71495e-19 14.8533 	-1.12195 	4.07628e-19 14.6272 	-0.952447 	3.34138e-19 14.405 	-0.782783 	2.61584e-19 14.2497 	-0.593044 	1.05059e-18 14.0965 	-0.400968 	1.84035e-18 13.9236 	-0.217395 	1.8383e-18 13.7335 	-0.0480873 	1.0563e-18 13.5466 	0.122308 	2.78616e-19 13.4214 	0.30628 	6.75813e-19 13.2988 	0.492317 	1.07394e-18 13.163 	0.684831 	1.06752e-18 13.0138 	0.88056 	6.38004e-19 12.867 	1.07893 	2.06082e-19 12.7756 	1.28128 	1.15751e-19 12.6874 	1.48539 	2.45918e-20 12.5923 	1.67769 	3.37747e-21 12.5002 	1.87532 	-6.45414e-20 12.4097 	2.07831 	-1.37736e-19 12.3658 	2.2837 	-7.69986e-19 12.3095 	2.4519 	-7.59938e-19 12.2511 	2.60944 	-5.53694e-19 12.1949 	2.7672 	-3.34193e-19 12.137 	2.92548 	-1.77119e-20 12.1359 	2.93652 	6.24163e-20 12.1314 	2.94297 	6.28975e-20 12.1257 	2.9478 	3.53977e-20 12.1201 	2.95264 	7.85259e-21 12.1146 	2.95734 	-1.90001e-20 12.063 	3.05684 	-3.48073e-19 12.0133 	3.15766 	-6.86803e-19 11.9653 	3.25981 	-1.03528e-18 11.9017 	3.33742 	-1.00893e-18 11.8094 	3.37542 	-3.58845e-19 11.7593 	3.42938 	-6.28672e-19 11.7101 	3.48385 	-8.98568e-19 11.6273 	3.48587 	-7.63278e-19 11.5188 	3.45525 	-4.24721e-19 11.4022 	3.41672 	-4.33653e-20 11.3703 	3.40191 	-1.26782e-20 11.3474 	3.39818 	-2.12936e-20 11.3355 	3.40835 	-7.90659e-20 11.3238 	3.41861 	-1.36889e-19 11.3124 	3.42887 	-1.94312e-19 11.273 	3.41964 	-2.23198e-19 11.2337 	3.41042 	-2.52061e-19 11.1944 	3.4012 	-2.80901e-19 11.1614 	3.39462 	-2.83276e-19 11.1318 	3.38945 	-2.71448e-19 11.0998 	3.36685 	2.16079e-19 11.0676 	3.34419 	7.03502e-19 11.1012 	3.41954 	7.73196e-19 11.2179 	3.62358 	4.25189e-19 11.335 	3.82631 	8.02189e-20 11.3819 	3.89171 	1.29416e-19 11.4349 	3.96508 	1.65404e-19 11.5086 	4.06555 	1.56717e-19 11.5824 	4.16579 	1.48227e-19 11.6469 	4.25312 	1.40984e-19 11.7095 	4.33978 	9.35687e-20 11.7715 	4.42514 	4.59753e-20 11.8328 	4.50924 	-1.78985e-21 11.9461 	4.67198 	-1.92181e-20 12.0632 	4.83959 	-3.57071e-20 12.2292 	5.04005 	-1.33244e-19 12.3941 	5.23791 	-2.3063e-19 12.5758 	5.45876 	-1.81201e-19 12.7573 	5.67833 	-1.23321e-19 12.8996 	5.84967 	-7.66768e-20 12.9302 	5.88762 	-7.19268e-20 12.9606 	5.92542 	-6.71606e-20 12.9929 	5.96574 	-6.35219e-20 13.0325 	6.01583 	-6.4139e-20 13.0722 	6.06611 	-6.4747e-20 13.2935 	6.31517 	-3.69772e-20 13.5125 	6.5604 	-9.02961e-21 13.7174 	6.7797 	0 13.9149 	6.98526 	0 14.1183 	7.19596 	0 14.1186 	7.19625 	0 14.1189 	7.19654 	0 14.1192 	7.19675 	0 14.1194 	7.19693 	0 14.1196 	7.19711 	0 14.3311 	7.40571 	0 14.5414 	7.61239 	0 14.7381 	7.79609 	0 14.9056 	7.92989 	0 15.0768 	8.06616 	0 15.1074 	8.08966 	0 15.138 	8.11314 	0 15.1628 	8.12807 	3.04771e-21 15.1846 	8.13835 	7.75187e-21 15.2062 	8.14858 	1.24321e-20 15.3733 	8.28082 	1.45028e-20 15.54 	8.41251 	1.65074e-20 15.6927 	8.52332 	1.68144e-20 15.8137 	8.58722 	1.33418e-20 15.936 	8.65176 	9.83938e-21 15.994 	8.68406 	2.5588e-22 16.0521 	8.71636 	-9.32793e-21 16.0973 	8.73132 	-2.11243e-20 16.1366 	8.73841 	-3.39281e-20 16.1761 	8.74561 	-4.67574e-20 16.2989 	8.81773 	-1.47479e-19 16.4216 	8.8898 	-2.48245e-19 16.534 	8.94826 	-3.0591e-19 16.6161 	8.96715 	-2.37715e-19 16.6985 	8.9863 	-1.69424e-19 16.7891 	9.0184 	-3.01124e-19 16.8799 	9.05064 	-4.32863e-19 16.9466 	9.05415 	-3.92557e-19 17.0057 	9.04853 	-2.96292e-19 17.0663 	9.04314 	-1.9846e-19 17.1406 	9.07159 	-1.67311e-19 17.215 	9.10009 	-1.3619e-19 17.2846 	9.12299 	-1.11572e-19 17.3307 	9.11858 	-1.18339e-19 17.3767 	9.11435 	-1.25128e-19 17.5094 	9.1366 	-6.91021e-20 17.6425 	9.15935 	-1.31308e-20 17.7338 	9.13807 	-2.43329e-20 17.8179 	9.10928 	-4.80331e-20 17.9071 	9.07999 	-7.28314e-20 17.9272 	9.08366 	-7.5304e-20 17.9473 	9.08734 	-7.77766e-20 17.9668 	9.0905 	-7.9929e-20 17.9782 	9.08534 	-7.6945e-20 17.9895 	9.0802 	-7.39669e-20 18.1342 	9.08126 	-1.87019e-20 18.2701 	9.07465 	3.28404e-20 18.3712 	9.03681 	5.45431e-20 18.4336 	8.96336 	2.94333e-20 18.4956 	8.89183 	4.65423e-21 18.5363 	8.87992 	3.66714e-20 18.5769 	8.868 	6.83859e-20 18.6007 	8.84214 	4.92887e-20 18.6247 	8.81639 	3.02602e-20 18.6495 	8.7899 	1.06852e-20 18.7206 	8.7628 	-2.28065e-20 18.7919 	8.73589 	-5.60992e-20 18.8636 	8.70916 	-8.91941e-20 18.8992 	8.65367 	-5.4456e-20 18.9312 	8.59633 	-1.34658e-20 19.0462 	8.54797 	-1.28894e-20 19.1552 	8.4954 	-1.18035e-20 19.2201 	8.41138 	-7.83398e-21 19.2862 	8.3282 	-3.77876e-21 19.3515 	8.24101 	0 19.3532 	8.23971 	0 19.3547 	8.2383 	0 19.3556 	8.2365 	0 19.3565 	8.23471 	0 19.3574 	8.23291 	0 19.4303 	8.15324 	0 19.5036 	8.0738 	0 19.5773 	7.9946 	0 19.6121 	7.8916 	0 19.6324 	7.78221 	0 19.7241 	7.705 	0 19.8001 	7.61956 	4.01519e-20 19.8459 	7.51828 	1.55687e-19 19.8926 	7.41755 	2.70824e-19 19.9356 	7.31416 	3.85524e-19 19.9379 	7.31138 	4.02786e-19 19.9395 	7.30836 	4.13334e-19 19.9405 	7.30504 	4.15173e-19 19.9415 	7.30171 	4.17014e-19 19.9425 	7.29837 	4.18866e-19 19.9886 	7.20016 	4.55719e-19 20.0352 	7.10204 	4.95116e-19 20.0821 	7.00402 	5.37052e-19 20.1045 	6.89539 	6.38566e-19 20.1026 	6.77835 	7.96649e-19 20.1752 	6.68735 	1.1231e-18 20.2486 	6.59659 	1.45206e-18 20.2826 	6.49196 	1.26006e-18 20.2831 	6.37079 	7.78113e-19 20.2708 	6.24488 	2.04405e-19 20.3043 	6.18555 	5.32077e-20 20.3215 	6.12169 	4.08118e-21 20.3311 	6.0557 	3.59339e-21 20.3409 	5.98975 	3.10184e-21 20.3521 	5.91599 	2.54753e-21 20.3626 	5.8734 	1.87382e-21 20.3732 	5.83081 	1.20112e-21 20.3839 	5.78822 	5.29443e-22 20.3904 	5.74418 	-2.16433e-20 20.3816 	5.69501 	-1.23662e-19 20.4346 	5.60057 	7.75767e-21 20.4474 	5.48761 	9.77564e-20 20.4604 	5.37456 	1.88803e-19 20.4443 	5.25305 	2.00688e-19 20.413 	5.12871 	1.7084e-19 20.456 	5.02983 	1.12342e-18 20.4994 	4.93096 	2.0787e-18 20.5082 	4.82333 	2.10867e-18 20.4684 	4.69805 	1.15992e-18 20.4293 	4.57418 	2.22584e-19 20.4594 	4.47162 	5.61498e-20 20.4627 	4.36443 	7.269e-21 20.4558 	4.25541 	4.27872e-21 20.4493 	4.14634 	1.25972e-21 20.4198 	4.03026 	0 20.4256 	3.98436 	-7.99549e-21 20.4185 	3.937 	-6.44578e-20 20.4113 	3.88961 	-1.20811e-19 20.4042 	3.84219 	-1.77053e-19 20.3962 	3.78801 	-2.41159e-19 20.3891 	3.72869 	-2.89067e-19 20.382 	3.66933 	-3.37202e-19 20.3749 	3.60993 	-3.85564e-19 20.3679 	3.55049 	-4.34152e-19 20.3465 	3.49001 	-4.77354e-19 20.3466 	3.38979 	-2.10118