# vtk DataFile Version 2.0
track0
ASCII
DATASET POLYDATA
POINTS 12539 double
-0.0205 0.001 1e-05
-0.0202034 0.000999428 1e-05
-0.019907 0.00100668 1e-05
-0.0196109 0.001024 1e-05
-0.0195828 0.00102682 1e-05
-0.0194696 0.0010387 1e-05
-0.0193567 0.00105186 1e-05
-0.0192438 0.00106632 1e-05
-0.0191312 0.0010821 1e-05
-0.0190172 0.00110068 1e-05
-0.0187132 0.00115965 1e-05
-0.0184163 0.00124727 1e-05
-0.018131 0.0013674 1e-05
-0.0180126 0.00141936 1e-05
-0.0179096 0.00146475 1e-05
-0.0178091 0.00151556 1e-05
-0.0177113 0.0015712 1e-05
-0.0176129 0.0016258 1e-05
-0.0174976 0.00168811 1e-05
-0.0174396 0.0017185 1e-05
-0.0173815 0.00174862 1e-05
-0.0173232 0.00177846 1e-05
-0.0172648 0.00180802 1e-05
-0.0171999 0.00184007 1e-05
-0.0170113 0.00193025 1e-05
-0.0168196 0.00201384 1e-05
-0.0166252 0.00209065 1e-05
-0.0164289 0.00216273 1e-05
-0.0160649 0.00229098 1e-05
-0.0160597 0.00229269 1e-05
-0.0160544 0.00229441 1e-05
-0.0160492 0.00229611 1e-05
-0.0160439 0.00229782 1e-05
-0.0160387 0.00229952 1e-05
-0.0157586 0.00239024 1e-05
-0.0154772 0.00247711 1e-05
-0.0151947 0.00256001 1e-05
-0.0149109 0.0026384 1e-05
-0.0146381 0.00270824 1e-05
-0.0145821 0.00272144 1e-05
-0.014526 0.00273444 1e-05
-0.0144699 0.00274723 1e-05
-0.0144138 0.00275993 1e-05
-0.01435 0.00277425 1e-05
-0.0141387 0.00282123 1e-05
-0.0139267 0.00286522 1e-05
-0.0137142 0.00290616 1e-05
-0.013501 0.00294395 1e-05
-0.0132934 0.00297889 1e-05
-0.0130353 0.00302064 1e-05
-0.0127767 0.00306012 1e-05
-0.0125178 0.00309731 1e-05
-0.0122585 0.00313129 1e-05
-0.0120025 0.00316132 1e-05
-0.0117547 0.00318699 1e-05
-0.0115065 0.00320927 1e-05
-0.011258 0.00322863 1e-05
-0.0110094 0.00324505 1e-05
-0.0107632 0.00325836 1e-05
-0.0106069 0.00326513 1e-05
-0.0104506 0.00327094 1e-05
-0.0102943 0.00327573 1e-05
-0.0101379 0.00327951 1e-05
-0.00957337 0.00328949 1e-05
-0.00934491 0.00328825 1e-05
-0.00911647 0.0032849 1e-05
-0.00888808 0.00327945 1e-05
-0.00865974 0.00327193 1e-05
-0.00843108 0.00326235 1e-05
-0.00821175 0.00325127 1e-05
-0.00799251 0.00323847 1e-05
-0.00777339 0.00322392 1e-05
-0.00755438 0.00320765 1e-05
-0.00733443 0.0031896 1e-05
-0.00712387 0.00317072 1e-05
-0.00691343 0.00315048 1e-05
-0.00670314 0.00312868 1e-05
-0.00649303 0.00310529 1e-05
-0.0062816 0.00308011 1e-05
-0.00607944 0.00305445 1e-05
-0.00587747 0.00302744 1e-05
-0.00567567 0.00299911 1e-05
-0.00547407 0.00296942 1e-05
-0.00527083 0.00293794 1e-05
-0.00507675 0.00290643 1e-05
-0.00488288 0.00287369 1e-05
-0.00468925 0.00283949 1e-05
-0.0044959 0.00280378 1e-05
-0.00434256 0.00277425 1e-05
-0.00433414 0.00277258 1e-05
-0.00432572 0.0027709 1e-05
-0.00431729 0.00276922 1e-05
-0.00430887 0.00276754 1e-05
-0.00430044 0.00276585 1e-05
-0.00411412 0.00272855 1e-05
-0.00392811 0.00268973 1e-05
-0.00374241 0.00264942 1e-05
-0.00355704 0.00260766 1e-05
-0.00336883 0.00256381 1e-05
-0.00318995 0.0025208 1e-05
-0.00301141 0.0024764 1e-05
-0.00283322 0.00243063 1e-05
-0.00265548 0.00238312 1e-05
-0.00247443 0.00233287 1e-05
-0.00244541 0.00232449 1e-05
-0.00241641 0.00231606 1e-05
-0.00238742 0.00230757 1e-05
-0.00235846 0.00229901 1e-05
-0.00233148 0.00229098 1e-05
-0.00218834 0.00224804 1e-05
-0.00204557 0.00220388 1e-05
-0.00190317 0.00215854 1e-05
-0.00176114 0.00211206 1e-05
-0.00161577 0.00206302 1e-05
-0.00148755 0.00201843 1e-05
-0.00135975 0.00197268 1e-05
-0.00123236 0.00192577 1e-05
-0.00110556 0.00187728 1e-05
-0.00101164 0.00184007 1e-05
-0.000967596 0.00182218 1e-05
-0.00092359 0.0018042 1e-05
-0.000879622 0.00178612 1e-05
-0.000835701 0.00176794 1e-05
-0.000791418 0.00174939 1e-05
-0.00063552 0.00168338 1e-05
-0.000480692 0.0016149 1e-05
-0.000326893 0.00154414 1e-05
-0.000174627 0.00147014 1e-05
-7.57656e-05 0.00141936 1e-05
-6.06125e-05 0.0014113 1e-05
-4.54659e-05 0.00140323 1e-05
-3.03258e-05 0.00139515 1e-05
-1.52025e-05 0.00138704 1e-05
0 0.00137883 1e-05
0.000105677 0.00132134 1e-05
0.000209783 0.00126105 1e-05
0.000312348 0.00119818 1e-05
0.000413198 0.00113259 1e-05
0.000528387 0.00105262 1e-05
0.000533594 0.00104873 1e-05
0.000538795 0.00104483 1e-05
0.000543991 0.00104093 1e-05
0.00054918 0.00103701 1e-05
0.000554264 0.00103317 1e-05
0.000650324 0.000960251 1e-05
0.000743246 0.000883375 1e-05
0.000832936 0.000802751 1e-05
0.000919481 0.000718761 1e-05
0.00096792 0.00066807 1e-05
0.000986513 0.000647733 1e-05
0.00100484 0.000627157 1e-05
0.00102292 0.00060636 1e-05
0.00104081 0.000585401 1e-05
0.00106088 0.000561446 1e-05
0.0010999 0.000513913 1e-05
0.00113789 0.000465552 1e-05
0.00117484 0.000416388 1e-05
0.00121072 0.000366445 1e-05
0.00124052 0.000323719 1e-05
0.00128474 0.000258975 1e-05
0.0013269 0.000192869 1e-05
0.001367 0.000125494 1e-05
0.0014056 5.72488e-05 1e-05
0.00143684 0 1e-05
0.00146898 -6.07085e-05 1e-05
0.00149967 -0.000122161 1e-05
0.00152909 -0.000184228 1e-05
0.00155732 -0.00024685 1e-05
0.00159752 -0.000340818 1e-05
0.0015994 -0.000345598 1e-05
0.00160128 -0.00035038 1e-05
0.00160316 -0.000355165 1e-05
0.00160502 -0.000359952 1e-05
0.00160687 -0.000364716 1e-05
0.00163846 -0.000446099 1e-05
0.00166806 -0.000528227 1e-05
0.00169567 -0.000611044 1e-05
0.00172127 -0.000694505 1e-05
0.00174315 -0.00077151 1e-05
0.00176865 -0.000862209 1e-05
0.00179244 -0.000953369 1e-05
0.00181448 -0.00104497 1e-05
0.00183467 -0.001137 1e-05
0.00185343 -0.00122487 1e-05
0.00187439 -0.00132591 1e-05
0.00189519 -0.00142698 1e-05
0.00191581 -0.00152809 1e-05
0.00193624 -0.00162924 1e-05
0.00195592 -0.00173004 1e-05
0.00197707 -0.00184263 1e-05
0.00199953 -0.00195496 1e-05
0.00202259 -0.00206717 1e-05
0.00204572 -0.00217936 1e-05
0.00206925 -0.00229306 1e-05
0.00208306 -0.00236096 1e-05
0.00209732 -0.00242878 1e-05
0.00211162 -0.00249659 1e-05
0.00212597 -0.00256439 1e-05
0.00213833 -0.00262261 1e-05
0.00215101 -0.00268221 1e-05
0.00216373 -0.0027418 1e-05
0.00217649 -0.00280139 1e-05
0.00218928 -0.00286097 1e-05
0.00220214 -0.00292062 1e-05
0.0022322 -0.0030605 1e-05
0.0022625 -0.00320033 1e-05
0.002293 -0.00334012 1e-05
0.0023237 -0.00347987 1e-05
0.0023546 -0.00362007 1e-05
0.00238893 -0.00377596 1e-05
0.00242361 -0.00393178 1e-05
0.00245865 -0.00408752 1e-05
0.00249399 -0.00424319 1e-05
0.00252979 -0.0043996 1e-05
0.0025605 -0.00453265 1e-05
0.00259163 -0.00466559 1e-05
0.00262316 -0.00479845 1e-05
0.00265507 -0.00493121 1e-05
0.00268334 -0.00504725 1e-05
0.00269424 -0.00509148 1e-05
0.00270519 -0.0051357 1e-05
0.00271617 -0.0051799 1e-05
0.0027272 -0.0052241 1e-05
0.0027383 -0.00526839 1e-05
0.00278691 -0.00546201 1e-05
0.00283659 -0.00565535 1e-05
0.00288741 -0.00584839 1e-05
0.00293944 -0.00604112 1e-05
0.00299328 -0.00623664 1e-05
0.00304114 -0.00640692 1e-05
0.00309017 -0.00657686 1e-05
0.00314033 -0.00674647 1e-05
0.00319135 -0.00691582 1e-05
0.00323259 -0.00705011 1e-05
0.00324915 -0.00710322 1e-05
0.00326581 -0.00715629 1e-05
0.00328257 -0.00720934 1e-05
0.00329943 -0.00726235 1e-05
0.00331647 -0.00731566 1e-05
0.00339371 -0.00755601 1e-05
0.00347288 -0.00779573 1e-05
0.00355409 -0.00803476 1e-05
0.00363713 -0.00827316 1e-05
0.00372412 -0.00851769 1e-05
0.00373652 -0.00855176 1e-05
0.00374895 -0.00858581 1e-05
0.00376143 -0.00861985 1e-05
0.00377395 -0.00865387 1e-05
0.00378611 -0.00868681 1e-05
0.00385732 -0.00887915 1e-05
0.0039296 -0.00907109 1e-05
0.00400301 -0.0092626 1e-05
0.0040776 -0.00945366 1e-05
0.00415507 -0.00964869 1e-05
0.00419284 -0.00974202 1e-05
0.00423092 -0.00983524 1e-05
0.00426932 -0.00992832 1e-05
0.00430802 -0.0100213 1e-05
0.00434393 -0.0101068 1e-05
0.00440095 -0.0102413 1e-05
0.00445858 -0.0103756 1e-05
0.00451685 -0.0105095 1e-05
0.00457577 -0.0106433 1e-05
0.00463663 -0.0107795 1e-05
0.00469052 -0.0108984 1e-05
0.00474499 -0.0110171 1e-05
0.00480004 -0.0111355 1e-05
0.0048557 -0.0112536 1e-05
0.00490609 -0.0113591 1e-05
0.00495937 -0.0114693 1e-05
0.00501318 -0.0115792 1e-05
0.00506754 -0.0116889 1e-05
0.00512244 -0.0117983 1e-05
0.00517931 -0.0119101 1e-05
0.00523797 -0.0120239 1e-05
0.00529728 -0.0121375 1e-05
0.00535725 -0.0122506 1e-05
0.00541789 -0.0123634 1e-05
0.00547262 -0.0124638 1e-05
0.00553637 -0.0125791 1e-05
0.00560083 -0.012694 1e-05
0.00566601 -0.0128086 1e-05
0.00573194 -0.0129226 1e-05
0.00580111 -0.0130405 1e-05
0.0058496 -0.0131218 1e-05
0.0058985 -0.0132028 1e-05
0.00594781 -0.0132836 1e-05
0.00599755 -0.0133641 1e-05
0.00604356 -0.0134378 1e-05
0.00613615 -0.0135843 1e-05
0.00623016 -0.01373 1e-05
0.00632559 -0.0138747 1e-05
0.00642249 -0.0140184 1e-05
0.00652745 -0.0141707 1e-05
0.00654575 -0.0141966 1e-05
0.0065641 -0.0142225 1e-05
0.00658249 -0.0142483 1e-05
0.00660094 -0.0142741 1e-05
0.00661893 -0.0142992 1e-05
0.0067349 -0.0144599 1e-05
0.00685283 -0.0146193 1e-05
0.00697276 -0.0147771 1e-05
0.00709475 -0.0149334 1e-05
0.00719878 -0.015063 1e-05
0.00723788 -0.0151105 1e-05
0.00727717 -0.0151579 1e-05
0.00731666 -0.0152052 1e-05
0.00735635 -0.0152522 1e-05
0.00739767 -0.0153008 1e-05
0.00747476 -0.0153906 1e-05
0.0075526 -0.0154798 1e-05
0.00763119 -0.0155683 1e-05
0.00771052 -0.0156562 1e-05
0.00778313 -0.0157352 1e-05
0.00790091 -0.0158613 1e-05
0.00802023 -0.015986 1e-05
0.0081411 -0.0161092 1e-05
0.00826351 -0.0162308 1e-05
0.00837203 -0.0163359 1e-05
0.00839208 -0.0163549 1e-05
0.00841217 -0.0163738 1e-05
0.0084323 -0.0163927 1e-05
0.00845246 -0.0164116 1e-05
0.00847311 -0.0164308 1e-05
0.00857159 -0.0165221 1e-05
0.00867098 -0.0166124 1e-05
0.00877127 -0.0167017 1e-05
0.00887245 -0.01679 1e-05
0.00896551 -0.0168696 1e-05
0.00908513 -0.01697 1e-05
0.00920589 -0.0170691 1e-05
0.00932777 -0.0171667 1e-05
0.00945075 -0.017263 1e-05
0.0095636 -0.0173493 1e-05
0.00962012 -0.0173916 1e-05
0.00967685 -0.0174336 1e-05
0.0097338 -0.0174753 1e-05
0.00979095 -0.0175167 1e-05
0.00985235 -0.0175608 1e-05
0.00991515 -0.0176053 1e-05
0.00997819 -0.0176495 1e-05
0.0100415 -0.0176934 1e-05
0.010105 -0.0177369 1e-05
0.0101663 -0.0177785 1e-05
0.0102878 -0.0178598 1e-05
0.0104101 -0.01794 1e-05
0.0105331 -0.0180189 1e-05
0.0106569 -0.0180967 1e-05
0.0107738 -0.0181685 1e-05
0.0108962 -0.018242 1e-05
[...]
POINT_DATA 12539
 FIELD attributes 2
p 1 12539 float
-60.1941 -60.9397 -61.7424 -62.5761 -62.659 -62.7389 -62.7951 -62.8271 -63.2 -63.7944 -66.35 -68.7038 -59.7973 -55.5248 -58.1617 -60.4836 -57.8329 -55.1662 -52.0432 -50.4807 -48.9145 -47.3443 -47.9661 -49.396 -41.6035 -34.2319 -31.9231 -34.1547 -38.8352 -38.675 -38.5151 -38.4678 -38.5419 -38.6157 -42.3831 -46.0017 -47.8725 -47.5713 -47.2756 -47.1765 -47.0824 -47.3636 -47.6436 -47.9605 -47.8504 -47.7771 -47.7414 -48.9244 -50.4604 -52.3476 -54.2345 -54.8374 -54.5447 -54.1187 -53.6365 -53.7049 -53.763 -53.8036 -53.9825 -54.0871 -54.0737 -54.0625 -54.0535 -54.0185 -53.6937 -53.366 -53.0322 -52.6922 -52.3896 -52.148 -51.8922 -51.6346 -51.3752 -51.0757 -50.7298 -50.3096 -49.8693 -49.374 -48.8448 -48.2741 -47.7024 -47.2763 -46.9857 -46.6916 -46.3363 -45.7127 -45.014 -44.3113 -43.7501 -43.7288 -43.7074 -43.6861 -43.6594 -43.6255 -42.8765 -42.1438 -41.4098 -40.8328 -40.4089 -39.9162 -39.3927 -38.301 -37.2053 -35.9242 -35.6991 -35.4982 -35.352 -35.2062 -35.0706 -34.0717 -33.0711 -32.0688 -31.4251 -30.833 -30.2334 -29.6028 -28.486 -27.3668 -26.5322 -26.3135 -26.0956 -25.8415 -25.4571 -25.0698 -23.4024 -21.7504 -20.8051 -20.0673 -19.6076 -19.4769 -19.3462 -19.2681 -19.227 -19.186 -18.3405 -17.5262 -16.7366 -15.9692 -15.1142 -15.0511 -14.9881 -14.9402 -14.9091 -14.8788 -13.9769 -13.161 -12.7812 -12.7061 -12.7266 -12.7458 -12.7704 -12.7849 -12.8053 -12.8352 -12.7024 -12.6067 -12.5481 -13.094 -13.7501 -13.1463 -12.5788 -12.9938 -14.4172 -15.6356 -15.2783 -15.3279 -15.583 -15.8652 -16.3251 -16.3543 -16.3837 -16.4132 -16.4459 -16.5337 -16.4659 -16.6358 -16.8681 -17.5206 -19.9083 -19.3964 -19.1539 -19.7042 -21.8624 -23.9285 -24.5436 -25.1606 -25.7328 -26.032 -26.3348 -26.9679 -27.0954 -26.8751 -26.6539 -25.7523 -25.6673 -25.3578 -25.0481 -24.7381 -24.4716 -24.2103 -23.9488 -23.6872 -23.4253 -23.3246 -22.7832 -22.2794 -21.775 -21.4242 -21.2007 -20.7425 -20.2839 -20.0267 -19.9497 -19.8719 -19.6441 -19.4819 -19.3542 -19.2265 -19.1146 -19.0746 -19.0346 -18.9946 -18.9407 -18.8666 -18.6982 -18.482 -18.266 -17.9338 -17.5825 -17.376 -17.1537 -16.8788 -16.6029 -16.3831 -16.3023 -16.2214 -16.1405 -16.0554 -15.9692 -15.6203 -15.2698 -14.9422 -14.6364 -14.321 -14.2799 -14.2388 -14.2074 -14.1774 -14.1484 -13.9189 -13.6882 -13.4662 -13.2969 -13.1228 -13.0493 -12.9756 -12.8951 -12.8122 -12.7356 -12.6179 -12.4997 -12.3779 -12.2487 -12.1162 -12.0039 -11.8911 -11.8026 -11.7287 -11.6622 -11.5505 -11.4379 -11.3429 -11.2684 -11.1913 -11.1153 -11.0384 -10.9459 -10.8359 -10.7369 -10.6528 -10.5681 -10.4618 -10.342 -10.2168 -10.1284 -10.0396 -9.95939 -9.8997 -9.84463 -9.66845 -9.49012 -9.35807 -9.23808 -9.10803 -9.08481 -9.06153 -9.03701 -9.00158 -8.96705 -8.83701 -8.70423 -8.52447 -8.297 -8.10379 -8.06373 -8.02176 -7.95616 -7.89039 -7.82211 -7.69228 -7.56187 -7.43088 -7.35274 -7.28747 -7.07458 -6.86216 -6.73757 -6.61116 -6.52352 -6.48892 -6.45946 -6.44004 -6.42058 -6.40064 -6.30308 -6.20453 -6.105 -5.94938 -5.77913 -5.70633 -5.63343 -5.47354 -5.27605 -5.08073 -5.04991 -4.99403 -4.9195 -4.84493 -4.76508 -4.68279 -4.60048 -4.51814 -4.4629 -4.45317 -4.24083 -4.05923 -3.91359 -3.89845 -3.88435 -3.67818 -3.50435 -3.42585 -3.35311 -3.34222 -3.2409 -3.19328 -3.15438 -3.11527 -3.07277 -3.03493 -2.99691 -2.95873 -2.91323 -2.80241 -2.80534 -2.72803 -2.65006 -2.48271 -2.26067 -2.27278 -2.28517 -2.17736 -1.95194 -1.733 -1.74621 -1.68838 -1.55839 -1.42875 -1.21597 -1.21248 -1.1222 -1.0321 -0.942173 -0.84189 -0.809136 -0.776405 -0.743699 -0.711016 -0.721417 -0.556381 -0.434755 -0.313474 -0.196271 -0.269158 -0.0168297 0.161201 0.27791 0.250413 0.179862 0.426129 0.672617 0.760743 0.691849 0.62354 0.863075 1.07676 1.14257 1.12532 1.05883 1.29124 1.39153 1.45638 1.52157 1.482 1.64351 1.70613 1.76904 1.83225 1.88897 1.89913 1.90324 1.90736 1.91147 1.91563 1.97178 2.02815 2.08473 2.14152 2.29607 2.25786 2.31525 2.37286 2.4335 2.6817 2.585 2.60019 2.65437 2.80189 3.04306 2.94179 2.86627 2.91663 3.1437 3.37895 3.27257 3.16604 3.22843 3.45932 3.68937 3.57749 3.46547 3.52291 3.74922 3.97481 3.8578 3.7726 3.83859 4.01519 4.23658 4.11468 4.09145 4.15208 4.25831 4.47578 4.3495 4.38498 4.44074 4.49628 4.6942 4.60356 4.65511 4.70647 4.75763 4.89373 4.85632 4.90374 4.95098 4.99803 5.0755 5.07006 5.09517 5.12022 5.14521 5.17206 5.18993 5.20778 5.22559 5.24337 5.23624 5.30089 5.3406 5.38013 5.4195 5.3757 5.49461 5.53082 5.56687 5.60277 5.50078 5.67108 5.70396 5.73669 5.76927 5.61187 5.83063 5.86021 5.88965 5.89112 5.70909 5.92705 6.0005 6.02699 5.97806 5.7938 6.00925 6.12621 6.14993 6.05309 5.86652 6.07952 6.23778 6.2588 6.11634 5.92753 6.13824 6.33581 6.35426 6.16832 5.97734 6.18561 6.3939 6.40195 6.20947 6.01685 6.22316 6.42947 6.43562 6.24152 6.0473 6.25201 6.45673 6.46103 6.265 6.06883 6.2717 6.4746 6.47704 6.27931 6.08144 6.28222 6.48301 6.48394 6.28557 6.08706 6.28743 6.48783 6.48317 6.28722 6.0868 6.28641 6.45812 6.45059 6.2824 6.08025 6.27922 6.42158 6.41292 6.27094 6.06665 6.26361 6.37699 6.36743 6.25171 6.04706 6.24349 6.33013 6.31995 6.22883 6.02293 6.21809 6.27899 6.26832 6.20108 5.99492 6.1898 6.22661 6.2156 6.171 5.96406 6.15835 6.1722 6.16097 6.13811 5.93086 6.12505 6.11704 6.10558 6.09416 5.89522 6.07135 6.0596 6.04788 6.0362 5.85716 6.0135 6.00151 5.98956 5.97765 5.81692 5.95386 5.9418 5.92978 5.9178 5.77511 5.89427 5.88231 5.87039 5.85851 5.73277 5.83519 5.82352 5.81189 5.8003 5.69084 5.77784 5.76633 5.75485 5.7434 5.64866 5.72025 5.70868 5.69715 5.68566 5.60519 5.66283 5.6514 5.64 5.62864 5.56157 5.6066 5.59557 5.58456 5.57358 5.51913 5.55207 5.54109 5.53013 5.5192 5.47623 5.49706 5.48602 5.475 5.46401 5.43224 5.44229 5.43156 5.42085 5.41018 5.38908 5.38923 5.37894 5.36868 5.35845 5.34732 5.34724 5.34622 5.34521 5.34419 5.34316 5.33424 5.32534 5.31645 5.30759 5.30919 5.28908 5.27947 5.26989 5.26032 5.27209 5.24136 5.23205 5.22276 5.21349 5.23569 5.19512 5.18607 5.17705 5.16805 5.1998 5.15001 5.14104 5.13211 5.12319 5.16355 5.10528 5.09642 5.08759 5.07877 5.12699 5.06102 5.05257 5.04414 5.03573 5.09164 5.01874 5.01076 5.0028 4.99485 5.05793 4.97869 4.97092 4.96318 4.95545 5.02478 4.94 4.93256 4.92514 4.91773 4.99273 4.90348 4.8967 4.88993 4.88319 4.96321 4.86933 4.86291 4.85651 4.85012 4.93477 4.83698 4.83081 4.82466 4.81852 4.90717 4.80631 4.80036 4.79442 4.7885 4.88029 4.77697 4.77148 4.76601 4.76055 4.85508 4.74955 4.74494 4.74034 4.73576 4.83344 4.72603 4.72206 4.71811 4.71416 4.81452 4.70577 4.70208 4.6984 4.69473 4.7968 4.6875 4.68416 4.68083 4.67751 4.78061 4.67072 4.66767 4.66462 4.66157 4.76552 4.65544 4.65235 4.64926 4.64619 4.75 4.64004 4.63677 4.63351 4.63026 4.73328 4.6231 4.61986 4.61662 4.6134 4.71635 4.60615 4.60296 4.59977 4.59657 4.69934 4.58883 4.5849 4.58096 4.57702 4.67873 4.5683 4.56336 4.55841 4.55346 4.65327 4.5433 4.53767 4.53204 4.52643 4.62407 4.51392 4.50794 4.50198 4.49602 4.59257 4.48306 4.47677 4.47049 4.46422 4.55918 4.45092 4.44398 4.43706 4.43014 4.52233 4.41588 4.40861 4.40136 4.39412 4.48331 4.37914 4.37185 4.36459 4.35734 4.44342 4.34194 4.33474 4.32756 4.32039 4.40314 4.30549 4.29877 4.29207 4.28538 4.36451 4.27149 4.26504 4.2586 4.25217 4.32668 4.23882 4.23234 4.22586 4.2194 4.28825 4.20647 4.20032 4.19418 4.18806 4.2508 4.17566 4.17033 4.16502 4.15973 4.21656 4.14912 4.14507 4.14103 4.13701 4.18799 4.12991 4.12744 4.12497 4.12252 4.16679 4.11846 4.11739 4.11632 4.11525 4.15224 4.11377 4.11351 4.11325 4.11299 4.14166 4.11247 4.11228 4.11209 4.11191 4.13137 4.11171 4.11182 4.11195 4.11209 4.12233 4.1132 4.11433 4.11546 4.11661 4.11782 4.11778 4.11779 4.1178 4.11782 4.11783 4.12045 4.12307 4.12569 4.12832 4.12291 4.13549 4.13987 4.14425 4.14862 4.13658 4.15854 4.16405 4.16955 4.17504 4.15594 4.18625 4.19195 4.19764 4.20333 4.17635 4.21416 4.21918 4.22419 4.22921 4.19348 4.23864 4.2427 4.24676 4.25082 4.20591 4.25867 4.26234 4.26602 4.2697 4.21643 4.27779 4.28184 4.28589 4.28996 4.22869 4.29983 4.3053 4.31078 4.31627 4.24782 4.33029 4.33789 4.34549 4.35309 4.27743 4.37121 4.38033 4.38942 4.3985 4.31504 4.42176 4.43349 4.44521 4.45693 4.36617 4.48822 4.50633 4.52446 4.54262 4.44861 4.58709 4.61237 4.63769 4.66304 4.56551 4.71658 4.74646 4.77637 4.80632 4.70424 4.86603 4.89852 4.93102 4.96354 4.85535 5.02749 5.06084 5.09419 5.12753 5.01075 5.19409 5.22679 5.25948 5.29215 5.16363 5.35771 5.38999 5.42227 5.45362 5.31537 5.51429 5.55364 5.58658 5.60756 5.47051 5.66826 5.71929 5.75286 5.7636 5.62871 5.82551 5.88742 5.92095 5.92108 5.78742 5.98375 6.05603 6.08926 6.0789 5.94566 6.14207 6.22488 6.25845 6.23854 6.10606 6.30147 6.3943 6.42833 6.39949 6.26898 6.46336 6.56551 6.59913 6.5604 6.43039 6.62436 6.73578 6.76872 6.71978 6.58907 6.78242 6.9029 6.93569 6.87771 6.74756 6.93982 7.06913 7.1023 7.03655 6.90866 7.10032 7.23884 7.27234 7.19817 7.07153 7.26272 7.40999 7.44285 7.35903 7.23173 7.4228 7.57871 7.61146 7.5194 7.39248 7.58546 7.75162 7.78605 7.68698 7.56119 7.75614 7.93259 7.96887 7.86315 7.73894 7.93432 8.11981 8.15782 8.04697 7.92625 8.12254 8.31759 8.35734 8.24053 8.12236 8.32019 8.51833 8.55903 8.44195 8.3246 8.52357 8.72288 8.76557 8.65141 8.53697 8.73774 8.93884 8.98401 8.87344 8.7626 8.96357 9.16488 9.21203 9.1054 8.9985 9.2002 9.40223 9.45147 9.34808 9.24441 9.44873 9.6534 9.70522 9.60427 9.50304 9.71068 9.91869 9.97381 9.87621 9.77831 9.98854 10.1991 10.2588 10.1677 10.0763 10.2908 10.5055 10.5701 10.4847 10.3989 10.6172 10.8358 10.9054 10.8263 10.7468 10.9693 11.1921 11.267 11.1946 11.1218 11.3469 11.5725 11.6529 11.5892 11.525 11.7538 11.9795 12.0634 12.0133 11.9571 12.1907 12.4015 12.491 12.4685 12.4199 12.6605 12.8565 12.9533 12.9618 12.9217 13.1706 13.3508 13.457 13.5026 13.4747 13.7368 13.9024 14.0219 14.1121 14.1009 14.3841 14.5296 14.6601 14.79 14.7936 15.0617 15.2196 15.3767 15.5332 15.6257 15.8784 16.0243 16.1684 16.3106 16.4438 16.4579 16.4701 16.4822 16.4943 16.506 16.6668 16.8258 16.9829 17.138 17.3802 17.4447 17.4621 17.4792 17.4963 17.4844 17.2579 17.165 17.0719 16.9785 17.0161 16.9488 16.9421 16.9352 16.9281 16.974 16.8797 16.8528 16.8256 16.7981 16.8332 16.7623 16.7382 16.7139 16.6895 16.713 16.632 16.5943 16.5565 16.5186 16.5264 16.4299 16.3756 16.3213 16.2671 16.2582 16.148 16.0928 16.0376 15.9824 15.9858 15.895 15.8644 15.8337 15.8028 15.8374 15.7709 15.7655 15.7598 15.754 15.8177 15.7598 15.7585 15.7571 15.7555 15.8202 15.7473 15.7513 15.7553 15.7592 15.8556 15.7874 15.7717 15.7561 15.7403 15.7846 15.6399 15.6333 15.6269 15.6208 15.7784 15.7269 15.6697 15.6122 15.5533 15.4858 15.2012 15.1256 15.0994 15.148 15.3986 15.4371 15.3555 15.217 15.0149 14.6922 14.131 13.8907 13.8449 14.0381 14.5362 14.8186 14.7938 14.5223 14.044 13.2468 12.1751 11.7824 11.7498 12.1222 13.1506 13.9724 13.8613 13.3268 12.6671 10.9868 9.04404 9.04848 9.06985 9.10873 10.7899 11.8757 10.8173 9.75209 8.68055 7.15409 6.61902 6.74569 6.87958 7.02076 7.14627 6.722 6.27166 5.79647 5.2976 7.12611 10.6253 11.0255 11.5325 6.29561 0