# vtk DataFile Version 2.0
track0
ASCII
DATASET POLYDATA
POINTS 12539 double
-0.0205 0.001 1e-05
-0.0202034 0.000999428 1e-05
-0.019907 0.00100668 1e-05
-0.0196109 0.001024 1e-05
-0.0195828 0.00102682 1e-05
-0.0194696 0.0010387 1e-05
-0.0193567 0.00105186 1e-05
-0.0192438 0.00106632 1e-05
-0.0191312 0.0010821 1e-05
-0.0190172 0.00110068 1e-05
-0.0187132 0.00115965 1e-05
-0.0184163 0.00124727 1e-05
-0.018131 0.0013674 1e-05
-0.0180126 0.00141936 1e-05
-0.0179096 0.00146475 1e-05
-0.0178091 0.00151556 1e-05
-0.0177113 0.0015712 1e-05
-0.0176129 0.0016258 1e-05
-0.0174976 0.00168811 1e-05
-0.0174396 0.0017185 1e-05
-0.0173815 0.00174862 1e-05
-0.0173232 0.00177846 1e-05
-0.0172648 0.00180802 1e-05
-0.0171999 0.00184007 1e-05
-0.0170113 0.00193025 1e-05
-0.0168196 0.00201384 1e-05
-0.0166252 0.00209065 1e-05
-0.0164289 0.00216273 1e-05
-0.0160649 0.00229098 1e-05
-0.0160597 0.00229269 1e-05
-0.0160544 0.00229441 1e-05
-0.0160492 0.00229611 1e-05
-0.0160439 0.00229782 1e-05
-0.0160387 0.00229952 1e-05
-0.0157586 0.00239024 1e-05
-0.0154772 0.00247711 1e-05
-0.0151947 0.00256001 1e-05
-0.0149109 0.0026384 1e-05
-0.0146381 0.00270824 1e-05
-0.0145821 0.00272144 1e-05
-0.014526 0.00273444 1e-05
-0.0144699 0.00274723 1e-05
-0.0144138 0.00275993 1e-05
-0.01435 0.00277425 1e-05
-0.0141387 0.00282123 1e-05
-0.0139267 0.00286522 1e-05
-0.0137142 0.00290616 1e-05
-0.013501 0.00294395 1e-05
-0.0132934 0.00297889 1e-05
-0.0130353 0.00302064 1e-05
-0.0127767 0.00306012 1e-05
-0.0125178 0.00309731 1e-05
-0.0122585 0.00313129 1e-05
-0.0120025 0.00316132 1e-05
-0.0117547 0.00318699 1e-05
-0.0115065 0.00320927 1e-05
-0.011258 0.00322863 1e-05
-0.0110094 0.00324505 1e-05
-0.0107632 0.00325836 1e-05
-0.0106069 0.00326513 1e-05
-0.0104506 0.00327094 1e-05
-0.0102943 0.00327573 1e-05
-0.0101379 0.00327951 1e-05
-0.00957337 0.00328949 1e-05
-0.00934491 0.00328825 1e-05
-0.00911647 0.0032849 1e-05
-0.00888808 0.00327945 1e-05
-0.00865974 0.00327193 1e-05
-0.00843108 0.00326235 1e-05
-0.00821175 0.00325127 1e-05
-0.00799251 0.00323847 1e-05
-0.00777339 0.00322392 1e-05
-0.00755438 0.00320765 1e-05
-0.00733443 0.0031896 1e-05
-0.00712387 0.00317072 1e-05
-0.00691343 0.00315048 1e-05
-0.00670314 0.00312868 1e-05
-0.00649303 0.00310529 1e-05
-0.0062816 0.00308011 1e-05
-0.00607944 0.00305445 1e-05
-0.00587747 0.00302744 1e-05
-0.00567567 0.00299911 1e-05
-0.00547407 0.00296942 1e-05
-0.00527083 0.00293794 1e-05
-0.00507675 0.00290643 1e-05
-0.00488288 0.00287369 1e-05
-0.00468925 0.00283949 1e-05
-0.0044959 0.00280378 1e-05
-0.00434256 0.00277425 1e-05
-0.00433414 0.00277258 1e-05
-0.00432572 0.0027709 1e-05
-0.00431729 0.00276922 1e-05
-0.00430887 0.00276754 1e-05
-0.00430044 0.00276585 1e-05
-0.00411412 0.00272855 1e-05
-0.00392811 0.00268973 1e-05
-0.00374241 0.00264942 1e-05
-0.00355704 0.00260766 1e-05
-0.00336883 0.00256381 1e-05
-0.00318995 0.0025208 1e-05
-0.00301141 0.0024764 1e-05
-0.00283322 0.00243063 1e-05
-0.00265548 0.00238312 1e-05
-0.00247443 0.00233287 1e-05
-0.00244541 0.00232449 1e-05
-0.00241641 0.00231606 1e-05
-0.00238742 0.00230757 1e-05
-0.00235846 0.00229901 1e-05
-0.00233148 0.00229098 1e-05
-0.00218834 0.00224804 1e-05
-0.00204557 0.00220388 1e-05
-0.00190317 0.00215854 1e-05
-0.00176114 0.00211206 1e-05
-0.00161577 0.00206302 1e-05
-0.00148755 0.00201843 1e-05
-0.00135975 0.00197268 1e-05
-0.00123236 0.00192577 1e-05
-0.00110556 0.00187728 1e-05
-0.00101164 0.00184007 1e-05
-0.000967596 0.00182218 1e-05
-0.00092359 0.0018042 1e-05
-0.000879622 0.00178612 1e-05
-0.000835701 0.00176794 1e-05
-0.000791418 0.00174939 1e-05
-0.00063552 0.00168338 1e-05
-0.000480692 0.0016149 1e-05
-0.000326893 0.00154414 1e-05
-0.000174627 0.00147014 1e-05
-7.57656e-05 0.00141936 1e-05
-6.06125e-05 0.0014113 1e-05
-4.54659e-05 0.00140323 1e-05
-3.03258e-05 0.00139515 1e-05
-1.52025e-05 0.00138704 1e-05
0 0.00137883 1e-05
0.000105677 0.00132134 1e-05
0.000209783 0.00126105 1e-05
0.000312348 0.00119818 1e-05
0.000413198 0.00113259 1e-05
0.000528387 0.00105262 1e-05
0.000533594 0.00104873 1e-05
0.000538795 0.00104483 1e-05
0.000543991 0.00104093 1e-05
0.00054918 0.00103701 1e-05
0.000554264 0.00103317 1e-05
0.000650324 0.000960251 1e-05
0.000743246 0.000883375 1e-05
0.000832936 0.000802751 1e-05
0.000919481 0.000718761 1e-05
0.00096792 0.00066807 1e-05
0.000986513 0.000647733 1e-05
0.00100484 0.000627157 1e-05
0.00102292 0.00060636 1e-05
0.00104081 0.000585401 1e-05
0.00106088 0.000561446 1e-05
0.0010999 0.000513913 1e-05
0.00113789 0.000465552 1e-05
0.00117484 0.000416388 1e-05
0.00121072 0.000366445 1e-05
0.00124052 0.000323719 1e-05
0.00128474 0.000258975 1e-05
0.0013269 0.000192869 1e-05
0.001367 0.000125494 1e-05
0.0014056 5.72488e-05 1e-05
0.00143684 0 1e-05
0.00146898 -6.07085e-05 1e-05
0.00149967 -0.000122161 1e-05
0.00152909 -0.000184228 1e-05
0.00155732 -0.00024685 1e-05
0.00159752 -0.000340818 1e-05
0.0015994 -0.000345598 1e-05
0.00160128 -0.00035038 1e-05
0.00160316 -0.000355165 1e-05
0.00160502 -0.000359952 1e-05
0.00160687 -0.000364716 1e-05
0.00163846 -0.000446099 1e-05
0.00166806 -0.000528227 1e-05
0.00169567 -0.000611044 1e-05
0.00172127 -0.000694505 1e-05
0.00174315 -0.00077151 1e-05
0.00176865 -0.000862209 1e-05
0.00179244 -0.000953369 1e-05
0.00181448 -0.00104497 1e-05
0.00183467 -0.001137 1e-05
0.00185343 -0.00122487 1e-05
0.00187439 -0.00132591 1e-05
0.00189519 -0.00142698 1e-05
0.00191581 -0.00152809 1e-05
0.00193624 -0.00162924 1e-05
0.00195592 -0.00173004 1e-05
0.00197707 -0.00184263 1e-05
0.00199953 -0.00195496 1e-05
0.00202259 -0.00206717 1e-05
0.00204572 -0.00217936 1e-05
0.00206925 -0.00229306 1e-05
0.00208306 -0.00236096 1e-05
0.00209732 -0.00242878 1e-05
0.00211162 -0.00249659 1e-05
0.00212597 -0.00256439 1e-05
0.00213833 -0.00262261 1e-05
0.00215101 -0.00268221 1e-05
0.00216373 -0.0027418 1e-05
0.00217649 -0.00280139 1e-05
0.00218928 -0.00286097 1e-05
0.00220214 -0.00292062 1e-05
0.0022322 -0.0030605 1e-05
0.0022625 -0.00320033 1e-05
0.002293 -0.00334012 1e-05
0.0023237 -0.00347987 1e-05
0.0023546 -0.00362007 1e-05
0.00238893 -0.00377596 1e-05
0.00242361 -0.00393178 1e-05
0.00245865 -0.00408752 1e-05
0.00249399 -0.00424319 1e-05
0.00252979 -0.0043996 1e-05
0.0025605 -0.00453265 1e-05
0.00259163 -0.00466559 1e-05
0.00262316 -0.00479845 1e-05
0.00265507 -0.00493121 1e-05
0.00268334 -0.00504725 1e-05
0.00269424 -0.00509148 1e-05
0.00270519 -0.0051357 1e-05
0.00271617 -0.0051799 1e-05
0.0027272 -0.0052241 1e-05
0.0027383 -0.00526839 1e-05
0.00278691 -0.00546201 1e-05
0.00283659 -0.00565535 1e-05
0.00288741 -0.00584839 1e-05
0.00293944 -0.00604112 1e-05
0.00299328 -0.00623664 1e-05
0.00304114 -0.00640692 1e-05
0.00309017 -0.00657686 1e-05
0.00314033 -0.00674647 1e-05
0.00319135 -0.00691582 1e-05
0.00323259 -0.00705011 1e-05
0.00324915 -0.00710322 1e-05
0.00326581 -0.00715629 1e-05
0.00328257 -0.00720934 1e-05
0.00329943 -0.00726235 1e-05
0.00331647 -0.00731566 1e-05
0.00339371 -0.00755601 1e-05
0.00347288 -0.00779573 1e-05
0.00355409 -0.00803476 1e-05
0.00363713 -0.00827316 1e-05
0.00372412 -0.00851769 1e-05
0.00373652 -0.00855176 1e-05
0.00374895 -0.00858581 1e-05
0.00376143 -0.00861985 1e-05
0.00377395 -0.00865387 1e-05
0.00378611 -0.00868681 1e-05
0.00385732 -0.00887915 1e-05
0.0039296 -0.00907109 1e-05
0.00400301 -0.0092626 1e-05
0.0040776 -0.00945366 1e-05
0.00415507 -0.00964869 1e-05
0.00419284 -0.00974202 1e-05
0.00423092 -0.00983524 1e-05
0.00426932 -0.00992832 1e-05
0.00430802 -0.0100213 1e-05
0.00434393 -0.0101068 1e-05
0.00440095 -0.0102413 1e-05
0.00445858 -0.0103756 1e-05
0.00451685 -0.0105095 1e-05
0.00457577 -0.0106433 1e-05
0.00463663 -0.0107795 1e-05
0.00469052 -0.0108984 1e-05
0.00474499 -0.0110171 1e-05
0.00480004 -0.0111355 1e-05
0.0048557 -0.0112536 1e-05
0.00490609 -0.0113591 1e-05
0.00495937 -0.0114693 1e-05
0.00501318 -0.0115792 1e-05
0.00506754 -0.0116889 1e-05
0.00512244 -0.0117983 1e-05
0.00517931 -0.0119101 1e-05
0.00523797 -0.0120239 1e-05
0.00529728 -0.0121375 1e-05
0.00535725 -0.0122506 1e-05
0.00541789 -0.0123634 1e-05
0.00547262 -0.0124638 1e-05
0.00553637 -0.0125791 1e-05
0.00560083 -0.012694 1e-05
0.00566601 -0.0128086 1e-05
0.00573194 -0.0129226 1e-05
0.00580111 -0.0130405 1e-05
0.0058496 -0.0131218 1e-05
0.0058985 -0.0132028 1e-05
0.00594781 -0.0132836 1e-05
0.00599755 -0.0133641 1e-05
0.00604356 -0.0134378 1e-05
0.00613615 -0.0135843 1e-05
0.00623016 -0.01373 1e-05
0.00632559 -0.0138747 1e-05
0.00642249 -0.0140184 1e-05
0.00652745 -0.0141707 1e-05
0.00654575 -0.0141966 1e-05
0.0065641 -0.0142225 1e-05
0.00658249 -0.0142483 1e-05
0.00660094 -0.0142741 1e-05
0.00661893 -0.0142992 1e-05
0.0067349 -0.0144599 1e-05
0.00685283 -0.0146193 1e-05
0.00697276 -0.0147771 1e-05
0.00709475 -0.0149334 1e-05
0.00719878 -0.015063 1e-05
0.00723788 -0.0151105 1e-05
0.00727717 -0.0151579 1e-05
0.00731666 -0.0152052 1e-05
0.00735635 -0.0152522 1e-05
0.00739767 -0.0153008 1e-05
0.00747476 -0.0153906 1e-05
0.0075526 -0.0154798 1e-05
0.00763119 -0.0155683 1e-05
0.00771052 -0.0156562 1e-05
0.00778313 -0.0157352 1e-05
0.00790091 -0.0158613 1e-05
0.00802023 -0.015986 1e-05
0.0081411 -0.0161092 1e-05
0.00826351 -0.0162308 1e-05
0.00837203 -0.0163359 1e-05
0.00839208 -0.0163549 1e-05
0.00841217 -0.0163738 1e-05
0.0084323 -0.0163927 1e-05
0.00845246 -0.0164116 1e-05
0.00847311 -0.0164308 1e-05
0.00857159 -0.0165221 1e-05
0.00867098 -0.0166124 1e-05
0.00877127 -0.0167017 1e-05
0.00887245 -0.01679 1e-05
0.00896551 -0.0168696 1e-05
0.00908513 -0.01697 1e-05
0.00920589 -0.0170691 1e-05
0.00932777 -0.0171667 1e-05
0.00945075 -0.017263 1e-05
0.0095636 -0.0173493 1e-05
0.00962012 -0.0173916 1e-05
0.00967685 -0.0174336 1e-05
0.0097338 -0.0174753 1e-05
0.00979095 -0.0175167 1e-05
0.00985235 -0.0175608 1e-05
0.00991515 -0.0176053 1e-05
0.00997819 -0.0176495 1e-05
0.0100415 -0.0176934 1e-05
0.010105 -0.0177369 1e-05
0.0101663 -0.0177785 1e-05
0.0102878 -0.0178598 1e-05
0.0104101 -0.01794 1e-05
0.0105331 -0.0180189 1e-05
0.0106569 -0.0180967 1e-05
0.0107738 -0.0181685 1e-05
0.0108962 -0.018242 1e-05
[...]
POINT_DATA 12539
 FIELD attributes 1
U 3 12539 float
9.9251 	-0.019138 	0 9.63514 	0.235617 	0 9.33315 	0.545941 	0 9.02097 	0.904599 	0 8.99006 	0.944366 	0 8.81608 	1.02678 	0 8.63562 	1.10664 	0 8.44857 	1.18388 	0 8.31272 	1.35449 	0 8.20358 	1.59172 	0 7.66175 	2.26087 	0 7.041 	2.96429 	0 6.3739 	2.79721 	0 6.09265 	2.68489 	0 5.93338 	3.00181 	0 5.7937 	3.29481 	0 5.81154 	3.22289 	0 5.82775 	3.15007 	0 5.84471 	3.06425 	0 5.8323 	3.02262 	0 5.81942 	2.98076 	0 5.80607 	2.93869 	0 5.88605 	2.90544 	0 6.00553 	2.87124 	0 5.99146 	2.61339 	0 5.97675 	2.36065 	0 6.00669 	2.20642 	0 6.07766 	2.14132 	0 6.21819 	2.03175 	0 6.21548 	2.02547 	0 6.21277 	2.0192 	0 6.21181 	2.01526 	0 6.21274 	2.01382 	0 6.21367 	2.01238 	0 6.23866 	1.92633 	0 6.25712 	1.83603 	0 6.21946 	1.71773 	0 6.11183 	1.56479 	0 6.00559 	1.41571 	0 5.97305 	1.38519 	0 5.94081 	1.35484 	0 5.93806 	1.34342 	0 5.93517 	1.33189 	0 5.93172 	1.31868 	0 5.85693 	1.21575 	0 5.78164 	1.11341 	0 5.70585 	1.01168 	0 5.69661 	0.958938 	0 5.70799 	0.922924 	0 5.70718 	0.871569 	0 5.70443 	0.819556 	0 5.69958 	0.746856 	0 5.68867 	0.66722 	0 5.67411 	0.587727 	0 5.64633 	0.506836 	0 5.65243 	0.440426 	0 5.65553 	0.373441 	0 5.65512 	0.305688 	0 5.66034 	0.245229 	0 5.6704 	0.21092 	0 5.68244 	0.174192 	0 5.69345 	0.137506 	0 5.70344 	0.100863 	0 5.73601 	-0.0311961 	0 5.75918 	-0.0845852 	0 5.78044 	-0.137842 	0 5.79941 	-0.190878 	0 5.81609 	-0.243691 	0 5.83461 	-0.294967 	0 5.86228 	-0.342158 	0 5.89025 	-0.391066 	0 5.9164 	-0.439564 	0 5.94075 	-0.487657 	0 5.96984 	-0.535126 	0 5.99524 	-0.576704 	0 6.02593 	-0.624751 	0 6.05672 	-0.674106 	0 6.09445 	-0.725811 	0 6.13544 	-0.77891 	0 6.17295 	-0.825444 	0 6.20912 	-0.871537 	0 6.24691 	-0.920023 	0 6.28549 	-0.973494 	0 6.32293 	-1.02684 	0 6.35899 	-1.07361 	0 6.40701 	-1.13176 	0 6.45723 	-1.19261 	0 6.50609 	-1.25299 	0 6.54385 	-1.30057 	0 6.5454 	-1.30271 	0 6.54695 	-1.30486 	0 6.54849 	-1.307 	0 6.55046 	-1.30934 	0 6.55299 	-1.31195 	0 6.60321 	-1.37821 	0 6.65156 	-1.44396 	0 6.69843 	-1.50883 	0 6.74477 	-1.5715 	0 6.79147 	-1.633 	0 6.83374 	-1.69931 	0 6.87635 	-1.76619 	0 6.94743 	-1.85724 	0 7.0171 	-1.94746 	0 7.09156 	-2.04754 	0 7.10359 	-2.0657 	0 7.11464 	-2.08429 	0 7.12348 	-2.10394 	0 7.13226 	-2.12355 	0 7.14037 	-2.14178 	0 7.19868 	-2.2267 	0 7.25612 	-2.31041 	0 7.31271 	-2.39296 	0 7.36222 	-2.48368 	0 7.41085 	-2.5773 	0 7.45187 	-2.66756 	0 7.49549 	-2.76016 	0 7.58983 	-2.90261 	0 7.6835 	-3.04408 	0 7.75272 	-3.14865 	0 7.77286 	-3.17633 	0 7.7929 	-3.20383 	0 7.81825 	-3.23733 	0 7.86269 	-3.29251 	0 7.90746 	-3.34801 	0 8.07484 	-3.57149 	0 8.24047 	-3.79147 	0 8.29889 	-4.03333 	-6.37275e-22 8.32654 	-4.27714 	-1.44563e-21 8.34156 	-4.43415 	-1.98474e-21 8.36538 	-4.4555 	-1.98173e-21 8.38921 	-4.47682 	-1.97863e-21 8.40199 	-4.50617 	-2.02507e-21 8.40701 	-4.54113 	-2.10625e-21 8.41209 	-4.57627 	-2.18785e-21 8.48795 	-4.91555 	1.01425e-20 8.56425 	-5.2501 	2.229e-20 8.52295 	-5.54314 	2.2635e-20 8.35321 	-5.79893 	9.94173e-21 8.16272 	-6.09899 	-4.56581e-21 8.15333 	-6.11059 	-4.62337e-21 8.14395 	-6.1222 	-4.68088e-21 8.13366 	-6.13383 	-4.67194e-21 8.12234 	-6.14549 	-4.58891e-21 8.11126 	-6.15694 	-4.50736e-21 7.91701 	-6.54989 	-4.21085e-21 7.72945 	-6.94812 	-3.87072e-21 7.44245 	-7.22273 	-1.8549e-21 7.07525 	-7.40418 	1.52631e-21 6.86332 	-7.50729 	3.55233e-21 6.81837 	-7.65467 	6.07958e-21 6.76825 	-7.78741 	8.08582e-21 6.68534 	-7.8325 	6.99528e-21 6.60289 	-7.87806 	5.91892e-21 6.50987 	-7.93026 	4.71422e-21 6.32896 	-8.0568 	3.68445e-21 6.15054 	-8.18516 	2.69795e-21 5.97471 	-8.31528 	1.7551e-21 5.84052 	-8.37476 	2.94933e-21 5.74027 	-8.404 	4.62375e-21 5.53366 	-8.67681 	5.47364e-21 5.33121 	-8.95727 	6.37337e-21 5.13379 	-9.07672 	6.02362e-21 4.93531 	-9.04293 	3.73331e-21 4.77186 	-9.01486 	1.79354e-21 4.66667 	-9.34517 	6.06793e-21 4.49913 	-9.48965 	7.87448e-21 4.30368 	-9.54815 	8.52449e-21 4.11159 	-9.61092 	9.20081e-21 3.83083 	-9.71065 	1.02459e-20 3.81843 	-9.71666 	1.02568e-20 3.80604 	-9.72269 	1.0268e-20 3.79367 	-9.72875 	1.02795e-20 3.78184 	-9.73466 	1.03024e-20 3.78 	-9.73758 	1.05314e-20 3.52515 	-9.78137 	9.20387e-21 3.2763 	-9.82701 	7.36537e-21 3.02985 	-9.87805 	5.43981e-21 2.81646 	-9.91506 	2.89162e-21 2.77144 	-9.85869 	-2.12251e-21 2.57539 	-9.86657 	-5.32579e-21 2.37314 	-9.86451 	-7.87019e-21 2.15478 	-9.81959 	-8.31745e-21 2.06087 	-9.65447 	-3.68665e-21 1.97083 	-9.49859 	7.27557e-22 1.92222 	-9.34179 	1.4762e-20 1.87349 	-9.18552 	2.87989e-20 1.82407 	-9.02989 	2.8031e-20 1.72639 	-8.84669 	1.12867e-20 1.62814 	-8.6662 	-5.42331e-21 1.68487 	-8.42692 	-1.52549e-20 1.69287 	-8.23747 	-1.88061e-20 1.66676 	-8.08333 	-1.80248e-20 1.6407 	-7.92903 	-1.72349e-20 1.57729 	-7.75278 	-1.25383e-20 1.60956 	-7.65492 	-6.82154e-21 1.59879 	-7.58049 	-5.15077e-21 1.58804 	-7.506 	-3.48036e-21 1.57733 	-7.43144 	-1.81031e-21 1.56814 	-7.36734 	-3.76197e-22 1.55834 	-7.30005 	1.16418e-21 1.54856 	-7.2327 	2.70446e-21 1.53879 	-7.1653 	4.24464e-21 1.52905 	-7.09783 	5.78471e-21 1.51886 	-7.06756 	7.41937e-21 1.50022 	-6.92279 	1.44982e-20 1.48149 	-6.79045 	1.59002e-20 1.46287 	-6.65785 	1.7321e-20 1.44426 	-6.55376 	1.09515e-20 1.42554 	-6.47326 	-1.96376e-21 1.40787 	-6.32624 	-1.34234e-20 1.39039 	-6.17891 	-2.48802e-20 1.37615 	-6.06118 	-2.36144e-20 1.36473 	-5.96276 	-1.06211e-20 1.35341 	-5.86361 	2.43597e-21 1.34632 	-5.74924 	1.10325e-20 1.34126 	-5.65209 	1.01043e-20 1.33736 	-5.56391 	4.14808e-21 1.3337 	-5.47551 	-1.85215e-21 1.33069 	-5.39801 	-7.14076e-21 1.32894 	-5.36884 	-7.03815e-21 1.32721 	-5.33965 	-6.93211e-21 1.3255 	-5.31043 	-6.82256e-21 1.32354 	-5.28405 	-7.56122e-21 1.32119 	-5.26174 	-9.54288e-21 1.32032 	-5.13842 	-1.98908e-20 1.3213 	-5.01954 	-2.41655e-20 1.3228 	-4.90021 	-2.85412e-20 1.32359 	-4.80599 	-2.04889e-20 1.32471 	-4.7129 	-1.09099e-20 1.33116 	-4.61413 	-7.21521e-21 1.33692 	-4.52039 	-4.18346e-21 1.33897 	-4.44456 	-3.40273e-21 1.34138 	-4.36868 	-2.64536e-21 1.3436 	-4.30836 	-2.06328e-21 1.34456 	-4.28371 	-1.80941e-21 1.34556 	-4.25905 	-1.55803e-21 1.3466 	-4.23438 	-1.3092e-21 1.34681 	-4.21274 	-3.38358e-22 1.34696 	-4.19131 	7.21679e-22 1.35098 	-4.09078 	4.32667e-22 1.35578 	-3.9902 	1.37038e-22 1.35696 	-3.89591 	3.99197e-22 1.35457 	-3.8078 	1.22841e-21 1.35274 	-3.71722 	2.0731e-21 1.35263 	-3.70306 	1.86886e-21 1.35253 	-3.6889 	1.66457e-21 1.35283 	-3.67758 	1.58661e-21 1.35321 	-3.66669 	1.52782e-21 1.35358 	-3.65614 	1.47099e-21 1.35047 	-3.58592 	8.75596e-22 1.3477 	-3.51569 	2.79222e-22 1.34573 	-3.44737 	-2.69576e-22 1.34646 	-3.38936 	-5.58243e-22 1.3476 	-3.33007 	-8.52887e-22 1.34868 	-3.30137 	-1.27512e-21 1.34987 	-3.27268 	-1.69677e-21 1.3511 	-3.24543 	-1.4399e-21 1.35242 	-3.21867 	-9.55039e-22 1.35372 	-3.19406 	-5.05675e-22 1.35385 	-3.15409 	-3.17131e-22 1.35416 	-3.11417 	-1.27867e-22 1.35493 	-3.07476 	5.12205e-23 1.35649 	-3.03643 	2.06617e-22 1.35831 	-2.99734 	3.65966e-22 1.36029 	-2.96353 	3.58036e-22 1.36245 	-2.92978 	3.50978e-22 1.3656 	-2.89786 	4.29255e-22 1.36944 	-2.8671 	5.60167e-22 1.37306 	-2.83961 	6.78733e-22 1.37473 	-2.8085 	1.037e-21 1.37654 	-2.77743 	1.39888e-21 1.3791 	-2.74761 	1.42094e-21 1.38251 	-2.71924 	1.04503e-21 1.38617 	-2.69021 	6.60689e-22 1.39031 	-2.661 	5.35614e-22 1.39464 	-2.63184 	4.10914e-22 1.39939 	-2.60313 	4.03929e-22 1.40459 	-2.57492 	5.28727e-22 1.40942 	-2.54981 	6.41407e-22 1.4135 	-2.52032 	4.94552e-22 1.41778 	-2.4909 	3.46114e-22 1.42273 	-2.46199 	2.84078e-22 1.42817 	-2.43343 	2.75032e-22 1.43403 	-2.4039 	2.64521e-22 1.43836 	-2.38374 	1.66821e-22 1.44281 	-2.36362 	6.88131e-23 1.44761 	-2.34391 	0 1.45307 	-2.32511 	0 1.45819 	-2.3079 	0 1.46585 	-2.27146 	0 1.47388 	-2.23515 	0 1.48344 	-2.20073 	0 1.49372 	-2.16698 	0 1.50511 	-2.13115 	0 1.50717 	-2.1251 	0 1.50925 	-2.11906 	0 1.51137 	-2.11305 	0 1.51367 	-2.10722 	0 1.51592 	-2.10157 	0 1.52778 	-2.06419 	0 1.54017 	-2.02704 	-5.58527e-24 1.55413 	-1.99059 	-6.35309e-23 1.56947 	-1.95511 	-1.2592e-22 1.58282 	-1.9256 	-1.8192e-22 1.58696 	-1.91445 	-3.12094e-22 1.59118 	-1.90336 	-4.20981e-22 1.59591 	-1.89262 	-2.37056e-22 1.60069 	-1.88192 	-5.35609e-23 1.6057 	-1.87086 	1.36033e-22 1.61523 	-1.85055 	4.23859e-22 1.62494 	-1.83035 	7.10485e-22 1.63486 	-1.81027 	9.95877e-22 1.64584 	-1.79091 	6.46926e-22 1.65607 	-1.77353 	2.57058e-22 1.66997 	-1.74496 	1.29632e-22 1.68428 	-1.71665 	5.19401e-24 1.70042 	-1.68956 	2.74176e-24 1.71694 	-1.66274 	1.86664e-25 1.73234 	-1.63939 	3.34036e-23 1.73475 	-1.63504 	1.32839e-23 1.73724 	-1.63076 	-5.61692e-24 1.73991 	-1.62658 	-2.21404e-23 1.74259 	-1.62241 	-3.8673e-23 1.74533 	-1.61816 	-5.55788e-23 1.75857 	-1.59807 	-8.33599e-23 1.77204 	-1.57814 	-1.11929e-22 1.78574 	-1.55838 	-1.41287e-22 1.80041 	-1.53964 	-2.23869e-22 1.81436 	-1.52313 	-3.2603e-22 1.82969 	-1.50072 	-1.95575e-22 1.8453 	-1.47852 	-6.38778e-23 1.86239 	-1.45787 	-1.48444e-23 1.8804 	-1.43769 	-2.43415e-23 1.89731 	-1.41958 	-6.08904e-23 1.90456 	-1.41 	-1.82081e-23 1.91222 	-1.40085 	1.88151e-25 1.92021 	-1.39202 	5.16332e-25 1.92824 	-1.38324 	8.44736e-25 1.9369 	-1.37389 	1.19651e-24 1.94585 	-1.36446 	1.3583e-24 1.95485 	-1.35509 	1.52184e-24 1.96392 	-1.34577 	1.68713e-24 1.97324 	-1.33644 	8.12421e-24 1.98261 	-1.32738 	2.4367e-23 1.99894 	-1.31077 	4.0873e-22 2.01579 	-1.29398 	6.71884e-22 2.03321 	-1.27702 	7.95167e-22 2.05182 	-1.25987 	4.56329e-22 2.06946 	-1.24397 	1.36179e-22 2.08579 	-1.22878 	1.014e-22 2.10255 	-1.21367 	8.63337e-23 2.12021 	-1.19845 	1.29285e-22 2.13809 	-1.18333 	1.75217e-22 2.15582 	-1.16847 	2.49155e-22 2.16406 	-1.16141 	3.88113e-22 2.17276 	-1.15423 	3.73277e-22 2.18157 	-1.14706 	3.33209e-22 2.19041 	-1.13993 	2.9338e-22 2.20001 	-1.13227 	2.50574e-22 2.2085 	-1.12562 	2.4955e-22 2.21703 	-1.11901 	2.48457e-22 2.22559 	-1.11243 	2.47294e-22 2.23422 	-1.106 	2.41689e-22 2.24314 	-1.10079 	1.9568e-22 2.2598 	-1.0868 	6.008e-24 2.27723 	-1.07368 	-9.42913e-23 2.29477 	-1.06071 	-1.94132e-22 2.31303 	-1.04929 	-1.48015e-22 2.33112 	-1.03938 	-4.44619e-24 2.34759 	-1.02621 	-1.36062e-24 2.36417 	-1.01317 	1.54168e-24 2.38171 	-1.00191 	-1.92711e-24 2.40021 	-0.992261 	-7.74797e-24 2.41823 	-0.983022 	-1.34604e-23 2.43455 	-0.970625 	-9.08328e-23 2.45145 	-0.95947 	-1.13509e-22 2.46895 	-0.949569 	-8.06187e-23 2.48651 	-0.93977 	-4.80543e-23 2.50442 	-0.931084 	5.98918e-23 2.5161 	-0.922891 	1.43701e-22 2.52844 	-0.916112 	1.21219e-22 2.54081 	-0.90938 	9.89612e-23 2.55322 	-0.902697 	7.69261e-23 2.56712 	-0.895283 	5.25501e-23 2.57169 	-0.89289 	4.64961e-23 2.57626 	-0.890503 	4.04637e-23 2.58084 	-0.888122 	3.44527e-23 2.58542 	-0.885748 	2.84631e-23 2.5902 	-0.882882 	4.26124e-23 2.60698 	-0.874605 	3.81299e-23 2.62406 	-0.865705 	3.08305e-23 2.64119 	-0.85689 	2.35685e-23 2.6584 	-0.848112 	1.65147e-23 2.67642 	-0.837326 	1.82182e-23 2.69243 	-0.831012 	1.15626e-22 2.70893 	-0.823548 	1.68146e-22 2.72584 	-0.815153 	1.83609e-22 2.74367 	-0.805114 	1.1663e-22 2.76159 	-0.794773 	2.56577e-23 2.77733 	-0.788842 	-6.89143e-24 2.7931 	-0.782975 	-3.94732e-23 2.80997 	-0.774944 	-4.72967e-23 2.82795 	-0.764824 	-3.07145e-23 2.84578 	-0.754893 	-1.42753e-23 2.86122 	-0.749307 	-3.38547e-23 2.87691 	-0.74346 	-4.74193e-23 2.89379 	-0.735864 	-2.67206e-23 2.9113 	-0.726954 	1.61693e-24 2.92905 	-0.717376 	3.42334e-23 2.9442 	-0.712084 	-1.08602e-23 2.96056 	-0.705213 	-1.04319e-23 2.97729 	-0.697966 	2.18809e-24 2.99404 	-0.690785 	1.46657e-23 3.01152 	-0.681974 	6.0114e-23 3.02701 	-0.676164 	4.50285e-23 3.04357 	-0.669172 	1.717e-23 3.06016 	-0.662241 	-1.07125e-23 3.07677 	-0.655371 	-3.86182e-23 3.09334 	-0.6485 	-6.63388e-23 3.0944 	-0.648111 	-7.37678e-23 3.09553 	-0.647646 	-7.18918e-23 3.09666 	-0.647181 	-7.00177e-23 3.09779 	-0.646716 	-6.81457e-23 3.09894 	-0.646247 	-6.62568e-23 3.11425 	-0.63999 	-4.71306e-23 3.12959 	-0.633782 	-2.82751e-23 3.14494 	-0.627621 	-9.68702e-24 3.16031 	-0.621508 	8.63719e-24 3.18263 	-0.617437 	-4.87851e-23 3.19221 	-0.609374 	-4.37908e-23 3.20855 	-0.602964 	-2.91061e-23 3.2249 	-0.596605 	-1.44373e-23 3.24149 	-0.590352 	0 3.2722 	-0.587923 	0 3.27726 	-0.57918 	0 3.29058 	-0.572383 	-7.30917e-24 3.30678 	-0.566291 	-1.71726e-23 3.33044 	-0.562159 	-4.33131e-23 3.36152 	-0.560022 	-8.57855e-23 3.36586 	-0.55149 	-2.8449e-22 3.37218 	-0.543448 	-4.58977e-22 3.38819 	-0.537633 	-5.15432e-22 3.41903 	-0.535624 	-3.66338e-22 3.45049 	-0.533849 	-2.07206e-22 3.45398 	-0.525481 	-1.25366e-22 3.45745 	-0.517151 	-4.35276e-23 3.47505 	-0.512192 	-2.49065e-23 3.50709 	-0.510775 	-4.71076e-23 3.539 	-0.50939 	-6.93504e-23 3.54155 	-0.501196 	2.6749e-22 3.54409 	-0.493037 	6.04283e-22 3.56203 	-0.488661 	5.52814e-22 3.5945 	-0.487589 	2.43086e-22 3.62686 	-0.486543 	-6.5657e-23 3.62841 	-0.478489 	-3.36467e-23 3.63302 	-0.471209 	-4.36878e-24 3.65215 	-0.46747 	1.13813e-23 3.68103 	-0.465843 	-2.17945e-23 3.71383 	-0.465094 	-7.48932e-23 3.71438 	-0.457137 	-7.94194e-22 3.72478 	-0.451555 	-9.90208e-22 3.74356 	-0.447991 	-7.41441e-22 3.76654 	-0.445334 	-3.12161e-22 3.79972 	-0.444868 	5.57263e-22 3.7993 	-0.436984 	1.18816e-21 3.81562 	-0.433074 	1.17146e-21 3.83403 	-0.429682 	1.07324e-21 3.85242 	-0.426305 	9.75463e-22 3.88442 	-0.425814 	4.16275e-22 3.88728 	-0.419013 	3.00322e-22 3.90534 	-0.415775 	2.1376e-22 3.92338 	-0.412551 	1.27105e-22 3.94139 	-0.409342 	4.03584e-23 3.96782 	-0.407908 	0 3.97616 	-0.402676 	2.525e-23 3.99386 	-0.399575 	7.26941e-23 4.01152 	-0.396486 	1.20108e-22 4.02916 	-0.393411 	1.67493e-22 4.0499 	-0.390987 	2.23227e-22 4.05646 	-0.388479 	2.10074e-22 4.06647 	-0.386742 	1.18009e-22 4.07648 	-0.38501 	2.60499e-23 4.08647 	-0.383281 	-6.5803e-23 4.09723 	-0.381424 	-1.64598e-22 4.10437 	-0.380193 	-2.1922e-22 4.11152 	-0.378965 	-2.73844e-22 4.11866 	-0.377738 	-3.2847e-22 4.12579 	-0.376513 	-3.83098e-22 4.12549 	-0.373799 	-3.65613e-22 4.15012 	-0.372475 	-8.00871e-22 4.1671 	-0.369573 	-1.0861e-21 4.18405 	-0.366682 	-1.3709e-21 4.20097 	-0.3638 	-1.65529e-21 4.19139 	-0.355914 	-1.43672e-21 4.23514 	-0.358446 	-2.17877e-21 4.25174 	-0.355667 	-1.93765e-21 4.26832 	-0.352898 	-1.69531e-21 4.28486 	-0.350137 	-1.45177e-21 4.25459 	-0.339001 	1.50023e-22 4.31869 	-0.345208 	1.70635e-21 4.33492 	-0.342544 	2.08248e-21 4.35112 	-0.339889 	2.45744e-21 4.3673 	-0.337241 	2.83125e-21 4.31511 	-0.322963 	1.56569e-21 4.40077 	-0.332727 	1.94e-21 4.41664 	-0.330148 	1.62857e-21 4.43248 	-0.327576 	1.31659e-21 4.4377 	-0.323282 	9.91022e-22 4.37305 	-0.307609 	5.78922e-22 4.46315 	-0.317747 	-1.2162e-21 4.49691 	-0.318352 	-1.68882e-21 4.5124 	-0.315874 	-1.73236e-21 4.49761 	-0.308672 	-1.34499e-21 4.42849 	-0.292994 	-1.84614e-22 4.52231 	-0.303372 	-1.13382e-22 4.5757 	-0.307188 	-3.88044e-23 4.59083 	-0.304806 	3.88763e-23 4.55506 	-0.294804 	-3.72536e-22 4.48144 	-0.279152 	-1.14726e-21 4.57898 	-0.289743 	-1.65636e-21 4.6529 	-0.296647 	-2.094e-21 4.66766 	-0.294348 	-2.35161e-21 4.60999 	-0.28164 	-1.93195e-21 4.53185 	-0.266013 	-1.32038e-21 4.63306 	-0.276798 	-7.62968e-22 4.72831 	-0.286677 	-2.42719e-22 4.74268 	-0.284474 	-2.26669e-22 4.66231 	-0.269163 	-3.7591e-22 4.5797 	-0.253568 	-5.29604e-22 4.68456 	-0.264557 	-1.5743e-21 4.78938 	-0.275528 	-2.61871e-21 4.79919 	-0.272976 	-2.45333e-21 4.71215 	-0.257309 	-1.34688e-21 4.62516 	-0.241672 	-2.39848e-22 4.73371 	-0.252865 	-9.37511e-23 4.84222 	-0.264038 	5.22385e-23 4.85116 	-0.261664 	7.85484e-23 4.75975 	-0.245932 	-5.63921e-23 4.66837 	-0.23023 	-1.90978e-22 4.78068 	-0.24165 	-1.16177e-22 4.89294 	-0.25305 	-4.16023e-23 4.90103 	-0.250856 	0 4.80519 	-0.235086 	0 4.70938 	-0.219345 	0 4.82551 	-0.23101 	0 4.94157 	-0.242653 	0 4.94883 	-0.240628 	1.35612e-22 4.84852 	-0.224789 	3.76714e-22 4.74825 	-0.208979 	6.17774e-22 4.86819 	-0.22083 	1.65464e-21 4.98808 	-0.232659 	2.69153e-21 4.99452 	-0.230744 	2.87637e-21 4.88976 	-0.214792 	2.06238e-21 4.78504 	-0.198868 	1.24761e-21 4.90878 	-0.210962 	8.06819e-22 5.03245 	-0.223035 	3.6636e-22 5.03562 	-0.220951 	2.23327e-22 4.92892 	-0.2052 	4.32539e-22 4.81979 	-0.189167 	6.49484e-22 4.94733 	-0.201529 	4.44575e-22 5.05785 	-0.211934 	1.64226e-22 5.05958 	-0.209907 	-6.01695e-22 4.96603 	-0.196325 	-1.19345e-21 4.85246 	-0.18033 	-1.74794e-21 4.98363 	-0.192956 	-2.48392e-21 5.07938 	-0.201615 	-3.11005e-21 5.08083 	-0.199742 	-3.44203e-21 5.00089 	-0.188238 	-3.40318e-21 4.88301 	-0.172257 	-3.19043e-21 5.01778 	-0.18502 	-4.79201e-21 5.09844 	-0.19185 	-5.6002e-21 5.09963 	-0.18998 	-5.2412e-21 5.03369 	-0.180366 	-3.95803e-21 4.91159 	-0.164283 	-1.90058e-21 5.04996 	-0.177196 	-2.35757e-23 5.11529 	-0.182225 	9.99517e-22 5.11626 	-0.180314 	1.26993e-21 5.0646 	-0.172459 	8.44807e-22 4.93835 	-0.156185 	-5.66325e-22 5.08039 	-0.169328 	-5.2345e-22 5.13029 	-0.172688 	-2.21912e-22 5.1311 	-0.170842 	2.17684e-22 5.09394 	-0.164787 	5.47195e-22 4.96354 	-0.148395 	6.06423e-22 5.10932 	-0.161845 	-7.87869e-22 5.14367 	-0.16363 	-1.07855e-21 5.14434 	-0.161891 	-1.03548e-21 5.12184 	-0.157619 	-7.57914e-22 4.98725 	-0.141083 	6.53781e-22 5.13664 	-0.15472 	6.11169e-22 5.1553 	-0.154916 	-7.24501e-23 5.15583 	-0.15325 	-8.4524e-22 5.14812 	-0.150701 	-1.60465e-21 5.00944 	-0.134078 	-2.15381e-21 5.16243 	-0.147923 	-2.90261e-21 5.16534 	-0.146613 	-2.90588e-21 5.16572 	-0.145049 	-2.89635e-21 5.16615 	-0.143493 	-2.88686e-21 5.03012 	-0.127532 	-2.49564e-21 5.17359 	-0.140304 	-2.87237e-21 5.17376 	-0.138828 	-1.97443e-21 5.17398 	-0.137359 	-1.07675e-21 5.17426 	-0.135897 	-1.79325e-22 5.0493 	-0.121436 	1.25164e-21 5.18064 	-0.132847 	3.36649e-21 5.18067 	-0.131382 	3.87391e-21 5.18075 	-0.129925 	4.38165e-21 5.18089 	-0.128475 	4.88972e-21 5.06706 	-0.115398 	3.69455e-21 5.18634 	-0.125504 	3.97553e-21 5.18626 	-0.124043 	3.86336e-21 5.18624 	-0.12259 	3.7511e-21 5.18628 	-0.121145 	3.63876e-21 5.08355 	-0.109371 	3.15257e-21 5.19093 	-0.118296 	2.55706e-21 5.19078 	-0.116888 	1.91103e-21 5.1907 	-0.115488 	1.2648e-21 5.19067 	-0.114095 	6.18386e-22 5.09896 	-0.103573 	2.18788e-22 5.1946 	-0.111314 	-1.18698e-21 5.1944 	-0.109972 	-1.35311e-21 5.19425 	-0.108637 	-1.51979e-21 5.19415 	-0.107309 	-1.68702e-21 5.11328 	-0.0980555 	-6.8791e-22 5.19731 	-0.104655 	-5.81715e-22 5.19704 	-0.103371 	-7.88956e-22 5.19682 	-0.102093 	-9.96109e-22 5.19666 	-0.100821 	-1.20317e-21 5.1265 	-0.0927901 	-1.59324e-21 5.19919 	-0.0983203 	-2.98709e-21 5.19886 	-0.0970804 	-3.05874e-21 5.19859 	-0.0958467 	-3.13103e-21 5.19837 	-0.0946191 	-3.20395e-21 5.13871 	-0.0877069 	-2.24911e-21 5.20031 	-0.0922294 	-2.7523e-21 5.19992 	-0.0910484 	-2.73217e-21 5.19958 	-0.0898734 	-2.71236e-21 5.19929 	-0.0887042 	-2.69288e-21 5.14987 	-0.0828594 	-2.20268e-21 5.20061 	-0.0864631 	-2.47886e-21 5.20012 	-0.0854287 	-2.2197e-21 5.19969 	-0.0843994 	-1.96087e-21 5.1993 	-0.0833753 	-1.70236e-21 5.15984 	-0.0786799 	-9.76813e-22 5.1999 	-0.0814197 	-2.37966e-22 5.19932 	-0.0805284 	-6.27201e-23 5.19879 	-0.0796416 	1.12934e-22 5.1983 	-0.0787592 	2.88995e-22 5.16866 	-0.0751774 	-3.12685e-23 5.19827 	-0.0769385 	-6.58221e-22 5.19763 	-0.076018 	-7.31812e-22 5.19703 	-0.0751021 	-8.05981e-22 5.19648 	-0.0741908 	-8.80725e-22 5.17656 	-0.0715074 	-5.98963e-22 5.19595 	-0.0722358 	-2.55724e-22 5.19525 	-0.071191 	5.84537e-23 5.19461 	-0.0701515 	3.72616e-22 5.19401 	-0.0691172 	6.86764e-22 5.18352 	-0.0671872 	9.86473e-22 5.19309 	-0.0670448 	1.29163e-21 5.1924 	-0.0659996 	1.61575e-21 5.19176 	-0.0649597 	1.93973e-21 5.19117 	-0.0639252 	2.2636e-21 5.18974 	-0.0628151 	2.58822e-21 5.1906 	-0.0628044 	2.56782e-21 5.19053 	-0.0627123 	2.53653e-21 5.19046 	-0.0626201 	2.50524e-21 5.19039 	-0.0625281 	2.47395e-21 5.19032 	-0.0624349 	2.44229e-21 5.18972 	-0.0616243 	2.1757e-21 5.18916 	-0.0608175 	1.9092e-21 5.18865 	-0.0600145 	1.64279e-21 5.18817 	-0.0592152 	1.37648e-21 5.19742 	-0.060152 	1.12038e-21 5.18672 	-0.057649 	5.94676e-22 5.1861 	-0.0568822 	2.37375e-22 5.18552 	-0.0561195 	-1.19308e-22 5.18498 	-0.0553607 	-4.75375e-22 5.20525 	-0.0581421 	-4.645