# vtk DataFile Version 2.0
track0
ASCII
DATASET POLYDATA
POINTS 11214 double
-0.0205 0.001 1e-05
-0.0202034 0.00100002 1e-05
-0.0199069 0.00100023 1e-05
-0.0196103 0.00100066 1e-05
-0.0193137 0.0010013 1e-05
-0.0190172 0.00100215 1e-05
-0.0187132 0.00100341 1e-05
-0.0184093 0.00100432 1e-05
-0.0181054 0.00100523 1e-05
-0.0178015 0.00100614 1e-05
-0.0174976 0.00100705 1e-05
-0.0172058 0.00100824 1e-05
-0.016914 0.00100895 1e-05
-0.0166222 0.00100963 1e-05
-0.0163305 0.00101025 1e-05
-0.0160387 0.00101083 1e-05
-0.0157586 0.00101169 1e-05
-0.0154784 0.0010121 1e-05
-0.0151983 0.00101249 1e-05
-0.0149182 0.00101283 1e-05
-0.0146381 0.00101315 1e-05
-0.0143692 0.00101376 1e-05
-0.0141002 0.00101397 1e-05
-0.0138313 0.00101414 1e-05
-0.0135624 0.00101429 1e-05
-0.0132934 0.00101442 1e-05
-0.0130353 0.00101487 1e-05
-0.0127771 0.00101492 1e-05
-0.0125189 0.00101495 1e-05
-0.0122607 0.00101497 1e-05
-0.0120025 0.00101496 1e-05
-0.0117547 0.00101529 1e-05
-0.0115068 0.00101524 1e-05
-0.0112589 0.00101517 1e-05
-0.0110111 0.00101509 1e-05
-0.0107632 0.001015 1e-05
-0.0105252 0.00101525 1e-05
-0.0102873 0.00101512 1e-05
-0.0100493 0.00101499 1e-05
-0.00981133 0.00101484 1e-05
-0.00957337 0.00101467 1e-05
-0.00934491 0.00101487 1e-05
-0.00911645 0.00101469 1e-05
-0.008888 0.00101449 1e-05
-0.00865954 0.00101428 1e-05
-0.00843108 0.00101406 1e-05
-0.00821175 0.00101422 1e-05
-0.00799242 0.00101399 1e-05
-0.00777309 0.00101374 1e-05
-0.00755376 0.00101348 1e-05
-0.00733443 0.00101321 1e-05
-0.00712387 0.00101334 1e-05
-0.0069133 0.00101306 1e-05
-0.00670273 0.00101277 1e-05
-0.00649217 0.00101246 1e-05
-0.0062816 0.00101214 1e-05
-0.00607944 0.00101225 1e-05
-0.00587729 0.00101193 1e-05
-0.00567514 0.00101159 1e-05
-0.00547298 0.00101124 1e-05
-0.00527083 0.00101087 1e-05
-0.00507675 0.00101096 1e-05
-0.00488268 0.00101059 1e-05
-0.0046886 0.00101021 1e-05
-0.00449452 0.00100981 1e-05
-0.00430044 0.0010094 1e-05
-0.00411412 0.00100947 1e-05
-0.0039278 0.00100905 1e-05
-0.00374147 0.00100862 1e-05
-0.00355515 0.00100817 1e-05
-0.00336883 0.0010077 1e-05
-0.00318995 0.00100775 1e-05
-0.00301107 0.00100727 1e-05
-0.00283219 0.00100678 1e-05
-0.00265331 0.00100626 1e-05
-0.00247443 0.00100573 1e-05
-0.0023027 0.00100574 1e-05
-0.00213097 0.00100519 1e-05
-0.00195924 0.00100461 1e-05
-0.00178751 0.00100401 1e-05
-0.00161577 0.00100339 1e-05
-0.0014509 0.00100334 1e-05
-0.00128603 0.00100269 1e-05
-0.00112116 0.001002 1e-05
-0.000956294 0.00100127 1e-05
-0.000791418 0.0010005 1e-05
-0.000633135 0.00100035 1e-05
-0.000474853 0.000999525 1e-05
-0.000316572 0.000998657 1e-05
-0.000158291 0.000997743 1e-05
0 0.000996782 1e-05
0.000105677 0.000996592 1e-05
0.000211353 0.000995899 1e-05
0.000317028 0.000995177 1e-05
0.000422703 0.000994425 1e-05
0.000528387 0.000993644 1e-05
0.000634886 0.00099344 1e-05
0.000741383 0.000992637 1e-05
0.000847879 0.000991813 1e-05
0.000954375 0.000990969 1e-05
0.00106088 0.000990105 1e-05
0.00116821 0.000989926 1e-05
0.00127553 0.000989065 1e-05
0.00138286 0.000988186 1e-05
0.00149018 0.000987288 1e-05
0.00159752 0.000986372 1e-05
0.00170568 0.000986215 1e-05
0.00181384 0.000985324 1e-05
0.001922 0.000984416 1e-05
0.00203015 0.00098349 1e-05
0.00213833 0.000982547 1e-05
0.00224733 0.000982412 1e-05
0.00235633 0.000981512 1e-05
0.00246533 0.000980596 1e-05
0.00257432 0.000979663 1e-05
0.00268334 0.000978729 1e-05
0.00279319 0.000978606 1e-05
0.00290303 0.000977753 1e-05
0.00301288 0.000976836 1e-05
0.00312273 0.000975901 1e-05
0.00323259 0.000975054 1e-05
0.00334329 0.000974932 1e-05
0.00345399 0.000974157 1e-05
0.00356469 0.000973241 1e-05
0.00367539 0.000972307 1e-05
0.00378611 0.000971529 1e-05
0.00389767 0.000971398 1e-05
0.00400923 0.000970681 1e-05
0.0041208 0.000969765 1e-05
0.00423236 0.000968831 1e-05
0.00434393 0.000968105 1e-05
0.00445636 0.000967954 1e-05
0.00456879 0.000967278 1e-05
0.00468122 0.000966359 1e-05
0.00479365 0.000965421 1e-05
0.00490609 0.00096473 1e-05
0.0050194 0.000964553 1e-05
0.0051327 0.000963901 1e-05
0.005246 0.000962974 1e-05
0.00535931 0.000962027 1e-05
0.00547262 0.000961355 1e-05
0.00558681 0.000961143 1e-05
0.00570099 0.000960502 1e-05
0.00581518 0.000959561 1e-05
0.00592936 0.000958599 1e-05
0.00604356 0.000957935 1e-05
0.00615863 0.000957683 1e-05
0.0062737 0.000957042 1e-05
0.00638878 0.000956083 1e-05
0.00650385 0.000955104 1e-05
0.00661893 0.000954436 1e-05
0.0067349 0.000954141 1e-05
0.00685087 0.000953491 1e-05
0.00696683 0.000952511 1e-05
0.0070828 0.000951511 1e-05
0.00719878 0.000950833 1e-05
0.00731565 0.000950491 1e-05
0.00743252 0.000949825 1e-05
0.00754939 0.00094884 1e-05
0.00766625 0.000947843 1e-05
0.00778313 0.000947148 1e-05
0.00790091 0.000946755 1e-05
0.00801869 0.000946068 1e-05
0.00813647 0.000945088 1e-05
0.00825424 0.000944097 1e-05
0.00837203 0.000943379 1e-05
0.00849073 0.000942934 1e-05
0.00860942 0.00094222 1e-05
0.00872812 0.000941239 1e-05
0.00884681 0.000940246 1e-05
0.00896551 0.000939501 1e-05
0.00908513 0.000939002 1e-05
0.00920475 0.000938257 1e-05
0.00932436 0.000937267 1e-05
0.00944398 0.000936266 1e-05
0.0095636 0.000935489 1e-05
0.00968415 0.000934935 1e-05
0.0098047 0.000934155 1e-05
0.00992524 0.000933152 1e-05
0.0100458 0.000932137 1e-05
0.0101663 0.000931324 1e-05
0.0102878 0.000930714 1e-05
0.0104093 0.000929896 1e-05
0.0105308 0.000928874 1e-05
0.0106523 0.000927839 1e-05
0.0107738 0.000926989 1e-05
0.0108962 0.000926321 1e-05
0.0110186 0.000925463 1e-05
0.0111411 0.000924417 1e-05
0.0112635 0.000923359 1e-05
0.0113859 0.000922469 1e-05
0.0115093 0.000921742 1e-05
0.0116327 0.000920841 1e-05
0.0117561 0.000919767 1e-05
0.0118794 0.000918682 1e-05
0.0120028 0.000917749 1e-05
0.0121272 0.000916963 1e-05
0.0122515 0.000916017 1e-05
0.0123759 0.000914919 1e-05
0.0125002 0.000913815 1e-05
0.0126245 0.000912836 1e-05
0.0127498 0.00091199 1e-05
0.0128752 0.000910997 1e-05
0.0130005 0.000909882 1e-05
0.0131258 0.00090876 1e-05
0.0132511 0.000907734 1e-05
0.0133774 0.000906827 1e-05
0.0135036 0.000905785 1e-05
0.0136299 0.000904647 1e-05
0.0137562 0.000903502 1e-05
0.0138825 0.000902428 1e-05
0.0140098 0.00090146 1e-05
0.014137 0.000900368 1e-05
0.0142643 0.000899202 1e-05
0.0143915 0.000898029 1e-05
0.0145188 0.000896905 1e-05
0.0146471 0.000895876 1e-05
0.0147753 0.000894732 1e-05
0.0149036 0.000893534 1e-05
0.0150318 0.000892328 1e-05
0.0151601 0.000891153 1e-05
0.0152893 0.000890062 1e-05
0.0154186 0.000888866 1e-05
0.0155478 0.000887631 1e-05
0.0156771 0.000886389 1e-05
0.0158063 0.000885161 1e-05
0.0159366 0.000884008 1e-05
0.0160668 0.000882757 1e-05
0.0161971 0.000881483 1e-05
0.0163273 0.000880201 1e-05
0.0164576 0.000878919 1e-05
0.0165889 0.000877704 1e-05
0.0167201 0.000876398 1e-05
0.0168514 0.000875081 1e-05
0.0169827 0.000873756 1e-05
0.0171139 0.000872422 1e-05
0.0172462 0.000871145 1e-05
0.0173785 0.00086979 1e-05
0.0175108 0.000868427 1e-05
0.0176431 0.000867056 1e-05
0.0177754 0.000865677 1e-05
0.0179087 0.000864336 1e-05
0.018042 0.000862933 1e-05
0.0181753 0.000861522 1e-05
0.0183087 0.000860103 1e-05
0.018442 0.000858675 1e-05
0.0185763 0.00085727 1e-05
0.0187107 0.000855818 1e-05
0.018845 0.000854356 1e-05
0.0189794 0.000852886 1e-05
0.0191137 0.000851408 1e-05
0.0192491 0.000849939 1e-05
0.0193845 0.000848434 1e-05
0.0195199 0.00084692 1e-05
0.0196553 0.000845397 1e-05
0.0197907 0.000843866 1e-05
0.0199272 0.000842333 1e-05
0.0200636 0.000840774 1e-05
0.0202001 0.000839206 1e-05
0.0203365 0.000837629 1e-05
0.020473 0.000836043 1e-05
0.0206105 0.000834446 1e-05
0.020748 0.000832831 1e-05
0.0208855 0.000831207 1e-05
0.021023 0.000829574 1e-05
0.0211606 0.000827932 1e-05
0.021194 0.000827531 1e-05
0.0212274 0.00082713 1e-05
0.0212608 0.000826728 1e-05
0.0212942 0.000826325 1e-05
0.0213273 0.000825926 1e-05
0.0214325 0.000824654 1e-05
0.0215378 0.000823378 1e-05
0.021643 0.000822096 1e-05
0.0217482 0.000820809 1e-05
0.0218535 0.000819517 1e-05
0.0219931 0.000817792 1e-05
0.0221328 0.00081606 1e-05
0.0222724 0.00081432 1e-05
0.0224121 0.00081257 1e-05
0.0225517 0.000810811 1e-05
0.0226925 0.000809022 1e-05
0.0228332 0.00080723 1e-05
0.022974 0.000805429 1e-05
0.0231147 0.000803618 1e-05
0.0232555 0.000801797 1e-05
0.0233973 0.000799942 1e-05
0.0235391 0.000798087 1e-05
0.023681 0.000796223 1e-05
0.0238228 0.000794348 1e-05
0.0239647 0.000792464 1e-05
0.0241076 0.000790543 1e-05
0.0242505 0.000788624 1e-05
0.0243935 0.000786695 1e-05
0.0245364 0.000784757 1e-05
0.0246794 0.00078281 1e-05
0.0248234 0.000780825 1e-05
0.0249675 0.000778843 1e-05
0.0251115 0.000776852 1e-05
0.0252556 0.000774851 1e-05
0.0253996 0.00077284 1e-05
0.0255448 0.000770789 1e-05
0.02569 0.000768742 1e-05
0.0258351 0.000766683 1e-05
0.0259803 0.000764614 1e-05
0.0261255 0.000762533 1e-05
0.0262718 0.000760414 1e-05
0.0264181 0.000758293 1e-05
0.0265644 0.000756164 1e-05
0.0267107 0.000754024 1e-05
0.026857 0.000751871 1e-05
0.0270044 0.00074968 1e-05
0.0271519 0.000747486 1e-05
0.0272993 0.000745285 1e-05
0.0274468 0.000743073 1e-05
0.0275942 0.000740846 1e-05
0.0277428 0.000738584 1e-05
0.0278914 0.000736317 1e-05
0.0280399 0.000734043 1e-05
0.0281885 0.000731758 1e-05
0.0283371 0.000729458 1e-05
0.0284869 0.000727125 1e-05
0.0286366 0.000724786 1e-05
0.0287863 0.000722439 1e-05
0.0289361 0.000720081 1e-05
0.0290858 0.00071771 1e-05
0.0292367 0.000715306 1e-05
0.0293876 0.000712895 1e-05
0.0295385 0.000710475 1e-05
0.0296894 0.000708044 1e-05
0.0298403 0.000705601 1e-05
0.0299924 0.000703126 1e-05
0.0301445 0.000700642 1e-05
0.0302966 0.000698149 1e-05
0.0304486 0.000695644 1e-05
0.0306007 0.000693129 1e-05
0.030754 0.000690583 1e-05
0.0309072 0.000688026 1e-05
0.0310605 0.000685458 1e-05
0.0312138 0.00068288 1e-05
0.031367 0.000680291 1e-05
0.0315215 0.000677673 1e-05
0.0316759 0.000675042 1e-05
0.0318304 0.000672399 1e-05
0.0319848 0.000669746 1e-05
0.0321393 0.000667083 1e-05
0.0322949 0.000664391 1e-05
0.0324506 0.000661685 1e-05
0.0326062 0.000658965 1e-05
0.0327619 0.000656235 1e-05
0.0329175 0.000653497 1e-05
[...]
POINT_DATA 11214
 FIELD attributes 2
p 1 11214 float
-5.02698 -5.0774 -5.14018 -5.20364 -5.26779 -5.41186 -5.47699 -5.55604 -5.63508 -5.71412 -5.80402 -5.79651 -5.81514 -5.83371 -5.85222 -5.89035 -5.87607 -5.88832 -5.9005 -5.91262 -5.94679 -5.93919 -5.95372 -5.96819 -5.98262 -6.01722 -6.00855 -6.0201 -6.03162 -6.04311 -6.07433 -6.06486 -6.07496 -6.08504 -6.09508 -6.12525 -6.11591 -6.12606 -6.13619 -6.14628 -6.17716 -6.16731 -6.17745 -6.18756 -6.19764 -6.22958 -6.21864 -6.22872 -6.23878 -6.24882 -6.28222 -6.26996 -6.28019 -6.2904 -6.30058 -6.33603 -6.32237 -6.33308 -6.34378 -6.35444 -6.39268 -6.37755 -6.38898 -6.40039 -6.41177 -6.45336 -6.43649 -6.44882 -6.46111 -6.47336 -6.51897 -6.50013 -6.51339 -6.52661 -6.53979 -6.58991 -6.5683 -6.58238 -6.5964 -6.61038 -6.66587 -6.64046 -6.65483 -6.66912 -6.68333 -6.74494 -6.70623 -6.71246 -6.71861 -6.72466 -6.78375 -6.70994 -6.70319 -6.69637 -6.68947 -6.76584 -6.68243 -6.67673 -6.67097 -6.66517 -6.75195 -6.68269 -6.68117 -6.67961 -6.67802 -6.75965 -6.69844 -6.69659 -6.69471 -6.69281 -6.76391 -6.71052 -6.70967 -6.70881 -6.70924 -6.77455 -6.73415 -6.73299 -6.73455 -6.7437 -6.79815 -6.76774 -6.76429 -6.76734 -6.78201 -6.82901 -6.80479 -6.79998 -6.80432 -6.82338 -6.86612 -6.84616 -6.84041 -6.84602 -6.86895 -6.90911 -6.89189 -6.88496 -6.89155 -6.91777 -6.95614 -6.94061 -6.93215 -6.93938 -6.96848 -7.00547 -6.99106 -6.98083 -6.98852 -7.02026 -7.05619 -7.0426 -7.03046 -7.03845 -7.07256 -7.10751 -7.09456 -7.08171 -7.09075 -7.12486 -7.15886 -7.14651 -7.13427 -7.14374 -7.1769 -7.20996 -7.19813 -7.18641 -7.19616 -7.22842 -7.26057 -7.24926 -7.23805 -7.24794 -7.27928 -7.31053 -7.29983 -7.28924 -7.29918 -7.32951 -7.35975 -7.34973 -7.33981 -7.34971 -7.37898 -7.40815 -7.39882 -7.3896 -7.3994 -7.42756 -7.45563 -7.44702 -7.4385 -7.44816 -7.47523 -7.50222 -7.49435 -7.48743 -7.49736 -7.52206 -7.54798 -7.54088 -7.53678 -7.54643 -7.56808 -7.59295 -7.58659 -7.58505 -7.59444 -7.61326 -7.6371 -7.63147 -7.63226 -7.64142 -7.65765 -7.6805 -7.6756 -7.67852 -7.68747 -7.7013 -7.7232 -7.71902 -7.72385 -7.73261 -7.74425 -7.76521 -7.76174 -7.76828 -7.77686 -7.78652 -7.80656 -7.80379 -7.81184 -7.82026 -7.82869 -7.84731 -7.84629 -7.85457 -7.86286 -7.87115 -7.88748 -7.88838 -7.89654 -7.9047 -7.91287 -7.92715 -7.92975 -7.93781 -7.94587 -7.95393 -7.96636 -7.97047 -7.97844 -7.98641 -7.99439 -8.00519 -8.01063 -8.01853 -8.02643 -8.03434 -8.04371 -8.0503 -8.05815 -8.06601 -8.07387 -8.082 -8.08366 -8.08555 -8.08743 -8.08932 -8.09119 -8.09719 -8.1032 -8.10921 -8.11523 -8.12099 -8.129 -8.1369 -8.1448 -8.1527 -8.15995 -8.16823 -8.17613 -8.18404 -8.19196 -8.19872 -8.20731 -8.21519 -8.22306 -8.23095 -8.23716 -8.24615 -8.25386 -8.26157 -8.26929 -8.27456 -8.28371 -8.29127 -8.29885 -8.30642 -8.31087 -8.32029 -8.32766 -8.33503 -8.34203 -8.34564 -8.35488 -8.36225 -8.36922 -8.37512 -8.37815 -8.38716 -8.39465 -8.40128 -8.40617 -8.40888 -8.4178 -8.42561 -8.43207 -8.43611 -8.43867 -8.4476 -8.45587 -8.46224 -8.46553 -8.46802 -8.47698 -8.48577 -8.49211 -8.4947 -8.49718 -8.5062 -8.51523 -8.52133 -8.52384 -8.52635 -8.53544 -8.54454 -8.55053 -8.55308 -8.55564 -8.56481 -8.57398 -8.57988 -8.5825 -8.58513 -8.59437 -8.60361 -8.60946 -8.61215 -8.61485 -8.62416 -8.63348 -8.63928 -8.64206 -8.64484 -8.65421 -8.66331 -8.66902 -8.67224 -8.6751 -8.68453 -8.693 -8.6988 -8.70269 -8.70565 -8.71513 -8.72296 -8.72885 -8.73343 -8.73647 -8.746 -8.7532 -8.75918 -8.76445 -8.76758 -8.77714 -8.78372 -8.78978 -8.79574 -8.79895 -8.80838 -8.81451 -8.82064 -8.82677 -8.83059 -8.83935 -8.84554 -8.85174 -8.85794 -8.86245 -8.87055 -8.8768 -8.88305 -8.88931 -8.89452 -8.90196 -8.90826 -8.91456 -8.92086 -8.92676 -8.93131 -8.9354 -8.9395 -8.9436 -8.9476 -8.94988 -8.95216 -8.95444 -8.95672 -8.95858 -8.9654 -8.97181 -8.97823 -8.98466 -8.98949 -8.99746 -9.00389 -9.01033 -9.01678 -9.02049 -9.02958 -9.03602 -9.04247 -9.04893 -9.05153 -9.06172 -9.06817 -9.07462 -9.08108 -9.08258 -9.0935 -9.10029 -9.10674 -9.11214 -9.11361 -9.12445 -9.13238 -9.13881 -9.14305 -9.14458 -9.15535 -9.16438 -9.1708 -9.17388 -9.17547 -9.18615 -9.19629 -9.20267 -9.20461 -9.20622 -9.21681 -9.22742 -9.23354 -9.23517 -9.2368 -9.2473 -9.2578 -9.26389 -9.26552 -9.26715 -9.27753 -9.28793 -9.29397 -9.29558 -9.29719 -9.30745 -9.31773 -9.32369 -9.32529 -9.32686 -9.33699 -9.34614 -9.35178 -9.35457 -9.35607 -9.36606 -9.37384 -9.37937 -9.38333 -9.38475 -9.39457 -9.40096 -9.40636 -9.41149 -9.4128 -9.42219 -9.42741 -9.43265 -9.4379 -9.44013 -9.44804 -9.45308 -9.45813 -9.46319 -9.46663 -9.473 -9.47783 -9.48267 -9.48752 -9.49216 -9.49312 -9.49386 -9.4946 -9.49534 -9.49607 -9.5 -9.50393 -9.50788 -9.51184 -9.51473 -9.5203 -9.52471 -9.52914 -9.53358 -9.53567 -9.54236 -9.54645 -9.55055 -9.55468 -9.55512 -9.56252 -9.56664 -9.57037 -9.57292 -9.57281 -9.57977 -9.58501 -9.5883 -9.58898 -9.58841 -9.59487 -9.60125 -9.6038 -9.60267 -9.60156 -9.60742 -9.6133 -9.61534 -9.61355 -9.61178 -9.61695 -9.62214 -9.62368 -9.62109 -9.61853 -9.62288 -9.62618 -9.62653 -9.62466 -9.62113 -9.62452 -9.62502 -9.6243 -9.62345 -9.61875 -9.62031 -9.61835 -9.61642 -9.61452 -9.61073 -9.60966 -9.60694 -9.60425 -9.60158 -9.59916 -9.59847 -9.59779 -9.59711 -9.59643 -9.59532 -9.59073 -9.58563 -9.58058 -9.57556 -9.56803 -9.56402 -9.55685 -9.54972 -9.54222 -9.53081 -9.52577 -9.51794 -9.50839 -9.496 -9.48191 -9.47402 -9.46618 -9.45328 -9.43621 -9.41918 -9.40815 -9.39718 -9.38185 -9.36128 -9.34076 -9.32614 -9.30962 -9.28991 -9.26858 -9.24381 -9.22468 -9.20037 -9.17614 -9.15199 -9.1257 -9.11478 -9.10223 -9.0897 -9.07719 -9.06551 -9.049 -9.03253 -9.01609 -8.99969 -8.9809 -8.95022 -8.91612 -8.88215 -8.84747 -8.80753 -8.77375 -8.73779 -8.69794 -8.6524 -8.60633 -8.5663 -8.52641 -8.48076 -8.42799 -8.37525 -8.32818 -8.27712 -8.22343 -8.1699 -8.1115 -8.08364 -8.05259 -8.0216 -7.99065 -7.96258 -7.93268 -7.90285 -7.87307 -7.84336 -7.8102 -7.74842 -7.68165 -7.61516 -7.54557 -7.47236 -7.40467 -7.33727 -7.26407 -7.18461 -7.10507 -7.03072 -6.95251 -6.87267 -6.79317 -6.71231 -6.70469 -6.69669 -6.68856 -6.68043 -6.67246 -6.59667 -6.52122 -6.44612 -6.37006 -6.28935 -6.20585 -6.1228 -6.03513 -5.94333 -5.85114 -5.77593 -5.69866 -5.62018 -5.54207 -5.47672 -5.4623 -5.44789 -5.4335 -5.4187 -5.40335 -5.31322 -5.22209 -5.13153 -5.03815 -4.94267 -4.85338 -4.76378 -4.67205 -4.58089 -4.48834 -4.48175 -4.47511 -4.46834 -4.46158 -4.45491 -4.37028 -4.28616 -4.20257 -4.1175 -4.03042 -3.94264 -3.85498 -3.76618 -3.67799 -3.59096 -3.59049 -3.59002 -3.58956 -3.58908 -3.58859 -3.50045 -3.41289 -3.32598 -3.23759 -3.14727 -3.08761 -3.02813 -2.96783 -2.90784 -2.8545 -2.82807 -2.80171 -2.77541 -2.74843 -2.72118 -2.63749 -2.55446 -2.47084 -2.3866 -2.30046 -2.28132 -2.26223 -2.24271 -2.22321 -2.20447 -2.14017 -2.07628 -2.01281 -1.94791 -1.88148 -1.82807 -1.77506 -1.72101 -1.66718 -1.61991 -1.58939 -1.55901 -1.52864 -1.49752 -1.46579 -1.38875 -1.31274 -1.23699 -1.16216 -1.10288 -1.09325 -1.08364 -1.07409 -1.06464 -1.05508 -0.973461 -0.893889 -0.818599 -0.747209 -0.689775 -0.685061 -0.680369 -0.676238 -0.672353 -0.668388 -0.617047 -0.569485 -0.530372 -0.507699 -0.49718 -0.486512 -0.48097 -0.483444 -0.489011 -0.507316 -0.509158 -0.511053 -0.513002 -0.515003 -0.518041 -0.546786 -0.580199 -0.617859 -0.659499 -0.710243 -0.762767 -0.813458 -0.865197 -0.917871 -0.975499 -0.99233 -1.00791 -1.02348 -1.03905 -1.05457 -1.09011 -1.12566 -1.16123 -1.19681 -1.2299 -1.26522 -1.3035 -1.3415 -1.37921 -1.40418 -1.41494 -1.431 -1.44698 -1.46263 -1.47092 -1.46653 -1.45898 -1.45146 -1.444 -1.43649 -1.43654 -1.43658 -1.43663 -1.4366 -1.43634 -1.42114 -1.40757 -1.39565 -1.38764 -1.38393 -1.38223 -1.38169 -1.37047 -1.35736 -1.3496 -1.35677 -1.36537 -1.36517 -1.36071 -1.35494 -1.35413 -1.3537 -1.35363 -1.36224 -1.37236 -1.36736 -1.36416 -1.37482 -1.40394 -1.43276 -1.42568 -1.42808 -1.44167 -1.45602 -1.48193 -1.46624 -1.46965 -1.47313 -1.47669 -1.4928 -1.47163 -1.46167 -1.45191 -1.44247 -1.45689 -1.43275 -1.41028 -1.39118 -1.38484 -1.382 -1.37448 -1.36827 -1.36445 -1.36229 -1.36203 -1.37901 -1.40307 -1.42029 -1.44198 -1.46579 -1.48673 -1.50177 -1.51887 -1.53775 -1.58349 -1.59555 -1.60228 -1.61023 -1.61566 -1.59421 -1.57585 -1.55816 -1.52955 -1.4847 -1.43424 -1.38888 -1.33701 -1.27952 -1.22217 -1.17229 -1.15715 -1.14205 -1.12698 -1.10891 -1.08791 -0.988643 -0.898426 -0.80824 -0.710464 -0.610465 -0.500911 -0.394094 -0.290886 -0.18707 -0.0612485 -0.059758 -0.0582675 -0.0567769 -0.0553609 -0.0540606 0.0508913 0.154902 0.258723 0.350271 0.41154 0.513254 0.614917 0.67854 0.712168 0.739299 0.8079 0.87401 0.900918 0.890979 0.877489 0.905766 0.904571 0.879308 0.850678 0.811605 0.811551 0.811496 0.811441 0.811316 0.811156 0.764832 0.716411 0.666343 0.588151 0.465258 0.422663 0.377646 0.300856 0.223232 0.156672 0.115601 0.0743643 0.0310361 -0.0266055 -0.0892954 -0.209054 -0.330478 -0.487431 -0.652836 -0.797777 -0.817272 -0.83678 -0.857808 -0.881433 -0.905686 -1.09512 -1.28635 -1.49953 -1.72907 -1.96786 -1.9792 -1.99055 -2.00259 -2.01518 -2.02794 -2.26759 -2.50887 -2.76175 -3.02808 -3.27524 -3.31864 -3.36206 -3.40662 -3.4516 -3.49886 -3.72621 -3.95452 -4.18487 -4.41982 -4.64448 -4.7843 -4.92437 -5.06061 -5.19681 -5.35866 -5.48944 -5.62045 -5.75167 -5.87795 -6.00198 -6.26999 -6.53906 -6.78924 -7.03455 -7.2717 -7.35216 -7.42815 -7.49708 -7.56619 -7.64675 -7.80039 -7.95439 -8.10873 -8.25245 -8.38393 -8.58753 -8.79226 -8.97415 -9.12856 -9.28146 -9.44149 -9.58299 -9.7028 -9.82427 -9.92601 -10.0155 -10.0781 -10.1422 -10.2077 -10.2955 -10.3035 -10.3076 -10.3119 -10.3163 -10.3244 -10.3372 -10.3503 -10.3637 -10.3773 -10.3877 -10.3536 -10.317 -10.281 -10.2456 -10.2408 -10.2355 -10.2301 -10.2249 -10.2196 -10.2125 -10.1307 -10.0487 -9.96808 -9.88877 -9.79339 -9.68123 -9.56111 -9.44206 -9.31745 -9.17207 -9.02886 -8.88604 -8.73513 -8.56708 -8.39834 -8.23187 -8.06281 -7.88273 -7.70281 -7.52024 -7.4339 -7.34416 -7.25341 -7.16275 -7.0831 -6.98286 -6.88276 -6.78278 -6.68144 -6.5761 -6.38107 -6.18721 -5.99424 -5.79656 -5.59765 -5.40149 -5.20452 -5.00656 -4.80884 -4.61027 -4.60371 -4.59714 -4.59056 -4.58399 -4.57744 -4.38642 -4.19555 -4.00484 -3.81441 -3.62312 -3.42741 -3.23188 -3.03761 -2.84361 -2.65043 -2.60548 -2.56068 -2.5161 -2.47153 -2.42791 -2.28025 -2.13265 -1.98512 -1.83865 -1.69225 -1.50281 -1.31347 -1.12611 -0.939581 -0.753128 -0.705526 -0.658085 -0.611003 -0.563928 -0.517772 -0.379715 -0.241699 -0.103726 0.033138 0.170012 0.352315 0.534535 0.714914 0.895159 1.07548 1.10363 1.13171 1.15961 1.1875 1.21507 1.36619 1.51725 1.66826 1.818 1.96802 2.13887 2.30931 2.47843 2.64747 2.80517 2.81331 2.82145 2.8296 2.83769 2.84577 3.01998 3.19401 3.36797 3.54083 3.7147 3.82752 3.9402 4.05224 4.16423 4.2708 4.33128 4.39175 4.45222 4.51218 4.57224 4.74269 4.91306 5.08237 5.25065 5.42028 5.46243 5.50455 5.54624 5.58791 5.62877 5.75515 5.8815 6.00779 6.13321 6.25944 6.38681 6.51412 6.64014 6.76611 6.8847 6.92537 6.96603 7.00664 7.04668 7.08683 7.25137 7.41582 7.57844 7.73943 7.90213 7.92371 7.94528 7.96643 7.9875 8.00835 8.14814 8.28787 8.42718 8.56446 8.70303 8.7691 8.83515 8.90005 8.96464 9.02742 9.11986 9.21229 9.30393 9.39307 9.48274 9.58034 9.67791 9.77251 9.86601 9.95634 10.0132 10.0701 10.1267 10.1824 10.2383 10.3555 10.4727 10.5877 10.7017 10.813 10.8443 10.8757 10.9063 10.9355 10.9647 11.0976 11.2305 11.3565 11.479 11.6013 11.6116 11.6218 11.632 11.6422 11.6524 11.7835 11.9147 12.0452 12.175 12.3037 12.3121 12.3206 12.329 12.3373 12.3457 12.465 12.5843 12.6983 12.801 12.9022 12.9329 12.9635 12.9907 13.0167 13.0435 13.1242 13.2049 13.2868 13.3728 13.4572 13.5112 13.5651 13.6226 13.6808 13.746 13.7931 13.8401 13.8861 13.9207 13.9548 14.0599 14.165 14.2437 14.3196 14.3892 14.3984 14.4071 14.4136 14.4201 14.4268 14.4909 14.555 14.619 14.7014 14.7866 14.8394 14.8986 14.9754 15.0518 15.1306 15.1352 15.1415 15.1494 15.1573 15.1656 15.2285 15.2911 15.3534 15.3976 15.421 15.504 15.5871 15.6366 15.6521 15.6668 15.7395 15.7823 15.82 15.8578 15.8916 15.9006 15.9041 15.9076 15.9111 15.9148 15.9427 15.9706 15.9985 16.0263 16.0834 16.0691 16.0984 16.128 16.1747 16.2713 16.2793 16.2859 16.2971 16.3159 16.3354 16.2566 16.1761 16.1549 16.1717 16.1994 16.1308 16.1051 16.0914 16.0774 16.0936 16.0581 16.0455 16.0328 16.0201 16.0012 15.9958 15.9905 15.9851 15.9797 15.9614 15.9425 15.9127 15.8829 15.8529 15.7707 15.7704 15.7414 15.7047 15.6359 15.5434 15.5368 15.5315 15.4806 15.3825 15.2832 15.2685 15.2552 15.1958 15.0907 14.9846 14.9616 14.928 14.855 14.76 14.6475 14.6166 14.5549 14.4757 14.3917 14.2727 14.2337 14.1488 14.063 13.9773 13.8588 13.8005 13.7073 13.6142 13.5212 13.4037 13.3288 13.2275 13.1262 13.025 12.9041 12.8148 12.7045 12.5942 12.484 12.3572 12.2547 12.1338 12.0128 11.892 11.7555 11.6397 11.5075 11.3753 11.2432 11.0964 10.9673 10.8205 10.6738 10.5272 10.3642 10.2194 10.0591 9.89884 9.73857 9.5638 9.40351 9.22112 9.03877 8.85648 8.65342 8.47024 8.27476 8.07929 7.88383 7.67703 7.4783 7.24168 7.0052 6.76885 6.49778 6.25412 6.01968 5.78523 5.55077 5.32523 5.08339 4.74428 4.40591 4.06815 3.64564 3.27998 3.02543 2.7714 2.51784 2.36718 2.1538 1.6603 1.16576 0.670355 0