# vtk DataFile Version 2.0
track0
ASCII
DATASET POLYDATA
POINTS 11214 double
-0.0205 0.001 1e-05
-0.0202034 0.00100002 1e-05
-0.0199069 0.00100023 1e-05
-0.0196103 0.00100066 1e-05
-0.0193137 0.0010013 1e-05
-0.0190172 0.00100215 1e-05
-0.0187132 0.00100341 1e-05
-0.0184093 0.00100432 1e-05
-0.0181054 0.00100523 1e-05
-0.0178015 0.00100614 1e-05
-0.0174976 0.00100705 1e-05
-0.0172058 0.00100824 1e-05
-0.016914 0.00100895 1e-05
-0.0166222 0.00100963 1e-05
-0.0163305 0.00101025 1e-05
-0.0160387 0.00101083 1e-05
-0.0157586 0.00101169 1e-05
-0.0154784 0.0010121 1e-05
-0.0151983 0.00101249 1e-05
-0.0149182 0.00101283 1e-05
-0.0146381 0.00101315 1e-05
-0.0143692 0.00101376 1e-05
-0.0141002 0.00101397 1e-05
-0.0138313 0.00101414 1e-05
-0.0135624 0.00101429 1e-05
-0.0132934 0.00101442 1e-05
-0.0130353 0.00101487 1e-05
-0.0127771 0.00101492 1e-05
-0.0125189 0.00101495 1e-05
-0.0122607 0.00101497 1e-05
-0.0120025 0.00101496 1e-05
-0.0117547 0.00101529 1e-05
-0.0115068 0.00101524 1e-05
-0.0112589 0.00101517 1e-05
-0.0110111 0.00101509 1e-05
-0.0107632 0.001015 1e-05
-0.0105252 0.00101525 1e-05
-0.0102873 0.00101512 1e-05
-0.0100493 0.00101499 1e-05
-0.00981133 0.00101484 1e-05
-0.00957337 0.00101467 1e-05
-0.00934491 0.00101487 1e-05
-0.00911645 0.00101469 1e-05
-0.008888 0.00101449 1e-05
-0.00865954 0.00101428 1e-05
-0.00843108 0.00101406 1e-05
-0.00821175 0.00101422 1e-05
-0.00799242 0.00101399 1e-05
-0.00777309 0.00101374 1e-05
-0.00755376 0.00101348 1e-05
-0.00733443 0.00101321 1e-05
-0.00712387 0.00101334 1e-05
-0.0069133 0.00101306 1e-05
-0.00670273 0.00101277 1e-05
-0.00649217 0.00101246 1e-05
-0.0062816 0.00101214 1e-05
-0.00607944 0.00101225 1e-05
-0.00587729 0.00101193 1e-05
-0.00567514 0.00101159 1e-05
-0.00547298 0.00101124 1e-05
-0.00527083 0.00101087 1e-05
-0.00507675 0.00101096 1e-05
-0.00488268 0.00101059 1e-05
-0.0046886 0.00101021 1e-05
-0.00449452 0.00100981 1e-05
-0.00430044 0.0010094 1e-05
-0.00411412 0.00100947 1e-05
-0.0039278 0.00100905 1e-05
-0.00374147 0.00100862 1e-05
-0.00355515 0.00100817 1e-05
-0.00336883 0.0010077 1e-05
-0.00318995 0.00100775 1e-05
-0.00301107 0.00100727 1e-05
-0.00283219 0.00100678 1e-05
-0.00265331 0.00100626 1e-05
-0.00247443 0.00100573 1e-05
-0.0023027 0.00100574 1e-05
-0.00213097 0.00100519 1e-05
-0.00195924 0.00100461 1e-05
-0.00178751 0.00100401 1e-05
-0.00161577 0.00100339 1e-05
-0.0014509 0.00100334 1e-05
-0.00128603 0.00100269 1e-05
-0.00112116 0.001002 1e-05
-0.000956294 0.00100127 1e-05
-0.000791418 0.0010005 1e-05
-0.000633135 0.00100035 1e-05
-0.000474853 0.000999525 1e-05
-0.000316572 0.000998657 1e-05
-0.000158291 0.000997743 1e-05
0 0.000996782 1e-05
0.000105677 0.000996592 1e-05
0.000211353 0.000995899 1e-05
0.000317028 0.000995177 1e-05
0.000422703 0.000994425 1e-05
0.000528387 0.000993644 1e-05
0.000634886 0.00099344 1e-05
0.000741383 0.000992637 1e-05
0.000847879 0.000991813 1e-05
0.000954375 0.000990969 1e-05
0.00106088 0.000990105 1e-05
0.00116821 0.000989926 1e-05
0.00127553 0.000989065 1e-05
0.00138286 0.000988186 1e-05
0.00149018 0.000987288 1e-05
0.00159752 0.000986372 1e-05
0.00170568 0.000986215 1e-05
0.00181384 0.000985324 1e-05
0.001922 0.000984416 1e-05
0.00203015 0.00098349 1e-05
0.00213833 0.000982547 1e-05
0.00224733 0.000982412 1e-05
0.00235633 0.000981512 1e-05
0.00246533 0.000980596 1e-05
0.00257432 0.000979663 1e-05
0.00268334 0.000978729 1e-05
0.00279319 0.000978606 1e-05
0.00290303 0.000977753 1e-05
0.00301288 0.000976836 1e-05
0.00312273 0.000975901 1e-05
0.00323259 0.000975054 1e-05
0.00334329 0.000974932 1e-05
0.00345399 0.000974157 1e-05
0.00356469 0.000973241 1e-05
0.00367539 0.000972307 1e-05
0.00378611 0.000971529 1e-05
0.00389767 0.000971398 1e-05
0.00400923 0.000970681 1e-05
0.0041208 0.000969765 1e-05
0.00423236 0.000968831 1e-05
0.00434393 0.000968105 1e-05
0.00445636 0.000967954 1e-05
0.00456879 0.000967278 1e-05
0.00468122 0.000966359 1e-05
0.00479365 0.000965421 1e-05
0.00490609 0.00096473 1e-05
0.0050194 0.000964553 1e-05
0.0051327 0.000963901 1e-05
0.005246 0.000962974 1e-05
0.00535931 0.000962027 1e-05
0.00547262 0.000961355 1e-05
0.00558681 0.000961143 1e-05
0.00570099 0.000960502 1e-05
0.00581518 0.000959561 1e-05
0.00592936 0.000958599 1e-05
0.00604356 0.000957935 1e-05
0.00615863 0.000957683 1e-05
0.0062737 0.000957042 1e-05
0.00638878 0.000956083 1e-05
0.00650385 0.000955104 1e-05
0.00661893 0.000954436 1e-05
0.0067349 0.000954141 1e-05
0.00685087 0.000953491 1e-05
0.00696683 0.000952511 1e-05
0.0070828 0.000951511 1e-05
0.00719878 0.000950833 1e-05
0.00731565 0.000950491 1e-05
0.00743252 0.000949825 1e-05
0.00754939 0.00094884 1e-05
0.00766625 0.000947843 1e-05
0.00778313 0.000947148 1e-05
0.00790091 0.000946755 1e-05
0.00801869 0.000946068 1e-05
0.00813647 0.000945088 1e-05
0.00825424 0.000944097 1e-05
0.00837203 0.000943379 1e-05
0.00849073 0.000942934 1e-05
0.00860942 0.00094222 1e-05
0.00872812 0.000941239 1e-05
0.00884681 0.000940246 1e-05
0.00896551 0.000939501 1e-05
0.00908513 0.000939002 1e-05
0.00920475 0.000938257 1e-05
0.00932436 0.000937267 1e-05
0.00944398 0.000936266 1e-05
0.0095636 0.000935489 1e-05
0.00968415 0.000934935 1e-05
0.0098047 0.000934155 1e-05
0.00992524 0.000933152 1e-05
0.0100458 0.000932137 1e-05
0.0101663 0.000931324 1e-05
0.0102878 0.000930714 1e-05
0.0104093 0.000929896 1e-05
0.0105308 0.000928874 1e-05
0.0106523 0.000927839 1e-05
0.0107738 0.000926989 1e-05
0.0108962 0.000926321 1e-05
0.0110186 0.000925463 1e-05
0.0111411 0.000924417 1e-05
0.0112635 0.000923359 1e-05
0.0113859 0.000922469 1e-05
0.0115093 0.000921742 1e-05
0.0116327 0.000920841 1e-05
0.0117561 0.000919767 1e-05
0.0118794 0.000918682 1e-05
0.0120028 0.000917749 1e-05
0.0121272 0.000916963 1e-05
0.0122515 0.000916017 1e-05
0.0123759 0.000914919 1e-05
0.0125002 0.000913815 1e-05
0.0126245 0.000912836 1e-05
0.0127498 0.00091199 1e-05
0.0128752 0.000910997 1e-05
0.0130005 0.000909882 1e-05
0.0131258 0.00090876 1e-05
0.0132511 0.000907734 1e-05
0.0133774 0.000906827 1e-05
0.0135036 0.000905785 1e-05
0.0136299 0.000904647 1e-05
0.0137562 0.000903502 1e-05
0.0138825 0.000902428 1e-05
0.0140098 0.00090146 1e-05
0.014137 0.000900368 1e-05
0.0142643 0.000899202 1e-05
0.0143915 0.000898029 1e-05
0.0145188 0.000896905 1e-05
0.0146471 0.000895876 1e-05
0.0147753 0.000894732 1e-05
0.0149036 0.000893534 1e-05
0.0150318 0.000892328 1e-05
0.0151601 0.000891153 1e-05
0.0152893 0.000890062 1e-05
0.0154186 0.000888866 1e-05
0.0155478 0.000887631 1e-05
0.0156771 0.000886389 1e-05
0.0158063 0.000885161 1e-05
0.0159366 0.000884008 1e-05
0.0160668 0.000882757 1e-05
0.0161971 0.000881483 1e-05
0.0163273 0.000880201 1e-05
0.0164576 0.000878919 1e-05
0.0165889 0.000877704 1e-05
0.0167201 0.000876398 1e-05
0.0168514 0.000875081 1e-05
0.0169827 0.000873756 1e-05
0.0171139 0.000872422 1e-05
0.0172462 0.000871145 1e-05
0.0173785 0.00086979 1e-05
0.0175108 0.000868427 1e-05
0.0176431 0.000867056 1e-05
0.0177754 0.000865677 1e-05
0.0179087 0.000864336 1e-05
0.018042 0.000862933 1e-05
0.0181753 0.000861522 1e-05
0.0183087 0.000860103 1e-05
0.018442 0.000858675 1e-05
0.0185763 0.00085727 1e-05
0.0187107 0.000855818 1e-05
0.018845 0.000854356 1e-05
0.0189794 0.000852886 1e-05
0.0191137 0.000851408 1e-05
0.0192491 0.000849939 1e-05
0.0193845 0.000848434 1e-05
0.0195199 0.00084692 1e-05
0.0196553 0.000845397 1e-05
0.0197907 0.000843866 1e-05
0.0199272 0.000842333 1e-05
0.0200636 0.000840774 1e-05
0.0202001 0.000839206 1e-05
0.0203365 0.000837629 1e-05
0.020473 0.000836043 1e-05
0.0206105 0.000834446 1e-05
0.020748 0.000832831 1e-05
0.0208855 0.000831207 1e-05
0.021023 0.000829574 1e-05
0.0211606 0.000827932 1e-05
0.021194 0.000827531 1e-05
0.0212274 0.00082713 1e-05
0.0212608 0.000826728 1e-05
0.0212942 0.000826325 1e-05
0.0213273 0.000825926 1e-05
0.0214325 0.000824654 1e-05
0.0215378 0.000823378 1e-05
0.021643 0.000822096 1e-05
0.0217482 0.000820809 1e-05
0.0218535 0.000819517 1e-05
0.0219931 0.000817792 1e-05
0.0221328 0.00081606 1e-05
0.0222724 0.00081432 1e-05
0.0224121 0.00081257 1e-05
0.0225517 0.000810811 1e-05
0.0226925 0.000809022 1e-05
0.0228332 0.00080723 1e-05
0.022974 0.000805429 1e-05
0.0231147 0.000803618 1e-05
0.0232555 0.000801797 1e-05
0.0233973 0.000799942 1e-05
0.0235391 0.000798087 1e-05
0.023681 0.000796223 1e-05
0.0238228 0.000794348 1e-05
0.0239647 0.000792464 1e-05
0.0241076 0.000790543 1e-05
0.0242505 0.000788624 1e-05
0.0243935 0.000786695 1e-05
0.0245364 0.000784757 1e-05
0.0246794 0.00078281 1e-05
0.0248234 0.000780825 1e-05
0.0249675 0.000778843 1e-05
0.0251115 0.000776852 1e-05
0.0252556 0.000774851 1e-05
0.0253996 0.00077284 1e-05
0.0255448 0.000770789 1e-05
0.02569 0.000768742 1e-05
0.0258351 0.000766683 1e-05
0.0259803 0.000764614 1e-05
0.0261255 0.000762533 1e-05
0.0262718 0.000760414 1e-05
0.0264181 0.000758293 1e-05
0.0265644 0.000756164 1e-05
0.0267107 0.000754024 1e-05
0.026857 0.000751871 1e-05
0.0270044 0.00074968 1e-05
0.0271519 0.000747486 1e-05
0.0272993 0.000745285 1e-05
0.0274468 0.000743073 1e-05
0.0275942 0.000740846 1e-05
0.0277428 0.000738584 1e-05
0.0278914 0.000736317 1e-05
0.0280399 0.000734043 1e-05
0.0281885 0.000731758 1e-05
0.0283371 0.000729458 1e-05
0.0284869 0.000727125 1e-05
0.0286366 0.000724786 1e-05
0.0287863 0.000722439 1e-05
0.0289361 0.000720081 1e-05
0.0290858 0.00071771 1e-05
0.0292367 0.000715306 1e-05
0.0293876 0.000712895 1e-05
0.0295385 0.000710475 1e-05
0.0296894 0.000708044 1e-05
0.0298403 0.000705601 1e-05
0.0299924 0.000703126 1e-05
0.0301445 0.000700642 1e-05
0.0302966 0.000698149 1e-05
0.0304486 0.000695644 1e-05
0.0306007 0.000693129 1e-05
0.030754 0.000690583 1e-05
0.0309072 0.000688026 1e-05
0.0310605 0.000685458 1e-05
0.0312138 0.00068288 1e-05
0.031367 0.000680291 1e-05
0.0315215 0.000677673 1e-05
0.0316759 0.000675042 1e-05
0.0318304 0.000672399 1e-05
0.0319848 0.000669746 1e-05
0.0321393 0.000667083 1e-05
0.0322949 0.000664391 1e-05
0.0324506 0.000661685 1e-05
0.0326062 0.000658965 1e-05
0.0327619 0.000656235 1e-05
0.0329175 0.000653497 1e-05
[...]
POINT_DATA 11214
 FIELD attributes 1
U 3 11214 float
10.0023 	0.000538424 	0 10.008 	0.00732637 	0 10.0136 	0.0144243 	0 10.0192 	0.0215391 	0 10.0248 	0.0286706 	0 10.0314 	0.0416908 	0 10.035 	0.0301155 	0 10.038 	0.0301061 	0 10.041 	0.0300965 	0 10.044 	0.0300867 	0 10.0461 	0.0407301 	0 10.0442 	0.0246989 	0 10.0431 	0.0231358 	0 10.0419 	0.021549 	0 10.0408 	0.0199383 	0 10.0394 	0.0307481 	0 10.0362 	0.0148375 	0 10.0339 	0.013653 	0 10.0317 	0.0124461 	0 10.0294 	0.0112162 	0 10.0273 	0.0230032 	0 10.0241 	0.00753398 	0 10.0217 	0.00661209 	0 10.0193 	0.00567001 	0 10.0169 	0.00470731 	0 10.0145 	0.0172374 	0 10.0114 	0.00204103 	0 10.0089 	0.0013241 	0 10.0063 	0.000590097 	0 10.0038 	-0.000161405 	0 10.0012 	0.0132107 	0 9.99828 	-0.00208569 	0 9.9957 	-0.00265077 	0 9.99312 	-0.00322997 	0 9.99053 	-0.00382364 	0 9.9878 	0.0105612 	0 9.98517 	-0.0052842 	0 9.98266 	-0.00578841 	0 9.98014 	-0.00630552 	0 9.97763 	-0.00683585 	0 9.97479 	0.00871415 	0 9.97246 	-0.00805914 	0 9.97003 	-0.00855911 	0 9.9676 	-0.00907196 	0 9.96516 	-0.00959803 	0 9.9622 	0.0073123 	0 9.96019 	-0.0107064 	0 9.95784 	-0.0112228 	0 9.9555 	-0.0117526 	0 9.95315 	-0.012296 	0 9.95002 	0.00621252 	0 9.94838 	-0.0133402 	0 9.94615 	-0.0138837 	0 9.94391 	-0.014441 	0 9.94167 	-0.0150125 	0 9.93836 	0.00533548 	0 9.93716 	-0.0160373 	0 9.93506 	-0.0166272 	0 9.93295 	-0.0172319 	0 9.93084 	-0.0178517 	0 9.92733 	0.00456543 	0 9.92662 	-0.0189232 	0 9.92468 	-0.0196042 	0 9.92273 	-0.0203018 	0 9.92078 	-0.0210164 	0 9.91706 	0.00367816 	0 9.91692 	-0.0222551 	0 9.91513 	-0.023077 	0 9.91334 	-0.0239183 	0 9.91155 	-0.0247796 	0 9.90752 	0.00245478 	0 9.90799 	-0.0263131 	0 9.90638 	-0.0273839 	0 9.90475 	-0.0284794 	0 9.90312 	-0.0296001 	0 9.89875 	0.000427799 	0 9.89996 	-0.0317262 	0 9.89852 	-0.0331355 	0 9.89707 	-0.0345763 	0 9.89561 	-0.0360493 	0 9.89075 	-0.00275412 	0 9.89252 	-0.0390995 	0 9.8909 	-0.0413733 	0 9.88926 	-0.0436959 	0 9.88761 	-0.0460683 	0 9.88164 	-0.00948908 	0 9.88329 	-0.0514604 	1.28197e-21 9.88141 	-0.0542239 	3.26663e-21 9.87952 	-0.0570462 	5.25006e-21 9.8776 	-0.0599286 	7.23225e-21 9.87094 	-0.0177844 	8.70292e-21 9.87309 	-0.0647447 	-4.46882e-21 9.87104 	-0.0674486 	-7.70652e-21 9.86898 	-0.0701909 	-1.09553e-20 9.86691 	-0.0729721 	-1.42154e-20 9.85833 	-0.0188606 	-6.16976e-22 9.8637 	-0.0744073 	-2.51656e-21 9.86184 	-0.0762548 	-4.36762e-21 9.85997 	-0.0781275 	-6.21772e-21 9.85809 	-0.0800258 	-8.06684e-21 9.84586 	-0.0164137 	-9.26634e-21 9.8561 	-0.0790275 	-8.15073e-21 9.85424 	-0.0807104 	-5.62927e-21 9.85237 	-0.0824152 	-3.1072e-21 9.85049 	-0.084142 	-5.84525e-22 9.83231 	-0.0142576 	-3.43422e-21 9.84813 	-0.0811335 	-1.58538e-21 9.84599 	-0.0826636 	-9.5464e-21 9.84384 	-0.0842123 	-1.75055e-20 9.84169 	-0.0857796 	-2.54628e-20 9.81599 	-0.0122366 	-3.25588e-20 9.83819 	-0.081192 	-4.90802e-20 9.8358 	-0.0826772 	-4.45142e-20 9.83341 	-0.0841787 	-3.99513e-20 9.8304 	-0.0842123 	-3.49761e-20 9.79706 	-0.0109366 	-9.48573e-21 9.82455 	-0.0763152 	-9.28427e-21 9.82388 	-0.0820306 	-2.53721e-21 9.82124 	-0.0835856 	4.66739e-21 9.81351 	-0.0756098 	1.20539e-20 9.77557 	-0.0107801 	2.05254e-20 9.80615 	-0.0686732 	6.3471e-20 9.80966 	-0.0811716 	6.96227e-20 9.80668 	-0.0827574 	6.69297e-20 9.79327 	-0.068775 	5.25059e-20 9.75108 	-0.0115259 	5.4751e-21 9.78434 	-0.0628676 	-5.03071e-20 9.79265 	-0.080386 	-7.17175e-20 9.7893 	-0.081984 	-7.69574e-20 9.7695 	-0.0635794 	-6.27734e-20 9.72351 	-0.013006 	-1.73697e-20 9.75911 	-0.0586787 	-1.11034e-20 9.77275 	-0.0798794 	-1.32483e-20 9.76901 	-0.0814943 	-2.21256e-20 9.7423 	-0.059903 	-3.48515e-20 9.69295 	-0.0151613 	-5.14491e-20 9.73054 	-0.0559529 	-6.05294e-20 9.74993 	-0.0798241 	-6.356e-20 9.74579 	-0.0814505 	-5.86892e-20 9.71176 	-0.057588 	-4.65578e-20 9.6595 	-0.0178929 	-2.99472e-20 9.69877 	-0.0544424 	-2.02154e-20 9.72425 	-0.0801961 	-1.0831e-20 9.7197 	-0.0818079 	-2.28115e-21 9.67808 	-0.0563498 	-1.66239e-21 9.62331 	-0.0210163 	-3.92137e-21 9.66394 	-0.0538397 	-1.75512e-21 9.69577 	-0.0808567 	0 9.69082 	-0.0824378 	0 9.64147 	-0.055923 	-1.92687e-21 9.58461 	-0.0243964 	-4.18707e-21 9.62629 	-0.0539266 	-2.02097e-21 9.66463 	-0.0817172 	-5.15242e-22 9.65928 	-0.0832624 	-8.70293e-21 9.60219 	-0.0561332 	-1.60861e-20 9.54366 	-0.0279617 	-2.34797e-20 9.58609 	-0.0545773 	-4.23195e-20 9.62811 	-0.0812155 	-6.1121e-20 9.62081 	-0.0820521 	-6.27844e-20 9.56059 	-0.0568702 	-5.1583e-20 9.50078 	-0.0316639 	-4.03964e-20 9.54369 	-0.0556881 	-7.70271e-20 9.58621 	-0.0797332 	-1.13642e-19 9.57814 	-0.0805876 	-1.02596e-19 9.51702 	-0.0580264 	-5.10474e-20 9.45628 	-0.0354433 	5.34176e-22 9.49942 	-0.057152 	9.46184e-22 9.5422 	-0.0788799 	1.33067e-21 9.53345 	-0.0797352 	3.46956e-21 9.47175 	-0.0595021 	8.52173e-21 9.41039 	-0.0392493 	1.35903e-20 9.45353 	-0.0588883 	8.30324e-21 9.49631 	-0.0785449 	3.00028e-21 9.48699 	-0.0793912 	-9.75749e-22 9.425 	-0.0612317 	-3.2136e-21 9.36333 	-0.0430546 	-5.44559e-21 9.40624 	-0.0608431 	-3.31638e-21 9.44882 	-0.0786476 	-1.19331e-21 9.43902 	-0.0794792 	-2.21145e-21 9.37701 	-0.0631682 	-7.27379e-21 9.3153 	-0.0468414 	-1.23496e-20 9.3578 	-0.0629714 	-7.04257e-21 9.39998 	-0.0791159 	-1.72228e-21 9.38981 	-0.0799278 	-6.99116e-21 9.32802 	-0.065268 	-2.25534e-20 9.26651 	-0.050594 	-3.81261e-20 9.30842 	-0.0652332 	-1.01467e-19 9.35004 	-0.0798857 	-1.64797e-19 9.33959 	-0.0806744 	-1.64041e-19 9.27823 	-0.0674948 	-9.52946e-20 9.21713 	-0.0543025 	-2.65404e-20 9.25832 	-0.067603 	-1.61433e-20 9.29923 	-0.0809155 	-5.749e-21 9.28859 	-0.0816789 	0 9.22785 	-0.069826 	0 9.16734 	-0.0579617 	0 9.20768 	-0.0700603 	0 9.24523 	-0.0815976 	0 9.23316 	-0.0820095 	0 9.17706 	-0.0722374 	0 9.11729 	-0.061561 	0 9.15669 	-0.072578 	0 9.18691 	-0.0817406 	1.04196e-21 9.17502 	-0.0821612 	6.97444e-21 9.12606 	-0.0747016 	1.63797e-20 9.06716 	-0.0650889 	2.67299e-20 9.10553 	-0.0751317 	9.48584e-20 9.12858 	-0.0822584 	1.41798e-19 9.11685 	-0.0826849 	1.40152e-19 9.07497 	-0.0771996 	9.51849e-20 9.01705 	-0.0685417 	2.70037e-20 9.05432 	-0.0777075 	1.67354e-20 9.07038 	-0.0830924 	1.12887e-20 9.05882 	-0.0835233 	1.21504e-20 9.0239 	-0.0797199 	1.65102e-20 8.96705 	-0.0719192 	2.41659e-20 9.00318 	-0.0802949 	6.8161e-20 9.01247 	-0.0841922 	8.42795e-20 9.00107 	-0.0846267 	7.88547e-20 8.97298 	-0.0822535 	5.69141e-20 8.91726 	-0.0752237 	7.59482e-21 8.9522 	-0.0828885 	-4.55396e-20 8.95497 	-0.0855188 	-7.08039e-20 8.94374 	-0.085956 	-8.39315e-20 8.92228 	-0.0847951 	-8.60601e-20 8.86775 	-0.0784578 	-5.25761e-20 8.90148 	-0.0854827 	-1.12399e-19 8.898 	-0.0870356 	-1.17651e-19 8.88693 	-0.0874743 	-1.11791e-19 8.87189 	-0.087337 	-1.00386e-19 8.8186 	-0.0816209 	-3.5325e-20 8.85111 	-0.0880688 	-2.33208e-20 8.84165 	-0.0887078 	-1.55777e-20 8.83073 	-0.089147 	-7.98181e-21 8.8198 	-0.0895861 	-3.86637e-22 8.76987 	-0.0847126 	0 8.79678 	-0.0900679 	2.0733e-22 8.78603 	-0.090507 	2.19569e-21 8.77526 	-0.090946 	4.18423e-21 8.76448 	-0.091385 	6.17296e-21 8.72163 	-0.087733 	8.16764e-21 8.74182 	-0.0919699 	6.77588e-21 8.73122 	-0.0924079 	6.88608e-21 8.7206 	-0.092846 	6.99666e-21 8.70996 	-0.0932841 	7.10761e-21 8.67394 	-0.0906824 	8.45314e-21 8.68772 	-0.0939516 	8.81682e-21 8.67726 	-0.0943881 	1.27711e-20 8.66678 	-0.0948247 	1.67261e-20 8.65628 	-0.0952613 	2.06819e-20 8.62682 	-0.0935619 	2.76107e-20 8.63451 	-0.0959947 	5.75832e-20 8.62418 	-0.0964294 	5.57809e-20 8.61384 	-0.0968642 	5.39723e-20 8.60348 	-0.097299 	5.21575e-20 8.58031 	-0.0963738 	2.80788e-20 8.58223 	-0.0980837 	2.24189e-20 8.57203 	-0.0985159 	1.87681e-20 8.56182 	-0.0989483 	1.51181e-20 8.55159 	-0.0993807 	1.14688e-20 8.53443 	-0.0991184 	8.90824e-21 8.53089 	-0.100203 	3.22436e-21 8.52083 	-0.100633 	-3.33532e-21 8.51075 	-0.101062 	-9.89528e-21 8.50065 	-0.101492 	-1.64555e-20 8.48922 	-0.101796 	-2.28629e-20 8.48805 	-0.102018 	-2.41187e-20 8.48566 	-0.10212 	-2.46888e-20 8.48326 	-0.102223 	-2.52588e-20 8.48087 	-0.102326 	-2.58287e-20 8.4785 	-0.102428 	-2.63927e-20 8.47075 	-0.102753 	-2.88608e-20 8.463 	-0.103079 	-3.13299e-20 8.45523 	-0.103404 	-3.38001e-20 8.44746 	-0.10373 	-3.62712e-20 8.43833 	-0.104266 	-3.71114e-20 8.42992 	-0.104501 	-3.7653e-20 8.41985 	-0.104928 	-3.27004e-20 8.40976 	-0.105356 	-2.77529e-20 8.39965 	-0.105784 	-2.28107e-20 8.3866 	-0.106627 	-5.84031e-21 8.3803 	-0.106684 	-5.39265e-21 8.37035 	-0.107127 	-7.97351e-21 8.36038 	-0.107571 	-1.05539e-20 8.35039 	-0.108015 	-1.31338e-20 8.33607 	-0.109017 	-1.5907e-20 8.33172 	-0.108972 	-3.0614e-20 8.32185 	-0.109412 	-3.62727e-20 8.31195 	-0.109853 	-4.19333e-20 8.30204 	-0.110294 	-4.75956e-20 8.28652 	-0.111352 	-3.34217e-20 8.28394 	-0.111221 	6.81974e-21 8.2741 	-0.111631 	1.82785e-20 8.26424 	-0.112042 	2.97439e-20 8.25436 	-0.112454 	4.12161e-20 8.23772 	-0.113507 	8.07615e-21 8.23673 	-0.113305 	2.05375e-21 8.22695 	-0.113728 	1.46952e-21 8.21714 	-0.114151 	8.85216e-22 8.20732 	-0.114574 	3.00829e-22 8.18972 	-0.115681 	3.3752e-22 8.19027 	-0.11553 	2.44266e-22 8.18056 	-0.115989 	-5.44747e-21 8.17083 	-0.116448 	-1.11385e-20 8.16028 	-0.116965 	-1.68226e-20 8.14258 	-0.117988 	-2.24508e-20 8.14286 	-0.117995 	-1.64461e-20 8.13501 	-0.118384 	-1.04221e-20 8.12535 	-0.118858 	-4.3932e-21 8.11362 	-0.119439 	0 8.09635 	-0.120311 	0 8.09639 	-0.120445 	0 8.09032 	-0.120793 	-2.01473e-21 8.08075 	-0.121265 	-5.18239e-21 8.06794 	-0.121849 	-8.21249e-21 8.05108 	-0.122573 	-1.10698e-20 8.05093 	-0.122811 	-3.42094e-20 8.04659 	-0.12315 	-4.89559e-20 8.03711 	-0.123614 	-5.34224e-20 8.02332 	-0.124158 	-4.68065e-20 8.00684 	-0.124751 	-3.33154e-20 8.00654 	-0.125079 	-9.69032e-20 8.00387 	-0.12544 	-1.43877e-19 7.99449 	-0.125896 	-1.43664e-19 7.97978 	-0.126371 	-9.63135e-20 7.96366 	-0.126852 	-3.66505e-20 7.96323 	-0.12726 	-7.02332e-20 7.96218 	-0.127671 	-1.01359e-19 7.95291 	-0.128122 	-9.92764e-20 7.93733 	-0.128509 	-5.74525e-20 7.92154 	-0.128895 	-1.44159e-20 7.921 	-0.129378 	-7.82807e-21 7.92045 	-0.12986 	-1.2408e-21 7.91142 	-0.130293 	0 7.89594 	-0.1306 	0 7.88044 	-0.130908 	0 7.87983 	-0.131459 	0 7.8792 	-0.132011 	0 7.87081 	-0.132427 	0 7.85559 	-0.13267 	0 7.84036 	-0.132914 	0 7.83968 	-0.133529 	0 7.83897 	-0.134145 	0 7.83121 	-0.134548 	0 7.81623 	-0.134741 	0 7.80124 	-0.134933 	0 7.8005 	-0.135607 	0 7.79973 	-0.136281 	0 7.79259 	-0.136678 	0 7.77782 	-0.136829 	0 7.76304 	-0.136981 	0 7.76225 	-0.137709 	0 7.76143 	-0.138438 	0 7.75488 	-0.138831 	0 7.7403 	-0.138951 	0 7.72571 	-0.139071 	0 7.72487 	-0.139849 	0 7.72358 	-0.140598 	0 7.71707 	-0.140984 	0 7.70363 	-0.141116 	0 7.6892 	-0.141212 	0 7.68833 	-0.142036 	0 7.68594 	-0.142748 	0 7.67945 	-0.14315 	0 7.66776 	-0.143336 	-3.29444e-21 7.65348 	-0.143415 	-8.21508e-21 7.65256 	-0.144282 	-2.88304e-21 7.64909 	-0.144943 	0 7.64264 	-0.145362 	0 7.63264 	-0.14562 	-2.28179e-21 7.61849 	-0.145689 	-7.23532e-21 7.61754 	-0.146597 	-1.86011e-21 7.613 	-0.147198 	0 7.60657 	-0.147636 	0 7.59823 	-0.147981 	0 7.58421 	-0.148047 	0 7.58321 	-0.148995 	0 7.57762 	-0.149527 	1.55763e-22 7.5712 	-0.149987 	3.38922e-22 7.5645 	-0.150433 	4.28507e-22 7.55058 	-0.150501 	-2.06713e-21 7.54929 	-0.151464 	-2.06235e-20 7.5429 	-0.151947 	-1.97147e-20 7.53649 	-0.152431 	-1.88028e-20 7.53006 	-0.152914 	-1.78878e-20 7.51758 	-0.153065 	-9.19153e-21 7.51519 	-0.153963 	-8.72736e-22 7.50881 	-0.154473 	-6.7216e-21 7.5024 	-0.154983 	-1.25712e-20 7.49597 	-0.155493 	-1.84216e-20 7.48516 	-0.155752 	-2.85051e-20 7.48168 	-0.156579 	-3.25778e-20 7.4753 	-0.157118 	-3.21847e-20 7.46889 	-0.157656 	-3.179e-20 7.46246 	-0.158195 	-3.13938e-20 7.45331 	-0.158573 	-2.46065e-20 7.44873 	-0.159325 	-2.02244e-20 7.44234 	-0.159894 	-1.49728e-20 7.43592 	-0.160463 	-9.72203e-21 7.42948 	-0.161033 	-4.47218e-21 7.42196 	-0.161537 	0 7.41853 	-0.161999 	0 7.41439 	-0.162388 	0 7.41025 	-0.162777 	0 7.40609 	-0.163166 	0 7.40203 	-0.163545 	0 7.39965 	-0.163759 	0 7.39726 	-0.163973 	0 7.39488 	-0.164187 	0 7.39249 	-0.164402 	0 7.38995 	-0.164546 	0 7.38369 	-0.165245 	0 7.37705 	-0.165879 	0 7.37038 	-0.166513 	0 7.36369 	-0.167146 	0 7.3565 	-0.16752 	0 7.35112 	-0.168432 	-7.88042e-23 7.34446 	-0.1691 	-1.95924e-22 7.33776 	-0.169768 	-3.13019e-22 7.33104 	-0.170436 	-4.3009e-22 7.32359 	-0.170661 	-4.50878e-22 7.31899 	-0.171779 	-1.30873e-20 7.3123 	-0.172483 	-1.40956e-20 7.30557 	-0.173186 	-1.51083e-20 7.29882 	-0.173889 	-1.61254e-20 7.29118 	-0.173975 	1.83999e-21 7.28727 	-0.175294 	4.49363e-22 7.28054 	-0.176034 	5.17562e-21 7.27378 	-0.176774 	9.90083e-21 7.26699 	-0.177515 	1.4625e-20 7.2592 	-0.177468 	1.93104e-20 7.25568 	-0.178931 	1.41907e-20 7.24916 	-0.179763 	1.33662e-20 7.24236 	-0.180542 	1.2904e-20 7.23535 	-0.181154 	1.23123e-20 7.22765 	-0.18115 	1.12483e-20 7.22393 	-0.182634 	1.13254e-20 7.21815 	-0.183679 	1.09166e-20 7.2113 	-0.184498 	1.02593e-20 7.20411 	-0.184974 	1.06376e-20 7.19649 	-0.185029 	1.22868e-20 7.19258 	-0.186538 	9.91605e-21 7.18748 	-0.187791 	8.29962e-21 7.18059 	-0.188654 	7.82709e-21 7.17324 	-0.189002 	8.90081e-21 7.16569 	-0.189118 	1.06717e-20 7.16161 	-0.190656 	8.1678e-21 7.15713 	-0.192113 	5.34199e-21 7.15019 	-0.193022 	3.35877e-22 7.14273 	-0.193251 	-2.5757e-21 7.13522 	-0.193431 	-5.33701e-21 7.13099 	-0.195001 	-2.85181e-21 7.1267 	-0.19657 	-3.67736e-22 7.12002 	-0.197491 	0 7.11255 	-0.197737 	0 7.10507 	-0.197983 	0 7.10069 	-0.19959 	0 7.09625 	-0.201196 	0 7.09014 	-0.202162 	-1.13447e-21 7.08268 	-0.202477 	-3.75954e-21 7.0752 	-0.202791 	-6.38509e-21 7.07069 	-0.204439 	-4.03542e-21 7.06611 	-0.206086 	-1.68688e-21 7.06056 	-0.2071 	-5.52022e-22 7.05309 	-0.207486 	1.05361e-21 7.0456 	-0.207872 	2.65833e-21 7.04096 	-0.209565 	-1.81856e-20 7.03625 	-0.211257 	-3.90325e-20 7.03123 	-0.212316 	-3.90751e-20 7.02376 	-0.212782 	-1.48399e-20 7.01625 	-0.213242 	9.61016e-21 7.01148 	-0.214985 	-1.57217e-20 7.0066 	-0.216582 	-3.5321e-20 7.00147 	-0.217672 	-3.47161e-20 6.99468 	-0.218381 	-2.0789e-20 6.98713 	-0.218919 	-8.96577e-22 6.98225 	-0.220715 	-3.31589e-21 6.9772 	-0.222195 	-2.2607e-21 6.97197 	-0.223351 	2.34964e-21 6.96583 	-0.224301 	7.65731e-21 6.95823 	-0.22492 	1.40907e-20 6.95324 	-0.226774 	7.44363e-21 6.94802 	-0.228143 	7.91998e-21 6.94271 	-0.229369 	1.04882e-20 6.9372 	-0.230561 	1.34695e-20 6.92953 	-0.231265 	2.2282e-20 6.92442 	-0.233147 	3.01817e-20 6.91906 	-0.234449 	2.72121e-20 6.91364 	-0.23575 	2.42385e-20 6.90818 	-0.237051 	2.12608e-20 6.90103 	-0.237977 	9.37206e-21 6.89576 	-0.239754 	7.31293e-21 6.8903 	-0.241137 	5.27818e-21 6.88478 	-0.242519 	3.24433e-21 6.87922 	-0.243901 	1.21137e-21 6.87271 	-0.245084 	0 6.86728 	-0.246765 	1.49361e-21 6.86172 	-0.248236 	3.80721e-21 6.8561 	-0.249706 	6.12173e-21 6.85043 	-0.251175 	8.43718e-21 6.84458 	-0.252617 	1.03307e-20 6.84368 	-0.2529 	1.0941e-20 6.84277 	-0.253154 	1.13579e-20 6.84186 	-0.253407 	1.17749e-20 6.84095 	-0.253661 	1.21919e-20 6.84004 	-0.253912 	1.26041e-20 6.83502 	-0.255217 	1.50369e-20 6.82996 	-0.256521 	1.74734e-20 6.82486 	-0.257826 	1.99137e-20 6.81971 	-0.259129 	2.23576e-20 6.81455 	-0.260276 	2.16331e-20 6.80902 	-0.26208 	2.46274e-20 6.80289 	-0.26374 	2.5165e-20 6.79669 	-0.2654 	2.57071e-20 6.79044 	-0.267059 	2.62536e-20 6.78419 	-0.268373 	2.12214e-20 6.77917 	-0.27046 	2.55946e-20 6.7729 	-0.272235 	2.0641e-20 6.76656 	-0.27401 	1.56955e-20 6.76016 	-0.275784 	1.07581e-20 6.75381 	-0.277022 	-2.72969e-21 6.74912 	-0.279355 	-4.73232e-21 6.74289 	-0.281305 	-9.58668e-21 6.7364 	-0.283207 	-1.47878e-20 6.72989 	-0.284935 	-2.05876e-20 6.72339 	-0.28628 	-2.77294e-20 6.71854 	-0.288743 	-1.94072e-20 6.71285 	-0.291009 	-1.34722e-20 6.7062 	-0.293051 	-1.02553e-20 6.69956 	-0.294721 	-1.55606e-20 6.6929 	-0.296212 	-2.49543e-20 6.68789 	-0.298819 	5.55992e-22 6.68274 	-0.301415 	2.55596e-20 6.67593 	-0.303584 	2.98934e-20 6.66914 	-0.305238 	8.09748e-21 6.66229 	-0.30689 	-1.37033e-20 6.65711 	-0.30966 	-8.17347e-21 6.65183 	-0.312428 	-2.64562e-21 6.64557 	-0.314735 	0 6.63858 	-0.316569 	0 6.63151 	-0.318403 	0 6.62615 	-0.321355 	0 6.62068 	-0.324305 	0 6.61504 	-0.326777 	0 6.60781 	-0.328814 	0 6.60049 	-0.330849 	0 6.59494 	-0.334005 	0 6.58929 	-0.337023 	1.06138e-23 6.58354 	-0.339662 	5.03658e-23 6.57675 	-0.342085 	-7.54088e-22 6.56915 	-0.344348 	-2.18459e-21 6.56339 	-0.347736 	1.42316e-20 6.55749 	-0.350775 	1.54062e-20 6.55148 	-0.353664 	1.00711e-20 6.5453 	-0.356536 	4.14839e-21 6.53738 	-0.359063 	-1.59202e-20 6.53137 	-0.362647 	-1.12327e-20 6.52516 	-0.365809 	-8.15902e-21 6.51883 	-0.368967 	-5.08912e-21 6.51239 	-0.372123 	-2.02306e-21 6.50501 	-0.375106 	9.41901e-22 6.49991 	-0.378053 	1.26295e-21 6.49466 	-0.38082 	4.48532e-21 6.48934 	-0.383586 	7.71013e-21 6.48394 	-0.386349 	1.09374e-20 6.47892 	-0.388875 	1.38927e-20 6.47755 	-0.389602 	1.52173e-20 6.47617 	-0.39033 	1.65431e-20 6.47479 	-0.391057 	1.787e-20 6.4734 	-0.391784 	1.91982e-20 6.47189 	-0.392474 	1.64259e-20 6.46585 	-0.396273 	7.95226e-21 6.45935 	-0.400039 	-3.51021e-22 6.45273 	-0.4038 	-8.67032e-21 6.44598 	-0.407557 	-1.70057e-20 6.43833 	-0.411116 	-2.5322e-20 6.43345 	-0.415416 	-4.19026e-20 6.42652 	-0.419567 	-4.57638e-20 6.41945 	-0.423713 	-4.96687e-20 6.4121 	-0.427829 	-5.06408e-20 6.40334 	-0.431689 	-2.29009e-20 6.39872 	-0.436475 	-1.17194e-20 6.39229 	-0.441136 	-3.41772e-21 6.38467 	-0.445718 	3.09312e-21 6.37595 	-0.450133 	7.30725e-21 6.3665 	-0.454448 	1.01348e-20 6.36136 	-0.459719 	3.20271e-20 6.35604 	-0.464982 	5.39129e-20 6.3477 	-0.470004 	5.35987e-20 6.33757 	-0.4748 	3.08796e-20 6.32726 	-0.479593 	8.1423e-21 6.32148 	-0.485374 	4.51291e-21 6.3155 	-0.491148 	8.77993e-22 6.30748 	-0.496726 	-5.21689e-21 6.29633 	-0.502057 	-1.20886e-20 6.28498 	-0.507385 	-1.8976e-20 6.2784 	-0.513731 	-1.38072e-20 6.27083 	-0.520006 	-1.12542e-20 6.26178 	-0.526166 	-1.30478e-20 6.2515 	-0.532236 	-1.65473e-20 6.23891 	-0.538137 	-2.35534e-20 6.23126 	-0.545083 	-1.82697e-20 6.22118 	-0.551894 	-6.57976e-21 6.21085 	-0.558696 	5.10803e-21 6.20027 	-0.565488 	1.67936e-20 6.18811 	-0.572166 	2.73431e-20 6.18401 	-0.575397 	3.16186e-20 6.17914 	-0.578602 	3.15138e-20 6.17421 	-0.581806 	3.14044e-20 6.16924 	-0.585008 	3.12904e-20 6.16454 	-0.587998 	3.11795e-20 6.15811 	-0.592286 	3.2925e-20 6.15158 	-0.59657 	3.4679e-20 6.14497 	-0.600851 	3.64414e-20 6.13827 	-0.605127 	3.82123e-20 6.13101 	-0.609355 	2.78886e-20 6.12016 	-0.617685 	2.40349e-20 6.10767 	-0.625812 	1.68831e-20 6.09489 	-0.633927 	9.70947e-21 6.08164 	-0.64202 	3.99256e-21 6.06688 	-0.650047 	7.72294e-21 6.05533 	-0.659267 	2.47161e-20 6.04253 	-0.668324 	3.4932e-20 6.02779 	-0.67711 	3.3297e-20 6.01124 	-0.685834 	1.14135e-20 5.99417 	-0.694557 	-1.25428e-20 5.98059 	-0.704485 	-6.57697e-20 5.96664 	-0.714398 	-1.18967e-19 5.95043 	-0.72419 	-1.20984e-19 5.93095 	-0.733519 	-6.96256e-20 5.91107 	-0.742857 	-1.81557e-20 5.89491 	-0.753421 	2.65213e-20 5.87695 	-0.764012 	4.44984e-20 5.85764 	-0.774617 	4.44086e-20 5.83791 	-0.785207 	4.41787e-20 5.81543 	-0.795381 	2.30003e-20 5.80562 	-0.801086 	3.51975e-20 5.79446 	-0.806838 	2.92625e-20 5.78319 	-0.812587 	2.32936e-20 5.77179 	-0.818332 	1.72907e-20 5.76133 	-0.82355 	1.18042e-20 5.75041 	-0.829219 	4.84409e-21 5.73939 	-0.834884 	-2.15795e-21 5.72825 	-0.840545 	-9.20216e-21 5.717 	-0.846201 	-1.62887e-20 5.70491 	-0.851986 	-2.41355e-21 5.68266 	-0.864476 	1.50642e-22 5.65799 	-0.8764 	1.44847e-22 5.63283 	-0.888312 	1.38517e-22 5.60637 	-0.900275 	-2.09281e-21 5.5784 	-0.912343 	-6.72328e-21 5.55271 	-0.925584 	-3.35087e-20 5.52646 	-0.93881 	-6.03014e-20 5.49755 	-0.951612 	-6.58008e-20 5.46569 	-0.963836 	-5.02222e-20 5.43311 	-0.976115 	-3.45741e-20 5.40292 	-0.989612 	-7.53474e-20 5.37066 	-1.00283 	-7.09856e-20 5.33709 	-1.01591 	-4.53294e-20 5.30288 	-1.02898 	-1.9371e-20 5.2672 	-1.04187 	1.30302e-20 5.26385 	-1.04314 	1.405e-20 5.26032 	-1.04435 	1.50178e-20 5.25674 	-1.04554 	1.59691e-20 5.25315 	-1.04674 	1.69211e-20 5.24962 	-1.04791 	1.7856e-20 5.21724 	-1.05963 	3.