# vtk DataFile Version 2.0
track0
ASCII
DATASET POLYDATA
POINTS 10925 double
-0.0205 0.001 1e-05
-0.0202034 0.00100003 1e-05
-0.0199069 0.00100026 1e-05
-0.0196103 0.00100071 1e-05
-0.0193137 0.00100137 1e-05
-0.0190172 0.00100225 1e-05
-0.0187132 0.00100354 1e-05
-0.0184093 0.00100451 1e-05
-0.0181054 0.00100547 1e-05
-0.0178015 0.00100644 1e-05
-0.0174976 0.00100741 1e-05
-0.0172058 0.00100863 1e-05
-0.016914 0.0010094 1e-05
-0.0166222 0.00101012 1e-05
-0.0163305 0.00101077 1e-05
-0.0160387 0.00101137 1e-05
-0.0157586 0.00101221 1e-05
-0.0154784 0.00101262 1e-05
-0.0151983 0.00101299 1e-05
-0.0149182 0.00101331 1e-05
-0.0146381 0.00101359 1e-05
-0.0143692 0.00101415 1e-05
-0.0141002 0.00101429 1e-05
-0.0138313 0.0010144 1e-05
-0.0135624 0.00101448 1e-05
-0.0132934 0.00101452 1e-05
-0.0130353 0.00101487 1e-05
-0.0127771 0.00101482 1e-05
-0.0125189 0.00101474 1e-05
-0.0122607 0.00101463 1e-05
-0.0120025 0.0010145 1e-05
-0.0117547 0.00101471 1e-05
-0.0115068 0.00101451 1e-05
-0.0112589 0.00101429 1e-05
-0.0110111 0.00101404 1e-05
-0.0107632 0.00101377 1e-05
-0.0105252 0.0010139 1e-05
-0.0102873 0.00101359 1e-05
-0.0100493 0.00101325 1e-05
-0.00981133 0.0010129 1e-05
-0.00957337 0.00101253 1e-05
-0.00934491 0.0010126 1e-05
-0.00911645 0.0010122 1e-05
-0.008888 0.00101177 1e-05
-0.00865954 0.00101133 1e-05
-0.00843108 0.00101087 1e-05
-0.00821175 0.00101091 1e-05
-0.00799242 0.00101042 1e-05
-0.00777309 0.00100991 1e-05
-0.00755376 0.00100939 1e-05
-0.00733443 0.00100884 1e-05
-0.00712387 0.00100887 1e-05
-0.0069133 0.0010083 1e-05
-0.00670273 0.00100772 1e-05
-0.00649217 0.00100712 1e-05
-0.0062816 0.00100649 1e-05
-0.00607944 0.00100651 1e-05
-0.00587729 0.00100587 1e-05
-0.00567514 0.00100521 1e-05
-0.00547299 0.00100454 1e-05
-0.00527083 0.00100384 1e-05
-0.00507675 0.00100385 1e-05
-0.00488268 0.00100314 1e-05
-0.0046886 0.00100241 1e-05
-0.00449452 0.00100166 1e-05
-0.00430044 0.00100088 1e-05
-0.00411412 0.00100088 1e-05
-0.0039278 0.0010001 1e-05
-0.00374148 0.000999294 1e-05
-0.00355516 0.000998462 1e-05
-0.00336883 0.000997604 1e-05
-0.00318995 0.000997594 1e-05
-0.00301107 0.000996727 1e-05
-0.0028322 0.000995831 1e-05
-0.00265332 0.000994906 1e-05
-0.00247443 0.000993951 1e-05
-0.0023027 0.000993919 1e-05
-0.00213097 0.000992949 1e-05
-0.00195924 0.000991944 1e-05
-0.00178751 0.000990904 1e-05
-0.00161577 0.000989828 1e-05
-0.0014509 0.000989757 1e-05
-0.00128603 0.000988657 1e-05
-0.00112117 0.000987509 1e-05
-0.000956301 0.00098631 1e-05
-0.000791418 0.00098506 1e-05
-0.000633135 0.000984893 1e-05
-0.000474856 0.000983577 1e-05
-0.000316579 0.000982205 1e-05
-0.000158301 0.000980774 1e-05
0 0.000979283 1e-05
0.000105677 0.000979084 1e-05
0.00021135 0.000978019 1e-05
0.000317022 0.000976919 1e-05
0.000422693 0.000975782 1e-05
0.000528387 0.000974609 1e-05
0.000634886 0.0009744 1e-05
0.000741379 0.000973201 1e-05
0.000847871 0.000971978 1e-05
0.000954363 0.000970732 1e-05
0.00106088 0.000969463 1e-05
0.00116821 0.000969301 1e-05
0.00127553 0.000968045 1e-05
0.00138285 0.000966772 1e-05
0.00149017 0.00096548 1e-05
0.00159752 0.000964232 1e-05
0.00170568 0.000964131 1e-05
0.00181383 0.000962979 1e-05
0.00192199 0.000961703 1e-05
0.00203014 0.000960412 1e-05
0.00213833 0.000959314 1e-05
0.00224733 0.000959276 1e-05
0.00235633 0.000958281 1e-05
0.00246532 0.000957036 1e-05
0.00257432 0.000955776 1e-05
0.00268334 0.000954822 1e-05
0.00279319 0.000954839 1e-05
0.00290303 0.000953982 1e-05
0.00301288 0.000952778 1e-05
0.00312272 0.000951558 1e-05
0.00323259 0.000950728 1e-05
0.00334329 0.000950782 1e-05
0.00345399 0.000950041 1e-05
0.00356469 0.00094888 1e-05
0.00367539 0.000947703 1e-05
0.00378611 0.000946977 1e-05
0.00389767 0.000947054 1e-05
0.00400923 0.000946407 1e-05
0.00412079 0.000945287 1e-05
0.00423235 0.00094415 1e-05
0.00434393 0.00094351 1e-05
0.00445636 0.000943597 1e-05
0.00456879 0.000943023 1e-05
0.00468122 0.000941939 1e-05
0.00479365 0.000940837 1e-05
0.00490609 0.000940261 1e-05
0.0050194 0.000940347 1e-05
0.0051327 0.000939828 1e-05
0.005246 0.000938772 1e-05
0.0053593 0.000937698 1e-05
0.00547262 0.00093717 1e-05
0.00558681 0.000937246 1e-05
0.00570099 0.000936766 1e-05
0.00581518 0.000935737 1e-05
0.00592936 0.000934702 1e-05
0.00604356 0.00093421 1e-05
0.00615863 0.000934268 1e-05
0.00627371 0.000933817 1e-05
0.00638878 0.000932861 1e-05
0.00650385 0.000931898 1e-05
0.00661893 0.000931431 1e-05
0.0067349 0.000931468 1e-05
0.00685087 0.000931036 1e-05
0.00696684 0.00093014 1e-05
0.0070828 0.000929237 1e-05
0.00719878 0.000928787 1e-05
0.00731565 0.000928799 1e-05
0.00743252 0.00092838 1e-05
0.00754939 0.000927534 1e-05
0.00766626 0.00092668 1e-05
0.00778313 0.000926243 1e-05
0.00790091 0.000926228 1e-05
0.00801869 0.000925817 1e-05
0.00813647 0.000925012 1e-05
0.00825425 0.0009242 1e-05
0.00837203 0.000923771 1e-05
0.00849073 0.00092373 1e-05
0.00860942 0.000923324 1e-05
0.00872812 0.000922555 1e-05
0.00884681 0.000921778 1e-05
0.00896551 0.000921355 1e-05
0.00908513 0.000921289 1e-05
0.00920475 0.000920885 1e-05
0.00932436 0.000920147 1e-05
0.00944398 0.000919402 1e-05
0.0095636 0.000918983 1e-05
0.00968415 0.000918893 1e-05
0.0098047 0.000918492 1e-05
0.00992525 0.000917782 1e-05
0.0100458 0.000917065 1e-05
0.0101663 0.000916649 1e-05
0.0102878 0.000916539 1e-05
0.0104093 0.00091614 1e-05
0.0105308 0.000915456 1e-05
0.0106523 0.000914766 1e-05
0.0107738 0.000914354 1e-05
0.0108962 0.000914226 1e-05
0.0110186 0.000913831 1e-05
0.0111411 0.000913172 1e-05
0.0112635 0.000912508 1e-05
0.0113859 0.000912104 1e-05
0.0115093 0.000911962 1e-05
0.0116327 0.000911573 1e-05
0.0117561 0.000910948 1e-05
0.0118794 0.000910325 1e-05
0.0120028 0.00090993 1e-05
0.0121272 0.000909779 1e-05
0.0122515 0.0009094 1e-05
0.0123759 0.000908824 1e-05
0.0125002 0.00090825 1e-05
0.0126245 0.000907868 1e-05
0.0127498 0.000907715 1e-05
0.0128752 0.00090735 1e-05
0.0130005 0.000906821 1e-05
0.0131258 0.000906297 1e-05
0.0132511 0.000905934 1e-05
0.0133774 0.000905784 1e-05
0.0135036 0.000905438 1e-05
0.0136299 0.000904959 1e-05
0.0137562 0.000904486 1e-05
0.0138825 0.000904145 1e-05
0.0140098 0.000904007 1e-05
0.014137 0.000903686 1e-05
0.0142643 0.000903258 1e-05
0.0143915 0.000902837 1e-05
0.0145188 0.000902526 1e-05
0.0146471 0.000902406 1e-05
0.0147753 0.000902115 1e-05
0.0149036 0.000901741 1e-05
0.0150318 0.000901374 1e-05
0.0151601 0.000901098 1e-05
0.0152893 0.000901002 1e-05
0.0154186 0.000900747 1e-05
0.0155478 0.000900427 1e-05
0.0156771 0.000900117 1e-05
0.0158063 0.000899879 1e-05
0.0159366 0.000899813 1e-05
0.0160668 0.000899597 1e-05
0.0161971 0.000899334 1e-05
0.0163273 0.00089908 1e-05
0.0164576 0.000898884 1e-05
0.0165889 0.000898851 1e-05
0.0167201 0.000898677 1e-05
0.0168514 0.000898469 1e-05
0.0169827 0.000898271 1e-05
0.0171139 0.000898118 1e-05
0.0172462 0.000898119 1e-05
0.0173785 0.000897985 1e-05
0.0175108 0.000897831 1e-05
0.0176431 0.000897686 1e-05
0.0177754 0.000897573 1e-05
0.0179087 0.000897607 1e-05
0.018042 0.000897511 1e-05
0.0181753 0.000897405 1e-05
0.0183087 0.000897308 1e-05
0.018442 0.00089723 1e-05
0.0185763 0.000897294 1e-05
0.0187107 0.00089723 1e-05
0.018845 0.000897165 1e-05
0.0189794 0.000897107 1e-05
0.0191137 0.000897058 1e-05
0.0192491 0.000897142 1e-05
0.0193845 0.000897102 1e-05
0.0195199 0.000897067 1e-05
0.0196553 0.000897036 1e-05
0.0197907 0.000897009 1e-05
0.0199272 0.000897102 1e-05
0.0200636 0.000897081 1e-05
0.0202001 0.000897061 1e-05
0.0203365 0.000897042 1e-05
0.020473 0.000897024 1e-05
0.0206105 0.00089711 1e-05
0.020748 0.00089709 1e-05
0.0208855 0.000897067 1e-05
0.021023 0.000897041 1e-05
0.0211606 0.000897012 1e-05
0.0212991 0.000897072 1e-05
0.0214377 0.000897031 1e-05
0.0215763 0.000896983 1e-05
0.0217149 0.000896927 1e-05
0.0218535 0.000896863 1e-05
0.0219931 0.000896872 1e-05
0.0221328 0.000896785 1e-05
0.0222724 0.000896685 1e-05
0.0224121 0.000896572 1e-05
0.0225517 0.000896445 1e-05
0.0226925 0.000896374 1e-05
0.0228332 0.000896211 1e-05
0.022974 0.000896027 1e-05
0.0231147 0.000895824 1e-05
0.0232555 0.000895599 1e-05
0.0233973 0.000895412 1e-05
0.0235391 0.000895136 1e-05
0.023681 0.000894833 1e-05
0.0238228 0.000894502 1e-05
0.0239647 0.000894143 1e-05
0.0241076 0.000893805 1e-05
0.0242505 0.000893381 1e-05
0.0243935 0.000892922 1e-05
0.0245364 0.00089243 1e-05
0.0246794 0.000891903 1e-05
0.0248234 0.000891377 1e-05
0.0249675 0.000890768 1e-05
0.0251115 0.000890116 1e-05
0.0252556 0.000889422 1e-05
0.0253996 0.000888685 1e-05
0.0255448 0.000887928 1e-05
0.02569 0.000887089 1e-05
0.0258351 0.000886199 1e-05
0.0259803 0.000885257 1e-05
0.0261255 0.000884264 1e-05
0.0262718 0.000883228 1e-05
0.0264181 0.000882113 1e-05
0.0265644 0.000880938 1e-05
0.0267107 0.000879702 1e-05
0.026857 0.000878406 1e-05
0.0269702 0.000877362 1e-05
0.0270833 0.000876272 1e-05
0.0271965 0.000875141 1e-05
0.0273097 0.000873969 1e-05
0.0273995 0.000873006 1e-05
0.0274384 0.000872578 1e-05
0.0274774 0.000872145 1e-05
0.0275163 0.000871707 1e-05
0.0275553 0.000871264 1e-05
0.0275942 0.000870817 1e-05
0.0277428 0.000869089 1e-05
0.0278914 0.000867286 1e-05
0.0280399 0.000865405 1e-05
0.0281885 0.000863446 1e-05
0.0283371 0.00086141 1e-05
0.0284869 0.000859273 1e-05
0.0286366 0.000857058 1e-05
0.0287863 0.000854755 1e-05
0.0289361 0.000852367 1e-05
0.0290858 0.000849891 1e-05
0.0292367 0.000847299 1e-05
0.0293876 0.000844624 1e-05
0.0295385 0.000841852 1e-05
0.0296894 0.000838985 1e-05
0.0298403 0.000836021 1e-05
0.0299924 0.000832927 1e-05
0.0301445 0.000829742 1e-05
0.0302966 0.000826452 1e-05
0.0304486 0.000823056 1e-05
0.0306007 0.000819554 1e-05
0.030754 0.000815907 1e-05
0.0309072 0.000812162 1e-05
0.0310605 0.000808301 1e-05
0.0312137 0.000804324 1e-05
0.031367 0.00080023 1e-05
0.0315215 0.000795979 1e-05
0.0316759 0.000791617 1e-05
0.0318304 0.000787131 1e-05
0.0319848 0.000782518 1e-05
0.0321393 0.000777777 1e-05
0.0322949 0.000772867 1e-05
0.0324506 0.000767831 1e-05
0.0326062 0.000762662 1e-05
0.0327619 0.000757356 1e-05
0.0329175 0.00075191 1e-05
[...]
POINT_DATA 10925
 FIELD attributes 2
p 1 10925 float
1.40933 1.35926 1.29923 1.23864 1.17748 1.05222 0.979052 0.899198 0.819344 0.739489 0.654449 0.650437 0.630115 0.609845 0.589628 0.55771 0.568603 0.559772 0.551006 0.542306 0.517355 0.52162 0.508751 0.495936 0.483176 0.454395 0.4593 0.447972 0.43669 0.425454 0.397597 0.40522 0.396004 0.386827 0.37769 0.350164 0.359429 0.350564 0.341734 0.332939 0.303503 0.314662 0.305812 0.296995 0.288212 0.25612 0.270016 0.261384 0.252786 0.244223 0.209142 0.226265 0.217753 0.209276 0.200834 0.162122 0.182656 0.173893 0.165167 0.156478 0.113193 0.137341 0.128119 0.118937 0.109795 0.0612971 0.0895783 0.0798092 0.0700844 0.060405 0.00591177 0.0387509 0.0284676 0.0182363 0.00805827 -0.0529682 -0.0145169 -0.0250822 -0.0355854 -0.0460249 -0.114601 -0.0691275 -0.0788115 -0.0884084 -0.0979163 -0.174233 -0.11129 -0.111084 -0.110779 -0.110374 -0.184743 -0.0720003 -0.0583912 -0.0447015 -0.0309298 -0.131885 -0.00326912 0.00969982 0.0227221 0.0357985 -0.0802621 0.0306991 0.0369089 0.043154 0.043261 -0.0664337 0.0200323 0.0312961 0.0337769 0.0182734 -0.0723895 -0.00668917 0.00929143 0.00872849 -0.0175179 -0.0966825 -0.0476459 -0.0309183 -0.0347133 -0.0685677 -0.13851 -0.100417 -0.0834016 -0.089326 -0.128052 -0.190815 -0.160029 -0.142702 -0.150172 -0.192649 -0.250435 -0.224697 -0.206878 -0.215603 -0.261282 -0.315561 -0.293302 -0.274614 -0.284268 -0.332636 -0.384176 -0.364289 -0.344505 -0.355813 -0.405183 -0.454408 -0.436116 -0.417966 -0.430196 -0.477574 -0.524779 -0.507628 -0.490646 -0.503498 -0.549187 -0.594686 -0.578522 -0.562542 -0.575869 -0.620101 -0.664133 -0.648898 -0.633857 -0.647536 -0.690454 -0.733167 -0.718898 -0.704828 -0.718774 -0.76043 -0.801881 -0.788663 -0.775644 -0.789826 -0.830303 -0.870578 -0.858554 -0.846726 -0.861166 -0.900568 -0.939772 -0.929115 -0.918649 -0.933409 -0.971846 -1.01009 -1.001 -0.992084 -1.00726 -1.04488 -1.08231 -1.07499 -1.06863 -1.08478 -1.12047 -1.15722 -1.15187 -1.14948 -1.16615 -1.19948 -1.23573 -1.23262 -1.23413 -1.25157 -1.28299 -1.31897 -1.31838 -1.32377 -1.34225 -1.37225 -1.40815 -1.41039 -1.41967 -1.43949 -1.4686 -1.50469 -1.51005 -1.52324 -1.5447 -1.57344 -1.60996 -1.61873 -1.63577 -1.65911 -1.68794 -1.72504 -1.73741 -1.75822 -1.78363 -1.81301 -1.85089 -1.86708 -1.89157 -1.91924 -1.94957 -1.98832 -2.00843 -2.03644 -2.06646 -2.09809 -2.1378 -2.1618 -2.19312 -2.22555 -2.25875 -2.2995 -2.32739 -2.36176 -2.39657 -2.43155 -2.47333 -2.50502 -2.54218 -2.57933 -2.61647 -2.65898 -2.69452 -2.73389 -2.77326 -2.81263 -2.85578 -2.89472 -2.93607 -2.97743 -3.01878 -3.06255 -3.10433 -3.14737 -3.19041 -3.23346 -3.27782 -3.32192 -3.36623 -3.41055 -3.45489 -3.49954 -3.5452 -3.59036 -3.63554 -3.68073 -3.72559 -3.77225 -3.81782 -3.86341 -3.90902 -3.95372 -4.00043 -4.04577 -4.09114 -4.13653 -4.18085 -4.22697 -4.27167 -4.3164 -4.36116 -4.40497 -4.45008 -4.49378 -4.53751 -4.58128 -4.62422 -4.66752 -4.70972 -4.75196 -4.79424 -4.83608 -4.86762 -4.89863 -4.92966 -4.96072 -4.98539 -4.99613 -5.00688 -5.01763 -5.02838 -5.03866 -5.0777 -5.11635 -5.15505 -5.1938 -5.23019 -5.26913 -5.30576 -5.34245 -5.3792 -5.41141 -5.4504 -5.48486 -5.5194 -5.55399 -5.58161 -5.62085 -5.653 -5.68523 -5.71753 -5.74016 -5.77982 -5.80949 -5.83925 -5.86834 -5.88631 -5.92443 -5.95356 -5.98067 -6.00386 -6.01929 -6.05452 -6.08447 -6.10874 -6.12559 -6.1383 -6.17034 -6.20122 -6.22243 -6.23253 -6.24238 -6.27099 -6.2997 -6.31713 -6.32367 -6.33031 -6.3551 -6.38001 -6.39448 -6.39761 -6.40085 -6.42147 -6.44058 -6.45056 -6.4531 -6.45264 -6.46872 -6.47844 -6.48413 -6.48865 -6.48413 -6.49412 -6.49492 -6.49584 -6.4969 -6.49331 -6.49393 -6.4909 -6.48793 -6.48502 -6.48253 -6.48144 -6.48038 -6.47934 -6.47832 -6.47487 -6.46883 -6.45968 -6.45073 -6.44196 -6.42367 -6.41948 -6.40563 -6.39025 -6.36906 -6.34245 -6.33095 -6.31966 -6.29565 -6.26131 -6.22714 -6.2072 -6.18751 -6.15615 -6.11594 -6.07319 -6.04366 -6.00437 -5.96296 -5.9218 -5.8747 -5.85879 -5.83859 -5.81843 -5.79832 -5.77967 -5.74837 -5.71723 -5.68623 -5.65538 -5.61713 -5.56619 -5.50302 -5.44031 -5.3705 -5.29503 -5.22919 -5.16382 -5.08612 -4.99411 -4.90222 -4.81787 -4.72345 -4.62509 -4.52727 -4.4262 -4.41485 -4.4021 -4.38898 -4.37587 -4.36306 -4.26082 -4.15923 -4.05829 -3.95548 -3.84115 -3.71801 -3.59572 -3.45426 -3.29972 -3.14496 -2.99187 -2.82768 -2.65762 -2.48878 -2.34757 -2.34241 -2.33725 -2.33209 -2.32663 -2.32071 -2.13132 -1.94158 -1.75383 -1.55879 -1.35246 -1.15241 -0.954024 -0.721242 -0.489477 -0.226383 -0.17198 -0.115573 -0.0543881 0.00656744 0.0629507 0.259251 0.452023 0.641242 0.85528 1.08436 1.35844 1.62152 1.86264 2.09532 2.24012 2.25913 2.27807 2.29695 2.31856 2.34024 2.57751 2.79283 2.99003 3.14829 3.31515 3.35547 3.39537 3.42403 3.44895 3.47285 3.62025 3.7637 3.89731 4.00408 4.11686 4.18882 4.26038 4.30598 4.34103 4.37584 4.49216 4.60777 4.71321 4.78258 4.85398 4.95453 5.05633 5.09407 5.11417 5.13731 5.19034 5.2435 5.29446 5.30899 5.3235 5.39036 5.46083 5.47942 5.4338 5.39287 5.38556 5.37679 5.3605 5.34424 5.32715 5.31225 5.29752 5.28297 5.25178 5.21535 5.1785 5.14205 5.09941 5.0397 4.97906 4.95788 4.93706 4.91663 4.89621 4.87579 4.85424 4.83268 4.81113 4.79055 4.77134 4.74395 4.71494 4.68254 4.65679 4.63102 4.6152 4.604 4.59661 4.58925 4.5823 4.58164 4.58098 4.58032 4.57974 4.57928 4.58141 4.58264 4.5839 4.58584 4.58847 4.60544 4.62242 4.63844 4.65298 4.66546 4.67601 4.68592 4.69524 4.70457 4.71373 4.72685 4.73996 4.75308 4.76828 4.78647 4.81269 4.83891 4.86937 4.90523 4.94113 4.96833 4.99896 5.03239 5.06582 5.09938 5.10412 5.10886 5.11359 5.11784 5.12159 5.16422 5.20505 5.24587 5.28062 5.3126 5.35966 5.40492 5.44244 5.47998 5.51439 5.52486 5.5342 5.54249 5.55077 5.55913 5.58898 5.61886 5.64874 5.68295 5.72156 5.7552 5.78883 5.83068 5.88081 5.93032 5.95232 5.97851 6.00799 6.03745 6.06844 6.0834 6.09836 6.11332 6.12624 6.13617 6.18696 6.23186 6.27626 6.3075 6.33654 6.38678 6.43341 6.46862 6.50388 6.53285 6.54862 6.56115 6.57214 6.58314 6.59445 6.61806 6.64169 6.66535 6.69254 6.72767 6.75302 6.78017 6.81697 6.8684 6.91907 6.94346 6.97443 7.01592 7.05738 7.10545 7.11345 7.12612 7.13997 7.15381 7.16826 7.19488 7.22148 7.24807 7.27218 7.28509 7.33575 7.38035 7.42003 7.44034 7.45923 7.50904 7.55739 7.58669 7.61083 7.62887 7.66547 7.68832 7.70975 7.73121 7.75392 7.76097 7.76802 7.77507 7.78248 7.7954 7.81733 7.8456 7.87392 7.90967 7.96164 7.97505 7.98839 8.02097 8.07257 8.12366 8.13629 8.1566 8.19291 8.23141 8.28182 8.29021 8.31511 8.34 8.36488 8.39196 8.40224 8.41253 8.42281 8.43309 8.43557 8.47842 8.51353 8.54863 8.57664 8.5839 8.63528 8.68665 8.71574 8.72242 8.72905 8.77978 8.8259 8.84901 8.86497 8.87096 8.91823 8.94084 8.9635 8.98622 9.00932 9.00937 9.00942 9.00947 9.00952 9.00963 9.03206 9.0546 9.07719 9.09983 9.15021 9.15103 9.1666 9.1889 9.2336 9.28741 9.28769 9.28781 9.3148 9.36844 9.42163 9.42138 9.4306 9.46173 9.50051 9.55323 9.55507 9.58586 9.61667 9.6475 9.68257 9.68346 9.68872 9.69397 9.69922 9.70463 9.72993 9.75524 9.78057 9.80592 9.8073 9.86119 9.89156 9.92196 9.93573 9.92954 9.98397 10.0385 10.0627 10.0563 10.0497 10.1036 10.1571 10.1748 10.1746 10.1675 10.221 10.2472 10.2651 10.2831 10.2828 10.316 10.3307 10.3454 10.3601 10.3745 10.378 10.3814 10.3848 10.3882 10.3964 10.4096 10.4277 10.4459 10.4641 10.5109 10.5001 10.5183 10.5366 10.5644 10.6227 10.6087 10.6086 10.6269 10.6744 10.7321 10.7178 10.7031 10.7247 10.7822 10.8396 10.825 10.8101 10.8312 10.8883 10.9453 10.9305 10.918 10.9413 10.9929 11.0496 11.0345 11.0377 11.061 11.0963 11.1526 11.1374 11.1561 11.1795 11.2029 11.2546 11.2505 11.2739 11.2973 11.3208 11.3558 11.3595 11.3746 11.3896 11.4047 11.4228 11.4307 11.4386 11.4465 11.4544 11.4559 11.4857 11.5094 11.5331 11.5569 11.5546 11.6036 11.6274 11.6514 11.6717 11.6527 11.7104 11.7453 11.7695 11.7693 11.75 11.8074 11.8622 11.8848 11.866 11.8466 11.9037 11.961 11.9805 11.9616 11.9421 11.9989 12.0559 12.0728 12.0561 12.0365 12.093 12.1343 12.1492 12.1493 12.1297 12.1859 12.211 12.2262 12.2414 12.2217 12.273 12.2885 12.304 12.3196 12.3124 12.3513 12.3669 12.3826 12.3984 12.4019 12.4303 12.4461 12.462 12.4779 12.4904 12.5015 12.509 12.5165 12.5241 12.5312 12.5398 12.5483 12.5569 12.5655 12.5786 12.5901 12.6062 12.6223 12.6385 12.6664 12.6705 12.6867 12.7029 12.7191 12.7532 12.7512 12.7674 12.7837 12.8 12.8391 12.832 12.8483 12.8646 12.8809 12.9242 12.9129 12.9292 12.9455 12.9618 13.0085 12.9937 13.01 13.0263 13.0426 13.0921 13.0745 13.0908 13.1071 13.1234 13.175 13.1552 13.1715 13.1877 13.204 13.2573 13.2357 13.2519 13.2682 13.2844 13.339 13.316 13.3322 13.3484 13.3646 13.4201 13.3961 13.4122 13.4283 13.4445 13.5007 13.4758 13.4919 13.508 13.5241 13.5807 13.5553 13.5713 13.5873 13.6033 13.6602 13.6344 13.6503 13.6662 13.6822 13.7391 13.7131 13.7289 13.7448 13.7606 13.8175 13.7914 13.8071 13.8229 13.8386 13.8953 13.8692 13.8848 13.9005 13.9162 13.9725 13.9465 13.9621 13.9776 13.9932 14.0492 14.0233 14.0388 14.0542 14.0697 14.1253 14.0996 14.115 14.1303 14.1456 14.2007 14.1753 14.1906 14.2058 14.221 14.2756 14.2505 14.2656 14.2807 14.2958 14.3499 14.3251 14.3401 14.3551 14.3701 14.4236 14.3992 14.4141 14.429 14.4439 14.4969 14.4728 14.4876 14.5024 14.5173 14.5697 14.546 14.5608 14.5756 14.5904 14.6423 14.6192 14.634 14.6487 14.6635 14.7148 14.6923 14.7072 14.722 14.7369 14.7878 14.7662 14.7812 14.7962 14.8112 14.8614 14.8407 14.8562 14.8717 14.8872 14.9372 14.9184 14.9343 14.9502 14.9661 15.0148 14.9977 15.0149 15.0321 15.0494 15.0988 15.086 15.1037 15.1215 15.1393 15.1851 15.1753 15.1965 15.2177 15.2389 15.2874 15.2876 15.3072 15.3267 15.3462 15.3818 15.3848 15.4054 15.4262 15.447 15.4762 15.4747 15.4739 15.4727 15.4712 15.4743 15.407 15.3753 15.3437 15.3148 15.3263 15.2599 15.2256 15.2022 15.1956 15.2183 15.1631 15.1216 15.0994 15.1008 15.1162 15.0541 14.9968 14.9688 14.9729 14.9825 14.9146 14.8458 14.8143 14.8203 14.8271 14.756 14.684 14.6485 14.6502 14.6527 14.5763 14.4991 14.4584 14.4548 14.452 14.369 14.2851 14.2383 14.2287 14.22 14.1298 14.0386 13.9849 13.9686 13.9533 13.8551 13.756 13.6943 13.6699 13.6463 13.5388 13.4301 13.3595 13.3264 13.2943 13.1769 13.0593 12.9776 12.9332 12.89 12.7602 12.6331 12.5399 12.4826 12.4292 12.2877 12.151 12.0442 11.9695 11.9005 11.742 11.5906 11.4697 11.3824 11.3028 11.1325 10.9688 10.8296 10.7177 10.613 10.4159 10.2279 10.0719 9.95326 9.84389 9.64102 9.44168 9.25939 9.09704 8.93901 8.68481 8.43855 8.23887 8.09749 7.96264 7.73158 7.49801 7.25418 6.99835 6.74291 6.38601 6.02681 5.78668 5.66381 5.54265 5.3234 5.10208 4.74207 4.24996 3.75698 3.15244 2.54534 2.28448 2.35863 2.43662 2.42482 2.41151 1.9191 0.961269 0