# vtk DataFile Version 2.0
track0
ASCII
DATASET POLYDATA
POINTS 10925 double
-0.0205 0.001 1e-05
-0.0202034 0.00100003 1e-05
-0.0199069 0.00100026 1e-05
-0.0196103 0.00100071 1e-05
-0.0193137 0.00100137 1e-05
-0.0190172 0.00100225 1e-05
-0.0187132 0.00100354 1e-05
-0.0184093 0.00100451 1e-05
-0.0181054 0.00100547 1e-05
-0.0178015 0.00100644 1e-05
-0.0174976 0.00100741 1e-05
-0.0172058 0.00100863 1e-05
-0.016914 0.0010094 1e-05
-0.0166222 0.00101012 1e-05
-0.0163305 0.00101077 1e-05
-0.0160387 0.00101137 1e-05
-0.0157586 0.00101221 1e-05
-0.0154784 0.00101262 1e-05
-0.0151983 0.00101299 1e-05
-0.0149182 0.00101331 1e-05
-0.0146381 0.00101359 1e-05
-0.0143692 0.00101415 1e-05
-0.0141002 0.00101429 1e-05
-0.0138313 0.0010144 1e-05
-0.0135624 0.00101448 1e-05
-0.0132934 0.00101452 1e-05
-0.0130353 0.00101487 1e-05
-0.0127771 0.00101482 1e-05
-0.0125189 0.00101474 1e-05
-0.0122607 0.00101463 1e-05
-0.0120025 0.0010145 1e-05
-0.0117547 0.00101471 1e-05
-0.0115068 0.00101451 1e-05
-0.0112589 0.00101429 1e-05
-0.0110111 0.00101404 1e-05
-0.0107632 0.00101377 1e-05
-0.0105252 0.0010139 1e-05
-0.0102873 0.00101359 1e-05
-0.0100493 0.00101325 1e-05
-0.00981133 0.0010129 1e-05
-0.00957337 0.00101253 1e-05
-0.00934491 0.0010126 1e-05
-0.00911645 0.0010122 1e-05
-0.008888 0.00101177 1e-05
-0.00865954 0.00101133 1e-05
-0.00843108 0.00101087 1e-05
-0.00821175 0.00101091 1e-05
-0.00799242 0.00101042 1e-05
-0.00777309 0.00100991 1e-05
-0.00755376 0.00100939 1e-05
-0.00733443 0.00100884 1e-05
-0.00712387 0.00100887 1e-05
-0.0069133 0.0010083 1e-05
-0.00670273 0.00100772 1e-05
-0.00649217 0.00100712 1e-05
-0.0062816 0.00100649 1e-05
-0.00607944 0.00100651 1e-05
-0.00587729 0.00100587 1e-05
-0.00567514 0.00100521 1e-05
-0.00547299 0.00100454 1e-05
-0.00527083 0.00100384 1e-05
-0.00507675 0.00100385 1e-05
-0.00488268 0.00100314 1e-05
-0.0046886 0.00100241 1e-05
-0.00449452 0.00100166 1e-05
-0.00430044 0.00100088 1e-05
-0.00411412 0.00100088 1e-05
-0.0039278 0.0010001 1e-05
-0.00374148 0.000999294 1e-05
-0.00355516 0.000998462 1e-05
-0.00336883 0.000997604 1e-05
-0.00318995 0.000997594 1e-05
-0.00301107 0.000996727 1e-05
-0.0028322 0.000995831 1e-05
-0.00265332 0.000994906 1e-05
-0.00247443 0.000993951 1e-05
-0.0023027 0.000993919 1e-05
-0.00213097 0.000992949 1e-05
-0.00195924 0.000991944 1e-05
-0.00178751 0.000990904 1e-05
-0.00161577 0.000989828 1e-05
-0.0014509 0.000989757 1e-05
-0.00128603 0.000988657 1e-05
-0.00112117 0.000987509 1e-05
-0.000956301 0.00098631 1e-05
-0.000791418 0.00098506 1e-05
-0.000633135 0.000984893 1e-05
-0.000474856 0.000983577 1e-05
-0.000316579 0.000982205 1e-05
-0.000158301 0.000980774 1e-05
0 0.000979283 1e-05
0.000105677 0.000979084 1e-05
0.00021135 0.000978019 1e-05
0.000317022 0.000976919 1e-05
0.000422693 0.000975782 1e-05
0.000528387 0.000974609 1e-05
0.000634886 0.0009744 1e-05
0.000741379 0.000973201 1e-05
0.000847871 0.000971978 1e-05
0.000954363 0.000970732 1e-05
0.00106088 0.000969463 1e-05
0.00116821 0.000969301 1e-05
0.00127553 0.000968045 1e-05
0.00138285 0.000966772 1e-05
0.00149017 0.00096548 1e-05
0.00159752 0.000964232 1e-05
0.00170568 0.000964131 1e-05
0.00181383 0.000962979 1e-05
0.00192199 0.000961703 1e-05
0.00203014 0.000960412 1e-05
0.00213833 0.000959314 1e-05
0.00224733 0.000959276 1e-05
0.00235633 0.000958281 1e-05
0.00246532 0.000957036 1e-05
0.00257432 0.000955776 1e-05
0.00268334 0.000954822 1e-05
0.00279319 0.000954839 1e-05
0.00290303 0.000953982 1e-05
0.00301288 0.000952778 1e-05
0.00312272 0.000951558 1e-05
0.00323259 0.000950728 1e-05
0.00334329 0.000950782 1e-05
0.00345399 0.000950041 1e-05
0.00356469 0.00094888 1e-05
0.00367539 0.000947703 1e-05
0.00378611 0.000946977 1e-05
0.00389767 0.000947054 1e-05
0.00400923 0.000946407 1e-05
0.00412079 0.000945287 1e-05
0.00423235 0.00094415 1e-05
0.00434393 0.00094351 1e-05
0.00445636 0.000943597 1e-05
0.00456879 0.000943023 1e-05
0.00468122 0.000941939 1e-05
0.00479365 0.000940837 1e-05
0.00490609 0.000940261 1e-05
0.0050194 0.000940347 1e-05
0.0051327 0.000939828 1e-05
0.005246 0.000938772 1e-05
0.0053593 0.000937698 1e-05
0.00547262 0.00093717 1e-05
0.00558681 0.000937246 1e-05
0.00570099 0.000936766 1e-05
0.00581518 0.000935737 1e-05
0.00592936 0.000934702 1e-05
0.00604356 0.00093421 1e-05
0.00615863 0.000934268 1e-05
0.00627371 0.000933817 1e-05
0.00638878 0.000932861 1e-05
0.00650385 0.000931898 1e-05
0.00661893 0.000931431 1e-05
0.0067349 0.000931468 1e-05
0.00685087 0.000931036 1e-05
0.00696684 0.00093014 1e-05
0.0070828 0.000929237 1e-05
0.00719878 0.000928787 1e-05
0.00731565 0.000928799 1e-05
0.00743252 0.00092838 1e-05
0.00754939 0.000927534 1e-05
0.00766626 0.00092668 1e-05
0.00778313 0.000926243 1e-05
0.00790091 0.000926228 1e-05
0.00801869 0.000925817 1e-05
0.00813647 0.000925012 1e-05
0.00825425 0.0009242 1e-05
0.00837203 0.000923771 1e-05
0.00849073 0.00092373 1e-05
0.00860942 0.000923324 1e-05
0.00872812 0.000922555 1e-05
0.00884681 0.000921778 1e-05
0.00896551 0.000921355 1e-05
0.00908513 0.000921289 1e-05
0.00920475 0.000920885 1e-05
0.00932436 0.000920147 1e-05
0.00944398 0.000919402 1e-05
0.0095636 0.000918983 1e-05
0.00968415 0.000918893 1e-05
0.0098047 0.000918492 1e-05
0.00992525 0.000917782 1e-05
0.0100458 0.000917065 1e-05
0.0101663 0.000916649 1e-05
0.0102878 0.000916539 1e-05
0.0104093 0.00091614 1e-05
0.0105308 0.000915456 1e-05
0.0106523 0.000914766 1e-05
0.0107738 0.000914354 1e-05
0.0108962 0.000914226 1e-05
0.0110186 0.000913831 1e-05
0.0111411 0.000913172 1e-05
0.0112635 0.000912508 1e-05
0.0113859 0.000912104 1e-05
0.0115093 0.000911962 1e-05
0.0116327 0.000911573 1e-05
0.0117561 0.000910948 1e-05
0.0118794 0.000910325 1e-05
0.0120028 0.00090993 1e-05
0.0121272 0.000909779 1e-05
0.0122515 0.0009094 1e-05
0.0123759 0.000908824 1e-05
0.0125002 0.00090825 1e-05
0.0126245 0.000907868 1e-05
0.0127498 0.000907715 1e-05
0.0128752 0.00090735 1e-05
0.0130005 0.000906821 1e-05
0.0131258 0.000906297 1e-05
0.0132511 0.000905934 1e-05
0.0133774 0.000905784 1e-05
0.0135036 0.000905438 1e-05
0.0136299 0.000904959 1e-05
0.0137562 0.000904486 1e-05
0.0138825 0.000904145 1e-05
0.0140098 0.000904007 1e-05
0.014137 0.000903686 1e-05
0.0142643 0.000903258 1e-05
0.0143915 0.000902837 1e-05
0.0145188 0.000902526 1e-05
0.0146471 0.000902406 1e-05
0.0147753 0.000902115 1e-05
0.0149036 0.000901741 1e-05
0.0150318 0.000901374 1e-05
0.0151601 0.000901098 1e-05
0.0152893 0.000901002 1e-05
0.0154186 0.000900747 1e-05
0.0155478 0.000900427 1e-05
0.0156771 0.000900117 1e-05
0.0158063 0.000899879 1e-05
0.0159366 0.000899813 1e-05
0.0160668 0.000899597 1e-05
0.0161971 0.000899334 1e-05
0.0163273 0.00089908 1e-05
0.0164576 0.000898884 1e-05
0.0165889 0.000898851 1e-05
0.0167201 0.000898677 1e-05
0.0168514 0.000898469 1e-05
0.0169827 0.000898271 1e-05
0.0171139 0.000898118 1e-05
0.0172462 0.000898119 1e-05
0.0173785 0.000897985 1e-05
0.0175108 0.000897831 1e-05
0.0176431 0.000897686 1e-05
0.0177754 0.000897573 1e-05
0.0179087 0.000897607 1e-05
0.018042 0.000897511 1e-05
0.0181753 0.000897405 1e-05
0.0183087 0.000897308 1e-05
0.018442 0.00089723 1e-05
0.0185763 0.000897294 1e-05
0.0187107 0.00089723 1e-05
0.018845 0.000897165 1e-05
0.0189794 0.000897107 1e-05
0.0191137 0.000897058 1e-05
0.0192491 0.000897142 1e-05
0.0193845 0.000897102 1e-05
0.0195199 0.000897067 1e-05
0.0196553 0.000897036 1e-05
0.0197907 0.000897009 1e-05
0.0199272 0.000897102 1e-05
0.0200636 0.000897081 1e-05
0.0202001 0.000897061 1e-05
0.0203365 0.000897042 1e-05
0.020473 0.000897024 1e-05
0.0206105 0.00089711 1e-05
0.020748 0.00089709 1e-05
0.0208855 0.000897067 1e-05
0.021023 0.000897041 1e-05
0.0211606 0.000897012 1e-05
0.0212991 0.000897072 1e-05
0.0214377 0.000897031 1e-05
0.0215763 0.000896983 1e-05
0.0217149 0.000896927 1e-05
0.0218535 0.000896863 1e-05
0.0219931 0.000896872 1e-05
0.0221328 0.000896785 1e-05
0.0222724 0.000896685 1e-05
0.0224121 0.000896572 1e-05
0.0225517 0.000896445 1e-05
0.0226925 0.000896374 1e-05
0.0228332 0.000896211 1e-05
0.022974 0.000896027 1e-05
0.0231147 0.000895824 1e-05
0.0232555 0.000895599 1e-05
0.0233973 0.000895412 1e-05
0.0235391 0.000895136 1e-05
0.023681 0.000894833 1e-05
0.0238228 0.000894502 1e-05
0.0239647 0.000894143 1e-05
0.0241076 0.000893805 1e-05
0.0242505 0.000893381 1e-05
0.0243935 0.000892922 1e-05
0.0245364 0.00089243 1e-05
0.0246794 0.000891903 1e-05
0.0248234 0.000891377 1e-05
0.0249675 0.000890768 1e-05
0.0251115 0.000890116 1e-05
0.0252556 0.000889422 1e-05
0.0253996 0.000888685 1e-05
0.0255448 0.000887928 1e-05
0.02569 0.000887089 1e-05
0.0258351 0.000886199 1e-05
0.0259803 0.000885257 1e-05
0.0261255 0.000884264 1e-05
0.0262718 0.000883228 1e-05
0.0264181 0.000882113 1e-05
0.0265644 0.000880938 1e-05
0.0267107 0.000879702 1e-05
0.026857 0.000878406 1e-05
0.0269702 0.000877362 1e-05
0.0270833 0.000876272 1e-05
0.0271965 0.000875141 1e-05
0.0273097 0.000873969 1e-05
0.0273995 0.000873006 1e-05
0.0274384 0.000872578 1e-05
0.0274774 0.000872145 1e-05
0.0275163 0.000871707 1e-05
0.0275553 0.000871264 1e-05
0.0275942 0.000870817 1e-05
0.0277428 0.000869089 1e-05
0.0278914 0.000867286 1e-05
0.0280399 0.000865405 1e-05
0.0281885 0.000863446 1e-05
0.0283371 0.00086141 1e-05
0.0284869 0.000859273 1e-05
0.0286366 0.000857058 1e-05
0.0287863 0.000854755 1e-05
0.0289361 0.000852367 1e-05
0.0290858 0.000849891 1e-05
0.0292367 0.000847299 1e-05
0.0293876 0.000844624 1e-05
0.0295385 0.000841852 1e-05
0.0296894 0.000838985 1e-05
0.0298403 0.000836021 1e-05
0.0299924 0.000832927 1e-05
0.0301445 0.000829742 1e-05
0.0302966 0.000826452 1e-05
0.0304486 0.000823056 1e-05
0.0306007 0.000819554 1e-05
0.030754 0.000815907 1e-05
0.0309072 0.000812162 1e-05
0.0310605 0.000808301 1e-05
0.0312137 0.000804324 1e-05
0.031367 0.00080023 1e-05
0.0315215 0.000795979 1e-05
0.0316759 0.000791617 1e-05
0.0318304 0.000787131 1e-05
0.0319848 0.000782518 1e-05
0.0321393 0.000777777 1e-05
0.0322949 0.000772867 1e-05
0.0324506 0.000767831 1e-05
0.0326062 0.000762662 1e-05
0.0327619 0.000757356 1e-05
0.0329175 0.00075191 1e-05
[...]
POINT_DATA 10925
 FIELD attributes 1
U 3 10925 float
10.0021 	0.000981037 	0 10.0076 	0.00793267 	0 10.013 	0.015126 	0 10.0184 	0.0223325 	0 10.0238 	0.0295523 	0 10.0305 	0.0426065 	0 10.0339 	0.0319448 	0 10.037 	0.0319694 	0 10.0402 	0.031994 	0 10.0434 	0.0320188 	0 10.0461 	0.0420369 	0 10.0441 	0.0264951 	0 10.0431 	0.0245464 	0 10.0421 	0.0225717 	0 10.0411 	0.0205706 	0 10.0401 	0.0302394 	0 10.0365 	0.014721 	0 10.0342 	0.0131442 	0 10.0319 	0.01154 	0 10.0296 	0.00990801 	0 10.0276 	0.0207413 	0 10.0243 	0.00539648 	0 10.0219 	0.00413299 	0 10.0196 	0.00284354 	0 10.0172 	0.00152759 	0 10.0151 	0.0136812 	0 10.0119 	-0.00201558 	0 10.0094 	-0.00307439 	0 10.007 	-0.00415748 	0 10.0045 	-0.00526541 	0 10.0022 	0.00862939 	0 9.99911 	-0.0080919 	0 9.99655 	-0.00898409 	0 9.994 	-0.00989816 	0 9.99144 	-0.0108347 	0 9.98892 	0.00534688 	0 9.98605 	-0.0131602 	0 9.98351 	-0.0139723 	0 9.98097 	-0.0148051 	0 9.97842 	-0.0156591 	0 9.97569 	0.00328047 	0 9.97313 	-0.0177108 	0 9.97063 	-0.0185231 	0 9.96813 	-0.0193566 	0 9.96563 	-0.0202118 	0 9.96265 	0.00193411 	0 9.96045 	-0.0221418 	0 9.95799 	-0.0229911 	0 9.95553 	-0.0238626 	0 9.95306 	-0.0247569 	0 9.94975 	0.0010737 	0 9.94799 	-0.0266231 	0 9.9456 	-0.0275249 	0 9.9432 	-0.0284503 	0 9.94079 	-0.0293998 	0 9.9371 	0.000586684 	0 9.9359 	-0.0312486 	0 9.93359 	-0.032228 	0 9.93127 	-0.0332327 	0 9.92895 	-0.0342633 	0 9.92478 	0.000321567 	0 9.92424 	-0.0361652 	0 9.92204 	-0.0372731 	0 9.91983 	-0.0384091 	0 9.91762 	-0.0395738 	0 9.91293 	1.89991e-05 	0 9.91318 	-0.0416615 	0 9.91108 	-0.0429472 	0 9.90898 	-0.0442648 	0 9.90686 	-0.0456151 	0 9.90148 	-0.000537714 	0 9.9026 	-0.0479997 	0 9.90061 	-0.0495772 	0 9.89861 	-0.0511929 	0 9.8966 	-0.0528477 	0 9.89044 	-0.00183662 	0 9.89263 	-0.0558971 	0 9.89073 	-0.0578656 	0 9.88881 	-0.0598805 	0 9.88688 	-0.0619429 	0 9.8797 	-0.00428421 	0 9.88282 	-0.0659108 	0 9.88058 	-0.068833 	0 9.87833 	-0.0718218 	0 9.87605 	-0.0748787 	0 9.86699 	-0.010419 	0 9.86988 	-0.0820327 	1.07188e-22 9.86716 	-0.0855639 	3.53318e-22 9.86442 	-0.0891754 	5.99252e-22 9.86165 	-0.0928692 	8.44985e-22 9.85146 	-0.0185531 	1.03563e-21 9.85484 	-0.0993221 	4.3929e-22 9.85195 	-0.102599 	4.26691e-22 9.84904 	-0.105927 	4.13482e-22 9.84612 	-0.109306 	3.99655e-22 9.83391 	-0.0192417 	1.15897e-21 9.84088 	-0.110859 	1.51858e-21 9.83817 	-0.112945 	1.2939e-21 9.83545 	-0.115061 	1.06937e-21 9.83272 	-0.11721 	8.44982e-22 9.81618 	-0.0148018 	1.23323e-22 9.82922 	-0.115018 	1.13634e-22 9.82667 	-0.116601 	7.50803e-23 9.82412 	-0.118207 	3.65174e-23 9.8205 	-0.114159 	-1.20944e-23 9.79798 	-0.00916673 	-2.3911e-22 9.81621 	-0.104578 	-2.26402e-23 9.81581 	-0.115769 	-1.53295e-22 9.81324 	-0.117124 	-3.24493e-22 9.80577 	-0.0996065 	-4.89762e-22 9.77809 	-0.00335471 	-6.31052e-22 9.80065 	-0.0895239 	-3.14699e-22 9.80421 	-0.111982 	-7.34346e-23 9.80152 	-0.113285 	1.42701e-22 9.78886 	-0.0856473 	2.9276e-22 9.75596 	0.00147243 	3.0652e-22 9.7827 	-0.0763203 	1.31207e-22 9.79117 	-0.107317 	9.881e-23 9.78824 	-0.108702 	1.56519e-22 9.76908 	-0.0737452 	3.94083e-22 9.73088 	0.00471914 	8.45506e-22 9.76137 	-0.065367 	2.05992e-21 9.77543 	-0.102503 	2.65477e-21 9.7721 	-0.10395 	2.57721e-21 9.74539 	-0.063835 	1.88477e-21 9.70206 	0.00666752 	7.39484e-22 9.7359 	-0.0564839 	-2.10707e-21 9.75615 	-0.0978881 	-4.02971e-21 9.75234 	-0.0993875 	-4.26498e-21 9.71736 	-0.0558113 	-2.94995e-21 9.6693 	0.00748574 	-9.57895e-22 9.70609 	-0.0495419 	-5.88635e-22 9.73301 	-0.0938262 	-4.52309e-22 9.72867 	-0.0953744 	-1.09655e-21 9.68493 	-0.0495944 	-2.46423e-21 9.63257 	0.00729088 	-4.00285e-21 9.67193 	-0.0443157 	-4.54478e-21 9.70586 	-0.0904177 	-4.99516e-21 9.70096 	-0.0919826 	-4.7222e-21 9.64814 	-0.0449063 	-3.60647e-21 9.59192 	0.00632148 	-2.42142e-21 9.63344 	-0.0404454 	-1.50915e-21 9.6743 	-0.087251 	-5.94879e-22 9.66736 	-0.0875756 	-1.48062e-23 9.60711 	-0.041401 	-4.83629e-22 9.54755 	0.00482115 	-9.49331e-22 9.5908 	-0.0376031 	-4.99963e-22 9.63341 	-0.080066 	-5.35845e-23 9.62526 	-0.0805132 	-6.49163e-23 9.56222 	-0.0387874 	-5.33548e-22 9.49984 	0.00298337 	-9.99338e-22 9.54441 	-0.0355345 	-5.4988e-22 9.58835 	-0.0740902 	-1.03159e-22 9.57908 	-0.0746092 	-7.10397e-22 9.51377 	-0.0368501 	-1.55769e-21 9.4491 	0.000951147 	-2.41144e-21 9.49461 	-0.0340446 	-5.38212e-21 9.53951 	-0.0690767 	-8.34673e-21 9.52921 	-0.0696259 	-8.71662e-21 9.46212 	-0.0354055 	-6.66921e-21 9.39565 	-0.00114571 	-4.62418e-21 9.44173 	-0.0329604 	-9.09483e-21 9.48722 	-0.0648097 	-1.3563e-20 9.476 	-0.0653558 	-1.25087e-20 9.4076 	-0.0342924 	-6.00413e-21 9.33979 	-0.00319229 	5.04179e-22 9.3861 	-0.0321321 	2.91708e-22 9.43184 	-0.0611045 	7.61771e-23 9.41982 	-0.0616256 	2.50824e-22 9.35055 	-0.0333854 	8.17115e-22 9.28184 	-0.005111 	1.38617e-21 9.32806 	-0.0314554 	7.96733e-22 9.37373 	-0.0578304 	2.04689e-22 9.36103 	-0.0583115 	-3.8132e-22 9.29129 	-0.0325956 	-9.72142e-22 9.22209 	-0.00684797 	-1.56066e-21 9.26795 	-0.0308445 	-9.93447e-22 9.31328 	-0.0548697 	-4.28469e-22 9.30001 	-0.0552963 	-1.72692e-22 9.23017 	-0.031835 	-8.90476e-22 9.16084 	-0.00834403 	-1.61104e-21 9.2061 	-0.0302126 	-8.6595e-22 9.25085 	-0.0521081 	-1.18249e-22 9.23713 	-0.0524673 	-1.06256e-21 9.16751 	-0.0310196 	-3.70763e-21 9.09838 	-0.00954431 	-6.35533e-21 9.14282 	-0.0294856 	-1.8551e-20 9.18679 	-0.049452 	-3.07443e-20 9.17272 	-0.0497331 	-3.07557e-20 9.10361 	-0.0300817 	-1.77887e-20 9.03496 	-0.0104047 	-4.82104e-21 9.07842 	-0.0285994 	-2.90129e-21 9.11944 	-0.046186 	-1.01452e-21 9.10402 	-0.0459568 	-5.6479e-23 9.03882 	-0.0289531 	0 8.97092 	-0.0108761 	0 9.01324 	-0.0274861 	0 9.04787 	-0.0419477 	0 9.03266 	-0.0416583 	0 8.97349 	-0.0275633 	0 8.90657 	-0.0109058 	0 8.94765 	-0.0260777 	0 8.97615 	-0.0378423 	2.80792e-22 8.9612 	-0.0374812 	1.55625e-21 8.90794 	-0.0258568 	3.67316e-21 8.84222 	-0.0104609 	6.07053e-21 8.88199 	-0.0243358 	2.21879e-20 8.9047 	-0.0337803 	3.32234e-20 8.89006 	-0.033342 	3.29556e-20 8.84257 	-0.0238108 	2.22471e-20 8.77825 	-0.00953603 	6.10592e-21 8.81666 	-0.0222483 	3.71515e-21 8.83398 	-0.0297042 	2.42187e-21 8.81971 	-0.0291909 	2.78891e-21 8.77777 	-0.0214326 	4.00413e-21 8.71502 	-0.00815839 	5.86228e-21 8.75207 	-0.019837 	1.67883e-20 8.76443 	-0.0255982 	2.18979e-20 8.7506 	-0.0250217 	2.07855e-20 8.71396 	-0.0187699 	1.43726e-20 8.65293 	-0.00639732 	2.24958e-21 8.68862 	-0.017169 	-1.19266e-20 8.6965 	-0.021496 	-2.02502e-20 8.68317 	-0.0208723 	-2.40833e-20 8.65155 	-0.0159021 	-2.29813e-20 8.59238 	-0.00434331 	-1.44034e-20 8.62673 	-0.0143229 	-3.27474e-20 8.63062 	-0.0174427 	-3.84709e-20 8.61784 	-0.0167935 	-3.72656e-20 8.59096 	-0.0129237 	-3.02481e-20 8.53375 	-0.00211407 	-1.0712e-20 8.56682 	-0.011419 	-6.95638e-21 8.5672 	-0.0135394 	-4.19323e-21 8.55505 	-0.0128975 	-1.81115e-21 8.5326 	-0.00998681 	0 8.47746 	0.000122595 	0 8.50928 	-0.00862031 	0 8.50661 	-0.00992317 	6.83263e-22 8.49515 	-0.00932227 	1.54125e-21 8.47682 	-0.00725756 	2.39966e-21 8.42382 	0.00219426 	3.2604e-21 8.45445 	-0.00608645 	2.42702e-21 8.44917 	-0.00672221 	2.33654e-21 8.43842 	-0.00618965 	2.35941e-21 8.42393 	-0.00487755 	2.46092e-21 8.37313 	0.00395291 	3.32194e-21 8.40262 	-0.00396748 	2.48772e-21 8.39514 	-0.00407839 	3.87839e-21 8.38515 	-0.00365634 	5.42068e-21 8.37421 	-0.0030398 	7.02776e-21 8.32565 	0.00518699 	1.11777e-20 8.35396 	-0.002448 	3.89856e-20 8.34474 	-0.00218371 	3.86693e-20 8.33553 	-0.00191949 	3.83544e-20 8.32633 	-0.00165534 	3.80409e-20 8.28158 	0.00566225 	1.12903e-20 8.30655 	-0.00129482 	7.35172e-21 8.29813 	-0.00122578 	6.02431e-21 8.2897 	-0.00115675 	4.69685e-21 8.28128 	-0.00108774 	3.36935e-21 8.24107 	0.00518503 	4.13442e-21 8.26301 	-0.00122164 	2.84281e-21 8.25538 	-0.00138896 	-4.41795e-22 8.24775 	-0.00155623 	-3.72644e-21 8.24011 	-0.00172347 	-7.01112e-21 8.20422 	0.00354389 	-8.36651e-21 8.22339 	-0.00242915 	-1.67126e-20 8.21656 	-0.00287554 	-1.80657e-20 8.20971 	-0.0033218 	-1.94184e-20 8.20284 	-0.00376793 	-2.07706e-20 8.17106 	0.000527256 	-1.3845e-20 8.18763 	-0.00507802 	9.27742e-21 8.18155 	-0.00585489 	1.21439e-20 8.17543 	-0.00663151 	1.50054e-20 8.16928 	-0.00740789 	1.7862e-20 8.14147 	-0.00411994 	9.38947e-22 8.1556 	-0.0094563 	-2.06784e-21 8.15021 	-0.0106273 	-4.09723e-21 8.14477 	-0.0117979 	-6.12725e-21 8.13928 	-0.0129681 	-8.15789e-21 8.11525 	-0.0107013 	-8.71094e-21 8.12698 	-0.0158257 	-1.04624e-20 8.12217 	-0.0173814 	-1.3987e-20 8.11729 	-0.0189365 	-1.75141e-20 8.11236 	-0.0204909 	-2.10436e-20 8.09195 	-0.0191834 	-3.15752e-20 8.10121 	-0.0240283 	-5.25963e-20 8.09688 	-0.0259516 	-4.52746e-20 8.09248 	-0.0278741 	-3.79307e-20 8.088 	-0.0297958 	-3.05646e-20 8.07118 	-0.0295002 	-2.07043e-21 8.07805 	-0.0341638 	1.53612e-20 8.07418 	-0.0365291 	1.40688e-20 8.07022 	-0.0388934 	1.27618e-20 8.06616 	-0.0412565 	1.144e-20 8.05292 	-0.0420103 	-6.66939e-22 8.05742 	-0.0465386 	-1.4028e-20 8.05396 	-0.0493845 	-1.7463e-20 8.0504 	-0.052229 	-2.08816e-20 8.04672 	-0.055072 	-2.42838e-20 8.03705 	-0.0568946 	-2.01153e-20 8.03908 	-0.0612566 	-1.59296e-20 8.03597 	-0.0645526 	-1.18347e-20 8.03274 	-0.0678467 	-7.74256e-21 8.02939 	-0.071139 	-3.65315e-21 8.02336 	-0.0740004 	7.72197e-22 8.02344 	-0.0773123 	-1.92859e-21 8.02131 	-0.0801746 	-4.1483e-21 8.0191 	-0.0830356 	-6.36924e-21 8.01681 	-0.0858952 	-8.59139e-21 8.01492 	-0.0881644 	-1.03564e-20 8.01401 	-0.089143 	-1.10767e-20 8.0131 	-0.0901214 	-1.17968e-20 8.01217 	-0.0910996 	-1.25168e-20 8.01123 	-0.0920776 	-1.32366e-20 8.01054 	-0.0931341 	-1.39479e-20 8.00779 	-0.0971946 	-1.83829e-20 8.00497 	-0.101339 	-2.21469e-20 8.00198 	-0.105481 	-2.59226e-20 7.99884 	-0.109619 	-2.97099e-20 7.99678 	-0.114088 	-3.04292e-20 7.99398 	-0.118291 	-4.21519e-20 7.99133 	-0.122872 	-4.18752e-20 7.98851 	-0.127449 	-4.16527e-20 7.98551 	-0.132023 	-4.14844e-20 7.98457 	-0.137112 	-2.1509e-20 7.98179 	-0.141527 	-3.30052e-20 7.97926 	-0.146552 	-3.13808e-20 7.97654 	-0.151572 	-2.97986e-20 7.97364 	-0.156588 	-2.82587e-20 7.97366 	-0.162227 	-5.24719e-21 7.97109 	-0.166937 	-1.41445e-21 7.96862 	-0.172417 	-9.71116e-22 7.96596 	-0.177892 	-5.27297e-22 7.96309 	-0.183362 	-8.29961e-23 7.96383 	-0.189476 	0 7.96176 	-0.194575 	0 7.9593 	-0.200527 	0 7.95663 	-0.206473 	0 7.95399 	-0.212447 	0 7.95487 	-0.21892 	0 7.95352 	-0.224651 	0 7.9512 	-0.230958 	0 7.94846 	-0.237395 	0 7.94657 	-0.243923 	0 7.94656 	-0.250639 	0 7.94593 	-0.257106 	0 7.94422 	-0.263804 	0 7.94137 	-0.270752 	0 7.93975 	-0.277732 	0 7.93873 	-0.284728 	0 7.9388 	-0.291941 	0 7.93833 	-0.299178 	0 7.9353 	-0.306664 	0 7.93336 	-0.313992 	0 7.93121 	-0.321308 	0 7.93195 	-0.329284 	0 7.93243 	-0.337249 	0 7.93036 	-0.345157 	0 7.92723 	-0.352847 	0 7.92385 	-0.360531 	0 7.92523 	-0.369292 	0 7.92631 	-0.378041 	0 7.9257 	-0.386373 	-9.96757e-22 7.92127 	-0.39448 	-5.34628e-21 7.91657 	-0.40258 	-9.68939e-21 7.9185 	-0.412152 	-4.45652e-21 7.9199 	-0.421606 	0 7.91967 	-0.430451 	0 7.91541 	-0.439104 	-3.06695e-21 7.90931 	-0.447676 	-7.39619e-21 7.91171 	-0.45809 	-2.07721e-21 7.91225 	-0.467972 	0 7.91148 	-0.477507 	0 7.90965 	-0.486976 	0 7.90207 	-0.496078 	0 7.90446 	-0.507266 	2.27561e-23 7.90337 	-0.517566 	2.39196e-22 7.90196 	-0.527847 	4.56046e-22 7.90023 	-0.538108 	6.73307e-22 7.89487 	-0.548102 	-2.19775e-22 7.89551 	-0.55583 	-6.23299e-21 7.89439 	-0.563161 	-4.41494e-21 7.89312 	-0.570482 	-2.57399e-21 7.8917 	-0.577794 	-7.10136e-22 7.89032 	-0.5842 	9.44849e-22 7.88914 	-0.588096 	2.053e-21 7.88791 	-0.59199 	3.16831e-21 7.88664 	-0.59588 	4.29077e-21 7.88532 	-0.599767 	5.42039e-21 7.88353 	-0.603502 	1.59864e-21 7.88209 	-0.615429 	-2.33384e-21 7.8787 	-0.627246 	-6.74621e-21 7.87494 	-0.639036 	-1.11453e-20 7.8708 	-0.650797 	-1.55312e-20 7.86447 	-0.661987 	-2.53678e-20 7.86633 	-0.675113 	-3.63829e-20 7.86283 	-0.687911 	-3.96401e-20 7.85804 	-0.700625 	-4.15436e-20 7.85155 	-0.712968 	-3.68916e-20 7.84345 	-0.724983 	-2.61567e-20 7.84469 	-0.739225 	-1.5598e-20 7.84548 	-0.75343 	-5.04375e-21 7.83961 	-0.767066 	0 7.83018 	-0.780111 	0 7.82031 	-0.793143 	0 7.82083 	-0.808667 	0 7.82088 	-0.82415 	0 7.81686 	-0.838911 	0 7.80698 	-0.853175 	0 7.79501 	-0.867292 	0 7.79463 	-0.884233 	0 7.79024 	-0.900549 	0 7.78451 	-0.916681 	0 7.77828 	-0.932765 	0 7.76756 	-0.948447 	0 7.76675 	-0.955373 	2.34857e-23 7.76415 	-0.962039 	2.29593e-22 7.76147 	-0.968698 	4.35946e-22 7.75871 	-0.97535 	6.42546e-22 7.75608 	-0.981524 	8.34768e-22 7.75108 	-0.992393 	1.05446e-21 7.74587 	-1.00324 	1.27336e-21 7.74045 	-1.01406 	1.49147e-21 7.73481 	-1.02486 	1.70877e-21 7.72607 	-1.0352 	1.88729e-21 7.72439 	-1.05507 	1.94153e-20 7.71452 	-1.074 	2.53311e-20 7.70408 	-1.09286 	3.13182e-20 7.68974 	-1.11125 	2.44161e-20 7.67218 	-1.12931 	7.50282e-21 7.66893 	-1.15135 	2.11512e-20 7.665 	-1.17331 	3.47797e-20 7.65341 	-1.19438 	3.68499e-20 7.6323 	-1.21422 	2.5518e-20 7.61044 	-1.23407 	1.41626e-20 7.60436 	-1.25844 	-3.79232e-21 7.59182 	-1.28215 	-4.22008e-21 7.57611 	-1.30552 	2.82608e-21 7.55961 	-1.3288 	1.00108e-20 7.53983 	-1.3517 	2.00348e-20 7.5387 	-1.35454 	1.88833e-20 7.53681 	-1.35733 	1.87371e-20 7.53471 	-1.3601 	1.88572e-20 7.5326 	-1.36288 	1.89787e-20 7.53053 	-1.36559 	1.90988e-20 7.5158 	-1.38827 	1.766e-20 7.50047 	-1.41088 	1.62658e-20 7.48455 	-1.43342 	1.49164e-20 7.46658 	-1.45575 	1.21146e-20 7.4413 	-1.47761 	2.50359e-21 7.42956 	-1.50723 	1.33354e-21 7.41691 	-1.53673 	1.75861e-22 7.39217 	-1.56525 	3.94246e-22 7.35922 	-1.59405 	1.6215e-21 7.32505 	-1.62298 	2.86509e-21 7.30808 	-1.65734 	9.27095e-21 7.28359 	-1.69192 	1.03354e-20 7.25426 	-1.72656 	8.30167e-21 7.22374 	-1.76105 	6.21929e-21 7.19703 	-1.78998 	4.4238e-21 7.19606 	-1.7911 	4.40066e-21 7.1951 	-1.79221 	4.37749e-21 7.19413 	-1.79333 	4.35431e-21 7.19308 	-1.79447 	4.34772e-21 7.19192 	-1.79565 	4.36603e-21 7.16129 	-1.83323 	3.13486e-21 7.12833 	-1.87021 	1.89643e-21 7.09432 	-1.90707 	6.50912e-22 7.05314 	-1.94219 	0 7.00346 	-1.97593 	0 6.96862 	-2.01635 	0 6.93236 	-2.0567 	2.48181e-23 6.88679 	-2.10516 	1.82459e-21 6.83918 	-2.15353 	3.62731e-21 6.78118 	-2.20427 	5.26935e-21 6.77269 	-2.21675 	5.17024e-21 6.76428 	-2.23101 	5.25906e-21 6.75615 	-2.24934 	5.77521e-21 6.74792 	-2.26767 	6.29466e-21 6.74018 	-2.28468 	6.78003e-21 6.70376 	-2.33452 	1.02238e-20 6.66606 	-2.38381 	1.37407e-20 6.62708 	-2.43253 	1.73306e-20 6.59519 	-2.50071 	1.3036e-20 6.56454 	-2.57955 	4.99867e-21 6.54572 	-2.69357 	6.90827e-21 6.51938 	-2.80439 	8.01264e-21 6.4678 	-2.90365 	5.3661e-21 6.41293 	-3.00163 	2.60616e-21 6.37537 	-3.06408 	7.50126e-22 6.37132 	-3.07261 	4.45834e-22 6.36724 	-3.08113 	1.40574e-22 6.36315 	-3.08965 	-1.59458e-22 6.35978 	-3.10049 	8.20318e-22 6.35637 	-3.11139 	1.80654e-21 6.34592 	-3.26214 	1.72033e-20 6.30265 	-3.37669 	2.91908e-20 6.23807 	-3.46651 	3.55594e-20 6.10218 	-3.46861 	2.24931e-20 5.95383 	-3.47185 	8.34622e-21 5.92873 	-3.4814 	1.1548e-20 5.9036 	-3.49102 	1.47455e-20 5.86385 	-3.47438 	1.31405e-20 5.81921 	-3.44895 	9.92709e-21 5.77637 	-3.42455 	6.84282e-21 5.71286 	-3.47456 	-6.28e-21 5.65028 	-3.52719 	-1.96152e-20 5.57139 	-3.55522 	-2.78465e-20 5.42335 	-3.47492 	-1.46995e-20 5.26607 	-3.38991 	-7.39142e-22 5.1917 	-3.35496 	-5.03521e-22 5.11737 	-3.32019 	-2.67849e-22 5.03862 	-3.26619 	1.93363e-21 4.95801 	-3.20408 	4.953e-21 4.8787 	-3.14287 	7.92129e-21 4.79766 	-3.11677 	1.42408e-20 4.71684 	-3.09141 	2.0581e-20 4.63 	-3.05212 	2.38679e-20 4.51971 	-2.95784 	1.55583e-20 4.40716 	-2.86116 	7.08794e-21 4.28493 	-2.75254 	-9.93519e-21 4.16248 	-2.64292 	-2.69812e-20 4.05686 	-2.55021 	-2.51463e-20 3.95594 	-2.46174 	-1.79031e-20 3.84664 	-2.36512 	-1.01439e-20 3.79872 	-2.32079 	-9.6591e-21 3.75075 	-2.27624 	-9.17836e-21 3.70293 	-2.23125 	-8.69067e-21 3.65776 	-2.1827 	-8.03172e-21 3.61339 	-2.13475 	-7.39141e-21 3.47633 	-1.97466 	-4.09739e-21 3.33875 	-1.81032 	-8.80481e-22 3.21975 	-1.68177 	3.45711e-21 3.1171 	-1.59625 	9.10046e-21 3.02373 	-1.5174 	1.42131e-20 2.99578 	-1.49123 	1.75464e-20 2.96881 	-1.4669 	2.00011e-20 2.94667 	-1.45217 	1.81518e-20 2.92451 	-1.43738 	1.63051e-20 2.90118 	-1.42176 	1.43639e-20 2.83926 	-1.35644 	1.12723e-20 2.77744 	-1.29059 	8.2137e-21 2.71573 	-1.22418 	5.1908e-21 2.66293 	-1.17729 	5.822e-21 2.61631 	-1.14049 	7.92059e-21 2.5516 	-1.08733 	4.73603e-21 2.48699 	-1.03343 	1.54125e-21 2.43173 	-0.992386 	-2.3648e-21 2.38189 	-0.968219 	-7.38009e-21 2.33407 	-0.947155 	-1.24055e-20 2.31084 	-0.937294 	-1.82094e-20 2.28975 	-0.928829 	-1.98123e-20 2.27094 	-0.921857 	-1.69279e-20 2.25212 	-0.914892 	-1.40417e-20 2.23332 	-0.907938 	-1.11551e-20 2.21085 	-0.895294 	-1.00659e-20 2.18839 	-0.882628 	-8.98038e-21 2.16594 	-0.869939 	-7.89873e-21 2.14528 	-0.859067 	-5.85045e-21 2.12703 	-0.850611 	-2.56485e-21 2.09311 	-0.836095 	1.4252e-20 2.05939 	-0.822851 	2.96614e-20 2.0274 	-0.813969 	3.60495e-20 2.00059 	-0.807527 	2.021e-20 1.9737 	-0.801119 	4.35333e-21 1.94789 	-0.795895 	1.68254e-20 1.92495 	-0.791205 	1.7423e-20 1.90441 	-0.786961 	8.18659e-21 1.88384 	-0.782759 	-1.08231e-21 1.86434 	-0.778825 	-9.88685e-21 1.8629 	-0.77835 	-1.07866e-20 1.86146 	-0.777876 	-1.16864e-20 1.86002 	-0.777401 	-1.25863e-20 1.85864 	-0.776919 	-1.22846e-20 1.85735 	-0.776428 	-1.02072e-20 1.83944 	-0.773252 	9.60419e-22 1.8214 	-0.770433 	1.03291e-20 1.80332 	-0.767638 	1.97356e-20 1.78608 	-0.764182 	1.84938e-20 1.76954 	-0.760031 	6.62726e-21 1.75605 	-0.758751 	4.74816e-21 1.74253 	-0.757491 	2.8785e-21 1.73008 	-0.754426 	2.43866e-21 1.71752 	-0.751727 	1.88117e-21 1.70464 	-0.749695 	1.03369e-21 1.70075 	-0.749865 	-3.3588e-21 1.69699 	-0.749594 	-3.92559e-21 1.69335 	-0.748906 	-8.81892e-22 1.68971 	-0.748218 	2.16504e-21 1.68612 	-0.747542 	5.16408e-21 1.6799 	-0.745869 	1.07946e-20 1.67368 	-0.744196 	1.64323e-20 1.66745 	-0.742523 	2.2077e-20 1.6613 	-0.740974 	1.98433e-20 1.65526 	-0.739596 	6.40967e-21 1.64821 	-0.736266 	3.74463e-21 1.64117 	-0.732935 	1.07938e-21 1.63381 	-0.731253 	-6.89075e-22 1.62657 	-0.729966 	-2.0049e-23 1.61932 	-0.728677 	6.53273e-22 1.61498 	-0.726177 	-1.29411e-20 1.6107 	-0.72396 	-1.48382e-20 1.60646 	-0.721974 	-7.18717e-21 1.60222 	-0.719988 	4.63199e-22 1.59797 	-0.717994 	8.14307e-21 1.59723 	-0.717642 	9.58106e-21 1.5965 	-0.717289 	1.1019e-20 1.59576 	-0.716937 	1.24569e-20 1.59509 	-0.716407 	1.19723e-20 1.59449 	-0.715695 	9.5199e-21 1.59044 	-0.713419 	2.01553e-20 1.58643 	-0.710961 	2.7763e-20 1.58242 	-0.708504 	3.53654e-20 1.57908 	-0.704111 	2.87739e-20 1.57606 	-0.698872 	1.5877e-20 1.5734 	-0.696923 	1.00175e-20 1.57093 	-0.694455 	5.24048e-21 1.56919 	-0.689763 	5.08995e-21 1.56751 	-0.685086 	4.92619e-21 1.56598 	-0.680047 	7.54381e-21 1.56567 	-0.679616 	6.65695e-21 1.56545 	-0.678888 	6.36154e-21 1.56532 	-0.67788 	6.62641e-21 1.5652 	-0.676872 	6.89096e-21 1.56508 	-0.675857 	7.15721e-21 1.5644 	-0.672108 	1.00126e-20 1.56375 	-0.66837 	1.28552e-20 1.56312 	-0.664645 	1.56851e-20 1.56276 	-0.661673 	1.39324e-20 1.56267 	-0.659536 	7.22419e-21 1.56285 	-0.65357 	4.33424e-21 1.5631 	-0.647624 	1.44029e-21 1.56377 	-0.643247 	7.21011e-22 1.56471 	-0.640589 	2.81434e-22 1.56566 	-0.637977 	-1.6422e-22 1.56637 	-0.634031 	1.10676e-20 1.56731 	-0.630884 	1.29858e-20 1.56845 	-0.628365 	7.61902e-21 1.5696 	-0.625851 	2.26443e-21 1.57084 	-0.623215 	-3.35483e-21 1.5714 	-0.621934 	-4.42431e-21 1.57196 	-0.620655 	-5.4942e-21 1.57253 	-0.619377 	-6.56448e-21 1.57298 	-0.617565 	-7.65899e-21 1.57325 	-0.614992 	-8.78457e-21 1.57624 	-0.612712 	-1.88388e-20 1.57862 	-0.608986 	-2.4983e-20 1.58099 	-0.605156 	-3.07919e-20 1.58242 	-0.597931 	-2.20866e-20 1.58379 	-0.590319 	-1.138e-20 1.58758 	-0.588148 	-4.85813e-21 1.59109 	-0.585063 	6.98675e-22 1.59361 	-0.579048 	3.22421e-21 1.59622 	-0.573082 	5.74335e-21 1.59816 	-0.565681 	9.37485e-21 1.5996 	-0.56502 	8.24949e-21 1.6007 	-0.563526 	7.62415e-21 1.60164 	-0.56164 	7.23609e-21 1.60259 	-0.559758 	6.84699e-21 1.60358 	-0.557829 	6.44593e-21 1.60562 	-0.553853 	4.70126e