/*--------------------------------*- C++ -*----------------------------------*\
| =========                 |                                                 |
| \\      /  F ield         | OpenFOAM: The Open Source CFD Toolbox           |
|  \\    /   O peration     | Version:  v1906                                 |
|   \\  /    A nd           | Web:      www.OpenFOAM.com                      |
|    \\/     M anipulation  |                                                 |
\*---------------------------------------------------------------------------*/
FoamFile
{
    version     2.0;
    format      ascii;
    class       volScalarField;
    location    "100";
    object      epsilon;
}
// * * * * * * * * * * * * * * * * * * * * * * * * * * * * * * * * * * * * * //

dimensions      [0 2 -3 0 0 0 0];


internalField   nonuniform List<scalar> 
12225
(
8534.11
8355.22
7998.5
7623.93
7277.17
6975.99
6716.79
6502.73
6322.03
6177.03
6062.05
5975.35
5912.72
5868.9
5848.28
5852.89
5871.39
5948.88
612.772
1495.23
1695.77
1686.45
1641.36
1562.6
1503.83
1459.45
1421.2
1390.09
1363.89
1339.41
1318.54
1302.74
1289.96
1279.88
1258.43
1242.36
136.108
458.857
618.524
687.004
717.68
721.712
718.975
712.821
703.608
695.332
686.89
679.002
670.81
664.368
658.42
652.92
642.998
634.154
58.5237
196.509
293.218
350.666
385.98
405.787
416.958
423.463
426.284
427.58
427.557
426.909
426.418
425.653
425.238
423.751
422.604
420.699
36.0235
105.223
164.117
205.405
234.446
254.524
268.519
278.705
285.971
291.597
295.644
299.196
302.06
304.679
306.88
308.55
309.52
310.31
26.8903
66.1055
103.534
132.872
155.415
172.664
185.967
196.526
204.98
212.106
218.024
223.363
228.087
232.448
236.436
240.019
243.027
245.986
22.3699
46.6334
71.4678
92.6001
109.959
124.156
135.847
145.68
154.045
161.411
167.909
173.851
179.318
184.432
189.224
193.695
197.804
201.878
19.8446
35.8342
52.9705
68.5054
81.9887
93.5986
103.641
112.466
120.306
127.426
133.955
140.058
145.82
151.309
156.559
161.578
166.364
171.171
18.3167
29.3469
41.5702
53.2303
63.8311
73.3528
81.9201
89.7105
96.8671
103.538
109.818
115.805
121.559
127.129
132.545
137.831
143.041
148.522
17.3386
25.2111
34.1751
43.0956
51.5388
59.4058
66.7279
73.586
80.0616
86.2368
92.175
97.9329
103.553
109.066
114.498
119.876
125.275
131.109
16.6846
22.4515
29.1767
36.114
42.9159
49.4617
55.7345
61.762
67.5843
73.244
78.7781
84.2189
89.592
94.9188
100.22
105.528
110.938
116.904
16.2685
20.6995
25.9677
31.5547
37.1873
42.7481
48.2004
53.5453
58.7985
63.9808
69.1118
74.2093
79.2884
84.3632
89.4508
94.5836
99.867
105.761
15.9572
19.3898
23.5419
28.0526
32.7115
37.414
42.1151
46.801
51.4722
56.1351
60.7977
65.4681
70.1544
74.866
79.6174
84.4421
89.4513
95.0874
15.6944
18.2902
21.485
25.0384
28.7965
32.6723
36.6205
40.6199
44.6614
48.7423
52.8626
57.0243
61.2306
65.4877
69.8086
74.2276
78.8562
84.0967
15.4802
17.4015
19.8083
22.5491
25.5169
28.6436
31.8884
35.2277
38.6478
42.1412
45.7037
49.334
53.0333
56.8066
60.6672
64.6505
68.8654
73.6616
15.3135
16.7174
18.508
20.5958
22.91
25.4005
28.0333
30.7863
33.6449
36.6001
39.647
42.7838
46.0122
49.3385
52.7782
56.3693
60.2144
64.6093
15.1942
16.2327
17.5806
19.1874
21.0073
23.0044
25.1516
27.4302
29.8276
32.3364
34.9536
37.6804
40.5222
43.4898
46.6033
49.9052
53.4946
57.6269
15.1262
15.9584
17.0505
18.3704
19.8858
21.569
23.3986
25.3594
27.4426
29.6448
31.9684
34.4213
37.0174
39.7777
42.7342
45.9408
49.5046
53.66
15.1277
15.9618
17.0456
18.3406
19.8112
21.4293
23.1748
25.036
27.0086
29.0962
31.3104
33.6723
36.2132
38.9783
42.028
45.449
49.3848
54.1051
15.2377
16.3991
17.8574
19.5289
21.3509
23.2816
25.2968
27.3858
29.5496
31.8004
34.163
36.6784
39.4082
42.4412
45.9007
49.9573
54.8601
61.0161
15.4394
17.2096
19.3553
21.7093
24.1633
26.6563
29.1599
31.6668
34.1842
36.733
39.3497
42.0922
45.0516
48.3682
52.2534
57.0141
63.0923
71.146
15.794
18.6507
21.9971
25.5088
29.0056
32.4049
35.6815
38.8388
41.8966
44.8884
47.8633
50.8928
54.09
57.6432
61.8697
67.2841
74.6668
85.1586
16.4093
21.1792
26.5838
32.0017
37.1487
41.9342
46.3579
50.4503
54.261
57.85
61.2825
64.6384
68.0355
71.6721
75.9221
81.5036
89.6979
102.537
17.5178
25.7649
34.786
43.3694
51.1129
57.9808
64.0546
69.4413
74.2545
78.5979
82.5731
86.2912
89.8689
93.4765
97.4383
102.497
110.314
123.973
19.6635
34.6761
50.3604
64.3122
76.148
86.0956
94.4596
101.52
107.527
112.697
117.198
121.18
124.779
128.166
131.514
135.275
140.871
151.768
24.3134
54.0083
82.6874
105.905
124.083
138.348
149.56
158.39
165.408
171.07
175.692
179.523
182.729
185.464
187.955
190.365
193.304
198.956
36.5038
103.458
158.864
197.952
225.139
244.363
257.737
266.875
273.18
277.609
280.636
282.662
284.096
284.832
285.351
285.467
285.754
286.528
81.6242
262.799
372.747
434.392
468.181
487.131
495.368
497.207
496.561
494.787
491.721
488.316
484.842
481.148
477.972
474.115
470.703
467.081
390.215
976.378
1162.41
1209.16
1201.79
1179.66
1138.76
1103.27
1075.11
1052.23
1032.91
1016.6
1002.15
989.963
978.26
967.892
957.65
946.279
6457.2
6259.77
5989.95
5729.19
5488.46
5270.29
5073.13
4895.64
4735.34
4590.19
4457.92
4337.03
4225.96
4124.47
4031.03
3945.96
3870.34
3800.44
20.8294
32.5196
85.961
153.925
227.348
300.765
373.239
443.212
509.974
572.153
629.419
680.687
725.155
762.106
790.656
810.689
823.597
834.914
843.522
849.967
854.867
858.812
861.267
862.314
861.9
862.281
860.804
860.172
859.168
858.935
859.217
858.346
859.049
859.176
860.484
862.102
864.285
866.059
866.964
863.416
857.608
855.197
854.962
854.53
853.491
851.933
850.07
848.019
845.902
843.76
841.65
839.573
837.561
835.604
833.719
831.895
830.147
828.466
826.852
825.273
823.813
822.425
821.086
819.769
818.448
817.085
815.659
814.129
812.476
810.701
808.845
806.893
804.871
802.763
800.541
798.427
796.367
794.445
792.783
791.614
790.044
789.44
787.65
787.104
785.586
786.902
786.449
788.058
788.564
790.32
790.37
792.523
793.645
796.101
796.583
799.57
800.592
802
804.931
806.367
807.977
811.755
812.337
816.548
817.35
821.316
821.776
823.922
825.476
823.471
820.638
817.258
813.596
809.614
805.028
800.003
794.694
789.356
783.961
778.715
773.767
769.029
764.49
760.138
755.958
751.963
748.108
744.338
740.684
737.067
733.47
729.704
725.684
721.605
717.427
713.291
709.379
705.797
702.432
699.152
696.018
693.054
690.248
687.588
685.032
682.531
680.118
677.81
675.609
673.466
671.357
669.431
667.669
666.017
664.388
662.718
660.946
659.047
657.018
654.864
652.564
650.083
647.4
644.536
641.551
638.506
635.484
632.52
629.67
626.909
624.285
621.671
619.167
616.353
613.459
609.127
603.932
593.96
581.007
528.921
309.125
152.607
177.497
202.683
226.498
246.001
260.011
271.028
280.349
288.462
293.158
295.034
295.322
294.319
293.321
293.205
293.877
294.428
294.652
294.653
294.479
294.165
293.728
293.212
292.623
292.006
291.29
290.587
289.85
289.135
288.34
287.405
286.471
285.445
284.384
283.313
282.592
282.325
281.97
281.359
280.868
280.302
279.473
278.676
278.019
277.483
277.029
276.618
276.218
275.813
275.4
274.977
274.544
274.102
273.653
273.198
272.74
272.281
271.82
271.358
270.898
270.434
269.96
269.471
268.963
268.437
267.891
267.323
266.741
266.154
265.568
264.988
264.436
263.938
263.575
263.367
263.101
262.677
262.589
262.57
262.464
262.39
262.241
262.095
262.116
262.41
262.749
263.265
263.813
264.538
265.391
266.633
267.971
269.384
270.669
271.949
272.994
273.924
274.818
275.507
276.181
276.995
277.671
278.487
279.108
279.828
280.274
280.634
280.851
281.055
281.29
280.994
280.204
278.781
277.099
275.376
273.582
271.627
269.307
266.939
264.569
262.238
259.929
257.645
255.704
253.974
252.37
250.84
249.359
247.903
246.437
244.965
243.541
242.161
240.811
239.446
238.046
236.618
235.207
233.853
232.56
231.347
230.229
229.154
228.066
226.836
225.595
224.333
223.041
221.705
220.334
219.814
218.685
217.591
216.599
215.685
214.808
213.943
213.073
212.186
211.267
210.304
209.288
208.223
207.12
206.004
204.901
203.837
202.841
201.93
201.128
200.449
199.909
199.502
199.301
199.349
200.057
200.89
203.564
211.715
564.781
234.663
201.145
193.454
194.343
194.837
196.389
197.288
197.517
196.807
195.057
192.611
189.828
186.946
184.227
181.746
179.476
177.382
175.493
173.837
172.421
171.238
170.271
169.495
168.875
168.375
167.966
167.627
167.331
167.059
166.776
166.471
166.141
165.773
165.38
165.003
164.695
164.433
164.16
163.91
163.722
163.581
163.503
163.514
163.579
163.645
163.699
163.73
163.714
163.675
163.639
163.58
163.512
163.439
163.354
163.266
163.177
163.092
163.009
162.927
162.846
162.764
162.678
162.587
162.493
162.399
162.307
162.221
162.147
162.093
162.072
162.078
162.148
162.291
162.503
162.779
163.102
163.494
163.973
164.538
165.189
165.941
166.781
167.741
168.83
170.059
171.406
172.872
174.443
176.112
177.852
179.647
181.457
183.255
185.005
186.696
188.292
189.791
191.182
192.443
193.591
194.632
195.55
196.376
197.085
197.677
198.098
198.343
198.502
198.614
198.783
199.015
199.346
199.561
199.107
197.953
196.054
194.227
192.515
190.896
189.404
188.019
186.638
185.231
183.857
182.546
181.29
180.1
178.997
177.959
176.95
176.036
175.239
174.511
173.809
173.001
172.035
170.964
169.949
169.041
168.263
167.671
167.158
166.385
166.09
164.996
164.021
163.063
162.111
161.177
160.272
159.404
158.542
157.702
156.886
156.082
155.281
154.479
153.676
152.872
152.063
151.238
150.379
149.47
148.502
147.477
146.406
145.309
144.213
143.144
142.135
141.211
140.41
139.735
139.353
139.056
139.606
140.126
141.644
146.072
684.846
266.514
199.878
178.923
171.092
167.915
165.199
162.154
158.312
153.795
148.764
143.642
138.725
133.979
129.502
125.37
121.633
118.332
115.489
113.1
111.139
109.567
108.335
107.391
106.679
106.153
105.77
105.494
105.296
105.153
105.05
104.977
104.915
104.856
104.805
104.774
104.793
104.87
104.971
105.111
105.288
105.49
105.709
105.936
106.158
106.368
106.561
106.735
106.887
107.024
107.151
107.269
107.381
107.49
107.598
107.708
107.823
107.944
108.071
108.207
108.352
108.507
108.675
108.858
109.06
109.286
109.536
109.818
110.135
110.496
110.909
111.377
111.902
112.49
113.143
113.862
114.645
115.499
116.425
117.426
118.503
119.656
120.884
122.187
123.56
124.997
126.487
128.02
129.581
131.157
132.732
134.288
135.812
137.29
138.712
140.072
141.365
142.587
143.736
144.809
145.807
146.73
147.576
148.346
149.03
149.613
150.068
150.4
150.652
150.846
151.066
151.307
151.549
151.754
152.09
152.134
151.507
150.509
149.726
149.058
148.487
147.843
147.031
146.154
145.296
144.49
143.729
143.092
142.593
142.078
141.539
141.172
140.869
140.512
140.094
139.488
138.697
137.868
137.235
136.816
136.802
136.886
136.501
135.568
134.675
133.864
133.094
132.339
131.596
130.867
130.152
129.454
128.771
128.1
127.435
126.769
126.099
125.424
124.743
124.056
123.354
122.624
121.846
121.008
120.102
119.134
118.117
117.072
116.023
114.998
114.025
113.129
112.341
111.704
111.323
111.228
111.474
111.693
112.536
114.832
796.019
287.069
202.623
175.903
163.445
156.914
151.236
145.551
139.312
132.698
125.733
118.639
111.688
105.089
99.0241
93.61
88.9013
84.902
81.5791
78.8739
76.7145
75.0245
73.729
72.7565
72.0422
71.5315
71.1776
70.9431
70.7991
70.7204
70.7048
70.7496
70.8216
70.9055
71.0093
71.1388
71.2982
71.4836
71.6914
71.9188
72.1603
72.4094
72.6605
72.9089
73.1507
73.3839
73.6068
73.8191
74.0216
74.2167
74.4066
74.5934
74.7793
74.9667
75.1581
75.3558
75.5621
75.7793
76.0095
76.2548
76.5174
76.7999
77.1049
77.4355
77.7952
78.1884
78.6173
79.0828
79.589
80.141
80.7423
81.3941
82.0968
82.8519
83.6605
84.523
85.4387
86.4084
87.432
88.5088
89.6368
90.8139
92.0365
93.3006
94.6006
95.9302
97.2822
98.6494
100.024
101.398
102.764
104.117
105.45
106.759
108.042
109.296
110.518
111.705
112.854
113.959
115.016
116.02
116.967
117.849
118.661
119.396
120.039
120.594
121.077
121.502
121.886
122.228
122.529
122.786
122.999
123.06
123.04
123.056
122.974
122.829
122.705
122.249
121.659
121.112
120.592
120.149
119.793
119.756
119.848
119.597
119.275
119.354
119.157
118.674
118.285
117.8
117.155
116.585
116.474
116.567
116.395
115.874
115.243
114.632
114.047
113.453
112.834
112.204
111.577
110.955
110.339
109.729
109.128
108.534
107.945
107.356
106.762
106.156
105.534
104.892
104.227
103.531
102.792
102.002
101.162
100.279
99.3663
98.4419
97.5258
96.6402
95.8067
95.0482
94.3949
93.9164
93.7423
93.7608
93.8105
94.008
94.5792
95.9946
899.011
305.328
210.561
180.947
166.88
158.674
151.138
143.18
134.488
125.067
115.318
105.656
96.4797
88.09
80.6798
74.3115
68.9642
64.5698
61.0244
58.2122
56.0177
54.3337
53.0638
52.1236
51.4428
50.9648
50.6435
50.4419
50.3307
50.2896
50.3161
50.3983
50.5022
50.6258
50.769
50.9314
51.1116
51.3069
51.5142
51.7303
51.9513
52.1741
52.3958
52.6144
52.8283
53.0367
53.2398
53.438
53.6323
53.8239
54.0143
54.2055
54.3991
54.5973
54.8027
55.0173
55.2429
55.4819
55.7365
56.0088
56.3007
56.6141
56.9512
57.3143
57.7045
58.1235
58.5735
59.0554
59.571
60.1222
60.7098
61.3341
61.9954
62.6936
63.4285
64.1994
65.0057
65.8464
66.7206
67.6268
68.5628
69.5262
70.5142
71.5236
72.5509
73.5924
74.6446
75.7039
76.7671
77.8313
78.8939
79.9527
81.006
82.0523
83.0901
84.1176
85.1324
86.1314
87.1107
88.066
88.9926
89.8854
90.7392
91.5483
92.309
93.0198
93.6688
94.2558
94.7877
95.2686
95.702
96.0886
96.4289
96.7221
96.9651
97.1516
97.3051
97.4321
97.52
97.6036
97.6374
97.6758
97.6586
97.4552
97.1797
97.0644
97.0759
97.1287
97.1612
97.0858
97.0098
97.0939
97.021
96.8585
96.683
96.3957
96.0389
95.8829
95.9562
95.899
95.6373
95.2073
94.8337
94.5138
94.2019
93.8336
93.4184
92.99
92.5643
92.1381
91.71
91.2847
90.8663
90.4561
90.0513
89.6445
89.2256
88.7869
88.3268
87.8463
87.3483
86.8291
86.279
85.694
85.0752
84.4283
83.7624
83.0897
82.4246
81.7876
81.1959
80.673
80.2563
80.0417
80.045
80.1037
80.2129
80.4848
81.1263
82.4929
1021.96
329.831
226.311
195.165
181.203
172.129
163.585
153.425
141.684
128.7
115.328
102.337
90.3655
79.7676
70.72
63.2251
57.1646
52.3439
48.5626
45.6379
43.4045
41.7212
40.4703
39.5564
38.9031
38.4497
38.1486
37.9627
37.8641
37.8327
37.8617
37.9391
38.0387
38.1572
38.2919
38.4406
38.6008
38.7702
38.9464
39.1272
39.3103
39.4941
39.6771
39.8583
40.0372
40.2136
40.3877
40.56
40.7312
40.9025
41.0751
41.2504
41.43
41.6156
41.809
42.0119
42.2263
42.4541
42.6969
42.9562
43.2334
43.5298
43.8463
44.1835
44.5426
44.9243
45.3298
45.7595
46.2137
46.6928
47.1967
47.7253
48.2781
48.8548
49.4547
50.0773
50.7216
51.387
52.0722
52.7761
53.4971
54.2338
54.9846
55.7479
56.5219
57.305
58.096
58.8934
59.6963
60.5037
61.3151
62.13
62.9476
63.7674
64.588
65.4077
66.2244
67.0352
67.8366
68.6249
69.3963
70.1468
70.8724
71.5691
72.2339
72.8664
73.4616
74.0149
74.5278
75.0008
75.4345
75.8296
76.1871
76.5089
76.7972
77.056
77.2931
77.5117
77.7158
77.9105
78.0869
78.2543
78.38
78.4522
78.5115
78.5994
78.7092
78.825
78.9407
79.0229
79.1181
79.2286
79.3099
79.3649
79.3838
79.3984
79.3583
79.3345
79.3951
79.3914
79.3218
79.1158
78.9621
78.8728
78.7801
78.6066
78.3748
78.1348
77.8995
77.657
77.4073
77.1567
76.909
76.6649
76.4227
76.1731
75.9038
75.6085
75.2894
74.95
74.5918
74.2129
73.8098
73.3812
72.9288
72.4573
71.9735
71.4868
71.0083
70.5534
70.1401
69.7943
69.5587
69.5073
69.535
69.594
69.7694
70.123
70.8117
72.2138
1164.95
371.055
255.872
223.21
211.388
202.251
191.882
178.155
161.752
143.565
125.082
107.49
91.6628
78.053
66.7874
57.7187
50.6043
45.1382
40.9916
37.8692
35.5381
33.8142
32.5532
31.6433
30.9985
30.5534
30.258
30.0745
29.9747
29.937
29.952
30.01
30.0912
30.1891
30.3003
30.4223
30.5527
30.6895
30.8309
30.9753
31.1215
31.2684
31.4152
31.5614
31.7068
31.8513
31.9953
32.139
32.2833
32.4288
32.5768
32.7282
32.8844
33.0467
33.2164
33.3951
33.5841
33.7847
33.9979
34.225
34.4668
34.7236
34.9958
35.2835
35.5877
35.9086
36.2466
36.6014
36.973
37.3611
37.7654
38.1856
38.6211
39.0716
39.5364
40.0151
40.507
41.0115
41.5279
42.0555
42.5936
43.1415
43.6984
44.2638
44.837
45.4175
46.005
46.5993
47.2001
47.8073
48.4209
49.0406
49.6661
50.2967
50.9315
51.5691
52.2075
52.8447
53.478
54.1047
54.7219
55.3267
55.9162
56.4875
57.0381
57.5675
58.0748
58.5546
59.0057
59.4281
59.8218
60.1878
60.5279
60.8448
61.1416
61.4223
61.691
61.9505
62.2036
62.4515
62.6915
62.9226
63.1373
63.3337
63.521
63.7082
63.8952
64.0804
64.2616
64.4331
64.6023
64.7701
64.9279
65.0721
65.1955
65.3041
65.3762
65.456
65.5444
65.6205
65.6606
65.6657
65.6765
65.7083
65.7306
65.7353
65.6985
65.5946
65.5045
65.408
65.3045
65.1997
65.093
64.9859
64.8808
64.7627
64.6156
64.4382
64.2377
64.0184
63.7819
63.5273
63.2536
62.9609
62.6513
62.3284
61.9975
61.666
61.3432
61.0422
60.7807
60.5865
60.5039
60.5116
60.5492
60.6697
60.9118
61.3439
62.0797
63.4445
1293.4
427.605
299.528
267.899
258.813
250.397
238.247
220.387
197.94
172.733
147.17
123.01
101.451
83.1764
68.3768
56.8223
48.0609
41.5208
36.7124
33.2175
30.6819
28.847
27.5282
26.5891
25.9294
25.4753
25.1726
24.9809
24.8707
24.8195
24.8158
24.8503
24.9099
24.984
25.0697
25.1643
25.2657
25.3721
25.4822
25.5949
25.7093
25.8246
25.9405
26.0565
26.1726
26.2888
26.4053
26.5225
26.641
26.7613
26.8844
27.011
27.1421
27.2788
27.4221
27.573
27.7324
27.9011
28.08
28.2697
28.4707
28.683
28.9065
29.1415
29.3884
29.6471
29.9175
30.1994
30.4924
30.7963
31.1106
31.435
31.7692
32.1127
32.4652
32.8263
33.1957
33.5729
33.9576
34.3496
34.7486
35.1542
35.5664
35.985
36.4098
36.841
37.2785
37.7225
38.1731
38.6304
39.0945
39.5652
40.0423
40.5252
41.013
41.5046
41.9987
42.4934
42.9871
43.4777
43.9632
44.4414
44.9104
45.368
45.8126
46.2432
46.6597
47.0594
47.4399
47.8008
48.1425
48.4659
48.7729
49.0659
49.3478
49.6216
49.89
50.155
50.418
50.6792
50.9373
51.1909
51.4376
51.6765
51.9093
52.1377
52.3623
52.5829
52.799
53.0097
53.2157
53.4173
53.6124
53.7988
53.9722
54.1315
54.2725
54.4074
54.5401
54.6658
54.7784
54.8775
54.9749
55.076
55.1699
55.2499
55.3015
55.3311
55.3525
55.3609
55.3639
55.3682
55.3607
55.3426
55.3368
55.3102
55.2412
55.1461
55.0325
54.9034
54.7604
54.603
54.4307
54.244
54.0449
53.8362
53.6223
53.409
53.2052
53.0232
52.881
52.8084
52.8079
52.8438
52.9418
53.1362
53.4573
53.9547
54.7221
55.9926
1441.79
499.109
353.747
324.368
318.425
311.765
298.817
276.913
248.339
216.463
183.79
151.877
122.382
96.8941
76.3057
60.5731
49.0145
40.7212
34.8497
30.7109
27.81
25.7741
24.3415
23.3378
22.6402
22.1623
21.8422
21.6357
21.5111
21.4457
21.4232
21.4341
21.471
21.5229
21.5853
21.6554
21.7315
21.812
21.8957
21.9818
22.0696
22.1586
22.2485
22.339
22.4301
22.5218
22.6144
22.708
22.8031
22.9003
23.0001
23.1032
23.2102
23.322
23.4391
23.5624
23.6925
23.8298
23.9749
24.1281
24.2897
24.4596
24.6377
24.824
25.0186
25.2214
25.4322
25.6506
25.8765
26.1094
26.3492
26.5955
26.848
27.1066
27.3709
27.6408
27.9161
28.1967
28.4823
28.773
29.0687
29.3693
29.6749
29.9857
30.3015
30.6228
30.9495
31.282
31.6204
31.9648
32.3154
32.6721
33.0346
33.4026
33.7753
34.1518
34.531
34.9118
35.2928
35.6726
36.0497
36.4227
36.7901
37.1505
37.5025
37.8455
38.179
38.5025
38.8139
39.1126
39.3992
39.6748
39.9408
40.1992
40.4522
40.7018
40.95
41.1979
41.4462
41.6947
41.9425
42.1885
42.4315
42.6708
42.9062
43.1381
43.3663
43.591
43.8119
44.0286
44.2411
44.4494
44.6527
44.8498
45.0386
45.2174
45.3855
45.5464
45.7026
45.854
45.9993
46.1385
46.2751
46.4106
46.5409
46.6613
46.7681
46.8629
46.948
47.0217
47.0877
47.1485
47.201
47.2484
47.2916
47.3178
47.3233
47.304
47.2554
47.1941
47.1228
47.0399
46.9453
46.8397
46.7251
46.6036
46.4784
46.3547
46.2407
46.1483
46.0959
46.0939
46.1285
46.2135
46.3698
46.6167
46.9839
47.5179
48.2925
49.4626
1631.64
578.445
409.557
380.944
376.838
370.33
355.452
331.078
300.903
267.558
231.954
194.75
157.412
122.495
92.922
70.1724
53.8525
42.6037
34.9763
29.84
26.3579
23.9933
22.38
21.2731
20.5151
19.9999
19.6547
19.4291
19.288
19.2067
19.1678
19.1596
19.1748
19.2077
19.2502
19.2999
19.3549
19.4139
19.476
19.5403
19.6064
19.6738
19.7422
19.8116
19.8819
19.953
20.0251
20.0985
20.1735
20.2503
20.3295
20.4116
20.497
20.5862
20.6797
20.778
20.8815
20.9905
21.1053
21.2261
21.353
21.486
21.6249
21.7697
21.9202
22.0764
22.238
22.4048
22.5765
22.7531
22.9342
23.1196
23.3092
23.5028
23.7004
23.9017
24.1068
24.3156
24.5281
24.7443
24.9642
25.1881
25.4159
25.6478
25.884
26.1245
26.3697
26.6197
26.8746
27.1347
27.3999
27.6702
27.9453
28.225
28.5087
28.7958
29.0855
29.377
29.6693
29.9614
30.2523
30.5408
30.8259
31.1067
31.3823
31.6521
31.9158
32.1732
32.4237
32.6664
32.9021
33.1314
33.3558
33.5766
33.7954
34.0137
34.2326
34.4527
34.6744
34.8973
35.1207
35.3437
35.5654
35.7853
36.0029
36.2181
36.4307
36.6406
36.8476
37.0516
37.2523
37.4496
37.6432
37.8325
38.0163
38.1939
38.3647
38.5302
38.6914
38.8492
39.0035
39.1546
39.3035
39.4507
39.5944
39.7322
39.8629
39.9865
40.1028
40.2107
40.3115
40.406
40.4937
40.5745
40.6472
40.7069
40.7506
40.7738
40.7778
40.7692
40.75
40.7206
40.6815
40.6345
40.5814
40.5228
40.4618
40.4027
40.3533
40.325
40.3284
40.3642
40.4405
40.5676
40.7607
41.0381
41.4279
41.9691
42.7222
43.788
1876.46
662.601
459.23
416.01
404.223
393.181
378.46
357.988
332.617
303.368
271.746
237.895
200.59
160.153
120.656
87.6465
63.5764
47.4489
37.0157
30.3099
25.9674
23.1255
21.2498
19.9994
19.1597
18.5963
18.2207
17.9741
17.8163
17.7201
17.6668
17.6432
17.6417
17.6571
17.6837
17.7167
17.7547
17.7964
17.841
17.8877
17.9362
17.986
18.037
18.0891
18.1421
18.1961
18.2511
18.3075
18.3653
18.4247
18.4862
18.5501
18.6166
18.6862
18.7591
18.8357
18.9162
19.0009
19.0898
19.1831
19.2808
19.3829
19.4893
19.5999
19.7144
19.833
19.9553
20.0811
20.2105
20.343
20.4788
20.6175
20.7592
20.9037
21.0511
21.2011
21.354
21.5095
21.6678
21.829
21.9931
22.1604
22.3309
22.5047
22.682
22.8627
23.0472
23.2356
23.4281
23.6246
23.8253
24.0301
24.2389
24.4513
24.667
24.8857
25.1066
25.3292
25.5529
25.7768
26.0001
26.2223
26.4424
26.66
26.8743
27.085
27.2919
27.4949
27.6939
27.8888
28.0797
28.2674
28.4528
28.637
28.8212
29.0062
29.1927
29.3813
29.5718
29.7639
29.957
30.1505
30.3436
30.5358
30.7268
30.9163
31.1041
31.29
31.474
31.6558
31.8353
32.0125
32.1871
32.3588
32.527
32.6913
32.8516
33.0081
33.1616
33.3126
33.4615
33.6084
33.7539
33.898
34.04
34.1789
34.314
34.4448
34.5709
34.6912
34.8058
34.9147
35.0171
35.1124
35.1995
35.2758
35.3395
35.3885
35.4239
35.4482
35.4635
35.4698
35.4674
35.461
35.4507
35.4353
35.4182
35.4033
35.3971
35.4085
35.4466
35.513
35.6152
35.7644
35.9738
36.2609
36.6506
37.1765
37.886
38.8448
1965.75
719.217
491.908
432.133
410.821
397.363
378.973
358.484
336.048
312.107
289.475
266.716
239.127
202.753
158.578
114.779
79.6112
55.8485
41.0317
31.9792
26.4061
22.9152
20.6927
19.257
18.3168
17.6974
17.289
17.0214
16.8486
16.74
16.6752
16.6405
16.6265
16.6277
16.6406
16.6607
16.6854
16.7135
16.7443
16.7772
16.8117
16.8475
16.8845
16.9226
16.9617
17.0018
17.0429
17.0852
17.1287
17.1738
17.2205
17.2691
17.3198
17.3729
17.4286
17.487
17.5484
17.6128
17.6803
17.7511
17.825
17.9021
17.9824
18.0656
18.1517
18.2405
18.3321
18.4262
18.5228
18.6217
18.7228
18.8262
18.9317
19.0393
19.1491
19.2609
19.3748
19.4908
19.6089
19.7293
19.8519
19.977
20.1046
20.2347
20.3676
20.5033
20.642
20.7838
20.9289
21.0771
21.2287
21.3836
21.5416
21.7026
21.8663
22.0323
22.2003
22.3699
22.5404
22.7114
22.8823
23.0526
23.2219
23.3896
23.5554
23.719
23.8804
24.0395
24.1964
24.3513
24.5043
24.656
24.807
24.958
25.1099
25.2633
25.4186
25.576
25.7354
25.8965
26.0588
26.2217
26.3848
26.5476
26.7097
26.871
27.0312
27.1903
27.3482
27.5046
27.6596
27.8131
27.965
28.1151
28.2631
28.4088
28.5521
28.693
28.8319
28.9691
29.105
29.2397
29.3735
29.5066
29.6387
29.7693
29.898
30.0243
30.1476
30.2671
30.3823
30.4926
30.5972
30.6955
30.7864
30.8686
30.9411
31.0031
31.0551
31.0986
31.1349
31.1645
31.1878
31.2063
31.2212
31.2332
31.2447
31.2588
31.2811
31.3182
31.376
31.4589
31.5735
31.7299
31.9405
32.2212
32.5938
33.0865
33.7359
34.5838
1914.27
747.803
524.124
462.213
431.567
411.073
387
363.894
345.081
333.223
325.189
319.165
301.202
262.509
207.886
153.138
103.654
68.6017
47.1971
34.7466
27.4833
23.1535
20.506
18.8551
17.8033
17.1252
16.6854
16.3998
16.2153
16.0977
16.0249
15.9823
15.9601
15.9519
15.9541
15.964
15.9788
15.9966
16.0169
16.0391
16.0628
16.0879
16.114
16.1411
16.1692
16.1982
16.2282
16.2592
16.2914
16.3247
16.3594
16.3956
16.4334
16.4731
16.5147
16.5583
16.6042
16.6522
16.7026
16.7553
16.8104
16.8677
16.9273
16.9891
17.053
17.1188
17.1867
17.2564
17.3279
17.4011
17.476
17.5526
17.6308
17.7107
17.7923
17.8755
17.9604
18.0468
18.1349
18.2248
18.3164
18.4099
18.5054
18.6028
18.7025
18.8043
18.9085
19.0152
19.1243
19.236
19.3503
19.4672
19.5865
19.7082
19.8321
19.9579
20.0852
20.2139
20.3435
20.4737
20.6041
20.7342
20.8639
20.9927
21.1204
21.247
21.3723
21.4964
21.6193
21.7414
21.8628
21.9839
22.1051
22.227
22.3502
22.475
22.6016
22.7303
22.8609
22.993
23.1264
23.2605
23.395
23.5295
23.6637
23.7975
23.9308
24.0633
24.1951
24.3262
24.4564
24.5858
24.7143
24.8418
24.9681
25.0932
25.2168
25.339
25.46
25.5799
25.699
25.8174
25.9355
26.0533
26.1709
26.2879
26.4042
26.5193
26.6326
26.7434
26.8509
26.9546
27.0536
27.1473
27.2349
27.3158
27.3894
27.4555
27.5144
27.5669
27.6139
27.6559
27.693
27.7262
27.7563
27.7846
27.813
27.8443
27.8828
27.9337
28.0016
28.0912
28.2083
28.3622
28.564
28.8279
29.1726
29.6212
30.2011
30.9388
1750.94
778.257
528.107
468.606
436.116
414.88
392.03
373.214
363.814
363.681
374.767
387.695
386.199
362.637
303.231
212.745
139.08
86.9681
55.7541
38.502
29.0107
23.6503
20.5216
18.6446
17.4841
16.754
16.2895
15.992
15.8013
15.6795
15.6028
15.5559
15.5289
15.5153
15.5109
15.5132
15.5207
15.5313
15.544
15.5584
15.5742
15.5911
15.6091
15.628
15.6477
15.6683
15.6897
15.7119
15.7351
15.7593
15.7846
15.811
15.8387
15.8678
15.8983
15.9304
15.964
15.9993
16.0363
16.075
16.1154
16.1574
16.2011
16.2464
16.2933
16.3416
16.3914
16.4426
16.4951
16.5489
16.6041
16.6605
16.7181
16.7771
16.8373
16.8988
16.9615
17.0255
17.0909
17.1576
17.2257
17.2952
17.3663
17.439
17.5134
17.5895
17.6674
17.7472
17.829
17.9128
17.9986
18.0864
18.1761
18.2676
18.3609
18.4557
18.5519
18.6491
18.7472
18.8458
18.9448
19.0438
19.1426
19.2411
19.3391
19.4364
19.5332
19.6293
19.725
19.8204
19.9158
20.0114
20.1075
20.2046
20.3029
20.4028
20.5045
20.6079
20.7129
20.8194
20.927
21.0354
21.1442
21.2532
21.3622
21.4711
21.5796
21.6879
21.7958
21.9034
22.0105
22.1174
22.2238
22.3298
22.4352
22.54
22.6441
22.7473
22.8498
22.9517
23.0531
23.1543
23.2555
23.3567
23.4582
23.5597
23.6611
23.762
23.8618
23.9599
24.0558
24.1486
24.2377
24.3227
24.4029
24.478
24.5479
24.6123
24.6717
24.7265
24.7772
24.8241
24.8674
24.9076
24.9454
24.982
25.0191
25.059
25.1053
25.1618
25.2327
25.322
25.4351
25.5799
25.7665
26.0072
26.3174
26.716
27.2231
27.8548
1412.54
768.825
547.818
475.309
444.632
425.671
406.825
390.862
393.937
408.955
430.548
450.219
460.911
460.111
418.842
319.466
195.496
113.72
67.2334
43.1504
30.7753
24.2058
20.5811
18.491
17.2418
16.4781
16.0034
15.7049
15.5159
15.3961
15.3205
15.2734
15.245
15.229
15.2213
15.2193
15.2215
15.2271
15.2346
15.2435
15.2535
15.2646
15.2765
15.2893
15.3027
15.3169
15.3318
15.3473
15.3637
15.3808
15.3987
15.4176
15.4374
15.4582
15.48
15.503
15.5272
15.5525
15.579
15.6068
15.6358
15.666
15.6975
15.7301
15.7638
15.7987
15.8346
15.8716
15.9096
15.9486
15.9885
16.0295
16.0715
16.1144
16.1583
16.2032
16.2491
16.2959
16.3439
16.3928
16.4429
16.4941
16.5464
16.6
16.6549
16.7111
16.7687
16.8278
16.8884
16.9505
17.0142
17.0794
17.1461
17.2143
17.2837
17.3544
17.4262
17.4988
17.5722
17.6462
17.7205
17.795
17.8696
17.944
18.0183
18.0924
18.1663
18.24
18.3135
18.3872
18.461
18.5354
18.6104
18.6864
18.7636
18.8422
18.9223
19.0039
19.0869
19.1712
19.2564
19.3424
19.4289
19.5156
19.6025
19.6894
19.7762
19.863
19.9497
20.0364
20.123
20.2096
20.2962
20.3827
20.469
20.5551
20.6408
20.7262
20.8112
20.8959
20.9804
21.065
21.1499
21.2351
21.3207
21.4067
21.493
21.5791
21.6648
21.7494
21.8323
21.9131
21.991
22.0658
22.1371
22.2048
22.2686
22.3288
22.3855
22.439
22.4895
22.5372
22.5823
22.6251
22.6662
22.7065
22.7475
22.7913
22.8406
22.8984
22.9682
23.0537
23.1596
23.2924
23.4612
23.6764
23.9507
24.2987
24.7352
25.2694
913.434
800.593
601.12
512.026
477.732
461.149
445.987
431.133
429.025
438.803
458.757
488.023
519.815
538.979
516.326
435.119
282.873
150.561
80.7783
47.7543
32.157
24.4734
20.4693
18.2544
16.9814
16.2279
15.772
15.4918
15.3175
15.2084
15.1399
15.0973
15.0712
15.0558
15.0474
15.0438
15.0437
15.046
15.0503
15.0558
15.0621
15.0693
15.0771
15.0856
15.0947
15.1044
15.1147
15.1255
15.1368
15.1488
15.1614
15.1747
15.1887
15.2034
15.2189
15.2352
15.2524
15.2704
15.2892
15.309
15.3296
15.3512
15.3736
15.3968
15.4209
15.4458
15.4716
15.4981
15.5254
15.5535
15.5823
15.6119
15.6422
15.6733
15.7051
15.7377
15.7711
15.8052
15.8402
15.8759
15.9125
15.9499
15.9882
16.0275
16.0678
16.109
16.1514
16.1948
16.2394
16.2851
16.332
16.3801
16.4293
16.4796
16.5309
16.5831
16.6362
16.69
16.7445
16.7994
16.8547
16.9102
16.9659
17.0217
17.0774
17.1332
17.1889
17.2447
17.3006
17.3566
17.413
17.47
17.5276
17.5861
17.6457
17.7064
17.7684
17.8317
17.8961
17.9616
18.0279
18.0948
18.1623
18.23
18.298
18.366
18.4342
18.5025
18.5708
18.6393
18.708
18.7768
18.8458
18.915
18.9842
19.0534
19.1225
19.1915
19.2604
19.3292
19.398
19.4671
19.5365
19.6065
19.677
19.7481
19.8197
19.8913
19.9628
20.0337
20.1034
20.1715
20.2376
20.3014
20.3627
20.4215
20.4777
20.5314
20.5827
20.6319
20.6791
20.7243
20.7675
20.8091
20.8496
20.8897
20.9306
20.974
21.0221
21.0775
21.1428
21.2215
21.3173
21.436
21.5851
21.7735
22.0112
22.3099
22.6794
23.1247
224.832
783.111
729.056
605.296
543.656
519.09
506.82
497.223
498.345
500.008
508.485
527.784
555.845
604.85
610.362
566.098
389.675
196.702
95.4222
51.7902
32.9796
24.4273
20.1827
17.9439
16.707
15.9991
15.583
15.3333
15.181
15.0872
15.0291
14.993
14.9709
14.9576
14.9501
14.9465
14.9454
14.9463
14.9487
14.9521
14.9562
14.9609
14.9662
14.972
14.9782
14.9849
14.992
14.9996
15.0076
15.0161
15.0251
15.0345
15.0445
15.0549
15.066
15.0776
15.0899
15.1027
15.1162
15.1304
15.1451
15.1606
15.1766
15.1933
15.2106
15.2285
15.2471
15.2662
15.2859
15.3062
15.327
15.3484
15.3705
15.393
15.4162
15.4399
15.4643
15.4892
15.5147
15.5408
15.5676
15.595
15.6231
15.6518
15.6814
15.7116
15.7427
15.7746
15.8074
15.841
15.8755
15.9108
15.947
15.984
16.0218
16.0603
16.0994
16.1391