/*--------------------------------*- C++ -*----------------------------------*\
| =========                 |                                                 |
| \\      /  F ield         | OpenFOAM: The Open Source CFD Toolbox           |
|  \\    /   O peration     | Version:  v1906                                 |
|   \\  /    A nd           | Web:      www.OpenFOAM.com                      |
|    \\/     M anipulation  |                                                 |
\*---------------------------------------------------------------------------*/
FoamFile
{
    version     2.0;
    format      ascii;
    class       volScalarField;
    location    "100";
    object      k;
}
// * * * * * * * * * * * * * * * * * * * * * * * * * * * * * * * * * * * * * //

dimensions      [0 2 -2 0 0 0 0];


internalField   nonuniform List<scalar> 
12225
(
2.25876
2.22707
2.1632
2.0951
2.03104
1.97454
1.92525
1.88401
1.84887
1.82036
1.79747
1.78023
1.76769
1.75882
1.75432
1.75511
1.75871
1.77375
2.25038
2.13868
1.98849
1.8788
1.79103
1.72967
1.68263
1.64873
1.62049
1.60351
1.58861
1.58233
1.57352
1.57105
1.57451
1.57427
1.57392
1.57357
2.25808
2.22068
2.14868
2.08153
2.01979
1.96815
1.92508
1.89122
1.86319
1.84446
1.82821
1.82076
1.81109
1.81252
1.81442
1.81682
1.82085
1.82473
2.25885
2.23839
2.19584
2.15019
2.10657
2.06839
2.03618
2.01048
1.98996
1.97613
1.96497
1.96057
1.95596
1.95882
1.962
1.96669
1.97284
1.97998
2.25963
2.24883
2.22575
2.19899
2.17281
2.14946
2.12987
2.11452
2.10301
2.09611
2.09135
2.09209
2.09235
2.09712
2.10277
2.10945
2.11746
2.12704
2.26007
2.25397
2.24107
2.22532
2.2098
2.19617
2.1854
2.17782
2.17315
2.17208
2.17307
2.17678
2.18196
2.18912
2.19729
2.20625
2.21637
2.22936
2.26054
2.25768
2.25159
2.24401
2.23696
2.23154
2.22861
2.22833
2.22988
2.23405
2.24028
2.24842
2.25778
2.26814
2.27908
2.29054
2.30316
2.31944
2.26095
2.2603
2.25859
2.25654
2.25546
2.25592
2.25835
2.26302
2.26963
2.27825
2.28844
2.29989
2.31213
2.32481
2.33765
2.35074
2.36491
2.38316
2.26136
2.26247
2.26386
2.26588
2.26921
2.27424
2.2812
2.29012
2.3008
2.31303
2.32639
2.34049
2.3549
2.36927
2.38341
2.39748
2.41244
2.43119
2.26173
2.26415
2.26768
2.27249
2.2789
2.28713
2.29722
2.30906
2.32241
2.33693
2.3522
2.36779
2.38328
2.39837
2.41292
2.42711
2.44187
2.45975
2.26206
2.2655
2.27054
2.27727
2.28582
2.29624
2.30846
2.32228
2.33736
2.35331
2.36968
2.38605
2.40203
2.41733
2.43184
2.44576
2.45985
2.47612
2.26229
2.26636
2.27224
2.28
2.28968
2.30122
2.31447
2.32916
2.34492
2.36133
2.37797
2.3944
2.41027
2.42534
2.4395
2.45292
2.46621
2.48089
2.26242
2.2668
2.27305
2.28121
2.29127
2.30314
2.31661
2.33138
2.3471
2.36336
2.37975
2.39589
2.41147
2.42625
2.44016
2.45331
2.46615
2.47978
2.26246
2.26687
2.27307
2.28111
2.29095
2.30247
2.31547
2.32967
2.34474
2.36032
2.37605
2.39163
2.40679
2.42133
2.43516
2.44835
2.4612
2.47443
2.26242
2.26662
2.27248
2.28002
2.2892
2.29991
2.31197
2.32517
2.33923
2.35387
2.36884
2.38388
2.3988
2.41343
2.42769
2.44157
2.45524
2.46918
2.26227
2.26604
2.27127
2.27801
2.2862
2.29579
2.30665
2.31863
2.33155
2.34525
2.35957
2.37436
2.38948
2.40483
2.4203
2.43584
2.45148
2.46753
2.26205
2.26519
2.2696
2.27533
2.28235
2.29065
2.30019
2.31092
2.32279
2.33576
2.34981
2.36491
2.38102
2.39807
2.41596
2.43454
2.45379
2.47386
2.26174
2.26404
2.26744
2.27198
2.27768
2.28461
2.2928
2.30235
2.31335
2.32594
2.3403
2.35656
2.37485
2.39517
2.41743
2.44141
2.46696
2.49407
2.26134
2.26259
2.26475
2.26785
2.27201
2.27733
2.28399
2.29221
2.3023
2.31466
2.32975
2.34806
2.37003
2.39592
2.42575
2.45925
2.49609
2.53609
2.26096
2.26121
2.26209
2.26373
2.26626
2.26986
2.27479
2.28141
2.29021
2.30187
2.31726
2.33746
2.3636
2.39668
2.43728
2.48536
2.54036
2.60185
2.2606
2.25989
2.25955
2.25969
2.26045
2.26214
2.26502
2.26951
2.27623
2.28603
2.30012
2.32017
2.34826
2.38669
2.43744
2.50156
2.57889
2.6687
2.26031
2.25866
2.25694
2.25533
2.25408
2.25353
2.25391
2.25564
2.25946
2.26618
2.27716
2.29448
2.32116
2.36126
2.4195
2.50001
2.60489
2.73425
2.26001
2.25725
2.25378
2.24985
2.24585
2.24215
2.23916
2.23742
2.23751
2.23975
2.24565
2.25736
2.27805
2.31312
2.37058
2.46023
2.59078
2.76695
2.25982
2.25587
2.25015
2.24322
2.23573
2.22823
2.22121
2.21515
2.21058
2.2083
2.20903
2.2137
2.22538
2.24922
2.29448
2.3763
2.51496
2.72824
2.25958
2.25389
2.24451
2.23279
2.21991
2.20672
2.19385
2.18184
2.17114
2.16233
2.15605
2.15392
2.15642
2.16634
2.19088
2.24417
2.35336
2.56035
2.25944
2.25142
2.23634
2.21775
2.19776
2.17755
2.1579
2.13933
2.12221
2.10694
2.09388
2.08378
2.07778
2.07802
2.08469
2.10654
2.16179
2.28967
2.259
2.24536
2.21779
2.18501
2.15117
2.11798
2.08655
2.05745
2.03094
2.00714
1.98609
1.96795
1.95321
1.94239
1.93686
1.93923
1.95244
1.99332
2.25877
2.23469
2.1866
2.13517
2.08549
2.03842
1.99523
1.9563
1.92145
1.89039
1.86283
1.8386
1.8177
1.79979
1.78624
1.77523
1.77176
1.77688
2.25334
2.17274
2.05435
1.95344
1.87168
1.8029
1.74796
1.70344
1.66648
1.63542
1.60907
1.58709
1.56833
1.55327
1.54074
1.53101
1.52485
1.51749
2.25473
2.20854
2.14461
2.08193
2.02322
1.96927
1.91989
1.87488
1.83378
1.79617
1.76155
1.72963
1.70003
1.67275
1.64749
1.62419
1.60347
1.58405
0.0562063
0.123687
0.239854
0.355803
0.462756
0.558483
0.645537
0.724334
0.795703
0.859418
0.916105
0.965476
1.0074
1.04174
1.06815
1.08674
1.09775
1.10768
1.115
1.12045
1.12447
1.12759
1.12938
1.1299
1.12918
1.12925
1.1273
1.12634
1.12492
1.12414
1.12386
1.12285
1.12293
1.12243
1.12293
1.1237
1.12495
1.12597
1.1264
1.12422
1.11824
1.11509
1.11432
1.11356
1.11228
1.11052
1.10846
1.1062
1.10387
1.1015
1.09915
1.09681
1.09453
1.09229
1.0901
1.08797
1.0859
1.08389
1.08194
1.08001
1.07818
1.07642
1.07471
1.07301
1.07131
1.06956
1.06777
1.06589
1.0639
1.06179
1.0596
1.05734
1.05499
1.05259
1.05005
1.04755
1.04511
1.0428
1.0406
1.03889
1.03684
1.03567
1.03367
1.03259
1.03026
1.03045
1.02991
1.03017
1.0302
1.03076
1.0307
1.03177
1.03136
1.03276
1.03316
1.03486
1.03446
1.03542
1.03726
1.0371
1.03832
1.04027
1.04082
1.04269
1.04333
1.04509
1.04556
1.04688
1.04526
1.04516
1.04184
1.03818
1.03426
1.03016
1.02564
1.02073
1.01555
1.0103
1.00502
0.999813
0.994809
0.989984
0.985331
0.980859
0.976519
0.972315
0.968226
0.964205
0.960267
0.95636
0.952484
0.948527
0.944363
0.940104
0.935737
0.931352
0.9271
0.923118
0.919366
0.915716
0.912172
0.908745
0.905423
0.902212
0.899107
0.896089
0.893155
0.890314
0.887576
0.884913
0.882296
0.879712
0.877302
0.875
0.872711
0.870382
0.867963
0.865424
0.862756
0.859964
0.857041
0.853966
0.850722
0.847318
0.843798
0.840208
0.836617
0.833057
0.829575
0.826151
0.822827
0.819486
0.816221
0.812659
0.809021
0.80411
0.798442
0.78859
0.776053
0.727963
0.345528
0.599032
0.79687
0.926584
1.03704
1.13202
1.22146
1.3067
1.38837
1.46526
1.53621
1.59996
1.65601
1.70444
1.74582
1.78065
1.80972
1.83401
1.8541
1.87073
1.88449
1.89581
1.90503
1.91245
1.91832
1.92294
1.92636
1.92886
1.93037
1.93101
1.93092
1.93007
1.92859
1.92639
1.92349
1.91981
1.91524
1.90976
1.90358
1.89748
1.89297
1.89124
1.89095
1.89012
1.88824
1.88545
1.88199
1.87806
1.87383
1.86941
1.86488
1.86029
1.8557
1.85113
1.84662
1.84217
1.8378
1.83353
1.82934
1.82525
1.82124
1.81731
1.81343
1.8096
1.8058
1.80199
1.79816
1.79432
1.79046
1.78661
1.78282
1.77912
1.77554
1.77213
1.76895
1.76613
1.76371
1.76183
1.76043
1.75982
1.75976
1.75939
1.7598
1.76061
1.76189
1.76451
1.76798
1.77215
1.7768
1.78182
1.787
1.79219
1.79709
1.80159
1.80544
1.8086
1.81082
1.81232
1.81319
1.814
1.81603
1.81618
1.81455
1.81419
1.81342
1.81317
1.81157
1.80572
1.79722
1.78718
1.77581
1.76333
1.7499
1.73566
1.72074
1.70544
1.69016
1.67503
1.66024
1.64599
1.63236
1.6194
1.60722
1.59585
1.58523
1.57515
1.56543
1.55592
1.54651
1.53708
1.5276
1.518
1.5082
1.49825
1.4882
1.47827
1.46872
1.45969
1.45104
1.44257
1.43422
1.42591
1.4176
1.40941
1.40136
1.39367
1.38624
1.37908
1.37219
1.36554
1.35911
1.35286
1.34689
1.341
1.33508
1.32913
1.32315
1.31713
1.31105
1.3049
1.29867
1.29236
1.28601
1.27972
1.27363
1.26787
1.26257
1.25781
1.25363
1.25004
1.24704
1.24454
1.24245
1.24052
1.23839
1.23518
1.23055
1.22215
1.20852
1.16332
0.516819
0.853603
1.0866
1.22929
1.35567
1.4657
1.56641
1.65789
1.74135
1.81622
1.88239
1.93975
1.98876
2.03007
2.06455
2.09312
2.11677
2.13637
2.1526
2.16606
2.17725
2.18657
2.19434
2.20079
2.20613
2.2105
2.214
2.21672
2.2187
2.22
2.22066
2.22072
2.22017
2.21903
2.21733
2.21511
2.21245
2.20945
2.20627
2.20314
2.20021
2.19751
2.19481
2.19192
2.18876
2.18534
2.18169
2.17788
2.17393
2.1699
2.16583
2.16174
2.15765
2.1536
2.1496
2.14566
2.14179
2.138
2.1343
2.13066
2.12708
2.12356
2.12008
2.11663
2.11322
2.10986
2.10654
2.1033
2.10016
2.09718
2.0944
2.09187
2.08963
2.08775
2.08632
2.08538
2.08506
2.08508
2.08526
2.08607
2.08765
2.08989
2.09288
2.09661
2.10106
2.10618
2.11188
2.11803
2.12453
2.13125
2.13806
2.14483
2.15141
2.1577
2.16357
2.16892
2.17365
2.17769
2.181
2.18362
2.1855
2.18645
2.1869
2.18726
2.18755
2.18843
2.18645
2.17869
2.1684
2.15752
2.1458
2.13307
2.11922
2.10421
2.08811
2.07128
2.0542
2.03717
2.02038
2.00402
1.98824
1.97315
1.95884
1.94525
1.93226
1.91973
1.90755
1.89557
1.88371
1.87192
1.86019
1.8484
1.83654
1.82465
1.81282
1.80132
1.79031
1.77979
1.76958
1.75952
1.74957
1.73979
1.73027
1.72112
1.71224
1.70364
1.69532
1.68726
1.67943
1.67184
1.66448
1.65738
1.65055
1.64395
1.63749
1.63108
1.62466
1.61819
1.61164
1.60498
1.59821
1.59135
1.5845
1.57776
1.57126
1.56514
1.55949
1.55439
1.5499
1.54604
1.54285
1.54028
1.53829
1.5367
1.53529
1.53367
1.53182
1.52889
1.52248
1.50049
0.587835
0.975773
1.24025
1.40179
1.54167
1.6597
1.76473
1.85586
1.93498
2.00234
2.05909
2.106
2.14425
2.17502
2.19954
2.21891
2.23409
2.24598
2.25533
2.26276
2.26874
2.27362
2.27765
2.28098
2.28373
2.28596
2.28772
2.28904
2.28994
2.29043
2.29055
2.29032
2.28974
2.28882
2.2876
2.28613
2.28448
2.28273
2.28096
2.2792
2.27744
2.27559
2.27357
2.27138
2.26899
2.26644
2.26376
2.26096
2.25808
2.25515
2.25219
2.24922
2.24625
2.24332
2.24042
2.23758
2.23479
2.23208
2.22944
2.22688
2.22439
2.22199
2.2197
2.21751
2.21546
2.21357
2.21186
2.21036
2.20911
2.20815
2.20753
2.20727
2.20733
2.20775
2.20867
2.21005
2.21192
2.21425
2.21706
2.2204
2.22425
2.22859
2.23337
2.23856
2.2441
2.2499
2.25588
2.26196
2.26803
2.27401
2.27979
2.28528
2.29042
2.29512
2.29933
2.30299
2.30608
2.30855
2.31039
2.31161
2.31224
2.31243
2.31256
2.31288
2.31283
2.31123
2.30674
2.29954
2.29132
2.28225
2.27231
2.26144
2.24961
2.23688
2.22335
2.20928
2.19499
2.18082
2.16697
2.15354
2.14059
2.12817
2.11625
2.10468
2.09334
2.08211
2.07095
2.05976
2.04851
2.03731
2.02615
2.01488
2.00359
1.99232
1.98112
1.97016
1.95955
1.9492
1.93888
1.92858
1.9184
1.90845
1.89876
1.88937
1.88025
1.87139
1.86279
1.85445
1.84634
1.83846
1.83081
1.82339
1.81617
1.80914
1.80224
1.79541
1.78857
1.78164
1.77459
1.76741
1.76014
1.75286
1.7457
1.73878
1.73223
1.72617
1.72067
1.71577
1.71152
1.70793
1.70497
1.70258
1.70064
1.69888
1.69706
1.69487
1.69231
1.68837
1.68077
1.6644
0.649309
1.10344
1.39244
1.56882
1.71591
1.83532
1.93836
2.02385
2.09418
2.14992
2.19326
2.22596
2.25005
2.26725
2.27921
2.28735
2.29281
2.29644
2.29889
2.3006
2.30186
2.30286
2.30368
2.30438
2.30498
2.30547
2.30586
2.30609
2.30615
2.30607
2.30584
2.30542
2.30482
2.30406
2.30316
2.30215
2.30105
2.29989
2.29869
2.29744
2.29612
2.29471
2.29318
2.29155
2.28981
2.28797
2.28606
2.28409
2.28208
2.28004
2.27799
2.27595
2.27393
2.27194
2.27
2.26812
2.26631
2.26459
2.26297
2.26145
2.26006
2.2588
2.25771
2.25679
2.25608
2.2556
2.25538
2.25542
2.25575
2.25641
2.25742
2.25877
2.2605
2.26262
2.26513
2.26802
2.27131
2.27498
2.27902
2.2834
2.2881
2.29308
2.29829
2.30368
2.3092
2.31479
2.32039
2.32594
2.33139
2.33668
2.34176
2.3466
2.35114
2.35537
2.35924
2.36273
2.36581
2.36845
2.37062
2.37232
2.37357
2.37445
2.37507
2.37553
2.376
2.37535
2.37249
2.36777
2.36231
2.35607
2.34902
2.34114
2.33246
2.32306
2.3131
2.30274
2.29221
2.28171
2.27141
2.26138
2.25163
2.2421
2.23274
2.22349
2.21429
2.20509
2.19588
2.18667
2.17746
2.16828
2.15914
2.15
2.14083
2.13166
2.12251
2.11343
2.10449
2.09567
2.08692
2.07824
2.0697
2.06133
2.05305
2.04481
2.03668
2.02872
2.02096
2.01338
2.00598
1.99876
1.99171
1.98481
1.97801
1.97127
1.96454
1.95777
1.9509
1.94391
1.93677
1.92949
1.9221
1.91465
1.90723
1.89996
1.89294
1.8863
1.88012
1.87451
1.86953
1.86524
1.86165
1.85871
1.85629
1.85418
1.85227
1.85036
1.84832
1.84513
1.83953
1.8263
0.704062
1.23532
1.54195
1.73044
1.88311
2.00277
2.10093
2.17619
2.23263
2.27216
2.29836
2.31412
2.32246
2.32573
2.3258
2.32398
2.32127
2.31829
2.31543
2.31289
2.31074
2.30899
2.30759
2.30652
2.30568
2.30501
2.30444
2.30393
2.30343
2.30292
2.30238
2.30178
2.30113
2.30041
2.29963
2.2988
2.29792
2.297
2.29604
2.29502
2.29393
2.29278
2.29154
2.29023
2.28886
2.28743
2.28595
2.28443
2.2829
2.28137
2.27984
2.27833
2.27686
2.27544
2.27409
2.27281
2.27162
2.27055
2.26958
2.26874
2.26805
2.2675
2.26713
2.26695
2.26697
2.26719
2.26765
2.26835
2.2693
2.27051
2.272
2.27377
2.27583
2.27816
2.28078
2.28367
2.28681
2.2902
2.29381
2.29762
2.30159
2.3057
2.3099
2.31416
2.31845
2.32272
2.32695
2.3311
2.33515
2.33906
2.34283
2.34642
2.34982
2.35301
2.35597
2.35867
2.36109
2.36322
2.36502
2.36651
2.36767
2.36855
2.36918
2.36963
2.37001
2.36969
2.36805
2.36514
2.36159
2.35739
2.35252
2.347
2.34089
2.33428
2.3273
2.32008
2.31277
2.30549
2.29831
2.29122
2.2842
2.27719
2.27015
2.26304
2.25586
2.2486
2.24128
2.23394
2.22659
2.21923
2.21187
2.2045
2.19709
2.18964
2.18218
2.17474
2.16738
2.16009
2.15286
2.14571
2.13865
2.13169
2.12478
2.1179
2.11108
2.10438
2.09782
2.09139
2.0851
2.07896
2.07293
2.06701
2.06114
2.05528
2.04939
2.04342
2.03734
2.03116
2.02485
2.01846
2.01202
2.00559
1.99924
1.99306
1.98712
1.98151
1.97632
1.9716
1.96745
1.96391
1.961
1.95868
1.95684
1.95536
1.95421
1.95322
1.9522
1.95045
1.94715
1.9391
0.76736
1.37779
1.70028
1.90573
2.06833
2.18957
2.28058
2.34165
2.37942
2.39789
2.40293
2.39877
2.38931
2.37735
2.3649
2.35309
2.34253
2.33348
2.32596
2.31984
2.31494
2.31106
2.30801
2.30562
2.30373
2.30221
2.30096
2.2999
2.29898
2.29814
2.29735
2.29659
2.29583
2.29506
2.29429
2.29349
2.29267
2.29183
2.29095
2.29003
2.28907
2.28807
2.28702
2.28593
2.28481
2.28365
2.28247
2.28129
2.2801
2.27892
2.27777
2.27665
2.27558
2.27456
2.27362
2.27275
2.27198
2.27131
2.27076
2.27032
2.27002
2.26986
2.26985
2.27001
2.27033
2.27082
2.27148
2.27234
2.27338
2.27461
2.27604
2.27767
2.27948
2.28149
2.28367
2.28602
2.28853
2.29117
2.29394
2.29682
2.29978
2.3028
2.30585
2.30892
2.31199
2.31503
2.31804
2.32098
2.32386
2.32665
2.32935
2.33196
2.33445
2.33681
2.33904
2.3411
2.34299
2.34469
2.34618
2.34744
2.34849
2.34932
2.34996
2.35042
2.35069
2.35065
2.34999
2.34842
2.34627
2.34363
2.34049
2.33688
2.33286
2.32851
2.32392
2.31919
2.3144
2.30962
2.30486
2.30011
2.29534
2.29049
2.28555
2.28049
2.27532
2.27006
2.26473
2.25935
2.25393
2.24848
2.24298
2.23743
2.23183
2.22615
2.22043
2.21469
2.20896
2.20328
2.19766
2.19209
2.18656
2.18109
2.17565
2.17023
2.16485
2.15952
2.15426
2.1491
2.14403
2.13904
2.13412
2.12923
2.12433
2.11937
2.11433
2.10918
2.10393
2.09859
2.09317
2.08771
2.08223
2.07679
2.07143
2.06622
2.06122
2.05649
2.05211
2.04814
2.04466
2.04173
2.03934
2.03747
2.03603
2.03498
2.03425
2.03367
2.03306
2.03196
2.02988
2.02497
0.838667
1.51333
1.86328
2.09681
2.27612
2.40123
2.48449
2.52877
2.54408
2.53703
2.516
2.48778
2.45753
2.42834
2.40207
2.37953
2.36087
2.34579
2.33382
2.32444
2.31713
2.31146
2.30706
2.30364
2.30095
2.2988
2.29705
2.2956
2.29436
2.29328
2.2923
2.29139
2.29053
2.2897
2.28889
2.28808
2.28727
2.28645
2.28562
2.28477
2.28389
2.283
2.28208
2.28114
2.28019
2.27922
2.27826
2.27729
2.27634
2.27541
2.27451
2.27365
2.27283
2.27208
2.27139
2.27078
2.27025
2.26981
2.26947
2.26923
2.2691
2.26909
2.2692
2.26943
2.26979
2.27027
2.27088
2.27162
2.27249
2.27349
2.27463
2.27588
2.27727
2.27876
2.28037
2.28208
2.28388
2.28576
2.28771
2.28972
2.29177
2.29385
2.29595
2.29806
2.30016
2.30225
2.30431
2.30634
2.30833
2.31028
2.31217
2.31401
2.31578
2.31747
2.31908
2.32059
2.32199
2.32326
2.32441
2.32541
2.32626
2.32697
2.32753
2.32796
2.32823
2.32831
2.32805
2.32727
2.32602
2.3244
2.32244
2.32015
2.31759
2.31481
2.31188
2.30887
2.30581
2.30275
2.29967
2.29656
2.29338
2.29011
2.28673
2.28323
2.27962
2.27593
2.27216
2.26834
2.26447
2.26053
2.25654
2.25247
2.24832
2.2441
2.23983
2.23551
2.2312
2.22691
2.22265
2.21843
2.21423
2.21006
2.20591
2.20177
2.19763
2.19351
2.18942
2.18539
2.18141
2.17748
2.17357
2.16965
2.16568
2.16162
2.15746
2.15318
2.14881
2.14435
2.13984
2.1353
2.13078
2.1263
2.12192
2.11767
2.11362
2.1098
2.10628
2.10311
2.10037
2.09808
2.09626
2.09486
2.09385
2.09319
2.0928
2.09251
2.09221
2.09165
2.09053
2.08791
0.899586
1.64181
2.03474
2.30669
2.51026
2.6446
2.72312
2.75256
2.74452
2.7086
2.65756
2.60061
2.54425
2.49268
2.44826
2.41172
2.38268
2.36014
2.34292
2.32984
2.31995
2.31245
2.30673
2.30235
2.29894
2.29625
2.29409
2.29231
2.29082
2.28953
2.2884
2.28737
2.28642
2.28553
2.28468
2.28385
2.28304
2.28224
2.28144
2.28064
2.27984
2.27903
2.27821
2.27739
2.27658
2.27576
2.27495
2.27415
2.27338
2.27263
2.27191
2.27123
2.2706
2.27002
2.2695
2.26904
2.26866
2.26835
2.26812
2.26797
2.2679
2.26793
2.26804
2.26825
2.26854
2.26893
2.2694
2.26996
2.27062
2.27136
2.27218
2.27309
2.27407
2.27512
2.27625
2.27743
2.27867
2.27996
2.28129
2.28266
2.28405
2.28546
2.28689
2.28832
2.28975
2.29117
2.29259
2.29399
2.29537
2.29673
2.29807
2.29937
2.30063
2.30185
2.30302
2.30413
2.30517
2.30614
2.30702
2.30781
2.3085
2.3091
2.30959
2.30998
2.31026
2.31041
2.31037
2.31004
2.30939
2.30847
2.30731
2.30593
2.30437
2.30267
2.30086
2.299
2.29711
2.29519
2.29324
2.29124
2.28917
2.28701
2.28476
2.2824
2.27996
2.27744
2.27486
2.27223
2.26955
2.2668
2.26398
2.26109
2.25813
2.25509
2.252
2.24887
2.24573
2.24259
2.23947
2.23638
2.2333
2.23023
2.22716
2.22408
2.221
2.21792
2.21484
2.21179
2.20875
2.20573
2.2027
2.19963
2.19648
2.19324
2.1899
2.18644
2.18289
2.17928
2.17563
2.17196
2.16831
2.1647
2.16118
2.15777
2.15452
2.15148
2.1487
2.14621
2.14408
2.14234
2.14098
2.13997
2.13931
2.13895
2.13877
2.13865
2.13856
2.13841
2.13813
2.1371
0.965942
1.75246
2.19433
2.50491
2.7361
2.88668
2.96748
2.98752
2.96093
2.90458
2.8317
2.74882
2.663
2.5822
2.51207
2.45526
2.4114
2.37853
2.35429
2.33654
2.32354
2.31395
2.30681
2.30143
2.29732
2.29412
2.29157
2.28951
2.2878
2.28635
2.28508
2.28396
2.28294
2.282
2.28112
2.28028
2.27947
2.27869
2.27792
2.27717
2.27642
2.27569
2.27496
2.27423
2.27352
2.27281
2.27213
2.27145
2.27081
2.27019
2.2696
2.26904
2.26853
2.26807
2.26765
2.26729
2.26698
2.26674
2.26655
2.26643
2.26637
2.26638
2.26645
2.26659
2.26679
2.26705
2.26738
2.26776
2.26821
2.26871
2.26927
2.26988
2.27055
2.27125
2.27201
2.2728
2.27363
2.27449
2.27537
2.27628
2.27721
2.27816
2.27911
2.28008
2.28104
2.28201
2.28298
2.28395
2.2849
2.28585
2.28679
2.2877
2.2886
2.28948
2.29032
2.29113
2.2919
2.29262
2.29329
2.2939
2.29445
2.29493
2.29535
2.29569
2.29596
2.29613
2.29618
2.29607
2.29577
2.29529
2.29464
2.29385
2.29293
2.29192
2.29084
2.28972
2.28857
2.28738
2.28616
2.2849
2.28356
2.28215
2.28066
2.2791
2.27746
2.27577
2.27402
2.27222
2.27038
2.26847
2.2665
2.26447
2.26237
2.26021
2.258
2.25576
2.2535
2.25125
2.24901
2.24678
2.24455
2.24233
2.2401
2.23786
2.23559
2.23332
2.23103
2.22875
2.22646
2.22417
2.22184
2.21946
2.217
2.21445
2.2118
2.20905
2.20623
2.20335
2.20044
2.19752
2.19463
2.19177
2.189
2.18632
2.18378
2.18142
2.17927
2.17737
2.17576
2.17448
2.1735
2.17282
2.17244
2.17234
2.17234
2.17233
2.17239
2.17261
2.17301
2.17325
1.05092
1.83055
2.30678
2.64157
2.89357
3.05607
3.13775
3.15574
3.13001
3.07529
3.00053
2.91085
2.80984
2.70329
2.60219
2.51702
2.45149
2.4036
2.36953
2.34547
2.32847
2.31632
2.30751
2.30103
2.29616
2.29244
2.28953
2.2872
2.28529
2.28369
2.28232
2.28112
2.28005
2.27908
2.27818
2.27734
2.27655
2.27579
2.27506
2.27435
2.27366
2.27299
2.27234
2.2717
2.27107
2.27047
2.26988
2.26931
2.26876
2.26824
2.26775
2.2673
2.26687
2.26649
2.26615
2.26585
2.26559
2.26538
2.26522
2.26511
2.26504
2.26502
2.26505
2.26512
2.26524
2.26541
2.26562
2.26587
2.26616
2.26648
2.26685
2.26725
2.26769
2.26816
2.26865
2.26918
2.26972
2.27029
2.27089
2.27149
2.27212
2.27275
2.2734
2.27406
2.27472
2.27539
2.27606
2.27673
2.27741
2.27808
2.27874
2.2794
2.28005
2.28069
2.28131
2.28191
2.28249
2.28304
2.28356
2.28404
2.28448
2.28488
2.28524
2.28554
2.28579
2.28598
2.28609
2.2861
2.286
2.28579
2.28546
2.28504
2.28453
2.28396
2.28334
2.28269
2.28201
2.2813
2.28056
2.27977
2.27893
2.27803
2.27707
2.27605
2.27498
2.27387
2.27271
2.27151
2.27027
2.26897
2.26763
2.26622
2.26476
2.26326
2.26171
2.26014
2.25856
2.25698
2.2554
2.25382
2.25224
2.25066
2.24906
2.24744
2.24581
2.24415
2.24248
2.24079
2.23909
2.23736
2.23559
2.23376
2.23186
2.22986
2.22778
2.22562
2.2234
2.22113
2.21884
2.21655
2.21428
2.21205
2.20988
2.20779
2.20582
2.20399
2.20234
2.2009
2.19969
2.19874
2.19804
2.19758
2.19739
2.19734
2.19736
2.19744
2.19767
2.19823
2.19915
2.20021
1.15038
1.85201
2.32502
2.64478
2.88608
3.04419
3.13159
3.16112
3.14699
3.09874
3.031
2.95832
2.88225
2.79478
2.69411
2.59122
2.50196
2.43503
2.38819
2.35614
2.33422
2.31905
2.30837
2.30071
2.29507
2.29083
2.28757
2.28499
2.28291
2.28119
2.27974
2.27849
2.27739
2.2764
2.27551
2.27468
2.27391
2.27319
2.27251
2.27185
2.27123
2.27062
2.27004
2.26948
2.26893
2.26841
2.2679
2.26742
2.26696
2.26653
2.26612
2.26574
2.26539
2.26507
2.26478
2.26453
2.26431
2.26413
2.26398
2.26387
2.2638
2.26376
2.26375
2.26378
2.26384
2.26394
2.26406
2.26422
2.2644
2.26461
2.26484
2.2651
2.26538
2.26569
2.26601
2.26636
2.26672
2.26711
2.2675
2.26791
2.26834
2.26877
2.26922
2.26967
2.27013
2.2706
2.27107
2.27155
2.27203
2.27251
2.27299
2.27347
2.27395
2.27442
2.27489
2.27534
2.27578
2.2762
2.27661
2.27699
2.27735
2.27768
2.27798
2.27825
2.27848
2.27867
2.27881
2.27888
2.27888
2.27882
2.27868
2.27848
2.27822
2.27792
2.27759
2.27722
2.27683
2.27642
2.27597
2.27549
2.27497
2.27441
2.2738
2.27314
2.27245
2.27172
2.27096
2.27016
2.26933
2.26845
2.26753
2.26657
2.26556
2.26451
2.26344
2.26234
2.26123
2.26012
2.25901
2.2579
2.25678
2.25565
2.25451
2.25334
2.25216
2.25095
2.24972
2.24847
2.24719
2.24589
2.24454
2.24313
2.24165
2.2401
2.23847
2.23678
2.23504
2.23327
2.23148
2.22969
2.22792
2.22619
2.2245
2.22289
2.22137
2.21997
2.21871
2.21761
2.2167
2.216
2.21549
2.21519
2.21512
2.21512
2.21514
2.21529
2.21568
2.21651
2.21778
2.21934
1.18473
1.81164
2.26009
2.54793
2.76592
2.91637
3.00616
3.03309
2.99999
2.92277
2.83849
2.77364
2.74118
2.72807
2.70212
2.63506
2.54631
2.46657
2.40729
2.36681
2.33972
2.32146
2.30894
2.30014
2.29379
2.28909
2.28553
2.28276
2.28055
2.27876
2.27726
2.27599
2.27488
2.27391
2.27304
2.27225
2.27153
2.27086
2.27023
2.26964
2.26908
2.26855
2.26804
2.26756
2.26709
2.26665
2.26623
2.26583
2.26545
2.26509
2.26476
2.26445
2.26417
2.26391
2.26367
2.26347
2.26329
2.26314
2.26302
2.26292
2.26286
2.26281
2.26279
2.2628
2.26283
2.26289
2.26297
2.26307
2.26319
2.26332
2.26348
2.26366
2.26385
2.26406
2.26428
2.26452
2.26477
2.26504
2.26532
2.26561
2.26591
2.26622
2.26654
2.26686
2.2672
2.26754
2.26789
2.26824
2.2686
2.26896
2.26932
2.26968
2.27004
2.27041
2.27076
2.27112
2.27146
2.2718
2.27213
2.27244
2.27274
2.27302
2.27328
2.27352
2.27373
2.27391
2.27406
2.27417
2.27423
2.27424
2.27421
2.27414
2.27403
2.27389
2.27372
2.27353
2.27331
2.27308
2.27283
2.27254
2.27223
2.27188
2.2715
2.27108
2.27064
2.27016
2.26966
2.26914
2.26858
2.26799
2.26736
2.26669
2.266
2.26527
2.26452
2.26375
2.26297
2.26219
2.2614
2.26061
2.25982
2.25901
2.25818
2.25733
2.25646
2.25557
2.25465
2.25372
2.25275
2.25176
2.25072
2.24962
2.24847
2.24725
2.24598
2.24465
2.24329
2.2419
2.2405
2.23911
2.23773
2.23638
2.23507
2.23382
2.23265
2.23156
2.23059
2.22974
2.22904
2.2285
2.22812
2.22789
2.22786
2.22787
2.22791
2.22811
2.22862
2.22958
2.23099
2.23277
1.16356
1.68838
2.09775
2.34614
2.55435
2.71325
2.81943
2.85523
2.82182
2.7325
2.6178
2.51921
2.46834
2.4712
2.53548
2.5804
2.55151
2.48265
2.41929
2.37352
2.34271
2.32218
2.30831
2.29869
2.29185
2.28686
2.28312
2.28026
2.278
2.27619
2.2747
2.27345
2.27239
2.27146
2.27064
2.26991
2.26925
2.26865
2.2681
2.26758
2.2671
2.26665
2.26623
2.26582
2.26545
2.26509
2.26475
2.26443
2.26413
2.26385
2.2636
2.26336
2.26314
2.26295
2.26277
2.26262
2.26249
2.26238
2.26229
2.26222
2.26217
2.26215
2.26214
2.26215
2.26218
2.26222
2.26229
2.26236
2.26246
2.26256
2.26269
2.26282
2.26297
2.26313
2.2633
2.26348
2.26367
2.26387
2.26409
2.26431
2.26454
2.26478
2.26502
2.26527
2.26553
2.2658
2.26607
2.26635
2.26662
2.26691
2.26719
2.26748
2.26777
2.26806
2.26835
2.26863
2.26891
2.26919
2.26946
2.26972
2.26998
2.27022
2.27044
2.27065
2.27084
2.27101
2.27116
2.27127
2.27136
2.27141
2.27143
2.27142
2.27139
2.27133
2.27126
2.27116
2.27105
2.27092
2.27078
2.27061
2.27041
2.2702
2.26995
2.26968
2.26939
2.26908
2.26874
2.26839
2.268
2.26759
2.26715
2.26669
2.26619
2.26567
2.26513
2.26458
2.26402
2.26345
2.26288
2.26231
2.26172
2.26112
2.2605
2.25987
2.25921
2.25852
2.25782
2.2571
2.25635
2.25556
2.25474
2.25387
2.25296
2.25199
2.25098
2.24993
2.24885
2.24776
2.24666
2.24556
2.24447
2.24341
2.24238
2.2414
2.24048
2.23962
2.23885
2.23819
2.23763
2.2372
2.23689
2.2367
2.23666
2.23668
2.23674
2.23698
2.23755
2.23856
2.23999
2.24179
1.09586
1.49683
1.92319
2.16486
2.37968
2.55144
2.67457
2.72025
2.68464
2.58527
2.47006
2.38097
2.32608
2.29542
2.31717
2.41686
2.48977
2.47024
2.41823
2.37305
2.34127
2.32
2.30572
2.29591
2.289
2.284
2.28029
2.27747
2.27528
2.27354
2.27212
2.27095
2.26997
2.26912
2.26839
2.26775
2.26718
2.26666
2.2662
2.26577
2.26538
2.26502
2.26469
2.26438
2.26409
2.26382
2.26357
2.26334
2.26312
2.26293
2.26275
2.26258
2.26244
2.26231
2.2622
2.26211
2.26203
2.26198
2.26193
2.26191
2.2619
2.2619
2.26192
2.26196
2.26201
2.26207
2.26214
2.26223
2.26233
2.26243
2.26255
2.26268
2.26282
2.26296
2.26312
2.26328
2.26345
2.26363
2.26382
2.26401
2.26421
2.26441
2.26462
2.26484
2.26506
2.26529
2.26552
2.26575
2.26599
2.26623
2.26647
2.26671
2.26695
2.2672
2.26744
2.26768
2.26792
2.26816
2.26839
2.26862
2.26883
2.26904
2.26924
2.26942
2.26959
2.26974
2.26988
2.26999
2.27008
2.27015
2.27019
2.27021
2.27021
2.27019
2.27016
2.27012
2.27006
2.26998
2.2699
2.26979
2.26966
2.26952
2.26936
2.26918
2.26897
2.26875
2.26852
2.26826
2.26798
2.26768
2.26736
2.26701
2.26664
2.26625
2.26585
2.26543
2.265
2.26457
2.26413
2.26368
2.26322
2.26275
2.26227
2.26176
2.26123
2.26068
2.26011
2.25952
2.25891
2.25827
2.2576
2.25689
2.25614
2.25535
2.25452
2.25367
2.2528
2.25191
2.25102
2.25014
2.24926
2.24841
2.24758
2.24678
2.24603
2.24533
2.2447
2.24415
2.24368
2.24331
2.24303
2.24285
2.24279
2.2428
2.24287
2.24312
2.24369
2.24465
2.24601
2.24771
0.948788
1.31374
1.76907
2.03553
2.26286
2.44553
2.57096
2.61385
2.57834
2.48139
2.37903
2.30719
2.27247
2.25265
2.24683
2.29861
2.38902
2.42794
2.40093
2.36313
2.33395
2.31404
2.30063
2.29145
2.285
2.28035
2.27692
2.27433
2.27233
2.27075
2.26949
2.26846
2.26761
2.26689
2.26628
2.26575
2.26529
2.26488
2.26452
2.2642
2.26391
2.26365
2.26341
2.26319
2.263
2.26282
2.26266
2.26252
2.26239
2.26228
2.26218
2.2621
2.26203
2.26198
2.26194
2.26191
2.2619
2.2619
2.26191
2.26194
2.26198
2.26203
2.2621
2.26217
2.26226
2.26236
2.26246
2.26258
2.2627
2.26283
2.26297
2.26312
2.26327
2.26343
2.2636
2.26377
2.26394
2.26413
2.26431
2.26451
2.2647
2.2649
2.2651
2.26531
2.26552
2.26573
2.26595
2.26617
2.26639
2.26661
2.26683
2.26705
2.26727
2.26749
2.26771
2.26793
2.26815
2.26836
2.26857
2.26877
2.26897
2.26915
2.26933
2.26949
2.26964
2.26978
2.2699
2.27
2.27009
2.27015
2.2702
2.27023
2.27024
2.27023
2.27022
2.2702
2.27016
2.27011
2.27005
2.26997
2.26988
2.26977
2.26964
2.2695
2.26935
2.26918
2.26899
2.26878
2.26856
2.26832
2.26806
2.26777
2.26747
2.26716
2.26682
2.26648
2.26612
2.26576
2.26539
2.26501
2.26462
2.26422
2.2638
2.26336
2.2629
2.26243
2.26193
2.26142
2.26089
2.26033
2.25974
2.25913
2.25849
2.25781
2.25711
2.25639
2.25565
2.25491
2.25416
2.25342
2.25268
2.25196
2.25126
2.25058
2.24994
2.24934
2.2488
2.24831
2.24789
2.24754
2.24726
2.24707
2.24697
2.24695
2.24702
2.24726
2.24779
2.24866
2.24989
2.25142
0.709848
1.15247
1.57394
1.88898
2.15836
2.3752
2.52632
2.60436
2.60245
2.56157
2.4895
2.40203
2.31729
2.27171
2.27893
2.29826
2.33898
2.38147
2.37413
2.346
2.32177
2.30488
2.29346
2.28564
2.28015
2.2762
2.27328
2.27109
2.26941
2.2681
2.26706
2.26622
2.26554
2.26497
2.2645
2.26409
2.26375
2.26346
2.2632
2.26298
2.26279
2.26262
2.26247
2.26235
2.26224
2.26215
2.26207
2.262
2.26195
2.26191
2.26189
2.26188
2.26188
2.26189
2.26191
2.26194
2.26199
2.26205
2.26211
2.26219
2.26228
2.26238
2.26249
2.2626
2.26273
2.26286
2.263
2.26315
2.26331
2.26347
2.26364
2.26381
2.26399
2.26417
2.26436
2.26455
2.26474
2.26494
2.26514
2.26534
2.26555
2.26576
2.26597
2.26618
2.26639
2.26661
2.26682
2.26704
2.26725
2.26747
2.26768
2.2679
2.26811
2.26832
2.26853
2.26873
2.26894
2.26913
2.26933
2.26951
2.26969
2.26986
2.27002
2.27016
2.2703
2.27042
2.27053
2.27062
2.27069
2.27075
2.2708
2.27082
2.27083
2.27082
2.27081
2.27079
2.27076
2.27072
2.27066
2.27059
2.27051
2.27042
2.27031
2.27018
2.27005
2.2699
2.26973
2.26955
2.26935
2.26914
2.2689
2.26866
2.26839
2.26811
2.26781
2.2675
2.26718
2.26686
2.26652
2.26617
2.26581
2.26544
2.26505
2.26465
2.26423
2.26379
2.26333
2.26286
2.26237
2.26186
2.26133
2.26077
2.2602
2.2596
2.25898
2.25834
2.2577
2.25705
2.25639
2.25574
2.2551
2.25446
2.25384
2.25325
2.25267
2.25214
2.25164
2.25119
2.25079
2.25044
2.25016
2.24995
2.24981
2.24977
2.24982
2.25002
2.25049
2.25126
2.25232
2.25367
0.28068
1.13533
1.53513
1.8022
2.0514
2.28668
2.48033
2.61506
2.67404
2.68483
2.65827
2.58629
2.47554
2.36319
2.35163
2.38939
2.35489
2.35336
2.35053
2.32917
2.3095
2.2957
2.28642
2.28008
2.27563
2.27243
2.27008
2.26832
2.26698
2.26594
2.26512
2.26447
2.26394
2.26352
2.26317
2.26288
2.26264
2.26244
2.26227
2.26213
2.26201
2.26192
2.26184
2.26178
2.26173
2.2617
2.26168
2.26167
2.26167
2.26169
2.26172
2.26175
2.2618
2.26185
2.26192
2.26199
2.26208
2.26217
2.26227
2.26238
2.2625
2.26263
2.26276
2.26291
2.26306
2.26321
2.26338
2.26354
2.26372
2.2639
2.26408
2.26427
2.26446
2.26465
2.26485
2.26505
2.26526
2.26546
2.26567
2.26587
2.26608