/*--------------------------------*- C++ -*----------------------------------*\
| =========                 |                                                 |
| \\      /  F ield         | OpenFOAM: The Open Source CFD Toolbox           |
|  \\    /   O peration     | Version:  v1906                                 |
|   \\  /    A nd           | Web:      www.OpenFOAM.com                      |
|    \\/     M anipulation  |                                                 |
\*---------------------------------------------------------------------------*/
FoamFile
{
    version     2.0;
    format      ascii;
    class       volScalarField;
    location    "100";
    object      nut;
}
// * * * * * * * * * * * * * * * * * * * * * * * * * * * * * * * * * * * * * //

dimensions      [0 2 -1 0 0 0 0];


internalField   nonuniform List<scalar> 
12225
(
5.3805e-05
5.3426e-05
5.26537e-05
5.18169e-05
5.10171e-05
5.03002e-05
4.96654e-05
4.91262e-05
4.8663e-05
4.82808e-05
4.79672e-05
4.77345e-05
4.7563e-05
4.7438e-05
4.73622e-05
4.73678e-05
4.7412e-05
4.75983e-05
0.000743796
0.000275312
0.000209857
0.000188377
0.000175891
0.000172315
0.000169443
0.00016763
0.000166295
0.000166473
0.000166532
0.000168236
0.000169003
0.000170517
0.000172964
0.000174273
0.000177164
0.000179376
0.00337162
0.000967249
0.000671783
0.000567607
0.000511591
0.000483053
0.000463903
0.000451592
0.000444044
0.000440342
0.000437935
0.000439417
0.000440074
0.000445038
0.000450001
0.000454994
0.000464066
0.000472548
0.00784664
0.00229473
0.00147997
0.00118659
0.00103474
0.000948876
0.000894919
0.000859065
0.000836054
0.000821973
0.000812758
0.000810353
0.000807471
0.000811293
0.000814722
0.00082149
0.000828883
0.000838672
0.0127565
0.0043256
0.00271672
0.00211874
0.00181235
0.00163371
0.00152046
0.00144385
0.00139188
0.00135608
0.00133146
0.00131658
0.00130442
0.00129911
0.00129675
0.00129794
0.00130372
0.00131219
0.0170959
0.00691675
0.00436585
0.00335424
0.00282783
0.00251404
0.00231136
0.00217203
0.00207353
0.00200188
0.00194932
0.00190925
0.00187861
0.00185548
0.00183782
0.00182519
0.00181917
0.00181841
0.0205591
0.00983721
0.00638424
0.00489417
0.00409571
0.00360981
0.00329051
0.00306764
0.00290507
0.00278289
0.00269014
0.0026171
0.00255848
0.00251042
0.00247051
0.0024378
0.00241355
0.00239839
0.0231837
0.0128315
0.0086673
0.00668966
0.00558416
0.00489352
0.00442887
0.00409826
0.00385361
0.00366596
0.00351854
0.00339899
0.00329952
0.00321477
0.0031414
0.00307801
0.00302561
0.0029862
0.0251267
0.015698
0.0110958
0.00868077
0.00726039
0.00634595
0.00571715
0.00526159
0.00491842
0.00465057
0.0044354
0.00425727
0.00410583
0.00397401
0.00385726
0.00375323
0.00366181
0.0035817
0.0265527
0.0183004
0.0135423
0.0107848
0.00906902
0.0079249
0.00711769
0.00652107
0.00606313
0.00569956
0.00540228
0.00515227
0.00493665
0.00474666
0.00457647
0.00442272
0.00428374
0.0041533
0.0276016
0.0205744
0.0159024
0.012924
0.0109574
0.0095942
0.00860528
0.00785866
0.00727522
0.00680498
0.00641531
0.00608406
0.00579604
0.00554068
0.00531078
0.00510152
0.00490884
0.00472014
0.0283133
0.0223326
0.0178944
0.0148269
0.0126881
0.0111491
0.0100022
0.0091184
0.0084165
0.00784346
0.00736379
0.00695307
0.00659425
0.00627531
0.00598771
0.00572526
0.00548127
0.00523764
0.0288691
0.0238504
0.0197523
0.0166956
0.0144443
0.0127599
0.0114686
0.0104524
0.00963239
0.00895507
0.00838338
0.00789128
0.00746019
0.0070767
0.00673088
0.00641488
0.00611923
0.00582033
0.0293536
0.0252857
0.0216438
0.0187037
0.0164033
0.0146033
0.0131764
0.0120252
0.011079
0.0102867
0.00961184
0.00902759
0.0085143
0.00805729
0.00764522
0.00726816
0.00691351
0.00655259
0.0297586
0.0265713
0.0234638
0.0207487
0.0184834
0.0166202
0.0150861
0.0138123
0.0127427
0.0118332
0.01105
0.0103673
0.0097652
0.00922813
0.00874331
0.00829869
0.00787825
0.00744914
0.0300787
0.0276446
0.0250855
0.0226764
0.0205327
0.0186752
0.0170817
0.0157162
0.0145416
0.0135251
0.0126386
0.0118592
0.0111681
0.0105493
0.00998911
0.00947318
0.00898252
0.00848147
0.0303089
0.0284485
0.0263699
0.0242837
0.022317
0.0205282
0.0189324
0.017522
0.0162796
0.0151848
0.0142173
0.0133585
0.0125915
0.0119009
0.0112721
0.0106888
0.01013
0.009558
0.0304366
0.0289083
0.027138
0.025289
0.0234793
0.0217788
0.0202203
0.0188124
0.0175509
0.0164245
0.0154192
0.0145202
0.0137123
0.0129801
0.0123076
0.0116769
0.0110643
0.010433
0.0304229
0.028865
0.0270812
0.0252383
0.0234504
0.0217815
0.0202588
0.018888
0.0176631
0.0165723
0.0156017
0.0147363
0.0139599
0.0132546
0.0126007
0.0119763
0.0113545
0.0106988
0.0301933
0.028061
0.0257896
0.0236164
0.0216493
0.0199171
0.0184103
0.017105
0.015975
0.0149958
0.0141461
0.0134066
0.0127586
0.0121808
0.0116475
0.0111281
0.0105871
0.00998531
0.0297892
0.0267084
0.0237404
0.0211687
0.0190317
0.0172775
0.0158344
0.0146387
0.0136411
0.0128041
0.0121005
0.0115101
0.011016
0.0105992
0.0102329
0.00987828
0.00948704
0.00900932
0.029113
0.0246177
0.020841
0.0179462
0.0157651
0.0141045
0.0128137
0.01179
0.0109666
0.0102967
0.0097505
0.00931014
0.00896467
0.00870525
0.00851561
0.00836014
0.00817888
0.00790116
0.0280139
0.0216518
0.0171969
0.0142357
0.0122196
0.0107896
0.00973394
0.00893046
0.00830394
0.00780434
0.00740607
0.00709501
0.00686486
0.00671875
0.00666167
0.00668371
0.00673476
0.00671992
0.0262367
0.0177763
0.0130997
0.0104425
0.00880136
0.00770689
0.00693218
0.00635962
0.00592285
0.00558401
0.00531871
0.00511107
0.00495955
0.00487082
0.00486273
0.00495832
0.0051603
0.00540355
0.0233688
0.0131849
0.00900316
0.0069766
0.00582444
0.00509043
0.00458576
0.00422023
0.00394548
0.00373399
0.00356977
0.00344564
0.00335403
0.00329551
0.00328478
0.0033507
0.00353832
0.00388743
0.0188972
0.00844688
0.00544352
0.00417975
0.00350341
0.00308466
0.00280215
0.00260057
0.00245056
0.00233546
0.00224592
0.00217684
0.00212635
0.00209548
0.00208099
0.00209795
0.00217585
0.00237154
0.0125817
0.00438582
0.0027865
0.00217065
0.00184987
0.00165215
0.00152027
0.00142755
0.0013589
0.00130607
0.00126502
0.00123311
0.00120858
0.00119215
0.0011832
0.00118561
0.00120062
0.00124804
0.00562557
0.00171022
0.00115443
0.000944553
0.000836077
0.00076769
0.00072327
0.000692751
0.000669158
0.000650017
0.000635139
0.000623041
0.00061332
0.000605906
0.000600787
0.000598233
0.000600213
0.000608369
0.0011711
0.000435151
0.000326761
0.000284026
0.000262348
0.000247986
0.000241474
0.000236708
0.00023248
0.000228764
0.000225595
0.000222995
0.000220895
0.00021934
0.000218398
0.000217959
0.000218521
0.000219015
7.08578e-05
7.01284e-05
6.91063e-05
6.80899e-05
6.7124e-05
6.62247e-05
6.5391e-05
6.46221e-05
6.39126e-05
6.32566e-05
6.26467e-05
6.20808e-05
6.155e-05
6.10573e-05
6.06001e-05
6.01675e-05
5.97881e-05
5.94219e-05
1.36501e-05
4.23393e-05
6.02329e-05
7.40204e-05
8.47728e-05
9.3333e-05
0.000100484
0.000106539
0.000111737
0.000116182
0.000120003
0.000123247
0.000125955
0.000128158
0.000129873
0.000131112
0.000131683
0.000132261
0.000132647
0.00013293
0.000133119
0.000133244
0.000133286
0.000133247
0.000133142
0.0001331
0.000132866
0.000132738
0.000132558
0.00013241
0.000132302
0.000132197
0.000132109
0.000131971
0.000131887
0.000131822
0.00013178
0.000131749
0.000131713
0.000131743
0.000131227
0.000130857
0.000130713
0.000130601
0.000130459
0.000130284
0.000130084
0.000129869
0.000129645
0.000129418
0.000129188
0.000128959
0.00012873
0.000128504
0.00012828
0.000128058
0.000127841
0.000127625
0.000127414
0.000127205
0.000126998
0.000126798
0.000126601
0.000126403
0.000126205
0.000126005
0.000125802
0.000125594
0.000125381
0.000125158
0.000124929
0.000124696
0.000124456
0.000124214
0.000123959
0.000123695
0.000123439
0.000123191
0.000122929
0.000122707
0.000122465
0.000122283
0.000122089
0.000121918
0.000121602
0.000121444
0.000121386
0.000121201
0.000121129
0.000120992
0.000120969
0.000120893
0.000120625
0.00012058
0.000120601
0.000120544
0.000120298
0.000120311
0.000120299
0.000120048
0.00012009
0.000119981
0.000120021
0.000119832
0.00011986
0.000119686
0.000119727
0.000119714
0.000119121
0.000119389
0.00011904
0.000118694
0.00011833
0.00011797
0.000117604
0.000117213
0.000116801
0.000116378
0.000115958
0.000115532
0.00011511
0.000114698
0.000114297
0.00011391
0.000113529
0.000113151
0.00011278
0.000112412
0.000112045
0.000111681
0.000111321
0.000110967
0.000110604
0.000110229
0.000109843
0.000109447
0.000109048
0.000108662
0.000108297
0.000107942
0.000107591
0.000107241
0.000106891
0.000106545
0.000106207
0.000105882
0.000105563
0.00010525
0.000104944
0.000104647
0.000104356
0.000104044
0.000103748
0.00010346
0.000103172
0.000102881
0.000102584
0.000102278
0.000101963
0.000101637
0.000101303
0.000100961
0.000100611
0.000100251
9.98823e-05
9.95065e-05
9.91269e-05
9.87455e-05
9.83651e-05
9.79844e-05
9.76061e-05
9.7222e-05
9.68391e-05
9.64339e-05
9.60231e-05
9.55356e-05
9.50039e-05
9.42299e-05
9.32919e-05
9.01717e-05
3.47595e-05
0.000211625
0.000321978
0.000381236
0.000427339
0.000468826
0.00051643
0.000566992
0.000618805
0.000669855
0.000724508
0.000780885
0.000835739
0.000888359
0.000935192
0.000973263
0.00100299
0.00102817
0.00105003
0.00106894
0.00108536
0.00109961
0.00111199
0.00112264
0.00113182
0.00113968
0.00114655
0.00115231
0.00115705
0.00116068
0.00116376
0.00116653
0.00116854
0.00117006
0.00117089
0.00117083
0.00116823
0.00116265
0.00115659
0.00115169
0.00114822
0.00114845
0.00115149
0.00115377
0.0011542
0.00115302
0.00115067
0.00114758
0.00114407
0.00114035
0.00113652
0.00113268
0.00112887
0.00112514
0.0011215
0.00111796
0.00111453
0.00111122
0.00110803
0.00110495
0.00110197
0.0010991
0.00109634
0.0010937
0.00109116
0.00108869
0.00108628
0.00108394
0.00108164
0.00107937
0.00107716
0.00107505
0.00107296
0.00107086
0.00106849
0.00106592
0.00106408
0.00106353
0.00106219
0.00106153
0.00106189
0.00106174
0.00106284
0.00106441
0.00106587
0.00106785
0.00107068
0.00107362
0.00107702
0.00108015
0.00108294
0.00108417
0.00108466
0.00108438
0.00108385
0.00108252
0.00108103
0.00107915
0.00107668
0.00107494
0.00107472
0.00107174
0.00106721
0.00106366
0.00106039
0.00105737
0.00105382
0.00104569
0.00103507
0.0010228
0.00100898
0.000995891
0.000983545
0.00097254
0.0009617
0.000950579
0.000939747
0.000929638
0.000921166
0.000913444
0.000906429
0.00090003
0.000894414
0.000889621
0.00088449
0.000879221
0.000873915
0.000868601
0.000863219
0.000857729
0.000852232
0.000846605
0.000840598
0.000834268
0.000827729
0.000821374
0.000815562
0.000810431
0.000805656
0.000800889
0.000796052
0.000790979
0.000785578
0.000780167
0.00077496
0.000770637
0.000766638
0.000763009
0.000759781
0.000756967
0.000754514
0.000749364
0.000746599
0.000743803
0.000740625
0.000737155
0.000733521
0.000729794
0.000726026
0.000722242
0.000718472
0.000714759
0.000711187
0.000707853
0.000704861
0.00070229
0.000700178
0.00069853
0.000697306
0.00069645
0.000695871
0.000695431
0.000694976
0.000694227
0.000692543
0.000688799
0.000681219
0.000669165
0.000645727
0.000575288
4.25637e-05
0.000279454
0.000528287
0.000703025
0.000851099
0.000992348
0.00112444
0.00125387
0.0013817
0.00150848
0.00163494
0.00175814
0.0018752
0.00198402
0.00208229
0.00216953
0.00224689
0.00231571
0.00237634
0.00242908
0.0024744
0.00251287
0.00254512
0.00257182
0.0025938
0.00261182
0.00262649
0.00263827
0.00264766
0.00265508
0.00266116
0.00266619
0.00267017
0.00267334
0.00267558
0.00267634
0.0026749
0.00267191
0.00266867
0.00266513
0.00266112
0.00265687
0.00265162
0.00264447
0.00263579
0.0026265
0.00261687
0.00260724
0.00259805
0.00258905
0.00257991
0.00257109
0.00256246
0.00255399
0.00254581
0.00253786
0.00253009
0.00252247
0.00251502
0.00250771
0.00250053
0.00249351
0.00248666
0.00247997
0.00247342
0.00246697
0.00246062
0.00245435
0.00244816
0.00244201
0.00243587
0.0024299
0.00242365
0.00241716
0.0024107
0.00240444
0.00239894
0.00239323
0.00238667
0.00238032
0.00237452
0.00236884
0.00236366
0.00235851
0.00235325
0.00234766
0.00234182
0.00233552
0.00232872
0.00232126
0.00231325
0.00230466
0.00229571
0.00228648
0.00227719
0.00226775
0.00225834
0.00224884
0.00223928
0.00222994
0.00222054
0.0022106
0.00220112
0.00219258
0.00218527
0.00218048
0.0021719
0.00215385
0.00213185
0.00210932
0.0020847
0.00205764
0.00202762
0.00199683
0.0019709
0.00195056
0.00193709
0.00192304
0.00190828
0.00189343
0.00187841
0.00186364
0.00185029
0.00183856
0.00182765
0.00181699
0.00180641
0.0017956
0.00178411
0.00177213
0.00175998
0.00174676
0.00173226
0.00171703
0.00170169
0.001688
0.0016768
0.00166754
0.0016583
0.0016483
0.00163725
0.00162471
0.00161192
0.00160232
0.00158865
0.00158315
0.00157706
0.00157126
0.00156587
0.00156073
0.00155575
0.00155091
0.00154652
0.00154235
0.00153821
0.00153405
0.00152985
0.00152557
0.00152115
0.00151654
0.00151176
0.00150701
0.00150259
0.00149889
0.00149627
0.00149495
0.00149503
0.00149648
0.00149915
0.00150284
0.00150725
0.00151207
0.00151677
0.00152095
0.00152232
0.00152236
0.00151271
0.00150132
0.00147282
0.00138722
4.5411e-05
0.00032153
0.000692619
0.000988419
0.00125024
0.00147643
0.00169664
0.00191163
0.00212854
0.00234626
0.00256504
0.00277892
0.0029829
0.00317785
0.00336226
0.00353449
0.00369312
0.00383665
0.0039639
0.00407434
0.00416816
0.00424619
0.0043097
0.00436034
0.00439999
0.00443045
0.00445335
0.00447015
0.00448205
0.00449011
0.00449495
0.00449719
0.00449757
0.00449647
0.00449386
0.00448943
0.00448212
0.00447199
0.00446075
0.00444796
0.00443362
0.00441792
0.00440096
0.00438305
0.0043647
0.0043463
0.00432815
0.00431046
0.00429337
0.00427673
0.00426045
0.00424454
0.00422895
0.00421361
0.00419851
0.00418358
0.00416876
0.00415399
0.00413927
0.00412457
0.00410986
0.00409514
0.00408037
0.0040655
0.00405047
0.00403521
0.00401976
0.00400403
0.00398797
0.00397149
0.00395448
0.00393694
0.00391867
0.00389967
0.0038804
0.00386073
0.00384082
0.00382047
0.00379973
0.00377869
0.00375736
0.00373567
0.00371361
0.00369111
0.00366816
0.00364477
0.00362102
0.00359697
0.00357273
0.00354841
0.00352417
0.00350013
0.00347643
0.00345313
0.00343027
0.0034078
0.0033857
0.00336388
0.00334231
0.00332104
0.00330012
0.00327992
0.00326147
0.00324543
0.00323041
0.00321336
0.00319118
0.00316429
0.00313645
0.00310768
0.00307619
0.00304195
0.00300542
0.00296748
0.00292522
0.00288747
0.00286203
0.00284393
0.0028226
0.00280023
0.00277729
0.00275712
0.00274135
0.00272774
0.00271435
0.0027003
0.00268558
0.00266846
0.00264863
0.00262925
0.0026104
0.00258817
0.00256475
0.00254241
0.00252141
0.00250443
0.00249167
0.00248022
0.00246536
0.00244668
0.00242117
0.00239465
0.00237711
0.00236983
0.0023626
0.00235454
0.00234645
0.00233875
0.00233144
0.00232445
0.00231781
0.00231146
0.00230536
0.00229951
0.00229393
0.00228853
0.00228318
0.00227773
0.00227207
0.00226621
0.00226039
0.00225508
0.00225095
0.00224862
0.00224856
0.00225099
0.00225592
0.00226314
0.00227229
0.00228291
0.00229443
0.00230613
0.002317
0.00232541
0.00232836
0.00232434
0.00231221
0.00229695
0.00225928
0.00217118
4.76674e-05
0.000381727
0.000861211
0.00125926
0.0016213
0.001932
0.00223592
0.00253272
0.00283324
0.00313489
0.00344327
0.00375882
0.00407962
0.00440233
0.0047214
0.00503022
0.00532196
0.00559032
0.00583044
0.00603937
0.00621619
0.00636171
0.00647812
0.0065687
0.00663726
0.00668753
0.006723
0.00674658
0.00676066
0.0067677
0.00676784
0.00676112
0.00675075
0.00673831
0.00672319
0.00670504
0.00668368
0.00665964
0.0066334
0.00660522
0.00657555
0.00654487
0.00651361
0.00648218
0.00645094
0.00642013
0.00638999
0.00636065
0.00633207
0.00630415
0.00627677
0.00624983
0.00622321
0.00619679
0.00617045
0.00614407
0.00611754
0.00609075
0.0060636
0.006036
0.00600787
0.00597913
0.00594971
0.00591951
0.00588843
0.00585632
0.00582321
0.00578915
0.00575401
0.00571774
0.00568021
0.00564151
0.00560178
0.00556112
0.00551959
0.00547726
0.00543428
0.00539066
0.00534647
0.00530175
0.0052566
0.00521108
0.00516525
0.00511921
0.0050731
0.00502703
0.00498118
0.00493568
0.00489068
0.00484632
0.0048027
0.00475991
0.00471798
0.00467688
0.00463656
0.00459695
0.00455797
0.00451958
0.00448179
0.00444469
0.00440848
0.00437355
0.00434044
0.00430958
0.0042818
0.00425312
0.00422014
0.00418402
0.00414813
0.00411181
0.00407438
0.00403575
0.00399606
0.00395564
0.00391496
0.00387806
0.00384333
0.0038077
0.00377592
0.00374705
0.00371855
0.0037009
0.00368786
0.0036739
0.00365928
0.00364227
0.00362265
0.00359346
0.00356052
0.00353796
0.00351767
0.00348564
0.00346168
0.00344605
0.00342775
0.00341251
0.00340232
0.00339037
0.00336531
0.00333471
0.00331224
0.00330027
0.00329174
0.00328277
0.00327343
0.00326491
0.00325773
0.00325151
0.00324581
0.00324053
0.00323568
0.00323115
0.00322675
0.00322233
0.00321783
0.00321319
0.00320844
0.00320367
0.00319896
0.00319439
0.00319016
0.00318676
0.00318486
0.00318509
0.00318786
0.00319339
0.00320166
0.00321245
0.00322543
0.00324007
0.0032557
0.00327133
0.00328539
0.00329463
0.00329393
0.00328649
0.00327754
0.00325934
0.00322004
0.0031271
4.96249e-05
0.000449816
0.00101626
0.00148937
0.00191246
0.00227511
0.00262839
0.00297682
0.00333574
0.00371515
0.0041227
0.00456162
0.00503157
0.00552629
0.00603423
0.00654114
0.00703186
0.00749116
0.00790683
0.00827061
0.00857866
0.00883114
0.00903155
0.00918591
0.00930071
0.0093825
0.00943738
0.00947085
0.00948766
0.00949124
0.00948177
0.0094614
0.00943654
0.00940761
0.00937473
0.00933809
0.00929809
0.00925528
0.00921028
0.00916367
0.00911605
0.00906797
0.00901989
0.00897217
0.00892512
0.00887891
0.0088336
0.00878919
0.00874562
0.00870277
0.00866048
0.00861855
0.0085768
0.00853499
0.00849286
0.00845024
0.00840696
0.00836279
0.00831752
0.00827098
0.00822303
0.00817361
0.00812257
0.0080698
0.00801535
0.00795919
0.00790122
0.00784155
0.00778018
0.00771712
0.00765246
0.00758637
0.00751901
0.00745056
0.00738117
0.00731101
0.00724022
0.00716896
0.00709735
0.00702552
0.0069536
0.00688174
0.00681008
0.00673878
0.006668
0.00659788
0.00652858
0.00646021
0.00639286
0.00632662
0.00626152
0.00619757
0.00613473
0.00607296
0.00601219
0.00595238
0.00589351
0.00583564
0.00577886
0.00572334
0.00566933
0.00561717
0.00556729
0.00552019
0.00547646
0.00543315
0.00538804
0.0053413
0.00529541
0.00524994
0.00520461
0.00515939
0.00511445
0.00507019
0.00502726
0.00498653
0.00494736
0.00490986
0.00487489
0.00484072
0.00480945
0.0047781
0.00474941
0.00472956
0.00471292
0.00468821
0.0046572
0.00462422
0.00459229
0.00456552
0.00453883
0.00450473
0.00447787
0.00445503
0.00443276
0.00441572
0.00440214
0.00437969
0.0043471
0.00432086
0.00430423
0.00429557
0.00428459
0.00427129
0.00425787
0.00424749
0.0042398
0.00423328
0.00422722
0.00422177
0.00421693
0.0042124
0.00420779
0.00420288
0.0041976
0.00419212
0.0041868
0.00418196
0.0041777
0.00417407
0.00417112
0.00416928
0.00416935
0.00417189
0.00417723
0.00418552
0.00419668
0.0042105
0.00422661
0.00424421
0.0042625
0.00427996
0.00429412
0.00429914
0.0042939
0.0042864
0.00427609
0.00425402
0.0042061
0.00410228
5.18568e-05
0.000517983
0.00114968
0.00167479
0.00212479
0.00250672
0.00286147
0.00321655
0.00359637
0.00402091
0.00450599
0.00506043
0.0056857
0.00637681
0.0071175
0.00788186
0.00863944
0.00936238
0.0100264
0.0106129
0.0111119
0.0115215
0.0118462
0.0120949
0.0122778
0.0124062
0.0124905
0.0125402
0.0125628
0.012564
0.0125458
0.0125118
0.0124708
0.0124238
0.0123717
0.0123153
0.0122555
0.0121929
0.0121285
0.0120628
0.0119965
0.0119303
0.0118644
0.0117992
0.0117349
0.0116716
0.0116093
0.0115479
0.0114874
0.0114275
0.011368
0.0113086
0.0112489
0.0111888
0.0111278
0.0110656
0.0110019
0.0109364
0.0108689
0.0107992
0.0107271
0.0106525
0.0105756
0.0104963
0.0104146
0.0103306
0.0102442
0.0101556
0.010065
0.00997257
0.00987851
0.00978306
0.00968646
0.00958896
0.00949076
0.00939208
0.00929311
0.00919402
0.00909499
0.0089962
0.00889782
0.0088
0.0087029
0.00860664
0.00851135
0.00841714
0.00832409
0.00823226
0.00814167
0.00805235
0.00796427
0.00787739
0.00779168
0.00770711
0.00762369
0.00754145
0.00746048
0.00738092
0.00730298
0.00722688
0.00715291
0.0070814
0.0070127
0.00694715
0.00688483
0.00682483
0.00676572
0.00670619
0.00664784
0.00659103
0.00653559
0.00648153
0.00642895
0.00637803
0.00632905
0.00628213
0.00623703
0.00619376
0.00615207
0.00611144
0.00607234
0.00603381
0.00599815
0.00596614
0.00593464
0.00590062
0.00586474
0.00582834
0.00579193
0.00575792
0.00572291
0.00568671
0.00565244
0.00561984
0.00558966
0.00555976
0.00553384
0.00550708
0.00547483
0.00544735
0.00542468
0.00541159
0.00539513
0.00537438
0.00535403
0.00533945
0.00532922
0.00532001
0.00531091
0.00530274
0.0052954
0.00528827
0.0052809
0.00527303
0.0052646
0.00525617
0.0052486
0.00524238
0.00523744
0.00523372
0.00523129
0.00523054
0.00523201
0.00523613
0.00524313
0.00525307
0.00526586
0.00528125
0.00529878
0.00531765
0.00533651
0.00535307
0.00536363
0.00536205
0.00535611
0.0053485
0.00533186
0.00529923
0.00523695
0.00511043
5.43393e-05
0.000555482
0.00122117
0.00177275
0.00220574
0.00256578
0.00289523
0.00323045
0.00360127
0.00403502
0.00455477
0.00518201
0.00592989
0.00679941
0.00777533
0.00882893
0.00991285
0.0109718
0.0119587
0.0128408
0.0135972
0.0142206
0.0147152
0.0150935
0.0153715
0.0155663
0.0156944
0.0157702
0.0158056
0.0158106
0.0157891
0.0157461
0.0156918
0.0156297
0.0155612
0.0154879
0.0154109
0.0153312
0.0152498
0.0151674
0.0150846
0.015002
0.0149198
0.0148385
0.0147581
0.0146787
0.0146003
0.0145227
0.0144457
0.0143691
0.0142925
0.0142156
0.014138
0.0140592
0.0139789
0.0138966
0.0138119
0.0137246
0.0136345
0.0135411
0.0134447
0.0133451
0.0132426
0.0131372
0.013029
0.0129181
0.0128045
0.0126887
0.0125708
0.0124512
0.0123301
0.012208
0.0120849
0.0119613
0.0118374
0.0117133
0.0115893
0.0114656
0.0113424
0.0112197
0.0110979
0.0109768
0.0108568
0.0107378
0.0106199
0.0105032
0.0103877
0.0102733
0.0101601
0.0100479
0.00993688
0.00982689
0.00971797
0.00961017
0.00950356
0.0093983
0.00929456
0.0091926
0.00909268
0.0089951
0.00890019
0.00880825
0.00871962
0.00863456
0.00855318
0.00847517
0.00839926
0.00832483
0.00825229
0.00818228
0.00811469
0.00804945
0.00798654
0.00792591
0.00786749
0.00781113
0.00775655
0.00770355
0.00765171
0.00760073
0.0075507
0.00750153
0.00745394
0.00740809
0.00736292
0.00731752
0.00727198
0.0072266
0.00718163
0.00713765
0.0070938
0.00704993
0.00700694
0.00696519
0.00692554
0.00688743
0.0068533
0.00681864
0.00678343
0.00674984
0.00672023
0.00669442
0.00666819
0.00663995
0.00661277
0.00658753
0.0065667
0.0065529
0.00653802
0.00652407
0.00651096
0.00649792
0.00648478
0.00647118
0.00645672
0.00644288
0.00643132
0.00642232
0.00641527
0.00640999
0.00640651
0.00640519
0.00640641
0.00641046
0.00641748
0.00642745
0.0064402
0.00645539
0.00647242
0.0064902
0.00650681
0.00651893
0.00652154
0.00651664
0.00651015
0.0064954
0.00646772
0.00641872
0.00633589
0.00618404
5.63112e-05
0.000567341
0.00124401
0.00178752
0.00219127
0.00251381
0.00280124
0.00309407
0.00342486
0.00382259
0.00431906
0.00494826
0.00574257
0.0067232
0.0078895
0.0092125
0.0106312
0.0120741
0.0134568
0.0147071
0.0157877
0.0166834
0.0173963
0.0179424
0.0183445
0.0186278
0.0188164
0.0189314
0.0189905
0.0190083
0.0189923
0.0189489
0.0188879
0.0188172
0.0187389
0.0186549
0.0185669
0.018476
0.0183833
0.0182895
0.0181954
0.0181012
0.0180075
0.0179144
0.0178221
0.0177306
0.0176398
0.0175496
0.0174597
0.0173697
0.0172792
0.017188
0.0170954
0.017001
0.0169045
0.0168052
0.016703
0.0165974
0.0164883
0.0163755
0.016259
0.016139
0.0160159
0.0158895
0.0157602
0.0156279
0.0154931
0.0153562
0.0152173
0.015077
0.0149355
0.0147931
0.0146502
0.0145069
0.0143636
0.0142204
0.0140775
0.0139351
0.0137933
0.0136522
0.0135119
0.0133725
0.013234
0.0130964
0.0129598
0.0128241
0.0126892
0.0125552
0.012422
0.0122895
0.0121577
0.0120267
0.0118965
0.0117672
0.011639
0.0115123
0.0113871
0.011264
0.0111431
0.0110249
0.0109097
0.0107979
0.0106897
0.0105855
0.0104853
0.010389
0.0102959
0.0102056
0.010118
0.0100336
0.00995238
0.00987416
0.00979871
0.00972579
0.00965509
0.00958628
0.00951898
0.00945288
0.00938761
0.00932297
0.00925897
0.00919574
0.00913358
0.00907263
0.00901262
0.00895335
0.00889478
0.00883698
0.00878
0.00872395
0.0086686
0.00861385
0.00856
0.00850743
0.00845685
0.00840855
0.00836327
0.00831926
0.00827597
0.00823412
0.00819458
0.0081573
0.00812046
0.00808319
0.00804707
0.00801312
0.00798347
0.0079572
0.00793232
0.00790942
0.00788727
0.00786467
0.00784327
0.00782271
0.00779966
0.0077788
0.00776328
0.00775095
0.00774092
0.007733
0.00772713
0.00772364
0.00772288
0.00772505
0.0077302
0.00773827
0.00774903
0.007762
0.00777628
0.00779031
0.00780134
0.00780471
0.00779995
0.00779202
0.00777625
0.00774693
0.00769974
0.00762776
0.00751881
0.00734109
5.82427e-05
0.000553788
0.00122505
0.00174096
0.00211592
0.00240554
0.00265225
0.00290081
0.00317727
0.00350773
0.0039266
0.0044776
0.00521517
0.00619334
0.007443
0.00895688
0.0106772
0.0125037
0.0143141
0.0159992
0.017472
0.0186968
0.0196751
0.0204258
0.0209799
0.0213727
0.0216379
0.0218051
0.0218985
0.0219375
0.0219362
0.0219035
0.0218464
0.0217757
0.021696
0.0216098
0.021519
0.0214248
0.0213286
0.0212309
0.0211326
0.0210341
0.0209357
0.0208376
0.0207399
0.0206427
0.0205458
0.020449
0.020352
0.0202546
0.0201563
0.0200566
0.0199551
0.0198513
0.0197448
0.0196352
0.0195222
0.0194054
0.0192848
0.0191603
0.0190319
0.0188998
0.0187644
0.0186258
0.0184842
0.0183398
0.0181931
0.0180443
0.0178938
0.0177421
0.0175893
0.0174358
0.0172819
0.0171277
0.0169735
0.0168195
0.0166658
0.0165124
0.0163596
0.0162073
0.0160555
0.0159044
0.0157538
0.0156037
0.0154542
0.0153051
0.0151563
0.0150079
0.0148597
0.0147118
0.0145641
0.0144167
0.0142697
0.0141232
0.0139777
0.0138334
0.0136906
0.0135498
0.0134114
0.0132757
0.0131431
0.013014
0.0128887
0.0127675
0.0126505
0.0125378
0.0124288
0.0123232
0.0122212
0.0121227
0.0120277
0.0119359
0.011847
0.0117605
0.0116759
0.0115929
0.0115111
0.01143
0.0113494
0.0112692
0.0111896
0.0111106
0.0110325
0.0109556
0.0108799
0.0108053
0.0107319
0.0106598
0.0105888
0.010519
0.0104503
0.0103827
0.0103162
0.0102513
0.0101884
0.0101279
0.0100703
0.0100146
0.00996053
0.00990796
0.00985713
0.00980795
0.00975956
0.00971156
0.0096648
0.00962024
0.00957866
0.00953971
0.00950292
0.00946847
0.00943543
0.00940308
0.00937183
0.00934087
0.00931
0.00928174
0.00925694
0.00923657
0.00922166
0.0092092
0.00919883
0.0091911
0.00918631
0.00918452
0.00918567
0.00918968
0.00919627
0.00920476
0.00921386
0.00922139
0.00922359
0.0092182
0.00920809
0.00919027
0.00915929
0.00911072
0.00904003
0.00894023
0.00880008
0.00859377
6.09201e-05
0.000521369
0.00116934
0.00164856
0.00199966
0.00226976
0.00249286
0.00270716
0.00293027
0.00318125
0.00349331
0.00391566
0.00451408
0.00536922
0.00655847
0.00812552
0.0100438
0.0122045
0.0144475
0.0165922
0.0185128
0.0201256
0.0214126
0.0224004
0.02313
0.023649
0.0240032
0.0242324
0.024369
0.024438
0.0244581
0.0244429
0.0244005
0.024338
0.0242651
0.0241849
0.0240993
0.02401
0.0239182
0.0238246
0.02373
0.0236348
0.0235392
0.0234436
0.0233479
0.0232522
0.0231564
0.0230603
0.0229636
0.022866
0.022767
0.0226664
0.0225636
0.0224582
0.0223499
0.0222383
0.0221231
0.0220041
0.0218812
0.0217545
0.0216239
0.0214897
0.0213522
0.0212116
0.0210682
0.0209222
0.020774
0.0206239
0.0204722
0.0203193
0.0201654
0.0200107
0.0198556
0.0197001
0.0195445
0.0193887
0.0192331
0.0190775
0.0189221
0.0187668
0.0186117
0.0184566
0.0183016
0.0181466
0.0179915
0.0178363
0.0176809
0.0175253
0.0173692
0.0172129
0.0170563
0.0168995
0.0167426
0.016586
0.0164298
0.0162746
0.0161207
0.0159684
0.0158182
0.0156707
0.015526
0.0153848
0.0152472
0.0151136
0.0149841
0.0148588
0.0147375
0.0146197
0.0145056
0.014395
0.0142878
0.0141837
0.014082
0.0139825
0.0138844
0.0137874
0.0136911
0.0135952
0.0134994
0.013404
0.0133089
0.0132145
0.013121
0.0130287
0.0129378
0.0128483
0.0127603
0.0126739
0.0125889
0.0125053
0.0124232
0.0123424
0.0122632
0.0121856
0.0121101
0.0120371
0.0119667
0.0118986
0.0118324
0.0117679
0.0117049
0.0116434
0.0115828
0.011523
0.0114645
0.0114078
0.0113535
0.0113014
0.0112515
0.011204
0.0111583
0.011114
0.011071
0.0110293
0.010989
0.0109516
0.010918
0.0108896
0.0108661
0.0108459
0.0108288
0.0108147
0.0108039
0.010796
0.0107909
0.0107885
0.0107886
0.0107902
0.0107916
0.0107898
0.010782
0.010768
0.0107458
0.0107117
0.0106611
0.0105899
0.0104924
0.0103624
0.0101883
0.00994987
6.34721e-05
0.000465886
0.00105942
0.00151328
0.00185455
0.00212127
0.00233213
0.00251221
0.00267971
0.00284866
0.00304265
0.00331092
0.00372733
0.00438935
0.00541405
0.00689474
0.0088615
0.0112467
0.0138674
0.0164839
0.0188842
0.0209301
0.0225683
0.0238203
0.0247427
0.0253982
0.0258478
0.0261436
0.0263271
0.0264302
0.0264762
0.0264825
0.0264592
0.0264132
0.0263528
0.0262846
0.0262106
0.0261325
0.0260516
0.0259686
0.0258841
0.0257987
0.0257125
0.0256258
0.0255387
0.0254512
0.0253631
0.0252743
0.0251845
0.0250936
0.0250011
0.0249066
0.0248099
0.0247106
0.0246083
0.0245028
0.0243939
0.0242813
0.0241651
0.0240452
0.0239218
0.0237949
0.0236649
0.023532
0.0233965
0.0232586
0.0231186
0.0229768
0.0228334
0.0226888
0.0225431
0.0223965
0.0222492
0.0221014
0.021953
0.0218043
0.0216552
0.0215058
0.0213561
0.0212061
0.0210557
0.0209048
0.0207533
0.0206012
0.0204486
0.0202953
0.0201412
0.0199863
0.0198305
0.0196739
0.0195164
0.0193583
0.0191996
0.0190407
0.0188819
0.0187234
0.0185659
0.0184095
0.0182549
0.0181025
0.0179526
0.0178057
0.0176621
0.0175221
0.0173859
0.0172535
0.0171247
0.0169994
0.0168773
0.0167584
0.0166424
0.016529
0.0164176
0.0163077
0.0161987
0.0160902
0.0159819
0.0158736
0.0157652
0.0156568
0.0155488
0.0154413
0.0153348
0.0152295
0.0151257
0.0150233
0.0149226
0.0148235
0.014726
0.0146302
0.0145359
0.0144431
0.014352
0.0142627
0.0141754
0.0140905
0.014008
0.0139279
0.0138498
0.0137734
0.0136986
0.0136251
0.0135526
0.0134811
0.0134106
0.0133418
0.0132748
0.0132097
0.0131466
0.0130858
0.013027
0.0129701
0.0129151
0.0128622
0.0128118
0.0127647
0.0127219
0.0126842
0.0126512
0.0126223
0.0125968
0.012575
0.0125568
0.0125409
0.0125274
0.012517
0.0125088
0.0125017
0.0124937
0.0124817
0.0124626
0.0124359
0.0123994
0.0123477
0.0122761
0.0121805
0.0120553
0.0118937
0.0116842
0.0114119
6.4262e-05
0.000410704
0.00093457
0.00135208
0.00167598
0.00192637
0.00214614
0.00230964
0.00241035
0.00246337
0.002505
0.00259594
0.00282806
0.00330358
0.00414391
0.00544457