/*--------------------------------*- C++ -*----------------------------------*\
| =========                 |                                                 |
| \\      /  F ield         | OpenFOAM: The Open Source CFD Toolbox           |
|  \\    /   O peration     | Version:  v1906                                 |
|   \\  /    A nd           | Web:      www.OpenFOAM.com                      |
|    \\/     M anipulation  |                                                 |
\*---------------------------------------------------------------------------*/
FoamFile
{
    version     2.0;
    format      ascii;
    class       volScalarField;
    location    "100";
    object      p;
}
// * * * * * * * * * * * * * * * * * * * * * * * * * * * * * * * * * * * * * //

dimensions      [0 2 -2 0 0 0 0];


internalField   nonuniform List<scalar> 
12225
(
2.30435
1.08674
1.00001
0.941294
0.737647
0.514965
0.305369
0.0852686
-0.157736
-0.426041
-0.727819
-1.06892
-1.4685
-1.94984
-2.55644
-3.35298
-4.48911
-6.32474
0.547596
0.0159674
-0.179219
-0.219959
-0.34476
-0.496375
-0.649765
-0.826825
-1.03382
-1.27434
-1.55038
-1.87401
-2.26106
-2.73473
-3.33056
-4.09895
-5.15233
-6.55552
1.13184
0.335258
0.157528
0.134558
0.0328386
-0.101969
-0.246409
-0.415299
-0.612687
-0.842835
-1.10628
-1.41567
-1.78177
-2.22833
-2.78185
-3.4762
-4.36279
-5.39387
0.483762
0.000635088
-0.258701
-0.390049
-0.554785
-0.72776
-0.897219
-1.08129
-1.28907
-1.52559
-1.79506
-2.11315
-2.48259
-2.91953
-3.44124
-4.06564
-4.80487
-5.6036
0.674482
0.199631
-0.0553825
-0.169848
-0.300307
-0.439377
-0.582386
-0.743279
-0.928866
-1.14152
-1.38511
-1.6683
-1.99932
-2.3874
-2.84359
-3.37327
-3.95749
-4.527
0.308952
-0.0100961
-0.257468
-0.416444
-0.591996
-0.772744
-0.954504
-1.14823
-1.36152
-1.59846
-1.86329
-2.15797
-2.4909
-2.86473
-3.28239
-3.73629
-4.19864
-4.61036
0.376343
0.113375
-0.125306
-0.27558
-0.429493
-0.58281
-0.737216
-0.903115
-1.08627
-1.28893
-1.51707
-1.77179
-2.059
-2.37758
-2.7244
-3.08647
-3.42742
-3.68916
0.15447
-0.0454884
-0.261843
-0.423877
-0.598088
-0.775628
-0.957187
-1.14949
-1.35721
-1.58042
-1.82328
-2.08493
-2.36732
-2.66634
-2.97376
-3.27234
-3.53145
-3.71037
0.170752
0.0293244
-0.16473
-0.316016
-0.474615
-0.632554
-0.792206
-0.959185
-1.13845
-1.33091
-1.53949
-1.76316
-2.00123
-2.24808
-2.4931
-2.7187
-2.89353
-2.98326
0.0412213
-0.0920505
-0.269382
-0.419469
-0.582282
-0.749347
-0.922323
-1.10391
-1.29606
-1.49822
-1.71089
-1.93166
-2.15738
-2.38089
-2.5908
-2.77054
-2.89834
-2.95254
0.0357329
-0.0286632
-0.180205
-0.319036
-0.471195
-0.625541
-0.782674
-0.944995
-1.11447
-1.29094
-1.47428
-1.66195
-1.84967
-2.03024
-2.19232
-2.32129
-2.39736
-2.40115
-0.0246856
-0.128249
-0.270046
-0.400808
-0.543942
-0.692516
-0.847656
-1.00984
-1.17887
-1.35311
-1.53074
-1.70816
-1.88039
-2.04011
-2.17748
-2.28074
-2.33781
-2.33538
-0.0450392
-0.076741
-0.1867
-0.304616
-0.442245
-0.586545
-0.734865
-0.886402
-1.04079
-1.19698
-1.35319
-1.50653
-1.65172
-1.78273
-1.89006
-1.96529
-1.99532
-1.97715
-0.0653806
-0.138084
-0.260899
-0.374576
-0.496397
-0.623009
-0.755381
-0.893447
-1.03564
-1.17951
-1.32212
-1.45953
-1.58673
-1.69832
-1.78666
-1.8473
-1.87094
-1.86283
-0.0669909
-0.0898906
-0.159652
-0.250678
-0.363298
-0.48555
-0.611872
-0.739256
-0.865829
-0.989907
-1.10951
-1.22203
-1.32373
-1.41053
-1.4774
-1.52176
-1.53605
-1.52349
-0.0687447
-0.112368
-0.198018
-0.283641
-0.374349
-0.469849
-0.569338
-0.672002
-0.775479
-0.877498
-0.974928
-1.06569
-1.14582
-1.21446
-1.26716
-1.30559
-1.32221
-1.32605
-0.0203169
-0.0392523
-0.0893655
-0.157009
-0.239447
-0.328766
-0.419394
-0.5085
-0.594463
-0.676301
-0.752977
-0.823798
-0.886908
-0.942511
-0.986869
-1.02356
-1.04306
-1.05925
0.0471158
0.0271699
-0.0169502
-0.0646085
-0.114728
-0.16746
-0.22145
-0.275182
-0.326785
-0.374547
-0.417335
-0.454929
-0.486931
-0.515189
-0.537547
-0.560919
-0.57256
-0.5991
0.133443
0.109919
0.0652376
0.0132068
-0.0439256
-0.102084
-0.157354
-0.207517
-0.251981
-0.290669
-0.324646
-0.355419
-0.384476
-0.414664
-0.444857
-0.481119
-0.512612
-0.559117
0.347889
0.344909
0.320671
0.294977
0.273393
0.258555
0.252435
0.25523
0.266722
0.286404
0.312894
0.344499
0.378153
0.410326
0.43855
0.458289
0.473643
0.476627
0.393995
0.356434
0.299649
0.249286
0.203556
0.165259
0.137479
0.120677
0.114224
0.117527
0.129047
0.146128
0.165038
0.179968
0.184662
0.174551
0.141896
0.0983932
0.625212
0.612615
0.567311
0.534576
0.514937
0.510595
0.523448
0.552437
0.59695
0.656296
0.728915
0.812732
0.904359
0.998688
1.08702
1.16027
1.20817
1.22486
0.63529
0.562197
0.473249
0.410548
0.360237
0.32276
0.301338
0.296074
0.306084
0.330567
0.368936
0.420786
0.482112
0.547168
0.603953
0.640056
0.62847
0.565946
0.924664
0.857667
0.759801
0.714736
0.698576
0.705028
0.734441
0.783474
0.848252
0.927466
1.02098
1.12859
1.2518
1.3906
1.53968
1.68732
1.81519
1.89651
0.878653
0.730365
0.589333
0.512724
0.457008
0.418236
0.403442
0.41021
0.434887
0.475831
0.53127
0.599451
0.678533
0.766912
0.861129
0.950041
0.997633
0.967468
1.30544
1.07221
0.913682
0.884706
0.893597
0.920931
0.971129
1.03783
1.11523
1.20234
1.30035
1.40828
1.52497
1.64985
1.78536
1.93176
2.09415
2.249
1.12152
0.832557
0.633183
0.562423
0.514804
0.486954
0.493992
0.526684
0.575488
0.637555
0.711121
0.794421
0.883709
0.976854
1.0672
1.14762
1.19814
1.18782
1.86389
1.27049
1.13673
1.20192
1.25378
1.29302
1.34897
1.41684
1.49042
1.57071
1.65913
1.75401
1.85212
1.95236
2.0506
2.14189
2.22301
2.30105
1.24017
0.867493
0.674886
0.709071
0.728041
0.749816
0.798298
0.861454
0.930199
1.00526
1.08769
1.17537
1.26501
1.35392
1.43801
1.51122
1.56077
1.56251
3.11556
2.00762
1.96927
2.03703
1.99786
1.95048
1.94132
1.95711
1.98635
2.02829
2.08253
2.14571
2.21349
2.28187
2.34637
2.40051
2.43982
2.45982
1.98969
1.87825
1.73493
1.53999
1.32653
1.10224
0.883217
0.678409
0.500624
0.357725
0.259085
0.207653
0.205318
0.249985
0.347734
0.507416
0.727323
0.994473
1.30114
1.64021
2.00636
2.39327
2.79567
3.21161
3.6382
4.07075
4.50616
4.94258
5.37605
5.8054
6.22687
6.64072
7.04451
7.43748
7.81797
8.18659
8.54205
8.88396
9.20894
9.51825
9.81602
10.1087
10.3946
10.6706
10.9342
11.1856
11.424
11.6505
11.8649
12.0687
12.2616
12.4451
12.619
12.7845
12.9415
13.0912
13.2334
13.369
13.498
13.6211
13.7382
13.85
13.9564
14.058
14.1548
14.2474
14.3357
14.4202
14.5009
14.5783
14.6524
14.7236
14.7919
14.8578
14.9212
14.9824
15.0416
15.0988
15.1544
15.2091
15.2629
15.3161
15.3687
15.4206
15.4718
15.5227
15.5736
15.6245
15.6758
15.7274
15.7795
15.8319
15.8849
15.9385
15.9928
16.0476
16.1028
16.1581
16.2128
16.2667
16.3192
16.3697
16.4183
16.4647
16.5093
16.5532
16.5982
16.6443
16.69
16.7352
16.7797
16.8234
16.8659
16.9073
16.9473
16.9856
17.0221
17.0564
17.0885
17.1184
17.146
17.1717
17.1956
17.2182
17.2396
17.2603
17.2807
17.3011
17.3215
17.3423
17.3633
17.3847
17.4062
17.4277
17.4491
17.4705
17.492
17.5136
17.535
17.5562
17.5771
17.5978
17.6182
17.6384
17.6582
17.6777
17.6968
17.7157
17.7343
17.7525
17.7705
17.788
17.8054
17.8232
17.8415
17.8604
17.8802
17.9012
17.9235
17.947
17.9717
17.9974
18.0238
18.0508
18.0784
18.1066
18.1358
18.1664
18.1991
18.235
18.2751
18.3212
18.3755
18.441
18.5234
18.6293
18.7776
18.9816
19.3271
19.7667
1.83763
1.37616
1.09433
0.728494
0.376284
-0.00438162
-0.371268
-0.71339
-1.00492
-1.23656
-1.39832
-1.48944
-1.50725
-1.45189
-1.32648
-1.15263
-0.943502
-0.698156
-0.417785
-0.104849
0.23718
0.603937
0.993203
1.40194
1.82315
2.25457
2.69283
3.1345
3.57729
4.01785
4.45495
4.88671
5.31021
5.72536
6.12962
6.52337
6.90609
7.27846
7.63719
7.98237
8.31351
8.62323
8.91179
9.18805
9.45244
9.70612
9.94885
10.1814
10.4037
10.6165
10.8198
11.0143
11.2001
11.3781
11.5481
11.7111
11.8669
12.0163
12.1593
12.2965
12.4279
12.5542
12.6753
12.7917
12.9036
13.0112
13.1148
13.2146
13.3108
13.4037
13.4935
13.5805
13.6649
13.747
13.827
13.9051
13.9814
14.056
14.1293
14.2016
14.2732
14.3439
14.4141
14.4837
14.5527
14.621
14.6891
14.7567
14.824
14.8908
14.9569
15.0219
15.0855
15.1474
15.2074
15.2658
15.3228
15.3789
15.4343
15.489
15.543
15.5964
15.6487
15.6993
15.748
15.7957
15.8445
15.8948
15.9448
15.9938
16.042
16.0894
16.136
16.182
16.2271
16.271
16.3134
16.3542
16.3931
16.4301
16.4651
16.4982
16.5296
16.5594
16.5881
16.616
16.6433
16.6703
16.6972
16.7241
16.7512
16.7784
16.8058
16.8331
16.8598
16.8857
16.9111
16.9361
16.9608
16.9853
17.0095
17.0334
17.057
17.0801
17.1026
17.1246
17.1461
17.167
17.1876
17.2078
17.2275
17.2467
17.265
17.2829
17.3012
17.3207
17.3413
17.3632
17.3863
17.4106
17.4362
17.4628
17.4904
17.5188
17.5479
17.5779
17.6089
17.6415
17.6761
17.7136
17.7551
17.8018
17.8557
17.9192
17.9971
18.0935
18.2253
18.3933
18.6778
19.0348
1.33842
0.639771
0.400554
0.0582739
-0.170882
-0.434986
-0.647345
-0.843896
-0.997709
-1.11733
-1.18831
-1.21368
-1.18753
-1.11225
-0.985636
-0.811892
-0.590595
-0.327775
-0.0276266
0.304755
0.66487
1.04811
1.4503
1.86753
2.29505
2.72957
3.16814
3.60771
4.04564
4.47958
4.90666
5.325
5.7333
6.132
6.51989
6.89636
7.26013
7.61092
7.94649
8.26799
8.57858
8.87901
9.16855
9.44779
9.71611
9.97366
10.2201
10.4559
10.6811
10.8962
11.1015
11.2975
11.4845
11.6631
11.8335
11.9964
12.152
12.3007
12.4429
12.5789
12.7089
12.8333
12.9523
13.0663
13.1756
13.2804
13.3812
13.4781
13.5715
13.6615
13.7485
13.8327
13.9142
13.9933
14.0701
14.1448
14.2177
14.289
14.359
14.4278
14.4955
14.5625
14.6286
14.6943
14.7593
14.824
14.8885
14.953
15.0173
15.0816
15.1459
15.2102
15.2744
15.3387
15.4027
15.4661
15.5284
15.5894
15.6486
15.7055
15.7602
15.8126
15.8631
15.9115
15.9576
16.0029
16.0501
16.0991
16.1479
16.1958
16.2428
16.2889
16.3338
16.3775
16.4198
16.4606
16.4996
16.5367
16.5717
16.6048
16.6362
16.666
16.6947
16.7223
16.7493
16.776
16.8026
16.8294
16.8564
16.8836
16.911
16.9384
16.9657
16.993
17.02
17.0468
17.073
17.0986
17.1238
17.1486
17.173
17.1971
17.2209
17.2443
17.2672
17.2895
17.3113
17.3325
17.3534
17.3739
17.3939
17.4135
17.433
17.4521
17.4711
17.4907
17.5111
17.5328
17.556
17.5806
17.6064
17.6331
17.6604
17.6881
17.7162
17.7447
17.7739
17.8045
17.837
17.8726
17.9124
17.9578
18.0109
18.074
18.1522
18.2488
18.379
18.5413
18.7966
19.0307
0.412465
-0.352476
-0.564864
-0.989582
-1.22828
-1.54828
-1.78682
-2.03067
-2.21089
-2.35752
-2.44203
-2.47647
-2.44833
-2.36502
-2.2224
-2.02913
-1.78872
-1.50777
-1.19001
-0.840848
-0.464416
-0.0652925
0.352274
0.78385
1.22494
1.67268
2.12428
2.57731
3.02887
3.47682
3.91882
4.35323
4.7779
5.19201
5.59431
5.98476
6.36279
6.72861
7.08134
7.42108
7.74718
8.05921
8.35729
8.64246
8.91513
9.17607
9.42555
9.66425
9.89242
10.1107
10.3193
10.5188
10.7096
10.8922
11.0668
11.234
11.3941
11.5474
11.6942
11.835
11.9699
12.0994
12.2238
12.3431
12.4578
12.568
12.6742
12.7764
12.8751
12.9706
13.0632
13.153
13.2402
13.3251
13.4079
13.4889
13.5679
13.6453
13.7212
13.796
13.8697
13.9425
14.0142
14.0851
14.1552
14.2247
14.2937
14.3623
14.4305
14.4982
14.5653
14.6316
14.6968
14.7607
14.8233
14.8847
14.945
15.0044
15.0628
15.12
15.1762
15.2308
15.2836
15.3342
15.3827
15.4303
15.4787
15.5282
15.5775
15.6262
15.6746
15.7226
15.7703
15.8175
15.8639
15.909
15.9526
15.9944
16.0343
16.0721
16.1077
16.1411
16.1728
16.2033
16.2329
16.2619
16.2905
16.319
16.3473
16.3757
16.4041
16.4326
16.4612
16.4894
16.5173
16.5446
16.5714
16.5977
16.6237
16.6495
16.6747
16.6994
16.7235
16.747
16.77
16.7925
16.8144
16.8356
16.8564
16.8767
16.8966
16.916
16.9351
16.9545
16.9744
16.9948
17.0156
17.0371
17.0595
17.083
17.1079
17.1342
17.1618
17.1905
17.2202
17.251
17.283
17.3164
17.3518
17.3898
17.4316
17.4782
17.5318
17.5938
17.6685
17.7567
17.8709
18.0034
18.1949
18.3906
-0.521102
-1.24072
-1.33538
-1.71572
-1.82137
-2.06319
-2.17917
-2.33219
-2.40952
-2.4763
-2.47448
-2.43498
-2.33398
-2.19105
-1.99936
-1.76815
-1.49521
-1.18706
-0.845991
-0.476755
-0.0824818
0.33231
0.763213
1.206
1.65637
2.11088
2.56623
3.01999
3.4696
3.91326
4.34875
4.77496
5.19047
5.59496
5.98739
6.36758
6.73483
7.08926
7.43056
7.75955
8.07661
8.38221
8.67619
8.95892
9.23032
9.49072
9.74012
9.97893
10.2073
10.4258
10.6346
10.8342
11.025
11.2073
11.3814
11.5479
11.707
11.8592
12.0047
12.1438
12.2769
12.4044
12.5264
12.6435
12.756
12.8643
12.9686
13.0692
13.1665
13.2609
13.3525
13.4413
13.5275
13.6113
13.6931
13.773
13.851
13.9272
14.0018
14.0749
14.1466
14.2171
14.2864
14.3546
14.4219
14.4884
14.5541
14.6193
14.684
14.7484
14.8124
14.8763
14.9399
15.0032
15.0659
15.1277
15.1883
15.2475
15.305
15.3608
15.4148
15.4671
15.5177
15.5667
15.6143
15.6614
15.709
15.7576
15.8061
15.8539
15.9009
15.947
15.9921
16.036
16.0788
16.1202
16.1602
16.1985
16.2349
16.2695
16.3025
16.3343
16.3652
16.3952
16.4246
16.4537
16.4826
16.5114
16.5402
16.5691
16.598
16.6269
16.6558
16.6848
16.7137
16.7425
16.771
16.7989
16.8261
16.8527
16.8788
16.9044
16.9296
16.9545
16.9788
17.0025
17.0256
17.0483
17.0705
17.0922
17.1134
17.1342
17.1543
17.1741
17.1939
17.2141
17.2351
17.2572
17.2806
17.3051
17.3305
17.3566
17.3831
17.4099
17.4369
17.4644
17.4926
17.5221
17.5537
17.5882
17.6268
17.6707
17.7216
17.7808
17.8522
17.9354
18.0409
18.1542
18.31
18.3934
-1.40912
-2.09934
-2.14559
-2.55099
-2.62683
-2.9016
-3.01995
-3.20546
-3.28938
-3.37318
-3.37772
-3.35787
-3.26872
-3.13836
-2.94965
-2.71736
-2.43717
-2.11714
-1.75974
-1.37142
-0.956781
-0.521028
-0.0690364
0.394505
0.865031
1.339
1.81284
2.28402
2.75008
3.20936
3.65967
4.09987
4.52855
4.94536
5.34941
5.74071
6.11874
6.48361
6.83496
7.17304
7.49764
7.80912
8.10754
8.39356
8.66745
8.92981
9.18089
9.42125
9.65119
9.87126
10.0818
10.2832
10.4759
10.6604
10.8369
11.0058
11.1673
11.3219
11.4698
11.6115
11.7471
11.8773
12.0022
12.1223
12.2379
12.3492
12.4565
12.5599
12.6599
12.757
12.8513
12.943
13.0321
13.1189
13.2036
13.2864
13.3674
13.4466
13.5242
13.6004
13.6752
13.7488
13.8213
13.8927
13.9632
14.0327
14.1015
14.1695
14.2368
14.3032
14.3688
14.4334
14.497
14.5594
14.6208
14.6811
14.7405
14.7989
14.8562
14.9123
14.9672
15.0205
15.0722
15.1222
15.1708
15.2189
15.2667
15.3147
15.3627
15.4103
15.4576
15.5046
15.5513
15.5973
15.6425
15.6864
15.7286
15.7689
15.8071
15.8433
15.8775
15.91
15.941
15.9709
16
16.0287
16.057
16.0849
16.1127
16.1402
16.1678
16.1955
16.2232
16.2509
16.2784
16.3057
16.3329
16.3599
16.3865
16.4125
16.438
16.4629
16.4873
16.5112
16.5345
16.5572
16.5794
16.6012
16.6226
16.6436
16.6645
16.6853
16.706
16.7268
16.7477
16.7689
16.7903
16.8122
16.8349
16.8588
16.8839
16.9105
16.9385
16.9678
16.9983
17.0299
17.0625
17.0964
17.1318
17.1693
17.2102
17.2553
17.3067
17.3652
17.4342
17.5129
17.6107
17.7133
17.8479
17.9186
-2.24109
-2.90155
-2.8811
-3.24692
-3.24265
-3.46299
-3.50189
-3.62828
-3.64736
-3.68764
-3.64501
-3.58788
-3.46248
-3.30644
-3.08905
-2.82941
-2.52035
-2.17043
-1.78175
-1.36093
-0.913425
-0.445553
0.0367643
0.527881
1.02265
1.51731
2.00834
2.49337
2.96997
3.43671
3.89179
4.33451
4.76387
5.17987
5.58195
5.97032
6.3447
6.70555
7.0528
7.3871
7.70855
8.0177
8.31465
8.5999
8.87356
9.13613
9.38778
9.62901
9.86001
10.0813
10.293
10.4957
10.6897
10.8754
11.0531
11.2232
11.3859
11.5415
11.6905
11.833
11.9697
12.1008
12.2268
12.348
12.4645
12.5769
12.6854
12.7902
12.8918
12.9903
13.086
13.179
13.2695
13.3575
13.4433
13.5269
13.6084
13.6878
13.7654
13.8412
13.9153
13.9879
14.059
14.1288
14.1973
14.2648
14.3314
14.3973
14.4625
14.5271
14.5912
14.6547
14.7177
14.7799
14.8412
14.9013
14.9601
15.0175
15.0735
15.1279
15.1809
15.2325
15.2829
15.332
15.3803
15.4285
15.4763
15.5237
15.5707
15.617
15.6626
15.7073
15.7511
15.7939
15.8355
15.876
15.9149
15.9523
15.9881
16.0224
16.0554
16.0872
16.1181
16.1485
16.1784
16.2081
16.2376
16.267
16.2964
16.3259
16.3554
16.385
16.4148
16.4446
16.4745
16.5041
16.5334
16.562
16.5899
16.6171
16.6437
16.6698
16.6954
16.7203
16.7447
16.7686
16.792
16.815
16.8374
16.8593
16.8808
16.9018
16.9223
16.9427
16.9631
16.984
17.0057
17.0282
17.0517
17.0759
17.1006
17.1256
17.151
17.1768
17.203
17.2298
17.2576
17.2867
17.3177
17.3511
17.3878
17.4284
17.4744
17.5257
17.5849
17.6494
17.7262
17.797
17.8853
17.8966
-3.14453
-3.82488
-3.79553
-4.15869
-4.14232
-4.36237
-4.38887
-4.51809
-4.5312
-4.58102
-4.54796
-4.50967
-4.4001
-4.26006
-4.05634
-3.80756
-3.49785
-3.13777
-2.7295
-2.28123
-1.80052
-1.29574
-0.77488
-0.24496
0.287852
0.818679
1.3433
1.85898
2.36317
2.85454
3.33152
3.79364
4.24013
4.6712
5.08656
5.48669
5.87148
6.24152
6.59683
6.93804
7.26528
7.57922
7.88008
8.16853
8.44488
8.70975
8.96347
9.20664
9.43954
9.6627
9.8764
10.0811
10.2771
10.4648
10.6446
10.8167
10.9815
11.1394
11.2907
11.4357
11.575
11.7088
11.8374
11.961
12.08
12.1947
12.3055
12.4125
12.5162
12.6168
12.7146
12.8096
12.9021
12.9922
13.0801
13.1659
13.2497
13.3316
13.4117
13.4902
13.5671
13.6425
13.7166
13.7893
13.8608
13.9311
14.0002
14.0683
14.1352
14.201
14.2657
14.3294
14.3919
14.4535
14.514
14.5735
14.632
14.6895
14.7457
14.8007
14.8544
14.9067
14.9575
15.0069
15.0552
15.103
15.1506
15.1974
15.2439
15.2899
15.3357
15.3809
15.4256
15.4695
15.5123
15.5536
15.5934
15.6313
15.6675
15.702
15.735
15.7667
15.7972
15.8267
15.8556
15.8838
15.9116
15.9391
15.9664
15.9936
16.0208
16.048
16.0754
16.103
16.1308
16.1585
16.1862
16.2135
16.2405
16.2669
16.2927
16.3179
16.3425
16.3665
16.3899
16.4126
16.4349
16.4569
16.4785
16.4999
16.5213
16.5427
16.564
16.5853
16.6065
16.6278
16.6494
16.6716
16.6947
16.719
16.7444
16.7711
16.7991
16.828
16.8579
16.8885
16.9199
16.952
16.9852
17.0201
17.0576
17.0983
17.144
17.1944
17.2519
17.3139
17.386
17.4525
17.5283
17.5468
-4.15121
-4.88532
-4.82796
-5.13518
-5.04466
-5.18354
-5.12204
-5.17541
-5.12997
-5.14112
-5.0832
-5.03848
-4.93595
-4.8085
-4.6132
-4.36278
-4.04177
-3.65978
-3.21452
-2.71883
-2.18319
-1.61985
-1.03988
-0.453147
0.132287
0.710381
1.27649
1.82773
2.36183
2.8779
3.37499
3.85319
4.3123
4.75308
5.17578
5.58131
5.97005
6.34295
6.7004
7.04334
7.37213
7.6876
7.99009
8.28032
8.55859
8.82555
9.08147
9.32693
9.56221
9.78782
10.004
10.2113
10.4099
10.6003
10.7827
10.9575
11.1251
11.2857
11.4397
11.5875
11.7294
11.8659
11.9971
12.1233
12.2449
12.3622
12.4756
12.5852
12.6914
12.7944
12.8943
12.9915
13.0859
13.1777
13.267
13.354
13.4388
13.5214
13.6019
13.6805
13.7572
13.8322
13.9056
13.9775
14.0481
14.1174
14.1856
14.2529
14.3192
14.3846
14.4492
14.5129
14.5755
14.6372
14.6976
14.7569
14.8148
14.8713
14.9265
14.9804
15.0331
15.0844
15.1346
15.1838
15.2321
15.2798
15.3273
15.3738
15.4192
15.4636
15.5072
15.5498
15.5915
15.6322
15.6719
15.7104
15.7477
15.7836
15.8183
15.8517
15.8841
15.9155
15.9463
15.9765
16.0064
16.0362
16.0657
16.0952
16.1247
16.1541
16.1836
16.2131
16.2426
16.2719
16.301
16.3298
16.3582
16.3862
16.4136
16.4404
16.4664
16.4918
16.5165
16.5407
16.5643
16.5876
16.6104
16.6328
16.6548
16.6764
16.6976
16.7184
16.7391
16.7596
16.7802
16.8011
16.8225
16.8445
16.8671
16.8901
16.9137
16.9377
16.9624
16.9877
17.0138
17.0407
17.0683
17.0968
17.1265
17.1573
17.1901
17.225
17.2631
17.3033
17.3475
17.3919
17.4408
17.4779
17.5156
17.4958
-5.38359
-6.21411
-6.13879
-6.40815
-6.25838
-6.33118
-6.20434
-6.19321
-6.08369
-6.03727
-5.96346
-5.93061
-5.87092
-5.79934
-5.66156
-5.45543
-5.15835
-4.77594
-4.31115
-3.77994
-3.19345
-2.56951
-1.92486
-1.27329
-0.625616
0.0103018
0.62887
1.22679
1.80185
2.35345
2.88115
3.38559
3.86712
4.32696
4.76584
5.18512
5.58553
5.96833
6.33421
6.68428
7.01913
7.33977
7.64669
7.94078
8.22247
8.49252
8.75133
8.99953
9.23746
9.46568
9.68449
9.89436
10.0956
10.2886
10.4737
10.6512
10.8215
10.9849
11.1417
11.2924
11.4372
11.5764
11.7102
11.8391
11.9632
12.083
12.1987
12.3106
12.4191
12.5242
12.6263
12.7255
12.822
12.9159
13.0074
13.0966
13.1837
13.2686
13.3516
13.4328
13.5121
13.5898
13.6658
13.7403
13.8133
13.8848
13.955
14.0238
14.0913
14.1576
14.2227
14.2866
14.3493
14.411
14.4716
14.531
14.5893
14.6465
14.7023
14.7569
14.8101
14.8619
14.9124
14.9617
15.0099
15.0574
15.1044
15.1508
15.1963
15.2409
15.2849
15.328
15.3703
15.4115
15.4515
15.4902
15.5275
15.5633
15.5978
15.6309
15.6629
15.694
15.7241
15.7535
15.7822
15.8103
15.838
15.8654
15.8927
15.92
15.9474
15.975
16.0028
16.0308
16.0588
16.0866
16.1142
16.1413
16.1679
16.1941
16.2197
16.2448
16.2692
16.293
16.3162
16.3388
16.3609
16.3826
16.4041
16.4253
16.4465
16.4677
16.4889
16.5101
16.5314
16.5527
16.5744
16.5967
16.6198
16.6438
16.6689
16.6948
16.7216
16.7492
16.7774
16.806
16.8351
16.8647
16.895
16.9262
16.9591
16.9939
17.0317
17.0713
17.1143
17.157
17.2026
17.2371
17.2673
17.2528
-6.98249
-7.92196
-7.81925
-8.04696
-7.82628
-7.79641
-7.55232
-7.41056
-7.20573
-7.07385
-6.96032
-6.90557
-6.84916
-6.78016
-6.65605
-6.46081
-6.16054
-5.74994
-5.23111
-4.62381
-3.95051
-3.2321
-2.49244
-1.75044
-1.01963
-0.30992
0.372811
1.02538
1.64634
2.23598
2.79492
3.32483
3.82699
4.30347
4.75573
5.18578
5.59493
5.98492
6.35683
6.71208
7.05154
7.37637
7.68724
7.9851
8.27048
8.54416
8.80657
9.05834
9.29986
9.53166
9.75406
9.96753
10.1723
10.3689
10.5576
10.7387
10.9125
11.0794
11.2396
11.3936
11.5418
11.6842
11.8211
11.953
12.0801
12.2027
12.3211
12.4356
12.5464
12.6538
12.7579
12.8589
12.9571
13.0524
13.1451
13.2354
13.3232
13.4088
13.4922
13.5735
13.6529
13.7305
13.8064
13.8806
13.9534
14.0248
14.0948
14.1636
14.2313
14.2977
14.363
14.427
14.4899
14.5514
14.6117
14.6707
14.7283
14.7847
14.8397
14.8935
14.946
14.9973
15.0474
15.0963
15.1442
15.1912
15.2375
15.283
15.3272
15.3702
15.4122
15.4531
15.493
15.5319
15.5697
15.6066
15.6423
15.6769
15.7105
15.7432
15.7749
15.806
15.8363
15.8663
15.8958
15.9251
15.9542
15.9832
16.012
16.0406
16.0691
16.0976
16.126
16.1543
16.1824
16.2102
16.2376
16.2646
16.291
16.3168
16.3419
16.3663
16.3901
16.4133
16.4361
16.4585
16.4806
16.5024
16.5237
16.5446
16.5652
16.5857
16.606
16.6264
16.6468
16.6674
16.6884
16.7098
16.7317
16.7541
16.7772
16.8008
16.8252
16.8503
16.8759
16.902
16.9285
16.9552
16.9822
17.0094
17.0372
17.0657
17.0953
17.1247
17.1549
17.182
17.2081
17.2202
17.224
17.186
-9.0094
-10.0732
-9.9924
-10.277
-10.1336
-10.2244
-10.2395
-10.4136
-10.5133
-10.5215
-10.3305
-9.98288
-9.55817
-9.115
-8.65851
-8.21724
-7.75705
-7.22758
-6.60171
-5.88534
-5.09866
-4.26968
-3.42631
-2.58668
-1.76798
-0.980894
-0.231331
0.478012
1.14676
1.77628
2.36833
2.92567
3.45059
3.94595
4.41393
4.85711
5.2773
5.67665
6.05657
6.41875
6.76428
7.09451
7.41025
7.71258
8.00213
8.27975
8.54595
8.80142
9.04654
9.2819
9.50783
9.7248
9.93311
10.1332
10.3253
10.5098
10.6871
10.8574
11.021
11.1783
11.3296
11.4752
11.6152
11.7501
11.8801
12.0056
12.1267
12.2438
12.3571
12.4669
12.5734
12.6768
12.7772
12.8748
12.9698
13.0623
13.1524
13.2403
13.3261
13.4098
13.4915
13.5714
13.6494
13.7258
13.8005
13.8737
13.9453
14.0155
14.0842
14.1517
14.2177
14.2825
14.346
14.4083
14.4694
14.5291
14.5876
14.6448
14.7007
14.7552
14.8083
14.8601
14.9106
14.9598
15.008
15.0552
15.1015
15.147
15.1916
15.235
15.2774
15.3187
15.359
15.3981
15.4361
15.4729
15.5084
15.5428
15.5761
15.6084
15.6397
15.6703
15.7001
15.7293
15.7579
15.786
15.8138
15.8414
15.8689
15.8965
15.9242
15.9518
15.9794
16.007
16.0344
16.0615
16.0883
16.1148
16.1408
16.1663
16.1914
16.2159
16.2398
16.2631
16.2858
16.3081
16.3298
16.3513
16.3724
16.3933
16.4142
16.4351
16.456
16.4771
16.4981
16.5193
16.5408
16.5629
16.5855
16.6089
16.633
16.6577
16.683
16.7089
16.7352
16.7616
16.7883
16.8151
16.8419
16.869
16.8965
16.9244
16.9531
16.9812
17.0094
17.0341
17.0563
17.0654
17.0632
17.0274
-11.4932
-12.7038
-12.8857
-13.5952
-14.0686
-14.9786
-16.0082
-17.1992
-18.2241
-18.8685
-18.7932
-17.9784
-16.6014
-14.9026
-13.0617
-11.417
-10.154
-9.11636
-8.14601
-7.16921
-6.1675
-5.15459
-4.15137
-3.17818
-2.2501
-1.37192
-0.548134
0.221254
0.938198
1.60621
2.22888
2.81057
3.3549
3.86587
4.34652
4.80012
5.22906
5.63592
6.02247
6.39064
6.74175
7.07725
7.39809
7.70538
7.99982
8.28228
8.55327
8.81348
9.06332
9.30334
9.53386
9.75538
9.96816
10.1726
10.369
10.5578
10.7391
10.9134
11.0809
11.2419
11.3967
11.5457
11.6891
11.8271
11.9601
12.0883
12.212
12.3316
12.4471
12.5589
12.6673
12.7722
12.8741
12.973
13.0691
13.1625
13.2535
13.342
13.4282
13.5123
13.5944
13.6745
13.7528
13.8294
13.9042
13.9776
14.0493
14.1197
14.1886
14.2561
14.3222
14.3868
14.4501
14.512
14.5726
14.6317
14.6895
14.746
14.8011
14.8548
14.9072
14.9583
15.0081
15.0568
15.1042
15.1505
15.1959
15.2402
15.2834
15.3253
15.3661
15.4058
15.4444
15.482
15.5187
15.5543
15.5888
15.6225
15.6552
15.6871
15.7183
15.7487
15.7785
15.8079
15.8367
15.8652
15.8934
15.9214
15.9492
15.9768
16.0044
16.0319
16.0592
16.0865
16.1134
16.14
16.1663
16.192
16.2173
16.242
16.2661
16.2897
16.3127
16.3351
16.3572
16.379
16.4005
16.4217
16.4425
16.4629
16.4831
16.5032
16.5234
16.5435
16.5638
16.5842
16.6049
16.626
16.6476
16.6697
16.6924
16.7156
16.7394
16.7636
16.7881
16.8127
16.8373
16.8615
16.8854
16.9088
16.9319
16.9542
16.9761
16.9961
17.0142
17.0271
17.0351
17.0293
17.0104
16.9621
-13.7477
-15.1541
-15.6216
-16.8534
-18.0362
-19.8581
-21.9212
-23.9967
-25.4694
-25.9515
-25.5611
-24.4822
-23.0264
-21.3087
-18.8762
-15.8232
-13.2611
-11.3864
-9.91329
-8.61064
-7.37078
-6.16842
-5.0094
-3.90811
-2.87487
-1.91467
-1.02851
-0.210013
0.545577
1.24363
1.88973
2.48982
3.04875
3.57155
4.06198
4.52389
4.96006
5.37339
5.76585
6.13958
6.49597
6.83659
7.16243
7.47467
7.77399
8.06131
8.33711
8.60213
8.85672
9.10147
9.33669
9.56284
9.7802
9.98919
10.19
10.3831
10.5687
10.7472
10.9188
11.0838
11.2425
11.3952
11.5422
11.6838
11.8201
11.9515
12.0784
12.2009
12.3193
12.4338
12.5448
12.6524
12.7567
12.858
12.9565
13.0522
13.1454
13.2362
13.3246
13.4109
13.4951
13.5772
13.6574
13.7359
13.8125
13.8875
13.9609
14.0327
14.103
14.1718
14.2391
14.305
14.3694
14.4325
14.4941
14.5544
14.6132
14.6706
14.7265
14.781
14.8342
14.8859
14.9364
14.9855
15.0335
15.0803
15.1261
15.1707
15.2143
15.2566
15.2977
15.3376
15.3764
15.4141
15.4507
15.4863
15.5208
15.5543
15.5869
15.6187
15.6496
15.6798
15.7093
15.7382
15.7667
15.7947
15.8224
15.8499
15.8772
15.9044
15.9315
15.9585
15.9853
16.0119
16.0383
16.0643
16.09
16.1154
16.1404
16.165
16.1892
16.2129
16.236
16.2586
16.2806
16.3023
16.3236
16.3447
16.3656
16.3863
16.4069
16.4275
16.4481
16.4688
16.4896
16.5105
16.5316
16.5531
16.5752
16.5977
16.6207
16.6442
16.6681
16.6923
16.7167
16.7411
16.7653
16.7891
16.8125
16.8352
16.8575
16.8785
16.8987
16.9166
16.932
16.9417
16.9455
16.9365
16.9125
16.8648
-14.4443
-16.0893
-16.7284
-18.2202
-19.7286
-21.8927
-24.2185
-26.3996
-27.8563
-28.3718
-28.0621
-27.1271
-25.5747
-23.8412
-22.194
-19.4276
-16.0004
-13.2939
-11.276
-9.64398
-8.18393
-6.81476
-5.52265
-4.31399
-3.19582
-2.16995
-1.23397
-0.381123
0.399086
1.11479
1.77335
2.38247
2.9481
3.47619
3.97111
4.43712
4.8773
5.29467
5.69139
6.06957
6.43069
6.77627
7.10732
7.42493
7.72981
8.02276
8.30429
8.57502
8.83534
9.08576
9.32657
9.55822
9.78096
9.99519
10.2012
10.3992
10.5896
10.7726
10.9486
11.1178
11.2804
11.4368
11.5873
11.7322
11.8716
12.0059
12.1355
12.2605
12.3813
12.4981
12.611
12.7204
12.8263
12.9291
13.0289
13.1258
13.2201
13.3117
13.401
13.488
13.5728
13.6556
13.7363
13.8152
13.8923
13.9677
14.0413
14.1133
14.1837
14.2524
14.3197
14.3854
14.4495
14.5122
14.5733
14.633
14.6911
14.7479
14.8031
14.8569
14.9093
14.9604
15.0101
15.0584
15.1055
15.1514
15.1961
15.2397
15.282
15.3232
15.3632
15.4021
15.4398
15.4765
15.5122
15.5469
15.5806
15.6134
15.6453
15.6764
15.7068
15.7364
15.7655
15.794
15.822
15.8496
15.8768
15.9038
15.9306
15.9573
15.9838
16.0101
16.0363
16.0623
16.0879
16.1131
16.1379
16.1623
16.1863
16.2098
16.2329
16.2556
16.2779
16.2998
16.3213
16.3425
16.3635
16.3842
16.4047
16.4249
16.445
16.4649
16.4849
16.505
16.5251
16.5454
16.5659
16.5867
16.608
16.6296
16.6517
16.6742
16.697
16.72
16.7431
16.7659
16.7884
16.8101
16.8312
16.851
16.8699
16.8869
16.9019
16.9139
16.9222
16.924
16.9183
16.9004
16.8663
16.8135
-13.3231
-15.0113
-15.9495
-17.544
-19.2619
-21.4736
-23.889
-26.1707
-27.7796
-28.45
-28.1515
-27.1219
-25.6119
-23.9172
-22.4652
-20.709
-17.5044
-14.3649
-11.9932
-10.1706
-8.60421
-7.16504
-5.82113
-4.57317
-3.42692
-2.38241
-1.43519
-0.576246
0.203969
0.915575
1.56952
2.17409
2.73564
3.26057
3.75329
4.2182
4.65828
5.07651
5.4749
5.85554
6.21972
6.56893
6.90399
7.22601
7.53551
7.83333
8.11982
8.39563
8.66104
8.91659
9.16248
9.39918
9.62689
9.84606
10.0569
10.2596
10.4546
10.642
10.8222
10.9955
11.1621
11.3224
11.4766
11.625
11.7679
11.9056
12.0383
12.1664
12.2901
12.4097
12.5254
12.6375
12.746
12.8513
12.9536
13.0529
13.1495
13.2435
13.3351
13.4243
13.5113
13.5962
13.6791
13.7601
13.8392
13.9165
13.9921
14.066
14.1382
14.2088
14.2777
14.345
14.4107
14.4748
14.5373
14.5982
14.6576
14.7154
14.7716
14.8264
14.8796
14.9315
14.9819
15.031
15.0787
15.1252
15.1703
15.2142
15.2569
15.2982
15.3383
15.3772
15.415
15.4517
15.4874
15.5221
15.5558
15.5888
15.6209
15.6522
15.6829
15.7129
15.7422
15.7708
15.7988
15.8263
15.8534
15.8802
15.9066
15.9329
15.9589
15.9847
16.0102
16.0355
16.0605
16.0851
16.1094
16.1334
16.1571
16.1804
16.2035
16.2261
16.2483
16.2701
16.2915
16.3127
16.3336
16.3544
16.375
16.3955
16.4159
16.4362
16.4565
16.4769
16.4973
16.5178
16.5386
16.5596
16.5809
16.6026
16.6246
16.647
16.6696
16.6922
16.7148
16.7371
16.759
16.7801
16.8003
16.8192
16.8368
16.8522
16.8653
16.8749
16.8803
16.879
16.8693
16.8486
16.8102
16.7582
-11.2879
-12.5246
-13.6822
-15.179
-16.8058
-18.6584
-20.6728
-22.6138
-24.12
-24.8994
-24.9011
-24.2112
-22.939
-21.3489
-20.1243
-19.4143
-17.1278
-13.9465
-11.5326
-9.70633
-8.17083
-6.77425
-5.47444
-4.27079
-3.16904
-2.16852
-1.26349
-0.443554
0.301584
0.983148
1.61016
2.19099
2.73348
3.2436
3.72507
4.18182
4.61645
5.03147
5.42858
5.80945
6.17518
6.52692
6.86538
7.19135
7.50534
7.80793
8.09945
8.38035
8.65095
8.91164
9.16262
9.40426
9.63673
9.86048
10.0756
10.2824
10.4812
10.6723
10.8558
11.0322
11.2017
11.3647
11.5213
11.6719
11.8168
11.9563
12.0907
12.2203
12.3454
12.4661
12.583
12.6959
12.8054
12.9114
13.0143
13.1143
13.2114
13.3059
13.3979
13.4876
13.575
13.6602
13.7434
13.8247
13.9041
13.9816
14.0574
14.1312
14.2034
14.2738
14.3425
14.4096
14.475
14.5387
14.6008
14.6613
14.7202
14.7774
14.8331
14.8873
14.9399
14.9911
15.0409
15.0892
15.1361
15.1818
15.2261
15.2692
15.311
15.3516
15.3909
15.429
15.4661
15.502
15.5369
15.5708
15.6038
15.6359
15.6672
15.6977
15.7274
15.7564
15.7849
15.8128
15.8401
15.8669
15.8933