/*--------------------------------*- C++ -*----------------------------------*\
| =========                 |                                                 |
| \\      /  F ield         | OpenFOAM: The Open Source CFD Toolbox           |
|  \\    /   O peration     | Version:  v1906                                 |
|   \\  /    A nd           | Web:      www.OpenFOAM.com                      |
|    \\/     M anipulation  |                                                 |
\*---------------------------------------------------------------------------*/
FoamFile
{
    version     2.0;
    format      ascii;
    class       surfaceScalarField;
    location    "100";
    object      phi;
}
// * * * * * * * * * * * * * * * * * * * * * * * * * * * * * * * * * * * * * //

dimensions      [0 3 -1 0 0 0 0];
oriented        oriented;


internalField   nonuniform List<scalar> 
24170
(
3.0837e-06
1.04701e-07
2.99001e-06
9.3684e-08
2.92693e-06
6.30706e-08
2.87533e-06
5.1573e-08
2.83221e-06
4.31132e-08
2.79648e-06
3.5703e-08
2.76715e-06
2.93365e-08
2.74354e-06
2.35927e-08
2.72542e-06
1.81159e-08
2.71289e-06
1.25298e-08
2.70592e-06
6.98028e-09
2.70431e-06
1.60318e-09
2.70738e-06
-3.05633e-09
2.71576e-06
-8.37149e-09
2.73118e-06
-1.54125e-08
2.75767e-06
-2.65178e-08
2.80663e-06
-4.9041e-08
-1.14577e-07
2.92114e-06
3.44267e-06
7.9277e-08
3.44425e-06
9.20936e-08
3.43324e-06
7.40687e-08
3.4208e-06
6.39955e-08
3.40777e-06
5.61381e-08
3.3952e-06
4.82614e-08
3.38371e-06
4.08282e-08
3.37343e-06
3.3866e-08
3.3645e-06
2.70565e-08
3.357e-06
2.00345e-08
3.35108e-06
1.29143e-08
3.34757e-06
5.13435e-09
3.34797e-06
-3.44913e-09
3.35352e-06
-1.39057e-08
3.36602e-06
-2.79103e-08
3.38849e-06
-4.90111e-08
3.42611e-06
-8.67375e-08
-1.60056e-07
3.4716e-06
3.67642e-06
6.53746e-08
3.67966e-06
8.88505e-08
3.67557e-06
7.81544e-08
3.67047e-06
6.90917e-08
3.66606e-06
6.05466e-08
3.66284e-06
5.1464e-08
3.661e-06
4.26704e-08
3.66054e-06
3.43106e-08
3.66157e-06
2.60288e-08
3.66412e-06
1.74703e-08
3.66851e-06
8.53012e-09
3.67504e-06
-1.39977e-09
3.68463e-06
-1.30447e-08
3.69807e-06
-2.73447e-08
3.71662e-06
-4.64556e-08
3.74183e-06
-7.42332e-08
3.77329e-06
-1.18232e-07
-1.9132e-07
3.80458e-06
3.93632e-06
5.44409e-08
3.94539e-06
7.97754e-08
3.94971e-06
7.38225e-08
3.95272e-06
6.60748e-08
3.95534e-06
5.79235e-08
3.95797e-06
4.88274e-08
3.96104e-06
3.95946e-08
3.96488e-06
3.04659e-08
3.9697e-06
2.11971e-08
3.97575e-06
1.14211e-08
3.9835e-06
7.78747e-10
3.99311e-06
-1.10179e-08
4.00517e-06
-2.5106e-08
4.02015e-06
-4.23274e-08
4.03878e-06
-6.50952e-08
4.06157e-06
-9.70381e-08
4.08736e-06
-1.44042e-07
-2.14654e-07
4.1107e-06
4.21868e-06
4.2885e-08
4.22963e-06
6.88314e-08
4.23582e-06
6.76295e-08
4.24019e-06
6.17061e-08
4.24415e-06
5.3963e-08
4.24825e-06
4.47216e-08
4.25289e-06
3.49517e-08
4.25839e-06
2.4958e-08
4.26498e-06
1.46114e-08
4.27281e-06
3.57712e-09
4.2823e-06
-8.71443e-09
4.29367e-06
-2.23863e-08
4.30729e-06
-3.87298e-08
4.32366e-06
-5.86995e-08
4.34294e-06
-8.43804e-08
4.36472e-06
-1.18822e-07
4.38602e-06
-1.65343e-07
-2.28829e-07
4.40022e-06
4.51705e-06
3.49255e-08
4.52668e-06
5.91969e-08
4.53426e-06
6.00439e-08
4.54107e-06
5.48864e-08
4.54782e-06
4.72033e-08
4.55473e-06
3.78048e-08
4.56203e-06
2.76447e-08
4.57001e-06
1.69642e-08
4.57895e-06
5.66719e-09
4.58885e-06
-6.33269e-09
4.59987e-06
-1.97449e-08
4.61222e-06
-3.4749e-08
4.62593e-06
-5.24524e-08
4.64111e-06
-7.38839e-08
4.65751e-06
-1.00788e-07
4.67411e-06
-1.35428e-07
4.68875e-06
-1.79986e-07
-2.36738e-07
4.69666e-06
4.84058e-06
2.70614e-08
4.85066e-06
4.91199e-08
4.85891e-06
5.17958e-08
4.8659e-06
4.78961e-08
4.87232e-06
4.07815e-08
4.87855e-06
3.15822e-08
4.88489e-06
2.12947e-08
4.89164e-06
1.02116e-08
4.89915e-06
-1.84536e-09
4.90766e-06
-1.48427e-08
4.91729e-06
-2.93778e-08
4.92828e-06
-4.5746e-08
4.94061e-06
-6.47799e-08
4.9541e-06
-8.73765e-08
4.9681e-06
-1.14789e-07
4.98117e-06
-1.48504e-07
4.99038e-06
-1.89197e-07
-2.3747e-07
4.99115e-06
5.18619e-06
2.04544e-08
5.19534e-06
3.99659e-08
5.2036e-06
4.35358e-08
5.21105e-06
4.04382e-08
5.21811e-06
3.37131e-08
5.22506e-06
2.46282e-08
5.23218e-06
1.41621e-08
5.23968e-06
2.71054e-09
5.24767e-06
-9.84663e-09
5.25631e-06
-2.34981e-08
5.26562e-06
-3.86965e-08
5.27567e-06
-5.58024e-08
5.28635e-06
-7.54722e-08
5.29737e-06
-9.83983e-08
5.30799e-06
-1.25416e-07
5.31682e-06
-1.57334e-07
5.32192e-06
-1.94277e-07
-2.35639e-07
5.3201e-06
5.5553e-06
1.6492e-08
5.56171e-06
3.35629e-08
5.56809e-06
3.7158e-08
5.57441e-06
3.41125e-08
5.58098e-06
2.71429e-08
5.58796e-06
1.76502e-08
5.5955e-06
6.62036e-09
5.60373e-06
-5.51916e-09
5.61269e-06
-1.88098e-08
5.62245e-06
-3.32564e-08
5.63294e-06
-4.91926e-08
5.64408e-06
-6.69399e-08
5.65559e-06
-8.69838e-08
5.66699e-06
-1.09803e-07
5.67739e-06
-1.35815e-07
5.68536e-06
-1.65294e-07
5.68852e-06
-1.97429e-07
-2.31572e-07
5.68448e-06
5.95406e-06
1.22114e-08
5.96208e-06
2.55344e-08
5.97139e-06
2.78513e-08
5.98132e-06
2.41767e-08
5.99156e-06
1.68957e-08
6.00187e-06
7.33667e-09
6.01216e-06
-3.67595e-09
6.02244e-06
-1.5807e-08
6.03273e-06
-2.91037e-08
6.0431e-06
-4.36311e-08
6.05355e-06
-5.96535e-08
6.06403e-06
-7.74164e-08
6.07426e-06
-9.72275e-08
6.08379e-06
-1.19329e-07
6.09178e-06
-1.43805e-07
6.09698e-06
-1.70491e-07
6.09788e-06
-1.98311e-07
-2.26653e-07
6.09296e-06
6.38255e-06
6.47158e-09
6.39439e-06
1.36971e-08
6.40814e-06
1.41046e-08
6.4213e-06
1.10181e-08
6.43316e-06
5.0374e-09
6.44385e-06
-3.35603e-09
6.45382e-06
-1.36421e-08
6.46349e-06
-2.54819e-08
6.47314e-06
-3.87601e-08
6.48292e-06
-5.34146e-08
6.4928e-06
-6.95344e-08
6.50259e-06
-8.72122e-08
6.51192e-06
-1.06557e-07
6.52016e-06
-1.27573e-07
6.52639e-06
-1.50031e-07
6.52931e-06
-1.73404e-07
6.52755e-06
-1.9654e-07
-2.19271e-07
6.52018e-06
5.7397e-06
7.60457e-09
5.73855e-06
1.48474e-08
5.73898e-06
1.36752e-08
5.74234e-06
7.66215e-09
5.74845e-06
-1.07685e-09
5.75644e-06
-1.13493e-08
5.76549e-06
-2.26928e-08
5.77505e-06
-3.50433e-08
5.7848e-06
-4.85142e-08
5.79458e-06
-6.3193e-08
5.80423e-06
-7.91898e-08
5.81355e-06
-9.65304e-08
5.8222e-06
-1.1521e-07
5.82965e-06
-1.35019e-07
5.83519e-06
-1.55564e-07
5.83796e-06
-1.76165e-07
5.83766e-06
-1.96232e-07
-2.15417e-07
5.83381e-06
7.00128e-06
4.48037e-09
7.00591e-06
1.02156e-08
7.00974e-06
9.84619e-09
7.01262e-06
4.7854e-09
7.01539e-06
-3.84722e-09
7.01884e-06
-1.48051e-08
7.02343e-06
-2.72844e-08
7.02927e-06
-4.08853e-08
7.03624e-06
-5.54884e-08
7.04411e-06
-7.1065e-08
7.05255e-06
-8.76265e-08
7.06115e-06
-1.05133e-07
7.06937e-06
-1.23421e-07
7.0765e-06
-1.42145e-07
7.08174e-06
-1.608e-07
7.08457e-06
-1.7899e-07
7.08466e-06
-1.96304e-07
-2.12254e-07
7.0815e-06
8.53484e-06
4.88871e-10
8.54465e-06
4.02507e-10
8.55704e-06
-2.5429e-09
8.56937e-06
-7.54756e-09
8.58036e-06
-1.48282e-08
8.58975e-06
-2.42035e-08
8.5979e-06
-3.54259e-08
8.60529e-06
-4.82781e-08
8.61237e-06
-6.25766e-08
8.61945e-06
-7.81372e-08
8.62659e-06
-9.47694e-08
8.63366e-06
-1.12193e-07
8.64025e-06
-1.30006e-07
8.64585e-06
-1.47738e-07
8.65009e-06
-1.65033e-07
8.65292e-06
-1.81818e-07
8.65346e-06
-1.96839e-07
-2.08466e-07
8.64968e-06
1.03999e-05
-1.96633e-10
1.04027e-05
-2.35272e-09
1.04079e-05
-7.78766e-09
1.0416e-05
-1.5668e-08
1.04266e-05
-2.54247e-08
1.0439e-05
-3.65578e-08
1.04524e-05
-4.88542e-08
1.04664e-05
-6.22232e-08
1.04804e-05
-7.66219e-08
1.04942e-05
-9.19399e-08
1.05075e-05
-1.08005e-07
1.05197e-05
-1.24455e-07
1.05306e-05
-1.40918e-07
1.054e-05
-1.57072e-07
1.05477e-05
-1.72781e-07
1.05531e-05
-1.8715e-07
1.05539e-05
-1.97678e-07
-2.04282e-07
1.05497e-05
1.26801e-05
-3.50913e-09
1.26883e-05
-1.05881e-08
1.26986e-05
-1.80875e-08
1.27086e-05
-2.56318e-08
1.2717e-05
-3.38027e-08
1.27236e-05
-4.32091e-08
1.27291e-05
-5.42627e-08
1.27339e-05
-6.70989e-08
1.27389e-05
-8.15715e-08
1.27443e-05
-9.73349e-08
1.27502e-05
-1.13884e-07
1.27564e-05
-1.30657e-07
1.27627e-05
-1.47231e-07
1.2769e-05
-1.63356e-07
1.27746e-05
-1.78367e-07
1.27778e-05
-1.90426e-07
1.27785e-05
-1.98361e-07
-2.0599e-07
1.27802e-05
1.54545e-05
-4.86657e-09
1.54586e-05
-1.46961e-08
1.54659e-05
-2.53326e-08
1.54768e-05
-3.64962e-08
1.5491e-05
-4.79848e-08
1.55075e-05
-5.97872e-08
1.55253e-05
-7.20155e-08
1.5543e-05
-8.47789e-08
1.55595e-05
-9.80982e-08
1.55741e-05
-1.11892e-07
1.55861e-05
-1.25944e-07
1.55955e-05
-1.40013e-07
1.56022e-05
-1.53963e-07
1.56064e-05
-1.67566e-07
1.56079e-05
-1.79819e-07
1.56066e-05
-1.89183e-07
1.5605e-05
-1.96723e-07
-2.06252e-07
1.56052e-05
1.88398e-05
-6.99573e-09
1.88453e-05
-2.02745e-08
1.88523e-05
-3.22664e-08
1.88592e-05
-4.3446e-08
1.8866e-05
-5.4732e-08
1.88729e-05
-6.67402e-08
1.88806e-05
-7.96409e-08
1.88891e-05
-9.33439e-08
1.88987e-05
-1.0767e-07
1.89092e-05
-1.22437e-07
1.89207e-05
-1.3742e-07
1.89331e-05
-1.52391e-07
1.89464e-05
-1.67243e-07
1.89607e-05
-1.81887e-07
1.89765e-05
-1.95658e-07
1.89944e-05
-2.07101e-07
1.90138e-05
-2.16153e-07
-2.25745e-07
1.90333e-05
2.29661e-05
-9.7345e-09
2.29728e-05
-2.7011e-08
2.29833e-05
-4.27891e-08
2.29969e-05
-5.70641e-08
2.30115e-05
-6.92783e-08
2.30242e-05
-7.94162e-08
2.30327e-05
-8.81962e-08
2.30361e-05
-9.66792e-08
2.30342e-05
-1.0586e-07
2.30283e-05
-1.16442e-07
2.30196e-05
-1.28736e-07
2.30099e-05
-1.42698e-07
2.30007e-05
-1.58076e-07
2.29935e-05
-1.74651e-07
2.29898e-05
-1.91983e-07
2.29916e-05
-2.08905e-07
2.29991e-05
-2.23708e-07
-2.36472e-07
2.30098e-05
1.6811e-05
-1.00362e-08
1.68127e-05
-2.87258e-08
1.68147e-05
-4.47435e-08
1.68168e-05
-5.91675e-08
1.68197e-05
-7.22577e-08
1.68241e-05
-8.37729e-08
1.68295e-05
-9.35793e-08
1.68347e-05
-1.01904e-07
1.68382e-05
-1.09331e-07
1.68383e-05
-1.1661e-07
1.68341e-05
-1.24484e-07
1.68249e-05
-1.33529e-07
1.6811e-05
-1.44107e-07
1.67927e-05
-1.5639e-07
1.67711e-05
-1.70374e-07
1.6748e-05
-1.85787e-07
1.67259e-05
-2.01626e-07
-2.16021e-07
1.67054e-05
1.46381e-05
-1.35298e-08
1.46443e-05
-3.49525e-08
1.46504e-05
-5.08779e-08
1.4655e-05
-6.37289e-08
1.46576e-05
-7.48962e-08
1.46587e-05
-8.49152e-08
1.46591e-05
-9.39604e-08
1.46592e-05
-1.02059e-07
1.46592e-05
-1.09286e-07
1.46584e-05
-1.15868e-07
1.46562e-05
-1.22221e-07
1.46515e-05
-1.28866e-07
1.46437e-05
-1.36273e-07
1.46322e-05
-1.44872e-07
1.46167e-05
-1.54942e-07
1.45975e-05
-1.6659e-07
1.45757e-05
-1.79837e-07
-1.91676e-07
1.45514e-05
1.2741e-05
-1.44399e-08
1.27448e-05
-3.87486e-08
1.27492e-05
-5.52104e-08
1.27521e-05
-6.66753e-08
1.27525e-05
-7.52778e-08
1.27498e-05
-8.22891e-08
1.27444e-05
-8.85717e-08
1.27369e-05
-9.45179e-08
1.27278e-05
-1.00231e-07
1.27177e-05
-1.05792e-07
1.27068e-05
-1.11302e-07
1.26948e-05
-1.1691e-07
1.26815e-05
-1.2293e-07
1.26664e-05
-1.29819e-07
1.26495e-05
-1.38029e-07
1.26308e-05
-1.47862e-07
1.26104e-05
-1.59494e-07
-1.71298e-07
1.259e-05
1.10958e-05
-1.92974e-08
1.11033e-05
-4.63056e-08
1.11103e-05
-6.22085e-08
1.11159e-05
-7.22525e-08
1.11197e-05
-7.90337e-08
1.11211e-05
-8.37894e-08
1.11201e-05
-8.75284e-08
1.11164e-05
-9.08404e-08
1.11101e-05
-9.39669e-08
1.11014e-05
-9.70766e-08
1.10903e-05
-1.00257e-07
1.1077e-05
-1.03648e-07
1.10616e-05
-1.07474e-07
1.10438e-05
-1.12016e-07
1.10237e-05
-1.17927e-07
1.10016e-05
-1.25793e-07
1.09784e-05
-1.36331e-07
-1.47226e-07
1.09544e-05
9.65906e-06
-2.3142e-08
9.66575e-06
-5.29937e-08
9.67102e-06
-6.74828e-08
9.67394e-06
-7.51818e-08
9.67464e-06
-7.97347e-08
9.67324e-06
-8.23952e-08
9.66987e-06
-8.41655e-08
9.66458e-06
-8.55597e-08
9.65737e-06
-8.67643e-08
9.64812e-06
-8.78471e-08
9.63658e-06
-8.87191e-08
9.62236e-06
-8.94489e-08
9.60484e-06
-8.99585e-08
9.58329e-06
-9.04788e-08
9.55677e-06
-9.14252e-08
9.52456e-06
-9.35863e-08
9.4863e-06
-9.80926e-08
-1.05798e-07
9.44487e-06
8.41289e-06
-3.06808e-08
8.42265e-06
-6.27543e-08
8.42987e-06
-7.46991e-08
8.43461e-06
-7.99303e-08
8.43732e-06
-8.24464e-08
8.43804e-06
-8.31259e-08
8.43689e-06
-8.30216e-08
8.43406e-06
-8.27338e-08
8.42965e-06
-8.2355e-08
8.42363e-06
-8.18237e-08
8.41607e-06
-8.11593e-08
8.40689e-06
-8.02723e-08
8.39585e-06
-7.89251e-08
8.38245e-06
-7.70844e-08
8.36588e-06
-7.4861e-08
8.34495e-06
-7.26693e-08
8.31915e-06
-7.22841e-08
-7.44159e-08
8.28775e-06
7.3273e-06
-4.06931e-08
7.33756e-06
-7.30227e-08
7.34176e-06
-7.89048e-08
7.34164e-06
-7.9807e-08
7.33888e-06
-7.96915e-08
7.33425e-06
-7.85001e-08
7.32832e-06
-7.70899e-08
7.32145e-06
-7.58739e-08
7.31385e-06
-7.47414e-08
7.30555e-06
-7.35298e-08
7.29651e-06
-7.21087e-08
7.28663e-06
-7.03933e-08
7.27597e-06
-6.826e-08
7.26418e-06
-6.52871e-08
7.25047e-06
-6.11472e-08
7.2333e-06
-5.54842e-08
7.20871e-06
-4.76928e-08
-3.9296e-08
7.17361e-06
6.38076e-06
-5.13868e-08
6.39121e-06
-8.34708e-08
6.39572e-06
-8.34147e-08
6.39686e-06
-8.09726e-08
6.39553e-06
-7.83524e-08
6.39201e-06
-7.49827e-08
6.38679e-06
-7.18695e-08
6.38028e-06
-6.93607e-08
6.37277e-06
-6.72248e-08
6.36447e-06
-6.52188e-08
6.35557e-06
-6.32305e-08
6.34627e-06
-6.106e-08
6.33659e-06
-5.85715e-08
6.32677e-06
-5.54485e-08
6.31741e-06
-5.17728e-08
6.30892e-06
-4.69878e-08
6.30301e-06
-4.17649e-08
-3.68957e-08
6.30064e-06
5.56256e-06
-6.8482e-08
5.56745e-06
-8.83646e-08
5.56115e-06
-7.71177e-08
5.55116e-06
-7.10122e-08
5.54026e-06
-6.74494e-08
5.52916e-06
-6.38731e-08
5.51811e-06
-6.08156e-08
5.5071e-06
-5.83381e-08
5.49605e-06
-5.61662e-08
5.48493e-06
-5.41116e-08
5.47376e-06
-5.20637e-08
5.46264e-06
-4.99118e-08
5.45159e-06
-4.74893e-08
5.44082e-06
-4.46574e-08
5.43029e-06
-4.12233e-08
5.42038e-06
-3.70764e-08
5.41007e-06
-3.14229e-08
-2.2862e-08
5.39606e-06
4.85314e-06
-9.40169e-08
4.8587e-06
-9.39211e-08
4.8484e-06
-6.68413e-08
4.83661e-06
-5.92552e-08
4.82342e-06
-5.42508e-08
4.80993e-06
-5.03718e-08
4.7966e-06
-4.74726e-08
4.78351e-06
-4.52451e-08
4.77066e-06
-4.33024e-08
4.75798e-06
-4.14421e-08
4.74546e-06
-3.95456e-08
4.73312e-06
-3.75248e-08
4.72096e-06
-3.52943e-08
4.70907e-06
-3.27343e-08
4.69756e-06
-2.96941e-08
4.68666e-06
-2.61594e-08
4.67816e-06
-2.28961e-08
-2.06876e-08
4.67603e-06
4.10866e-06
4.01474e-06
3.94789e-06
3.88864e-06
3.83439e-06
3.78402e-06
3.73655e-06
3.6913e-06
3.648e-06
3.60656e-06
3.56702e-06
3.5295e-06
3.49421e-06
3.46148e-06
3.43179e-06
3.40564e-06
3.38275e-06
3.36207e-06
-1.34492e-07
1.3507e-07
-4.28836e-07
2.9462e-07
-7.28072e-07
2.99441e-07
-1.02653e-06
2.98375e-07
-1.30712e-06
2.8078e-07
-1.56776e-06
2.60466e-07
-1.8015e-06
2.34003e-07
-2.00685e-06
2.05182e-07
-2.18109e-06
1.74555e-07
-2.3249e-06
1.43671e-07
-2.43777e-06
1.13202e-07
-2.52178e-06
8.39061e-08
-2.57762e-06
5.61643e-08
-2.60797e-06
3.02975e-08
-2.61441e-06
6.76046e-09
-2.60071e-06
-1.37044e-08
-2.57002e-06
-3.03988e-08
-2.52569e-06
-4.42715e-08
-2.46953e-06
-5.5878e-08
-2.4034e-06
-6.60065e-08
-2.32811e-06
-7.50493e-08
-2.24468e-06
-8.322e-08
-2.15415e-06
-9.02978e-08
-2.05753e-06
-9.63192e-08
-1.95536e-06
-1.01953e-07
-1.84809e-06
-1.06879e-07
-1.73679e-06
-1.11102e-07
-1.6214e-06
-1.1493e-07
-1.5031e-06
-1.18124e-07
-1.38185e-06
-1.20751e-07
-1.25918e-06
-1.22566e-07
-1.13459e-06
-1.24078e-07
-1.00922e-06
-1.25341e-07
-8.82717e-07
-1.25977e-07
-7.56129e-07
-1.26695e-07
-6.28791e-07
-1.26837e-07
-5.02328e-07
-1.26683e-07
-3.75984e-07
-1.25905e-07
-2.51577e-07
-1.24737e-07
-1.28944e-07
-1.2224e-07
-1.22443e-08
-1.17084e-07
1.05263e-07
-1.17155e-07
2.2719e-07
-1.2229e-07
3.51077e-07
-1.23625e-07
4.7372e-07
-1.2298e-07
5.94978e-07
-1.21078e-07
7.13333e-07
-1.18655e-07
8.29358e-07
-1.15893e-07
9.42214e-07
-1.13113e-07
1.05262e-06
-1.10299e-07
1.16003e-06
-1.07611e-07
1.26511e-06
-1.04977e-07
1.36744e-06
-1.02487e-07
1.46757e-06
-1.00059e-07
1.56517e-06
-9.775e-08
1.66069e-06
-9.54917e-08
1.75388e-06
-9.33376e-08
1.84512e-06
-9.12373e-08
1.93419e-06
-8.92271e-08
2.02141e-06
-8.72506e-08
2.10661e-06
-8.53461e-08
2.19005e-06
-8.34763e-08
2.27156e-06
-8.16615e-08
2.35135e-06
-7.98509e-08
2.42926e-06
-7.80595e-08
2.50545e-06
-7.62551e-08
2.57979e-06
-7.44618e-08
2.65237e-06
-7.26448e-08
2.72307e-06
-7.08081e-08
2.79196e-06
-6.89397e-08
2.85895e-06
-6.70858e-08
2.92414e-06
-6.52471e-08
2.98746e-06
-6.34058e-08
3.04898e-06
-6.1571e-08
3.10863e-06
-5.97336e-08
3.16659e-06
-5.80144e-08
3.22292e-06
-5.64082e-08
3.27762e-06
-5.47715e-08
3.33061e-06
-5.3073e-08
3.382e-06
-5.14687e-08
3.4318e-06
-4.98934e-08
3.48021e-06
-4.84916e-08
3.52734e-06
-4.72093e-08
3.57323e-06
-4.59775e-08
3.61793e-06
-4.47737e-08
3.66144e-06
-4.35829e-08
3.70381e-06
-4.24501e-08
3.74512e-06
-4.13772e-08
3.78545e-06
-4.03822e-08
3.82485e-06
-3.94381e-08
3.86336e-06
-3.85539e-08
3.90104e-06
-3.77084e-08
3.9379e-06
-3.68841e-08
3.9739e-06
-3.60191e-08
4.009e-06
-3.51029e-08
4.04318e-06
-3.4175e-08
4.07648e-06
-3.32939e-08
4.10898e-06
-3.2488e-08
4.14084e-06
-3.18553e-08
4.17218e-06
-3.13245e-08
4.20307e-06
-3.08772e-08
4.23379e-06
-3.06982e-08
4.26442e-06
-3.06197e-08
4.29497e-06
-3.05411e-08
4.32525e-06
-3.02708e-08
4.35487e-06
-2.9604e-08
4.38365e-06
-2.87695e-08
4.4117e-06
-2.80421e-08
4.43919e-06
-2.74792e-08
4.46608e-06
-2.6878e-08
4.49225e-06
-2.61552e-08
4.51762e-06
-2.53576e-08
4.54219e-06
-2.4552e-08
4.56598e-06
-2.37768e-08
4.58901e-06
-2.30248e-08
4.61134e-06
-2.23214e-08
4.63304e-06
-2.16918e-08
4.6542e-06
-2.11622e-08
4.67491e-06
-2.07032e-08
4.69519e-06
-2.02767e-08
4.71505e-06
-1.98573e-08
4.73448e-06
-1.94244e-08
4.75344e-06
-1.89661e-08
4.7719e-06
-1.84604e-08
4.78978e-06
-1.78802e-08
4.807e-06
-1.72205e-08
4.82349e-06
-1.64923e-08
4.8392e-06
-1.57142e-08
4.85411e-06
-1.49003e-08
4.8682e-06
-1.40779e-08
4.88148e-06
-1.32773e-08
4.89401e-06
-1.25094e-08
4.90579e-06
-1.17714e-08
4.91688e-06
-1.10717e-08
4.92729e-06
-1.03865e-08
4.93698e-06
-9.67366e-09
4.946e-06
-8.99132e-09
4.9544e-06
-8.36578e-09
4.96223e-06
-7.79082e-09
4.96953e-06
-7.25303e-09
4.97632e-06
-6.74299e-09
4.98262e-06
-6.24443e-09
4.98844e-06
-5.76972e-09
4.9938e-06
-5.30839e-09
4.99872e-06
-4.86871e-09
5.0032e-06
-4.41832e-09
5.00722e-06
-3.96134e-09
5.01077e-06
-3.48415e-09
5.01382e-06
-2.99418e-09
5.0164e-06
-2.51315e-09
5.01849e-06
-2.0315e-09
5.02015e-06
-1.59931e-09
5.02133e-06
-1.1254e-09
5.02158e-06
-1.88389e-10
5.0204e-06
1.24271e-09
5.01759e-06
2.86873e-09
5.01306e-06
4.6026e-09
5.00672e-06
6.40788e-09
4.99859e-06
8.2055e-09
4.98873e-06
9.92835e-09
4.97728e-06
1.15177e-08
4.96439e-06
1.29668e-08
4.95016e-06
1.42904e-08
4.93468e-06
1.55374e-08
4.91797e-06
1.67562e-08
4.90001e-06
1.80055e-08
4.88071e-06
1.93374e-08
4.85994e-06
2.0811e-08
4.83749e-06
2.24812e-08
4.81312e-06
2.44166e-08
4.78646e-06
2.66967e-08
4.75702e-06
2.94902e-08
4.72401e-06
3.30632e-08
4.68605e-06
3.80189e-08
4.64088e-06
4.52393e-08
4.58412e-06
5.6832e-08
4.50785e-06
7.63416e-08
4.39744e-06
1.10488e-07
4.21262e-06
1.8489e-07
2.65926e-07
3.94676e-06
-3.09252e-07
4.44562e-07
-5.74237e-07
5.59712e-07
-8.27982e-07
5.53279e-07
-1.06706e-06
5.37454e-07
-1.2782e-06
4.92006e-07
-1.45819e-06
4.4042e-07
-1.60283e-06
3.7875e-07
-1.71586e-06
3.18181e-07
-1.80023e-06
2.59053e-07
-1.86244e-06
2.05854e-07
-1.90728e-06
1.58175e-07
-1.93972e-06
1.16345e-07
-1.96251e-06
7.90916e-08
-1.97816e-06
4.59709e-08
-1.98706e-06
1.5793e-08
-1.98801e-06
-1.27102e-08
-1.97896e-06
-3.93258e-08
-1.95923e-06
-6.39422e-08
-1.9284e-06
-8.65965e-08
-1.88695e-06
-1.07362e-07
-1.83552e-06
-1.26382e-07
-1.77493e-06
-1.43711e-07
-1.70599e-06
-1.59138e-07
-1.62967e-06
-1.72507e-07
-1.54716e-06
-1.84363e-07
-1.45893e-06
-1.94971e-07
-1.36577e-06
-2.04164e-07
-1.26844e-06
-2.12113e-07
-1.16764e-06
-2.1883e-07
-1.06382e-06
-2.24431e-07
-9.57297e-07
-2.29011e-07
-8.48593e-07
-2.32658e-07
-7.38405e-07
-2.35471e-07
-6.26783e-07
-2.375e-07
-5.14404e-07
-2.39042e-07
-4.00997e-07
-2.40176e-07
-2.86437e-07
-2.41233e-07
-1.69822e-07
-2.42481e-07
-5.03447e-08
-2.44222e-07
7.27406e-08
-2.453e-07
1.99759e-07
-2.44119e-07
3.24041e-07
-2.41414e-07
4.39914e-07
-2.38186e-07
5.50658e-07
-2.34353e-07
6.57807e-07
-2.3016e-07
7.62404e-07
-2.25671e-07
8.64777e-07
-2.21065e-07
9.65291e-07
-2.16406e-07
1.06394e-06
-2.11804e-07
1.1609e-06
-2.0726e-07
1.25609e-06
-2.02832e-07
1.34961e-06
-1.98492e-07
1.44135e-06
-1.94259e-07
1.53138e-06
-1.90094e-07
1.61963e-06
-1.86027e-07
1.70617e-06
-1.82047e-07
1.79098e-06
-1.78189e-07
1.87416e-06
-1.7444e-07
1.9557e-06
-1.7081e-07
2.03568e-06
-1.6726e-07
2.11409e-06
-1.63798e-07
2.19098e-06
-1.60399e-07
2.26633e-06
-1.57065e-07
2.3402e-06
-1.53759e-07
2.41255e-06
-1.5047e-07
2.48343e-06
-1.47168e-07
2.55276e-06
-1.43844e-07
2.62053e-06
-1.40452e-07
2.68665e-06
-1.36971e-07
2.75107e-06
-1.33396e-07
2.81369e-06
-1.29755e-07
2.87446e-06
-1.26047e-07
2.93325e-06
-1.22239e-07
2.99002e-06
-1.1837e-07
3.04464e-06
-1.14393e-07
3.09695e-06
-1.10363e-07
3.14676e-06
-1.06267e-07
3.19399e-06
-1.02034e-07
3.23837e-06
-9.75059e-08
3.27955e-06
-9.26907e-08
3.31729e-06
-8.76826e-08
3.35117e-06
-8.24156e-08
3.38099e-06
-7.70836e-08
3.40657e-06
-7.16052e-08
3.42783e-06
-6.6082e-08
3.44459e-06
-6.03889e-08
3.45678e-06
-5.46865e-08
3.46438e-06
-4.90096e-08
3.46752e-06
-4.35535e-08
3.46644e-06
-3.83812e-08
3.46158e-06
-3.37069e-08
3.45349e-06
-2.96373e-08
3.44299e-06
-2.63943e-08
3.43104e-06
-2.40923e-08
3.41886e-06
-2.29322e-08
3.40767e-06
-2.29919e-08
3.3987e-06
-2.43303e-08
3.393e-06
-2.67985e-08
3.39127e-06
-3.01301e-08
3.39395e-06
-3.40097e-08
3.40111e-06
-3.80366e-08
3.4122e-06
-4.17931e-08
3.42656e-06
-4.49782e-08
3.44341e-06
-4.7387e-08
3.46207e-06
-4.89368e-08
3.4822e-06
-4.97366e-08
3.50382e-06
-5.03838e-08
3.52675e-06
-5.09739e-08
3.55058e-06
-5.13098e-08
3.57506e-06
-5.13597e-08
3.60016e-06
-5.12598e-08
3.62595e-06
-5.11462e-08
3.65248e-06
-5.10778e-08
3.67975e-06
-5.10451e-08
3.70768e-06
-5.09543e-08
3.73604e-06
-5.06835e-08
3.76453e-06
-5.01844e-08
3.79275e-06
-4.93853e-08
3.82023e-06
-4.81845e-08
3.84649e-06
-4.65415e-08
3.87112e-06
-4.44895e-08
3.89374e-06
-4.20467e-08
3.91398e-06
-3.92123e-08
3.93154e-06
-3.60239e-08
3.94623e-06
-3.25798e-08
3.958e-06
-2.90007e-08
3.96691e-06
-2.54013e-08
3.97307e-06
-2.18755e-08
3.97667e-06
-1.84983e-08
3.97792e-06
-1.53321e-08
3.97705e-06
-1.24048e-08
3.97424e-06
-9.6882e-09
3.9696e-06
-7.1277e-09
3.96323e-06
-4.69369e-09
3.95529e-06
-2.43314e-09
3.94612e-06
-4.90073e-10
3.93601e-06
1.13239e-09
3.92513e-06
2.53897e-09
3.91363e-06
3.73786e-09
3.90163e-06
4.77297e-09
3.88922e-06
5.69133e-09
3.87653e-06
6.47822e-09
3.86369e-06
7.09428e-09
3.85092e-06
7.50076e-09
3.83837e-06
7.70707e-09
3.82628e-06
7.70743e-09
3.81478e-06
7.57344e-09
3.80396e-06
7.37037e-09
3.79385e-06
7.15455e-09
3.7844e-06
6.96664e-09
3.77558e-06
6.82608e-09
3.76725e-06
6.76562e-09
3.75948e-06
6.68433e-09
3.75286e-06
6.46467e-09
3.748e-06
6.14583e-09
3.74505e-06
5.8638e-09
3.74405e-06
5.64659e-09
3.74499e-06
5.51673e-09
3.74775e-06
5.49146e-09
3.75216e-06
5.57301e-09
3.75799e-06
5.74352e-09
3.76502e-06
5.98734e-09
3.77305e-06
6.30793e-09
3.78188e-06
6.74088e-09
3.79133e-06
7.35048e-09
3.80114e-06
8.22423e-09
3.81105e-06
9.45817e-09
3.82074e-06
1.11504e-08
3.82987e-06
1.33851e-08
3.83807e-06
1.62413e-08
3.84505e-06
1.97614e-08
3.85057e-06
2.40071e-08
3.85468e-06
2.90069e-08
3.85777e-06
3.49759e-08
3.86078e-06
4.22904e-08
3.86569e-06
5.19786e-08
3.87478e-06
6.73128e-08
3.89418e-06
9.11448e-08
3.92642e-06
1.52696e-07
2.57124e-07
3.93527e-06
-3.22758e-07
7.67494e-07
-5.68465e-07
8.05494e-07
-7.91486e-07
7.76384e-07
-9.85075e-07
7.31063e-07
-1.14351e-06
6.50517e-07
-1.27419e-06
5.71101e-07
-1.38188e-06
4.86521e-07
-1.4742e-06
4.10496e-07
-1.55126e-06
3.36194e-07
-1.61432e-06
2.68913e-07
-1.66094e-06
2.04879e-07
-1.69078e-06
1.46196e-07
-1.70281e-06
9.11964e-08
-1.69759e-06
4.07732e-08
-1.6761e-06
-5.61695e-09
-1.64127e-06
-4.75106e-08
-1.59466e-06
-8.58719e-08
-1.53779e-06
-1.20775e-07
-1.47183e-06
-1.5249e-07
-1.39791e-06
-1.81237e-07
-1.31697e-06
-2.07262e-07
-1.22996e-06
-2.30671e-07
-1.13757e-06
-2.51475e-07
-1.0402e-06
-2.6981e-07
-9.38489e-07
-2.86023e-07
-8.33122e-07
-3.00272e-07
-7.24605e-07
-3.12631e-07
-6.134e-07
-3.23249e-07
-4.99987e-07
-3.32196e-07
-3.84763e-07
-3.39591e-07
-2.68184e-07
-3.45551e-07
-1.50591e-07
-3.50195e-07
-3.23835e-08
-3.53649e-07
8.61185e-08
-3.55958e-07
2.04314e-07
-3.5722e-07
3.21621e-07
-3.57454e-07
4.37201e-07
-3.56806e-07
5.50155e-07
-3.55415e-07
6.59388e-07
-3.53455e-07
7.64917e-07
-3.50818e-07
8.68222e-07
-3.47425e-07
9.703e-07
-3.43482e-07
1.07118e-06
-3.39067e-07
1.17095e-06
-3.34123e-07
1.26955e-06
-3.28764e-07
1.36697e-06
-3.2309e-07
1.46313e-06
-3.17235e-07
1.558e-06
-3.11283e-07
1.6515e-06
-3.05313e-07
1.74359e-06
-2.99355e-07
1.83419e-06
-2.93451e-07
1.92332e-06
-2.87618e-07
2.01093e-06
-2.81883e-07
2.09709e-06
-2.76261e-07
2.18183e-06
-2.70786e-07
2.26526e-06
-2.6548e-07
2.34742e-06
-2.60363e-07
2.42838e-06
-2.55419e-07
2.50817e-06
-2.50619e-07
2.58681e-06
-2.4591e-07
2.66424e-06
-2.41251e-07
2.74041e-06
-2.36592e-07
2.81522e-06
-2.31893e-07
2.88854e-06
-2.27101e-07
2.96022e-06
-2.2217e-07
3.03008e-06
-2.17048e-07
3.09793e-06
-2.1172e-07
3.16362e-06
-2.06164e-07
3.22702e-06
-2.00385e-07
3.28801e-06
-1.94406e-07
3.34649e-06
-1.8826e-07
3.40239e-06
-1.81964e-07
3.45563e-06
-1.75508e-07
3.50618e-06
-1.6894e-07
3.55406e-06
-1.62297e-07
3.59928e-06
-1.55599e-07
3.64194e-06
-1.48955e-07
3.6823e-06
-1.42411e-07
3.72069e-06
-1.3593e-07
3.75746e-06
-1.2948e-07
3.79285e-06
-1.23106e-07
3.82717e-06
-1.16765e-07
3.86059e-06
-1.10531e-07
3.89332e-06
-1.04356e-07
3.92549e-06
-9.82854e-08
3.95741e-06
-9.23405e-08
3.98934e-06
-8.664e-08
4.02161e-06
-8.12986e-08
4.05451e-06
-7.64688e-08
4.08838e-06
-7.2265e-08
4.12348e-06
-6.88189e-08
4.16005e-06
-6.62235e-08
4.19821e-06
-6.45773e-08
4.23802e-06
-6.39236e-08
4.27935e-06
-6.42808e-08
4.32193e-06
-6.55879e-08
4.36531e-06
-6.77317e-08
4.40899e-06
-7.04938e-08
4.45243e-06
-7.35902e-08
4.49513e-06
-7.67256e-08
4.53667e-06
-7.95872e-08
4.57672e-06
-8.18585e-08
4.61502e-06
-8.32926e-08
4.65142e-06
-8.37906e-08
4.68606e-06
-8.3592e-08
4.71944e-06
-8.31261e-08
4.75165e-06
-8.26068e-08
4.78251e-06
-8.18396e-08
4.81192e-06
-8.07263e-08
4.84003e-06
-7.9483e-08
4.86708e-06
-7.83217e-08
4.89327e-06
-7.73448e-08
4.91876e-06
-7.65717e-08
4.94365e-06
-7.5951e-08
4.96808e-06
-7.53892e-08
4.99217e-06
-7.47822e-08
5.016e-06
-7.40242e-08
5.03962e-06
-7.30079e-08
5.0631e-06
-7.16683e-08
5.08652e-06
-6.99799e-08
5.10995e-06
-6.79216e-08
5.13335e-06
-6.54615e-08
5.15669e-06
-6.25671e-08
5.1799e-06
-5.92439e-08
5.20287e-06
-5.55627e-08
5.2255e-06
-5.16468e-08
5.24773e-06
-4.76435e-08
5.26953e-06
-4.36878e-08
5.29091e-06
-3.98897e-08
5.31191e-06
-3.63394e-08
5.33258e-06
-3.30869e-08
5.353e-06
-3.01177e-08
5.37326e-06
-2.73958e-08
5.39345e-06
-2.48933e-08
5.4136e-06
-2.25854e-08
5.43353e-06
-2.04271e-08
5.45302e-06
-1.83603e-08
5.47192e-06
-1.63671e-08
5.49009e-06
-1.44283e-08
5.50739e-06
-1.25377e-08
5.52378e-06
-1.06996e-08
5.53924e-06
-8.98501e-09
5.55383e-06
-7.5029e-09
5.56763e-06
-6.30499e-09
5.5807e-06
-5.37462e-09
5.59304e-06
-4.63437e-09
5.6046e-06
-3.99171e-09
5.61533e-06
-3.36417e-09
5.62517e-06
-2.6959e-09
5.63409e-06
-1.96486e-09
5.6421e-06
-1.18811e-09
5.64913e-06
-2.79173e-10
5.65499e-06
8.20265e-10
5.65949e-06
1.95822e-09
5.66254e-06
3.08839e-09
5.66406e-06
4.34401e-09
5.66386e-06
5.8431e-09
5.66172e-06
7.64321e-09
5.65748e-06
9.73186e-09
5.65102e-06
1.20236e-08
5.64235e-06
1.44152e-08
5.6315e-06
1.68224e-08
5.61859e-06
1.9217e-08
5.6037e-06
2.16238e-08
5.58692e-06
2.41257e-08
5.5683e-06
2.68417e-08
5.54784e-06
2.99161e-08
5.52549e-06
3.3497e-08
5.50115e-06
3.77256e-08
5.47466e-06
4.27301e-08
5.44583e-06
4.85971e-08
5.41439e-06
5.54546e-08
5.37993e-06
6.34714e-08
5.34174e-06
7.31618e-08
5.29866e-06
8.53702e-08
5.24862e-06
1.02015e-07
5.18826e-06
1.27665e-07
5.11208e-06
1.67314e-07
5.0145e-06
2.50266e-07
3.63202e-07
4.90841e-06
-2.35129e-07
1.0028e-06
-3.99249e-07
9.69681e-07
-5.48046e-07
9.2528e-07
-6.7052e-07
8.53576e-07
-7.69654e-07
7.49734e-07
-8.57407e-07
6.58877e-07
-9.33217e-07
5.62407e-07
-9.95999e-07
4.73293e-07
-1.04239e-06
3.82656e-07
-1.07201e-06
2.98548e-07
-1.08299e-06
2.15918e-07
-1.07701e-06
1.40234e-07
-1.05506e-06
6.9303e-08
-1.01914e-06
4.86928e-09
-9.70555e-07
-5.41511e-08
-9.10979e-07
-1.07063e-07
-8.42356e-07
-1.54449e-07
-7.66279e-07
-1.96825e-07
-6.8389e-07
-2.34838e-07
-5.96122e-07
-2.68973e-07
-5.03724e-07
-2.99623e-07
-4.07308e-07
-3.27052e-07
-3.07304e-07
-3.51447e-07
-2.04071e-07
-3.73004e-07
-9.81223e-08
-3.91942e-07
1.00419e-08
-4.08398e-07
1.19913e-07
-4.22475e-07
2.31026e-07
-4.34324e-07
3.42931e-07
-4.44077e-07
4.55248e-07
-4.51873e-07
5.67602e-07
-4.57885e-07
6.79713e-07
-4.62276e-07
7.91241e-07
-4.65161e-07
9.01928e-07
-4.6662e-07
1.0115e-06
-4.66784e-07
1.11985e-06
-4.65778e-07
1.22679e-06
-4.63742e-07
1.33218e-06
-4.60795e-07
1.43574e-06
-4.57014e-07
1.53731e-06
-4.52377e-07
1.63679e-06
-4.46904e-07
1.73407e-06
-4.40748e-07
1.82908e-06
-4.34082e-07
1.92199e-06
-4.27029e-07
2.01293e-06
-4.19704e-07
2.10204e-06
-4.12201e-07
2.18941e-06
-4.04608e-07
2.2751e-06
-3.96984e-07
2.35916e-06
-3.89379e-07
2.44163e-06
-3.81825e-07
2.52252e-06
-3.74354e-07
2.60189e-06
-3.66997e-07
2.6798e-06
-3.59796e-07
2.75632e-06
-3.52788e-07
2.83152e-06
-3.45999e-07
2.90545e-06
-3.39412e-07
2.97804e-06
-3.32971e-07
3.04921e-06
-3.26588e-07
3.11874e-06
-3.20169e-07
3.18646e-06
-3.13635e-07
3.25213e-06
-3.06931e-07
3.31553e-06
-2.99996e-07
3.37638e-06
-2.9276e-07
3.43442e-06
-2.85148e-07
3.48935e-06
-2.7711e-07
3.54092e-06
-2.68635e-07
3.58896e-06
-2.59771e-07
3.63338e-06
-2.50595e-07
3.67418e-06
-2.412e-07
3.71143e-06
-2.31674e-07
3.74527e-06
-2.22109e-07
3.77588e-06
-2.12591e-07
3.80353e-06
-2.03171e-07
3.82844e-06
-1.93866e-07
3.85086e-06
-1.84728e-07
3.87103e-06
-1.75788e-07
3.88922e-06
-1.67164e-07
3.90571e-06
-1.5891e-07
3.92081e-06
-1.51055e-07
3.93489e-06
-1.43579e-07
3.94824e-06
-1.36469e-07
3.96114e-06
-1.29688e-07
3.97383e-06
-1.23236e-07
3.98654e-06
-1.17082e-07
3.99946e-06
-1.11226e-07
4.01277e-06
-1.05677e-07
4.02661e-06
-1.00488e-07
4.04103e-06
-9.57349e-08
4.05607e-06
-9.1524e-08
4.07175e-06
-8.79551e-08
4.08803e-06
-8.51173e-08
4.10485e-06
-8.30591e-08
4.12207e-06
-8.18169e-08
4.13952e-06
-8.1398e-08
4.15699e-06
-8.17835e-08
4.17427e-06
-8.28889e-08
4.19108e-06
-8.45679e-08
4.20717e-06
-8.66043e-08
4.2223e-06
-8.87464e-08
4.2363e-06
-9.07519e-08
4.24911e-06
-9.24178e-08
4.26083e-06
-9.35999e-08
4.27171e-06
-9.41843e-08
4.28205e-06
-9.41498e-08
4.29217e-06
-9.37321e-08
4.30227e-06
-9.32416e-08
4.31252e-06
-9.28667e-08
4.32313e-06
-9.24642e-08
4.33424e-06
-9.18614e-08
4.34585e-06