/*--------------------------------*- C++ -*----------------------------------*\
| =========                 |                                                 |
| \\      /  F ield         | OpenFOAM: The Open Source CFD Toolbox           |
|  \\    /   O peration     | Version:  v1906                                 |
|   \\  /    A nd           | Web:      www.OpenFOAM.com                      |
|    \\/     M anipulation  |                                                 |
\*---------------------------------------------------------------------------*/
FoamFile
{
    version     2.0;
    format      ascii;
    class       volSymmTensorField;
    location    "100";
    object      R;
}
// * * * * * * * * * * * * * * * * * * * * * * * * * * * * * * * * * * * * * //

dimensions      [0 2 -2 0 0 0 0];


internalField   nonuniform List<symmTensor> 
12225
(
(1.62914 -0.333454 0 1.36086 0 1.52751)
(1.99626 -0.597986 0 0.915443 0 1.54244)
(2.15076 -0.586904 0 0.686541 0 1.4891)
(2.16578 -0.549824 0 0.596532 0 1.42788)
(2.1358 -0.523569 0 0.552362 0 1.37391)
(2.09391 -0.505153 0 0.525603 0 1.32957)
(2.0518 -0.4912 0 0.506344 0 1.29236)
(2.01403 -0.48043 0 0.491841 0 1.26215)
(1.98129 -0.471676 0 0.47998 0 1.23647)
(1.95387 -0.464891 0 0.470879 0 1.21596)
(1.93232 -0.459696 0 0.463393 0 1.19922)
(1.91571 -0.456031 0 0.458025 0 1.18673)
(1.90463 -0.453681 0 0.453724 0 1.17703)
(1.89647 -0.452232 0 0.450871 0 1.17029)
(1.89251 -0.45256 0 0.449665 0 1.16646)
(1.89429 -0.45349 0 0.449338 0 1.1666)
(1.89252 -0.460915 0 0.457075 0 1.16781)
(1.9384 -0.447256 0 0.422197 0 1.1869)
(1.52377 -0.0379401 0 1.46023 0 1.51676)
(1.5769 -0.140534 0 1.18825 0 1.5122)
(1.5881 -0.190732 0 0.931348 0 1.45754)
(1.57585 -0.211175 0 0.780222 0 1.40152)
(1.54997 -0.221191 0 0.685071 0 1.34702)
(1.53032 -0.230088 0 0.623131 0 1.3059)
(1.51435 -0.238085 0 0.579075 0 1.27184)
(1.50313 -0.245807 0 0.54787 0 1.24646)
(1.49471 -0.252818 0 0.522523 0 1.22374)
(1.49174 -0.259576 0 0.5057 0 1.20958)
(1.49128 -0.266288 0 0.489608 0 1.19633)
(1.49413 -0.271281 0 0.480239 0 1.19029)
(1.49821 -0.277774 0 0.468151 0 1.18068)
(1.50207 -0.282104 0 0.463198 0 1.17684)
(1.50837 -0.284907 0 0.461882 0 1.17877)
(1.51164 -0.287033 0 0.460279 0 1.17661)
(1.50815 -0.283727 0 0.463145 0 1.17654)
(1.50696 -0.267527 0 0.464352 0 1.17582)
(1.51176 -0.0082148 0 1.49422 0 1.51019)
(1.53549 -0.0370174 0 1.38733 0 1.51855)
(1.5494 -0.0650865 0 1.24198 0 1.50597)
(1.55002 -0.0867657 0 1.12938 0 1.48366)
(1.54093 -0.104263 0 1.04234 0 1.4563)
(1.5312 -0.120587 0 0.974257 0 1.43085)
(1.52285 -0.135988 0 0.919655 0 1.40766)
(1.5171 -0.150524 0 0.876557 0 1.38878)
(1.51459 -0.164676 0 0.839805 0 1.37198)
(1.51537 -0.177266 0 0.812783 0 1.36077)
(1.52002 -0.190573 0 0.786077 0 1.35033)
(1.52667 -0.200829 0 0.769325 0 1.34552)
(1.53581 -0.214211 0 0.748411 0 1.33797)
(1.54458 -0.219694 0 0.74197 0 1.33848)
(1.55535 -0.227145 0 0.733727 0 1.33976)
(1.56939 -0.230336 0 0.724861 0 1.33939)
(1.57082 -0.228618 0 0.726352 0 1.34452)
(1.60029 -0.211706 0 0.709858 0 1.33931)
(1.51177 -0.00625827 0 1.49489 0 1.51103)
(1.52902 -0.0181786 0 1.42604 0 1.52172)
(1.54471 -0.0347948 0 1.32329 0 1.52368)
(1.55327 -0.0520309 0 1.22982 0 1.51729)
(1.55547 -0.0678467 0 1.15219 0 1.50548)
(1.55589 -0.0829302 0 1.08847 0 1.49242)
(1.55674 -0.0974469 0 1.03605 0 1.47957)
(1.55896 -0.111236 0 0.993479 0 1.46851)
(1.56403 -0.124859 0 0.957023 0 1.45887)
(1.5707 -0.136781 0 0.929254 0 1.45231)
(1.58147 -0.149398 0 0.901989 0 1.44649)
(1.5917 -0.158346 0 0.885106 0 1.44435)
(1.60604 -0.168703 0 0.864569 0 1.44132)
(1.6183 -0.173395 0 0.856132 0 1.44322)
(1.63389 -0.177922 0 0.844943 0 1.44517)
(1.6508 -0.177666 0 0.835311 0 1.44726)
(1.664 -0.171031 0 0.82995 0 1.45174)
(1.68699 -0.151939 0 0.817452 0 1.45552)
(1.51037 -0.00477245 0 1.49914 0 1.50976)
(1.52381 -0.0114346 0 1.4549 0 1.51896)
(1.53941 -0.0219301 0 1.38666 0 1.52543)
(1.55227 -0.0352216 0 1.31908 0 1.52663)
(1.56153 -0.0489719 0 1.26044 0 1.52365)
(1.56959 -0.0629135 0 1.21041 0 1.51893)
(1.57812 -0.0769399 0 1.16786 0 1.51377)
(1.58733 -0.0903304 0 1.13253 0 1.50919)
(1.59938 -0.103899 0 1.10109 0 1.50554)
(1.61187 -0.115562 0 1.07686 0 1.50349)
(1.62839 -0.127894 0 1.0523 0 1.50202)
(1.64167 -0.135237 0 1.03936 0 1.50315)
(1.65991 -0.143997 0 1.02111 0 1.50368)
(1.67802 -0.149078 0 1.0093 0 1.50692)
(1.69762 -0.151528 0 0.997325 0 1.51059)
(1.7178 -0.149074 0 0.986294 0 1.5148)
(1.73851 -0.139832 0 0.975604 0 1.52081)
(1.76601 -0.121484 0 0.959022 0 1.52904)
(1.51055 -0.00460255 0 1.49973 0 1.50987)
(1.52246 -0.00957308 0 1.46744 0 1.51804)
(1.53768 -0.0176131 0 1.4186 0 1.52586)
(1.55297 -0.0290799 0 1.36683 0 1.53084)
(1.56663 -0.0417499 0 1.32009 0 1.53286)
(1.57988 -0.0549519 0 1.2791 0 1.53335)
(1.59435 -0.0687345 0 1.24305 0 1.5334)
(1.60856 -0.0813289 0 1.2137 0 1.53339)
(1.62599 -0.094479 0 1.18625 0 1.53406)
(1.64389 -0.105847 0 1.16458 0 1.53568)
(1.66163 -0.115377 0 1.14681 0 1.53769)
(1.6814 -0.123714 0 1.13115 0 1.54102)
(1.70355 -0.130922 0 1.1155 0 1.54486)
(1.7259 -0.13512 0 1.10259 0 1.54975)
(1.74893 -0.135942 0 1.09038 0 1.55526)
(1.77292 -0.132134 0 1.07805 0 1.56154)
(1.79913 -0.122397 0 1.06406 0 1.56955)
(1.83339 -0.106575 0 1.04393 0 1.5814)
(1.51046 -0.00409312 0 1.50098 0 1.50964)
(1.52134 -0.00908881 0 1.47732 0 1.5167)
(1.53584 -0.0163449 0 1.44296 0 1.52438)
(1.55228 -0.0269936 0 1.40484 0 1.5309)
(1.56849 -0.0391194 0 1.36993 0 1.5355)
(1.58477 -0.0517915 0 1.33938 0 1.53893)
(1.60397 -0.0660873 0 1.31087 0 1.54239)
(1.62118 -0.0779455 0 1.29014 0 1.54535)
(1.64074 -0.0901051 0 1.27034 0 1.54867)
(1.66224 -0.101656 0 1.25312 0 1.55274)
(1.68476 -0.111843 0 1.23845 0 1.55735)
(1.70834 -0.120377 0 1.22578 0 1.56272)
(1.73311 -0.127114 0 1.21383 0 1.56861)
(1.75845 -0.131232 0 1.20271 0 1.57511)
(1.78454 -0.132129 0 1.19139 0 1.58223)
(1.81209 -0.129067 0 1.17866 0 1.59031)
(1.84326 -0.121546 0 1.1626 0 1.60046)
(1.88394 -0.11078 0 1.13976 0 1.61518)
(1.51075 -0.00391519 0 1.5014 0 1.50975)
(1.52121 -0.00919172 0 1.48328 0 1.51612)
(1.53501 -0.0162882 0 1.45892 0 1.52325)
(1.55192 -0.0267801 0 1.43085 0 1.53031)
(1.56989 -0.0391468 0 1.4047 0 1.53633)
(1.58739 -0.0514046 0 1.38318 0 1.54128)
(1.60775 -0.0651771 0 1.36251 0 1.54644)
(1.62869 -0.0782976 0 1.34581 0 1.55153)
(1.65123 -0.0910537 0 1.33114 0 1.5569)
(1.67509 -0.102888 0 1.31868 0 1.56272)
(1.70007 -0.113481 0 1.30782 0 1.56898)
(1.72589 -0.122438 0 1.2982 0 1.57569)
(1.75241 -0.129462 0 1.28909 0 1.58277)
(1.77941 -0.134074 0 1.27996 0 1.59024)
(1.80715 -0.135846 0 1.26991 0 1.59824)
(1.83658 -0.134486 0 1.25768 0 1.60722)
(1.87012 -0.130237 0 1.24143 0 1.61827)
(1.91387 -0.125134 0 1.21849 0 1.63396)
(1.51092 -0.0035521 0 1.50204 0 1.50976)
(1.52088 -0.00942376 0 1.48867 0 1.51539)
(1.53419 -0.0170991 0 1.47164 0 1.52187)
(1.55051 -0.0276073 0 1.45268 0 1.52857)
(1.56835 -0.0398021 0 1.4353 0 1.53478)
(1.5874 -0.052786 0 1.42045 0 1.54063)
(1.60841 -0.0664923 0 1.40745 0 1.54654)
(1.63067 -0.0799314 0 1.39704 0 1.55254)
(1.65438 -0.092903 0 1.38844 0 1.55879)
(1.67922 -0.104933 0 1.38149 0 1.56535)
(1.70495 -0.11573 0 1.37564 0 1.57219)
(1.73125 -0.124967 0 1.37045 0 1.57928)
(1.75792 -0.132371 0 1.36531 0 1.58657)
(1.78489 -0.137659 0 1.35955 0 1.5941)
(1.81251 -0.140647 0 1.35226 0 1.60205)
(1.84183 -0.141432 0 1.34223 0 1.6109)
(1.87534 -0.140793 0 1.32786 0 1.62169)
(1.91859 -0.141363 0 1.30724 0 1.63656)
(1.51105 -0.00347161 0 1.50267 0 1.50973)
(1.52058 -0.00981534 0 1.49297 0 1.51474)
(1.53319 -0.0178356 0 1.48168 0 1.52048)
(1.54865 -0.0282031 0 1.46975 0 1.52657)
(1.56608 -0.0401566 0 1.45916 0 1.53257)
(1.58524 -0.0530362 0 1.45049 0 1.53852)
(1.60617 -0.0663725 0 1.44371 0 1.54456)
(1.62849 -0.0795425 0 1.43892 0 1.55072)
(1.65206 -0.0921819 0 1.4357 0 1.55706)
(1.67651 -0.103896 0 1.43378 0 1.56356)
(1.70154 -0.114404 0 1.43268 0 1.57017)
(1.72683 -0.123454 0 1.43191 0 1.57684)
(1.75216 -0.130855 0 1.43088 0 1.58353)
(1.77754 -0.136491 0 1.42892 0 1.59029)
(1.80335 -0.140402 0 1.42515 0 1.59733)
(1.83062 -0.142998 0 1.41854 0 1.60506)
(1.86155 -0.145423 0 1.40786 0 1.61433)
(1.90083 -0.150583 0 1.39191 0 1.62676)
(1.51107 -0.00309885 0 1.50342 0 1.50963)
(1.52011 -0.00930932 0 1.49686 0 1.51403)
(1.53186 -0.0168589 0 1.49024 0 1.51898)
(1.54623 -0.0263401 0 1.48403 0 1.52428)
(1.56268 -0.0373335 0 1.4793 0 1.52966)
(1.58094 -0.0492996 0 1.47645 0 1.5351)
(1.60079 -0.0617073 0 1.47554 0 1.5406)
(1.62192 -0.0740267 0 1.47646 0 1.54618)
(1.64402 -0.0858449 0 1.47887 0 1.55182)
(1.66672 -0.0968052 0 1.48242 0 1.55747)
(1.68967 -0.106649 0 1.48664 0 1.56306)
(1.71255 -0.11519 0 1.491 0 1.56855)
(1.73521 -0.122331 0 1.49493 0 1.57393)
(1.75767 -0.128096 0 1.49776 0 1.57924)
(1.78031 -0.132714 0 1.49871 0 1.58468)
(1.80401 -0.136807 0 1.49694 0 1.59057)
(1.83055 -0.141717 0 1.49163 0 1.59752)
(1.86348 -0.150402 0 1.48218 0 1.60657)
(1.5112 -0.00296751 0 1.50371 0 1.50967)
(1.52 -0.00928122 0 1.49892 0 1.51379)
(1.53093 -0.0167841 0 1.49547 0 1.51808)
(1.54403 -0.0258266 0 1.49345 0 1.52253)
(1.55903 -0.0360926 0 1.4933 0 1.52703)
(1.5757 -0.047132 0 1.49517 0 1.53157)
(1.59378 -0.0584726 0 1.49902 0 1.53614)
(1.61294 -0.0696617 0 1.50466 0 1.54072)
(1.63281 -0.0803186 0 1.51178 0 1.54524)
(1.65301 -0.0901356 0 1.52001 0 1.54965)
(1.67317 -0.0988996 0 1.52889 0 1.55387)
(1.69301 -0.106491 0 1.53792 0 1.55787)
(1.7124 -0.112899 0 1.54652 0 1.56163)
(1.73137 -0.11826 0 1.5541 0 1.56522)
(1.75025 -0.122939 0 1.55996 0 1.5688)
(1.7697 -0.127671 0 1.56357 0 1.57258)
(1.79103 -0.133896 0 1.56447 0 1.57693)
(1.81669 -0.144408 0 1.56273 0 1.58237)
(1.51096 -0.00276512 0 1.50445 0 1.50943)
(1.51905 -0.00908682 0 1.50154 0 1.51301)
(1.5289 -0.016644 0 1.50058 0 1.51661)
(1.5406 -0.0254668 0 1.50154 0 1.52028)
(1.55393 -0.0351982 0 1.5047 0 1.52392)
(1.56863 -0.0454118 0 1.51016 0 1.52748)
(1.58444 -0.0556857 0 1.51783 0 1.53094)
(1.60101 -0.0656368 0 1.52749 0 1.53426)
(1.61801 -0.0749467 0 1.5388 0 1.5374)
(1.63507 -0.0833721 0 1.55136 0 1.54029)
(1.65189 -0.0907618 0 1.56473 0 1.54289)
(1.66821 -0.0970626 0 1.5784 0 1.54518)
(1.68391 -0.102342 0 1.59186 0 1.54716)
(1.69905 -0.10683 0 1.60457 0 1.54889)
(1.7138 -0.110967 0 1.61604 0 1.55048)
(1.72869 -0.115582 0 1.62585 0 1.55207)
(1.74457 -0.122104 0 1.6339 0 1.55383)
(1.7628 -0.133116 0 1.64094 0 1.55584)
(1.51063 -0.00225349 0 1.50512 0 1.50918)
(1.51769 -0.00774732 0 1.50397 0 1.51207)
(1.52602 -0.0143199 0 1.50534 0 1.51478)
(1.53579 -0.0219613 0 1.509 0 1.51743)
(1.54686 -0.0303644 0 1.51507 0 1.51997)
(1.559 -0.0391374 0 1.52361 0 1.52233)
(1.57192 -0.0478769 0 1.53456 0 1.52446)
(1.58531 -0.0562165 0 1.54771 0 1.52632)
(1.59884 -0.0638563 0 1.56278 0 1.52786)
(1.61221 -0.0705803 0 1.57939 0 1.52903)
(1.62517 -0.0762719 0 1.59711 0 1.52983)
(1.63753 -0.0809247 0 1.61549 0 1.53025)
(1.64919 -0.0846633 0 1.63406 0 1.53032)
(1.66017 -0.0877737 0 1.65239 0 1.53009)
(1.67057 -0.0907563 0 1.67012 0 1.52964)
(1.68064 -0.0944433 0 1.68705 0 1.52901)
(1.69081 -0.100196 0 1.70337 0 1.52821)
(1.70138 -0.110324 0 1.72057 0 1.52691)
(1.51031 -0.00171643 0 1.50556 0 1.50896)
(1.51633 -0.00593239 0 1.50564 0 1.51127)
(1.52302 -0.0109383 0 1.50884 0 1.51311)
(1.53059 -0.0167178 0 1.51484 0 1.51462)
(1.53899 -0.0230328 0 1.52355 0 1.51586)
(1.54809 -0.0295466 0 1.53495 0 1.51678)
(1.55764 -0.0358967 0 1.54894 0 1.51736)
(1.56741 -0.041753 0 1.56536 0 1.51757)
(1.57714 -0.0468508 0 1.58394 0 1.51737)
(1.5866 -0.0510084 0 1.60439 0 1.51675)
(1.59562 -0.0541427 0 1.62632 0 1.51574)
(1.60405 -0.0562806 0 1.64936 0 1.51435)
(1.61183 -0.0575758 0 1.67313 0 1.51263)
(1.61892 -0.0583328 0 1.69732 0 1.51063)
(1.62532 -0.0590632 0 1.7217 0 1.50837)
(1.63106 -0.0605661 0 1.74623 0 1.50585)
(1.6361 -0.0640887 0 1.77146 0 1.50293)
(1.63988 -0.0716065 0 1.79952 0 1.49895)
(1.50978 -0.00105044 0 1.50613 0 1.50863)
(1.51455 -0.00398345 0 1.50726 0 1.51027)
(1.51962 -0.00753066 0 1.51161 0 1.51132)
(1.52516 -0.0114868 0 1.51893 0 1.51192)
(1.53115 -0.0156039 0 1.52917 0 1.51209)
(1.53745 -0.0196178 0 1.54233 0 1.5118)
(1.54391 -0.0232525 0 1.55836 0 1.51104)
(1.55034 -0.0262431 0 1.57714 0 1.50978)
(1.5566 -0.0283642 0 1.59846 0 1.50805)
(1.56256 -0.0294563 0 1.62207 0 1.50588)
(1.56814 -0.0294488 0 1.64768 0 1.50332)
(1.57329 -0.028374 0 1.67498 0 1.50045)
(1.57795 -0.0263864 0 1.7037 0 1.49732)
(1.58206 -0.0237844 0 1.73362 0 1.49398)
(1.58555 -0.0210984 0 1.76458 0 1.49047)
(1.58823 -0.019081 0 1.79673 0 1.48672)
(1.58948 -0.0186415 0 1.83112 0 1.48235)
(1.58802 -0.0210482 0 1.87048 0 1.47656)
(1.50932 -0.000253222 0 1.5064 0 1.50838)
(1.51295 -0.00136376 0 1.50792 0 1.5095)
(1.51648 -0.00288469 0 1.51287 0 1.50986)
(1.52002 -0.00464355 0 1.52106 0 1.50957)
(1.52361 -0.00638628 0 1.53239 0 1.50869)
(1.52726 -0.00781336 0 1.54678 0 1.50726)
(1.53091 -0.00862398 0 1.56415 0 1.50532)
(1.53454 -0.00855152 0 1.58439 0 1.50291)
(1.53811 -0.00738481 0 1.60738 0 1.50009)
(1.5416 -0.00498191 0 1.63299 0 1.49693)
(1.54505 -0.00128148 0 1.66104 0 1.49353)
(1.54845 0.00368471 0 1.69139 0 1.48998)
(1.55181 0.00976992 0 1.72387 0 1.48636)
(1.55503 0.0166939 0 1.75838 0 1.48274)
(1.55792 0.0239567 0 1.79489 0 1.4791)
(1.55992 0.0312313 0 1.83392 0 1.47524)
(1.56009 0.0379498 0 1.87675 0 1.47074)
(1.55703 0.042944 0 1.92586 0 1.46483)
(1.50888 0.000487381 0 1.50642 0 1.50817)
(1.51153 0.00105379 0 1.50761 0 1.50894)
(1.51393 0.00144101 0 1.51199 0 1.50897)
(1.51616 0.00194113 0 1.5195 0 1.50829)
(1.51825 0.0028419 0 1.53014 0 1.50697)
(1.52024 0.00441224 0 1.54393 0 1.50504)
(1.52219 0.0069155 0 1.56085 0 1.50257)
(1.52415 0.0106085 0 1.58091 0 1.49963)
(1.52626 0.0157249 0 1.60407 0 1.49636)
(1.52868 0.0224522 0 1.63031 0 1.4929)
(1.53161 0.0309112 0 1.65957 0 1.48942)
(1.53524 0.0411344 0 1.69179 0 1.4861)
(1.5397 0.0530411 0 1.7269 0 1.48311)
(1.54495 0.0664217 0 1.76488 0 1.48052)
(1.55067 0.0810764 0 1.80587 0 1.4783)
(1.55624 0.0966697 0 1.85035 0 1.47623)
(1.5606 0.112926 0 1.89945 0 1.47387)
(1.562 0.129465 0 1.95578 0 1.47036)
(1.50874 0.00147401 0 1.5057 0 1.50824)
(1.51086 0.00398331 0 1.50525 0 1.50907)
(1.51259 0.0064168 0 1.50779 0 1.50911)
(1.51403 0.00901509 0 1.51326 0 1.50842)
(1.51534 0.0121464 0 1.52154 0 1.50713)
(1.51672 0.0162041 0 1.53259 0 1.50535)
(1.51833 0.0215654 0 1.54644 0 1.5032)
(1.5204 0.0285799 0 1.56321 0 1.50081)
(1.52324 0.0375632 0 1.58303 0 1.49835)
(1.52723 0.0488017 0 1.60604 0 1.49606)
(1.5329 0.062548 0 1.63236 0 1.49425)
(1.5408 0.0790001 0 1.66208 0 1.49325)
(1.55141 0.0982669 0 1.69527 0 1.49338)
(1.56497 0.120331 0 1.73202 0 1.49485)
(1.58124 0.145022 0 1.77262 0 1.49764)
(1.59947 0.172225 0 1.81759 0 1.50144)
(1.61841 0.202096 0 1.86807 0 1.5057)
(1.63612 0.235048 0 1.92663 0 1.50943)
(1.50899 0.002071 0 1.50434 0 1.5086)
(1.51131 0.00552631 0 1.50114 0 1.50997)
(1.5133 0.00909134 0 1.50024 0 1.51063)
(1.51497 0.0130019 0 1.50194 0 1.51056)
(1.51643 0.0176286 0 1.50629 0 1.50979)
(1.51789 0.0233455 0 1.51334 0 1.50848)
(1.51971 0.030482 0 1.52305 0 1.50682)
(1.5224 0.0394385 0 1.53531 0 1.50511)
(1.52662 0.0506058 0 1.55007 0 1.50372)
(1.53326 0.0644046 0 1.56735 0 1.50313)
(1.54341 0.0812891 0 1.58721 0 1.5039)
(1.55841 0.101718 0 1.60979 0 1.50672)
(1.5796 0.126094 0 1.6353 0 1.5123)
(1.60812 0.154685 0 1.66404 0 1.52121)
(1.64448 0.187639 0 1.69633 0 1.53375)
(1.68804 0.224904 0 1.73307 0 1.54961)
(1.73714 0.266682 0 1.77569 0 1.5679)
(1.78967 0.314014 0 1.82659 0 1.58743)
(1.50917 0.00248804 0 1.50314 0 1.5089)
(1.51204 0.00674422 0 1.49675 0 1.51099)
(1.51463 0.0109152 0 1.49208 0 1.51239)
(1.51684 0.0151217 0 1.48946 0 1.51309)
(1.51904 0.0203517 0 1.48865 0 1.51322)
(1.52131 0.0269306 0 1.49022 0 1.51275)
(1.52383 0.0348951 0 1.49434 0 1.51188)
(1.52728 0.0448159 0 1.50082 0 1.51092)
(1.53247 0.0570323 0 1.50962 0 1.51036)
(1.54063 0.0719737 0 1.52059 0 1.51083)
(1.55344 0.0901859 0 1.53359 0 1.5132)
(1.57315 0.112324 0 1.54858 0 1.51861)
(1.6025 0.139083 0 1.5656 0 1.52841)
(1.64443 0.171097 0 1.58488 0 1.54407)
(1.70129 0.208798 0 1.60688 0 1.56672)
(1.77409 0.252397 0 1.63221 0 1.59681)
(1.86167 0.302078 0 1.66249 0 1.63361)
(1.96152 0.3588 0 1.70029 0 1.67559)
(1.50943 0.00268285 0 1.50196 0 1.50923)
(1.51287 0.0070411 0 1.49244 0 1.512)
(1.51613 0.0111083 0 1.48355 0 1.5142)
(1.51927 0.0155309 0 1.47558 0 1.51581)
(1.52235 0.0209293 0 1.46904 0 1.51676)
(1.52549 0.0278096 0 1.46451 0 1.51705)
(1.52854 0.0352668 0 1.46241 0 1.51688)
(1.53263 0.0450496 0 1.46206 0 1.51658)
(1.53831 0.0570076 0 1.46407 0 1.51654)
(1.54684 0.0715529 0 1.46807 0 1.51745)
(1.5602 0.0892688 0 1.47379 0 1.52033)
(1.58133 0.110993 0 1.48099 0 1.52665)
(1.61439 0.137658 0 1.48945 0 1.53847)
(1.66491 0.170384 0 1.49908 0 1.55853)
(1.73906 0.210209 0 1.51013 0 1.58982)
(1.8419 0.257821 0 1.52336 0 1.63476)
(1.97555 0.313536 0 1.53999 0 1.69424)
(2.13884 0.3782 0 1.56237 0 1.76728)
(1.50965 0.00310006 0 1.50088 0 1.50951)
(1.51384 0.00743344 0 1.48756 0 1.51311)
(1.51815 0.0113277 0 1.47306 0 1.51635)
(1.52237 0.015709 0 1.4584 0 1.51894)
(1.52631 0.0210122 0 1.44469 0 1.52069)
(1.53004 0.0274521 0 1.43265 0 1.52161)
(1.53381 0.0351494 0 1.42261 0 1.5219)
(1.5385 0.0453749 0 1.41454 0 1.52179)
(1.54371 0.0557709 0 1.4095 0 1.52181)
(1.55142 0.0685402 0 1.40551 0 1.52256)
(1.56337 0.0841635 0 1.40297 0 1.52495)
(1.58264 0.103553 0 1.40158 0 1.5305)
(1.61362 0.127421 0 1.40099 0 1.54148)
(1.66395 0.157394 0 1.40063 0 1.56165)
(1.7446 0.19536 0 1.40016 0 1.5964)
(1.86855 0.243138 0 1.39983 0 1.65209)
(2.04672 0.301958 0 1.40088 0 1.73396)
(2.28407 0.372751 0 1.40572 0 1.84411)
(1.50973 0.00323835 0 1.50028 0 1.50962)
(1.51469 0.00729171 0 1.48306 0 1.51398)
(1.52026 0.0110033 0 1.46176 0 1.51827)
(1.52561 0.0153596 0 1.43915 0 1.52168)
(1.53026 0.0205945 0 1.41737 0 1.52383)
(1.53424 0.0267861 0 1.39744 0 1.52479)
(1.53787 0.0341086 0 1.37974 0 1.52481)
(1.54173 0.042988 0 1.36437 0 1.5242)
(1.54627 0.0530133 0 1.35144 0 1.52344)
(1.55351 0.0661496 0 1.33993 0 1.52315)
(1.56216 0.0784319 0 1.33191 0 1.52399)
(1.57658 0.0938999 0 1.3237 0 1.52712)
(1.60031 0.112861 0 1.31591 0 1.53454)
(1.6408 0.136857 0 1.30772 0 1.54991)
(1.71106 0.168079 0 1.29821 0 1.57968)
(1.83186 0.209431 0 1.2866 0 1.63414)
(2.03018 0.264193 0 1.27311 0 1.72664)
(2.32822 0.334931 0 1.26025 0 1.86801)
(1.50993 0.0039101 0 1.49939 0 1.50984)
(1.5163 0.00784093 0 1.47602 0 1.51546)
(1.52379 0.0118313 0 1.44412 0 1.5211)
(1.53051 0.0168102 0 1.40992 0 1.52514)
(1.53573 0.0226492 0 1.37688 0 1.5272)
(1.53961 0.0292147 0 1.34631 0 1.52752)
(1.54256 0.0365888 0 1.31864 0 1.52651)
(1.54512 0.0449255 0 1.29398 0 1.52458)
(1.54787 0.0541692 0 1.27222 0 1.52218)
(1.55191 0.0649188 0 1.2529 0 1.51986)
(1.55784 0.0765332 0 1.23603 0 1.51822)
(1.56949 0.0916072 0 1.21976 0 1.51859)
(1.58361 0.104716 0 1.20795 0 1.52128)
(1.60891 0.121331 0 1.1947 0 1.52906)
(1.65514 0.142891 0 1.17975 0 1.54687)
(1.74182 0.172027 0 1.16195 0 1.58456)
(1.90643 0.213481 0 1.13946 0 1.66082)
(2.20531 0.273878 0 1.11161 0 1.80378)
(1.50973 0.00401936 0 1.49952 0 1.50962)
(1.51768 0.00868647 0 1.46887 0 1.5163)
(1.52742 0.0142063 0 1.42253 0 1.52274)
(1.53501 0.0206429 0 1.37447 0 1.52601)
(1.53974 0.027539 0 1.32964 0 1.52613)
(1.54214 0.0347276 0 1.28913 0 1.52384)
(1.54299 0.0423634 0 1.25294 0 1.51988)
(1.54298 0.0505533 0 1.2208 0 1.51486)
(1.54276 0.0593111 0 1.19236 0 1.50931)
(1.54302 0.0687762 0 1.16716 0 1.5037)
(1.54459 0.0790158 0 1.14466 0 1.49851)
(1.54877 0.0904041 0 1.12437 0 1.49443)
(1.55947 0.105085 0 1.10358 0 1.4925)
(1.57245 0.116514 0 1.08973 0 1.49386)
(1.59537 0.129998 0 1.07416 0 1.49983)
(1.64027 0.147464 0 1.05624 0 1.51656)
(1.73255 0.171699 0 1.03421 0 1.55683)
(1.92632 0.20847 0 1.00514 0 1.64788)
(1.51088 0.00543682 0 1.49649 0 1.51063)
(1.52274 0.0130582 0 1.44838 0 1.51961)
(1.53571 0.0233833 0 1.37417 0 1.52571)
(1.54346 0.0339619 0 1.30088 0 1.52568)
(1.54614 0.0437817 0 1.23526 0 1.52094)
(1.54508 0.0527196 0 1.17784 0 1.51304)
(1.54186 0.0612512 0 1.1279 0 1.50334)
(1.53754 0.0696475 0 1.0846 0 1.49276)
(1.53289 0.0780384 0 1.04706 0 1.48193)
(1.52848 0.0864817 0 1.01449 0 1.47131)
(1.52497 0.0951834 0 0.985966 0 1.46125)
(1.52285 0.104099 0 0.960953 0 1.45209)
(1.52393 0.114193 0 0.938037 0 1.44445)
(1.52742 0.123707 0 0.918709 0 1.43866)
(1.54088 0.136068 0 0.896352 0 1.43649)
(1.55638 0.144652 0 0.883103 0 1.43897)
(1.58844 0.155751 0 0.867167 0 1.44927)
(1.65886 0.171387 0 0.84872 0 1.47905)
(1.50996 0.00603463 0 1.49835 0 1.50922)
(1.52744 0.0264336 0 1.42418 0 1.51776)
(1.54336 0.0476501 0 1.31346 0 1.51639)
(1.54779 0.0636871 0 1.21766 0 1.50489)
(1.54435 0.0764884 0 1.13842 0 1.48822)
(1.53575 0.0870721 0 1.07231 0 1.46879)
(1.52528 0.0967185 0 1.01634 0 1.44884)
(1.51444 0.105811 0 0.968701 0 1.42946)
(1.50392 0.11444 0 0.927907 0 1.41107)
(1.49414 0.122678 0 0.892736 0 1.39389)
(1.4854 0.130644 0 0.862235 0 1.37801)
(1.4782 0.138493 0 0.835425 0 1.36358)
(1.47255 0.146253 0 0.812143 0 1.3507)
(1.46942 0.154223 0 0.790755 0 1.33939)
(1.46933 0.162077 0 0.772513 0 1.33064)
(1.47302 0.170307 0 0.75403 0 1.32342)
(1.48679 0.179627 0 0.735289 0 1.32145)
(1.50256 0.185501 0 0.726183 0 1.32502)
(1.51893 0.0285679 0 1.4729 0 1.51485)
(1.56353 0.112599 0 1.26321 0 1.51874)
(1.58403 0.162492 0 1.03728 0 1.48739)
(1.57685 0.184239 0 0.886398 0 1.44363)
(1.55938 0.195898 0 0.783845 0 1.40013)
(1.53642 0.203124 0 0.710989 0 1.35839)
(1.516 0.209721 0 0.657277 0 1.32264)
(1.49843 0.216108 0 0.616346 0 1.29211)
(1.48325 0.222268 0 0.584087 0 1.26561)
(1.47037 0.228265 0 0.557992 0 1.24247)
(1.45949 0.233987 0 0.536555 0 1.22209)
(1.45108 0.23966 0 0.51857 0 1.20453)
(1.44413 0.244985 0 0.503673 0 1.18886)
(1.44011 0.250493 0 0.490486 0 1.17595)
(1.43702 0.255406 0 0.479995 0 1.16447)
(1.43725 0.260658 0 0.469623 0 1.15515)
(1.43857 0.26531 0 0.46213 0 1.14901)
(1.44275 0.269953 0 0.451425 0 1.1408)
(1.59279 0.291949 0 1.39574 0 1.52093)
(1.91611 0.578552 0 0.967947 0 1.53302)
(2.06865 0.585254 0 0.731869 0 1.48872)
(2.10215 0.552149 0 0.627367 0 1.43435)
(2.08968 0.524258 0 0.572773 0 1.38399)
(2.05977 0.503466 0 0.539116 0 1.33966)
(2.02324 0.487189 0 0.515529 0 1.301)
(1.98539 0.473814 0 0.4973 0 1.26707)
(1.94839 0.462339 0 0.482273 0 1.2369)
(1.91313 0.452212 0 0.469413 0 1.2098)
(1.8798 0.443077 0 0.45813 0 1.18516)
(1.84847 0.434777 0 0.448074 0 1.16272)
(1.81904 0.427154 0 0.439037 0 1.14198)
(1.79161 0.420219 0 0.430837 0 1.12305)
(1.76599 0.413845 0 0.423455 0 1.10554)
(1.74233 0.408135 0 0.416679 0 1.08936)
(1.72095 0.403064 0 0.410817 0 1.07517)
(1.70119 0.398574 0 0.405349 0 1.06156)
(0.0435555 0.00675498 0 0.022053 0 0.0468042)
(0.118279 0.0163267 0 0.0299322 0 0.0991626)
(0.226195 0.0232256 0 0.0620839 0 0.191429)
(0.335559 0.0333352 0 0.0939193 0 0.282127)
(0.433501 0.0452896 0 0.12506 0 0.366952)
(0.516324 0.0578918 0 0.156994 0 0.443649)
(0.586358 0.0702416 0 0.191373 0 0.513344)
(0.644995 0.0817452 0 0.228026 0 0.575646)
(0.693927 0.0920508 0 0.266725 0 0.630755)
(0.734033 0.100923 0 0.306473 0 0.678329)
(0.766461 0.108143 0 0.346788 0 0.71896)
(0.791583 0.113618 0 0.386744 0 0.752625)
(0.809724 0.117315 0 0.425535 0 0.779537)
(0.821059 0.119255 0 0.462431 0 0.799987)
(0.825467 0.119196 0 0.496674 0 0.814153)
(0.823082 0.114997 0 0.527725 0 0.822681)
(0.814466 0.10112 0 0.554492 0 0.826533)
(0.807191 0.0879017 0 0.578922 0 0.829253)
(0.799285 0.073823 0 0.600531 0 0.830188)
(0.791172 0.0590642 0 0.619781 0 0.82994)
(0.783014 0.0431362 0 0.637065 0 0.828858)
(0.775999 0.0266559 0 0.651733 0 0.827447)
(0.771804 0.0141986 0 0.660803 0 0.826153)
(0.76687 0.0015656 0 0.668725 0 0.824207)
(0.758409 -0.017981 0 0.67902 0 0.820937)
(0.754927 -0.0324801 0 0.684356 0 0.819227)
(0.74929 -0.0496174 0 0.688937 0 0.816365)
(0.746229 -0.0658655 0 0.69188 0 0.814569)
(0.743737 -0.0822271 0 0.69329 0 0.812808)
(0.742825 -0.0988074 0 0.693691 0 0.811754)
(0.743977 -0.113986 0 0.69254 0 0.811208)
(0.744991 -0.129036 0 0.690273 0 0.810434)
(0.747598 -0.141971 0 0.687776 0 0.810493)
(0.750546 -0.155675 0 0.683973 0 0.810336)
(0.755587 -0.170313 0 0.679321 0 0.810947)
(0.761406 -0.183517 0 0.674221 0 0.811782)
(0.768525 -0.196388 0 0.668492 0 0.81288)
(0.775481 -0.207205 0 0.662778 0 0.813677)
(0.783313 -0.218471 0 0.655522 0 0.813969)
(0.794255 -0.231046 0 0.640566 0 0.813623)
(0.809642 -0.240821 0 0.612497 0 0.81434)
(0.821124 -0.247386 0 0.593496 0 0.815559)
(0.829881 -0.251891 0 0.581618 0 0.817146)
(0.836761 -0.25458 0 0.572213 0 0.818152)
(0.842334 -0.256166 0 0.56375 0 0.818485)
(0.846887 -0.257164 0 0.555907 0 0.818247)
(0.850785 -0.257874 0 0.548489 0 0.817637)
(0.854292 -0.258429 0 0.541321 0 0.816786)
(0.857605 -0.258894 0 0.53432 0 0.81581)
(0.860817 -0.259286 0 0.527424 0 0.814761)
(0.86399 -0.259614 0 0.520623 0 0.813683)
(0.867142 -0.259874 0 0.513901 0 0.812586)
(0.870293 -0.260072 0 0.507274 0 0.81149)
(0.87344 -0.260204 0 0.50074 0 0.810393)
(0.876588 -0.260275 0 0.494314 0 0.809304)
(0.879728 -0.260289 0 0.487998 0 0.808215)
(0.882863 -0.260251 0 0.481806 0 0.807135)
(0.885988 -0.260162 0 0.475732 0 0.806058)
(0.889108 -0.260024 0 0.469779 0 0.804987)
(0.892194 -0.259833 0 0.463929 0 0.803903)
(0.895333 -0.259592 0 0.458181 0 0.80285)
(0.898513 -0.259295 0 0.452517 0 0.801818)
(0.901699 -0.258936 0 0.446933 0 0.800788)
(0.904868 -0.258508 0 0.441411 0 0.799742)
(0.908005 -0.258 0 0.435938 0 0.798668)
(0.911084 -0.257402 0 0.430497 0 0.797546)
(0.91409 -0.256704 0 0.42508 0 0.796364)
(0.916998 -0.255899 0 0.419671 0 0.795101)
(0.919794 -0.254977 0 0.414257 0 0.793741)
(0.922471 -0.253935 0 0.408834 0 0.792278)
(0.925043 -0.252788 0 0.403433 0 0.79073)
(0.927509 -0.251555 0 0.398069 0 0.789093)
(0.929892 -0.250235 0 0.39272 0 0.787372)
(0.932195 -0.248842 0 0.387402 0 0.785576)
(0.934401 -0.247346 0 0.382051 0 0.783647)
(0.936592 -0.245823 0 0.37679 0 0.781709)
(0.938802 -0.24432 0 0.371667 0 0.779746)
(0.941143 -0.242805 0 0.366597 0 0.777856)
(0.943701 -0.241258 0 0.361506 0 0.775993)
(0.946513 -0.239896 0 0.356786 0 0.774483)
(0.949248 -0.238408 0 0.35185 0 0.772576)
(0.952114 -0.237367 0 0.347784 0 0.771444)
(0.954977 -0.235919 0 0.342928 0 0.769441)
(0.957695 -0.234999 0 0.339229 0 0.768258)
(0.961256 -0.23326 0 0.333486 0 0.765774)
(0.965095 -0.232604 0 0.330326 0 0.765477)
(0.969174 -0.231569 0 0.326201 0 0.764437)
(0.973505 -0.23088 0 0.322774 0 0.76407)
(0.977778 -0.230119 0 0.319212 0 0.76341)
(0.982134 -0.229613 0 0.316184 0 0.763207)
(0.986309 -0.228908 0 0.312722 0 0.762367)
(0.990618 -0.228671 0 0.310402 0 0.762529)
(0.994472 -0.228029 0 0.306928 0 0.761321)
(0.998754 -0.228026 0 0.305086 0 0.761687)
(1.00228 -0.227825 0 0.302871 0 0.761177)
(1.0062 -0.228033 0 0.30169 0 0.761818)
(1.00884 -0.22782 0 0.299465 0 0.760613)
(1.01184 -0.228026 0 0.298374 0 0.760633)
(1.01539 -0.228433 0 0.297785 0 0.761352)
(1.01721 -0.228546 0 0.296535 0 0.760461)
(1.0199 -0.228929 0 0.295989 0 0.760754)
(1.02337 -0.229463 0 0.295682 0 0.761498)
(1.02542 -0.229689 0 0.29499 0 0.761232)
(1.02874 -0.230129 0 0.294685 0 0.761954)
(1.03091 -0.230272 0 0.293985 0 0.761754)
(1.03416 -0.230566 0 0.293602 0 0.762424)
(1.03611 -0.230607 0 0.292901 0 0.762121)
(1.03867 -0.230808 0 0.292578 0 0.762505)
(1.0381 -0.230439 0 0.291608 0 0.760823)
(1.03898 -0.230415 0 0.291094 0 0.760255)
(1.03653 -0.229797 0 0.289803 0 0.757351)
(1.03366 -0.22914 0 0.28848 0 0.754226)
(1.03044 -0.228456 0 0.287145 0 0.750945)
(1.02694 -0.227758 0 0.285814 0 0.747559)
(1.02298 -0.227001 0 0.28441 0 0.743887)
(1.01859 -0.22619 0 0.282938 0 0.739944)
(1.01388 -0.225354 0 0.281426 0 0.735806)
(1.00907 -0.224524 0 0.279908 0 0.73163)
(1.00423 -0.223696 0 0.278366 0 0.727444)
(0.999505 -0.222879 0 0.276804 0 0.723317)
(0.995031 -0.222085 0 0.275242 0 0.719345)
(0.990809 -0.221301 0 0.273658 0 0.7155)
(0.986842 -0.220516 0 0.272045 0 0.711775)
(0.983135 -0.219731 0 0.27041 0 0.708173)
(0.979643 -0.218936 0 0.268743 0 0.704652)
(0.976356 -0.218136 0 0.267059 0 0.701215)
(0.97323 -0.217336 0 0.26537 0 0.697852)
(0.970195 -0.216537 0 0.263684 0 0.694531)
(0.967239 -0.215753 0 0.262023 0 0.691272)
(0.964295 -0.214982 0 0.260387 0 0.688037)
(0.961348 -0.21423 0 0.258787 0 0.684833)
(0.958286 -0.213481 0 0.257196 0 0.681572)
(0.954995 -0.21271 0 0.255578 0 0.678153)
(0.951584 -0.211937 0 0.253963 0 0.674661)
(0.948049 -0.211158 0 0.252341 0 0.671083)
(0.944468 -0.210387 0 0.250744 0 0.667491)
(0.940974 -0.209651 0 0.249221 0 0.664006)
(0.937691 -0.208976 0 0.24781 0 0.660735)
(0.934588 -0.208356 0 0.246496 0 0.657648)
(0.931553 -0.207763 0 0.245238 0 0.654641)
(0.928595 -0.207198 0 0.24403 0 0.651718)
(0.925734 -0.206661 0 0.24287 0 0.648886)
(0.922959 -0.206151 0 0.241752 0 0.646135)
(0.92027 -0.205667 0 0.240682 0 0.643472)
(0.917652 -0.205209 0 0.239664 0 0.640899)
(0.91508 -0.204771 0 0.238696 0 0.638402)
(0.912555 -0.204352 0 0.237773 0 0.635982)
(0.910089 -0.203948 0 0.236892 0 0.633647)
(0.907695 -0.203559 0 0.236053 0 0.631404)
(0.905353 -0.203175 0 0.235244 0 0.629229)
(0.903042 -0.202789 0 0.234455 0 0.627095)
(0.900762 -0.202404 0 0.233676 0 0.624986)
(0.898639 -0.20204 0 0.232941 0 0.623023)
(0.896611 -0.201679 0 0.232237 0 0.621151)
(0.894584 -0.201289 0 0.231537 0 0.619303)
(0.892498 -0.20086 0 0.230825 0 0.617442)
(0.890298 -0.200384 0 0.23009 0 0.615538)
(0.887946 -0.199855 0 0.22933 0 0.613572)
(0.885423 -0.199275 0 0.228547 0 0.611542)
(0.882729 -0.198646 0 0.227746 0 0.609454)
(0.879852 -0.197974 0 0.226928 0 0.607302)
(0.876775 -0.197256 0 0.226087 0 0.605069)
(0.873488 -0.196493 0 0.225216 0 0.602739)
(0.870009 -0.195683 0 0.224312 0 0.600317)
(0.866388 -0.194832 0 0.223378 0 0.597831)
(0.862679 -0.193943 0 0.22242 0 0.595317)
(0.85896 -0.193024 0 0.221451 0 0.592824)
(0.855264 -0.192078 0 0.220472 0 0.590377)
(0.851646 -0.191108 0 0.219493 0 0.588011)
(0.84808 -0.190109 0 0.218507 0 0.585715)
(0.844618 -0.189084 0 0.217523 0 0.583514)
(0.841117 -0.188017 0 0.216516 0 0.581338)
(0.837709 -0.186902 0 0.215499 0 0.579235)
(0.833938 -0.185703 0 0.214409 0 0.576972)
(0.830195 -0.184324 0 0.2132 0 0.574646)
(0.82501 -0.18279 0 0.211755 0 0.571454)