/*--------------------------------*- C++ -*----------------------------------*\
| =========                 |                                                 |
| \\      /  F ield         | OpenFOAM: The Open Source CFD Toolbox           |
|  \\    /   O peration     | Version:  v1906                                 |
|   \\  /    A nd           | Web:      www.OpenFOAM.com                      |
|    \\/     M anipulation  |                                                 |
\*---------------------------------------------------------------------------*/
FoamFile
{
    version     2.0;
    format      ascii;
    class       volVectorField;
    location    "100";
    object      U;
}
// * * * * * * * * * * * * * * * * * * * * * * * * * * * * * * * * * * * * * //

dimensions      [0 1 -1 0 0 0 0];


internalField   nonuniform List<vector> 
12225
(
(9.79803 -0.109229 0)
(9.51191 -0.357945 0)
(9.27777 -0.490433 0)
(9.09135 -0.544412 0)
(8.94414 -0.564787 0)
(8.82298 -0.572605 0)
(8.72146 -0.575467 0)
(8.63828 -0.576443 0)
(8.57268 -0.576422 0)
(8.52453 -0.576471 0)
(8.49366 -0.576536 0)
(8.48089 -0.577286 0)
(8.48349 -0.576743 0)
(8.50071 -0.574521 0)
(8.53651 -0.570979 0)
(8.60005 -0.566434 0)
(8.70969 -0.565321 0)
(8.91177 -0.580453 0)
(10.0491 0.150017 0)
(10.0911 0.25871 0)
(10.0696 0.317772 0)
(10.0296 0.361467 0)
(9.99092 0.390723 0)
(9.95381 0.409012 0)
(9.91839 0.420559 0)
(9.88619 0.427825 0)
(9.85809 0.432153 0)
(9.83386 0.43405 0)
(9.81435 0.434368 0)
(9.79923 0.433285 0)
(9.79384 0.430244 0)
(9.80172 0.422208 0)
(9.82639 0.407449 0)
(9.87608 0.38153 0)
(9.95623 0.332123 0)
(10.0866 0.223875 0)
(10.0164 0.00698869 0)
(10.0511 -0.0133005 0)
(10.0462 -0.0576102 0)
(10.0285 -0.100122 0)
(10.0146 -0.13726 0)
(10.0046 -0.168842 0)
(9.99764 -0.19509 0)
(9.99428 -0.217149 0)
(9.99506 -0.236671 0)
(9.99977 -0.254849 0)
(10.0091 -0.272278 0)
(10.0236 -0.289925 0)
(10.045 -0.307708 0)
(10.0759 -0.326127 0)
(10.1183 -0.347311 0)
(10.1772 -0.376078 0)
(10.2537 -0.423728 0)
(10.3442 -0.516483 0)
(10.0104 0.0580195 0)
(10.0426 0.0963614 0)
(10.0591 0.112535 0)
(10.0661 0.130155 0)
(10.0728 0.147395 0)
(10.0795 0.16204 0)
(10.0866 0.173945 0)
(10.0951 0.183318 0)
(10.106 0.190329 0)
(10.1196 0.195199 0)
(10.1369 0.197614 0)
(10.1589 0.196713 0)
(10.186 0.190864 0)
(10.2202 0.178766 0)
(10.2622 0.156738 0)
(10.3148 0.119009 0)
(10.3771 0.0552051 0)
(10.444 -0.0501062 0)
(10.0096 0.0177571 0)
(10.0432 0.023513 0)
(10.0633 0.013201 0)
(10.0738 -0.00124455 0)
(10.0831 -0.0182923 0)
(10.0926 -0.0371772 0)
(10.1028 -0.0565132 0)
(10.1146 -0.0757141 0)
(10.1289 -0.0949504 0)
(10.1459 -0.114852 0)
(10.1662 -0.135672 0)
(10.1909 -0.157187 0)
(10.2201 -0.180836 0)
(10.2555 -0.207887 0)
(10.2978 -0.241199 0)
(10.3467 -0.285261 0)
(10.4005 -0.346575 0)
(10.4455 -0.435961 0)
(10.0053 0.0325887 0)
(10.029 0.0595521 0)
(10.0485 0.0683509 0)
(10.0633 0.0735474 0)
(10.0782 0.0777428 0)
(10.0933 0.0810334 0)
(10.1089 0.0836034 0)
(10.1256 0.0851865 0)
(10.1443 0.0855029 0)
(10.1652 0.0840987 0)
(10.1882 0.0798499 0)
(10.2141 0.072102 0)
(10.2429 0.0591403 0)
(10.2748 0.0393431 0)
(10.31 0.00980183 0)
(10.3473 -0.0337477 0)
(10.3833 -0.0962937 0)
(10.4117 -0.183439 0)
(10.0049 0.0136013 0)
(10.0269 0.022313 0)
(10.0467 0.019981 0)
(10.0617 0.0135584 0)
(10.0753 0.00424738 0)
(10.0883 -0.00759563 0)
(10.1012 -0.0212394 0)
(10.1145 -0.0363756 0)
(10.1291 -0.0530355 0)
(10.1456 -0.0709971 0)
(10.1642 -0.0908524 0)
(10.1855 -0.112891 0)
(10.2096 -0.138178 0)
(10.2364 -0.168161 0)
(10.2653 -0.204988 0)
(10.2941 -0.251555 0)
(10.3192 -0.310421 0)
(10.3316 -0.385188 0)
(10.0037 0.0190024 0)
(10.0213 0.0394681 0)
(10.039 0.0470889 0)
(10.0537 0.0494858 0)
(10.0675 0.0492929 0)
(10.081 0.0474453 0)
(10.0944 0.0445027 0)
(10.1085 0.0404813 0)
(10.1233 0.0348368 0)
(10.1393 0.0271704 0)
(10.1566 0.0166872 0)
(10.1753 0.00262158 0)
(10.1953 -0.0161911 0)
(10.2165 -0.0411039 0)
(10.2378 -0.073919 0)
(10.2574 -0.116746 0)
(10.2718 -0.17115 0)
(10.2771 -0.237421 0)
(10.0017 0.00770455 0)
(10.0123 0.0147066 0)
(10.0246 0.0149141 0)
(10.0357 0.0115389 0)
(10.0472 0.00528916 0)
(10.0594 -0.00354691 0)
(10.0724 -0.0145096 0)
(10.0865 -0.0273335 0)
(10.102 -0.0420435 0)
(10.1188 -0.0586593 0)
(10.1371 -0.0776101 0)
(10.1566 -0.0993878 0)
(10.1771 -0.124826 0)
(10.198 -0.15491 0)
(10.2181 -0.190795 0)
(10.2354 -0.233685 0)
(10.2469 -0.283789 0)
(10.2467 -0.341358 0)
(10.0013 0.0124436 0)
(10.0128 0.0280376 0)
(10.0282 0.0340632 0)
(10.0443 0.0345837 0)
(10.0614 0.0317547 0)
(10.0787 0.0267036 0)
(10.096 0.0200238 0)
(10.1133 0.0118066 0)
(10.1306 0.00176655 0)
(10.1479 -0.0103934 0)
(10.1654 -0.0252292 0)
(10.1831 -0.0433361 0)
(10.2006 -0.0654684 0)
(10.2174 -0.0924219 0)
(10.2326 -0.12494 0)
(10.2443 -0.163598 0)
(10.2502 -0.207752 0)
(10.2475 -0.256513 0)
(10.0015 0.00326218 0)
(10.0163 0.00641422 0)
(10.0382 0.00531209 0)
(10.0597 0.00154422 0)
(10.0794 -0.00457557 0)
(10.097 -0.0127675 0)
(10.113 -0.0227524 0)
(10.1282 -0.034457 0)
(10.1433 -0.0480524 0)
(10.1585 -0.0637597 0)
(10.174 -0.0819609 0)
(10.1895 -0.103071 0)
(10.2047 -0.127575 0)
(10.2187 -0.155927 0)
(10.2305 -0.188388 0)
(10.2383 -0.224908 0)
(10.2398 -0.264274 0)
(10.2329 -0.306637 0)
(9.99937 0.00454339 0)
(9.9967 0.0101561 0)
(9.9953 0.0119169 0)
(9.99824 0.0115144 0)
(10.0068 0.00890336 0)
(10.0195 0.00391909 0)
(10.0346 -0.00343717 0)
(10.051 -0.0131198 0)
(10.0679 -0.0251534 0)
(10.0849 -0.0395997 0)
(10.1019 -0.0566641 0)
(10.1186 -0.0765842 0)
(10.1344 -0.0996556 0)
(10.1487 -0.126047 0)
(10.1604 -0.155696 0)
(10.1681 -0.1881 0)
(10.1701 -0.222374 0)
(10.1672 -0.258024 0)
(10.0013 0.00527026 0)
(10.0076 0.0104166 0)
(10.0143 0.00796585 0)
(10.0188 0.000187955 0)
(10.0225 -0.0103279 0)
(10.0267 -0.0218238 0)
(10.0323 -0.0337823 0)
(10.0398 -0.0464354 0)
(10.049 -0.0603198 0)
(10.0597 -0.0759573 0)
(10.0714 -0.093802 0)
(10.0837 -0.114164 0)
(10.096 -0.137229 0)
(10.1072 -0.162915 0)
(10.1164 -0.190869 0)
(10.1222 -0.220451 0)
(10.1246 -0.2513 0)
(10.1225 -0.283391 0)
(10.0003 -0.000209788 0)
(10.0089 0.00123267 0)
(10.0231 0.00355638 0)
(10.0381 0.00522557 0)
(10.052 0.00396342 0)
(10.0639 -0.00114953 0)
(10.074 -0.00999871 0)
(10.083 -0.0220625 0)
(10.0914 -0.0368427 0)
(10.0996 -0.0540053 0)
(10.1079 -0.0733947 0)
(10.1163 -0.0949416 0)
(10.1245 -0.118495 0)
(10.1318 -0.143747 0)
(10.1377 -0.170253 0)
(10.1417 -0.198008 0)
(10.1444 -0.226545 0)
(10.1429 -0.254402 0)
(10 0.00103031 0)
(10.0014 -6.34308e-05 0)
(10.0051 -0.00655019 0)
(10.0115 -0.0162605 0)
(10.0206 -0.0271385 0)
(10.0318 -0.0381031 0)
(10.0444 -0.0492281 0)
(10.0577 -0.0611564 0)
(10.0712 -0.0746127 0)
(10.0847 -0.0901211 0)
(10.0978 -0.107973 0)
(10.1101 -0.128115 0)
(10.1214 -0.150253 0)
(10.1311 -0.173954 0)
(10.1394 -0.199105 0)
(10.146 -0.225595 0)
(10.1498 -0.25069 0)
(10.1475 -0.271239 0)
(10.0002 -0.00168663 0)
(10.0049 -0.00409512 0)
(10.013 -0.0052952 0)
(10.0213 -0.00674911 0)
(10.0287 -0.0106123 0)
(10.0346 -0.0179646 0)
(10.0392 -0.0288429 0)
(10.0431 -0.0427425 0)
(10.0469 -0.0590771 0)
(10.051 -0.0773659 0)
(10.0554 -0.0972415 0)
(10.0602 -0.118333 0)
(10.0652 -0.140408 0)
(10.0702 -0.163468 0)
(10.0752 -0.187412 0)
(10.079 -0.210186 0)
(10.0805 -0.228161 0)
(10.0798 -0.243889 0)
(10.0001 -0.00270075 0)
(10.0017 -0.00994299 0)
(10.0053 -0.0200745 0)
(10.0111 -0.0312515 0)
(10.0193 -0.0418417 0)
(10.0294 -0.0516134 0)
(10.0407 -0.0614876 0)
(10.0524 -0.0727223 0)
(10.0636 -0.0862683 0)
(10.0738 -0.102551 0)
(10.0825 -0.121471 0)
(10.0894 -0.142637 0)
(10.0946 -0.165653 0)
(10.0981 -0.190049 0)
(10.1002 -0.214394 0)
(10.1 -0.236277 0)
(10.0987 -0.256259 0)
(10.0975 -0.280646 0)
(10.0001 -0.00350723 0)
(10.0022 -0.00942396 0)
(10.0058 -0.014314 0)
(10.0096 -0.0199224 0)
(10.0132 -0.0281145 0)
(10.0168 -0.0394368 0)
(10.0206 -0.0532286 0)
(10.0249 -0.0684145 0)
(10.0297 -0.0841254 0)
(10.035 -0.0999318 0)
(10.0409 -0.115744 0)
(10.0472 -0.13172 0)
(10.054 -0.148203 0)
(10.0612 -0.165366 0)
(10.0693 -0.182551 0)
(10.0779 -0.198525 0)
(10.0886 -0.214678 0)
(10.0979 -0.23381 0)
(10.0002 -0.00593719 0)
(10.0022 -0.018762 0)
(10.0059 -0.0323743 0)
(10.0114 -0.0455248 0)
(10.0178 -0.0574096 0)
(10.024 -0.0684603 0)
(10.0289 -0.0799793 0)
(10.0315 -0.0933848 0)
(10.0318 -0.109696 0)
(10.03 -0.129372 0)
(10.0266 -0.152327 0)
(10.0224 -0.178104 0)
(10.0182 -0.206224 0)
(10.0144 -0.236415 0)
(10.0119 -0.267963 0)
(10.011 -0.298528 0)
(10.0136 -0.325729 0)
(10.0172 -0.35339 0)
(9.99992 -0.00556549 0)
(10.0005 -0.0157957 0)
(10.0018 -0.025543 0)
(10.0029 -0.0353527 0)
(10.0043 -0.044907 0)
(10.0064 -0.0536535 0)
(10.0094 -0.0614182 0)
(10.0128 -0.0685743 0)
(10.0157 -0.0759178 0)
(10.017 -0.0844324 0)
(10.0159 -0.0950594 0)
(10.012 -0.108498 0)
(10.0051 -0.125136 0)
(9.99541 -0.145204 0)
(9.98347 -0.168819 0)
(9.96967 -0.195676 0)
(9.95604 -0.224002 0)
(9.94335 -0.251224 0)
(10.0005 -0.00808971 0)
(10.0042 -0.0234569 0)
(10.0089 -0.0374685 0)
(10.0127 -0.0510849 0)
(10.0151 -0.0648642 0)
(10.0163 -0.0788015 0)
(10.0167 -0.092624 0)
(10.0168 -0.106102 0)
(10.0169 -0.119277 0)
(10.0167 -0.132459 0)
(10.0159 -0.146174 0)
(10.0137 -0.161094 0)
(10.0096 -0.177928 0)
(10.0031 -0.197319 0)
(9.99386 -0.219716 0)
(9.98211 -0.245397 0)
(9.96748 -0.274281 0)
(9.95274 -0.30376 0)
(9.99982 -0.00761833 0)
(10.0017 -0.0202072 0)
(10.0055 -0.0295083 0)
(10.0086 -0.036813 0)
(10.0101 -0.0430619 0)
(10.0093 -0.0488383 0)
(10.006 -0.0545614 0)
(10.0008 -0.0604186 0)
(9.99418 -0.066416 0)
(9.9866 -0.0725707 0)
(9.97836 -0.0791235 0)
(9.96946 -0.0864951 0)
(9.95962 -0.0951241 0)
(9.94857 -0.105564 0)
(9.93605 -0.118384 0)
(9.92206 -0.134064 0)
(9.90666 -0.153089 0)
(9.89014 -0.172188 0)
(10.0011 -0.012159 0)
(10.0074 -0.0332171 0)
(10.0146 -0.0491728 0)
(10.0203 -0.0621439 0)
(10.0246 -0.0736467 0)
(10.0271 -0.0845638 0)
(10.0274 -0.0955541 0)
(10.0253 -0.106917 0)
(10.0208 -0.118743 0)
(10.014 -0.131151 0)
(10.0051 -0.144116 0)
(9.9941 -0.157538 0)
(9.98118 -0.171745 0)
(9.96631 -0.187381 0)
(9.94913 -0.205259 0)
(9.93024 -0.22607 0)
(9.90918 -0.250695 0)
(9.88881 -0.277618 0)
(10.0008 -0.0100553 0)
(10.007 -0.023938 0)
(10.0142 -0.0313659 0)
(10.0185 -0.0351664 0)
(10.0203 -0.0366358 0)
(10.0199 -0.0364064 0)
(10.0175 -0.0352693 0)
(10.013 -0.0338511 0)
(10.0065 -0.0325272 0)
(9.9981 -0.0315187 0)
(9.98742 -0.0310184 0)
(9.97422 -0.0314672 0)
(9.95802 -0.0330141 0)
(9.93807 -0.0357211 0)
(9.91355 -0.0404425 0)
(9.88333 -0.048366 0)
(9.84709 -0.0605305 0)
(9.80404 -0.0750267 0)
(10.0026 -0.0216695 0)
(10.0148 -0.0501876 0)
(10.0258 -0.0673655 0)
(10.0326 -0.0808673 0)
(10.0369 -0.0934946 0)
(10.039 -0.105736 0)
(10.0388 -0.11784 0)
(10.0363 -0.12976 0)
(10.032 -0.141311 0)
(10.0259 -0.152358 0)
(10.0178 -0.162669 0)
(10.0079 -0.171984 0)
(9.99598 -0.180122 0)
(9.98173 -0.187516 0)
(9.96424 -0.194293 0)
(9.94274 -0.201116 0)
(9.91462 -0.210778 0)
(9.88195 -0.226293 0)
(10.0044 -0.0129056 0)
(10.0218 -0.0244931 0)
(10.0328 -0.0238878 0)
(10.0347 -0.0180637 0)
(10.0321 -0.00936934 0)
(10.0269 0.00105246 0)
(10.0196 0.011655 0)
(10.0108 0.0214397 0)
(10.0008 0.0301105 0)
(9.98995 0.037711 0)
(9.9782 0.0442378 0)
(9.96526 0.0497365 0)
(9.95124 0.0546903 0)
(9.9361 0.059647 0)
(9.9191 0.0648615 0)
(9.89854 0.070187 0)
(9.87267 0.0754016 0)
(9.83125 0.0791686 0)
(10.0056 -0.0448982 0)
(10.0264 -0.0848635 0)
(10.039 -0.106229 0)
(10.0424 -0.127475 0)
(10.0417 -0.149188 0)
(10.038 -0.169279 0)
(10.0311 -0.187324 0)
(10.0217 -0.203296 0)
(10.0106 -0.217138 0)
(9.99814 -0.228938 0)
(9.9846 -0.238796 0)
(9.9702 -0.246705 0)
(9.95541 -0.252908 0)
(9.9399 -0.256994 0)
(9.92462 -0.258746 0)
(9.91072 -0.257239 0)
(9.89819 -0.252079 0)
(9.89329 -0.243778 0)
(10.0126 -0.00459916 0)
(10.0418 0.00549589 0)
(10.0393 0.0382582 0)
(10.0206 0.0729343 0)
(10.0003 0.104447 0)
(9.98075 0.131291 0)
(9.96092 0.152797 0)
(9.94094 0.169406 0)
(9.92104 0.182108 0)
(9.9011 0.19184 0)
(9.881 0.199267 0)
(9.86087 0.204949 0)
(9.84085 0.209496 0)
(9.82109 0.213452 0)
(9.802 0.216932 0)
(9.78306 0.220817 0)
(9.766 0.225163 0)
(9.74395 0.229942 0)
(10.0323 -0.127166 0)
(10.0679 -0.227092 0)
(10.0592 -0.282538 0)
(10.0325 -0.325872 0)
(10.0049 -0.357077 0)
(9.97767 -0.378096 0)
(9.94993 -0.392443 0)
(9.92237 -0.402352 0)
(9.89547 -0.408996 0)
(9.8691 -0.413125 0)
(9.84302 -0.415226 0)
(9.81727 -0.415607 0)
(9.79184 -0.414422 0)
(9.76699 -0.411832 0)
(9.74257 -0.407518 0)
(9.71951 -0.401885 0)
(9.69771 -0.394532 0)
(9.68658 -0.384682 0)
(9.86055 0.0764599 0)
(9.65823 0.27304 0)
(9.47734 0.391426 0)
(9.32003 0.445127 0)
(9.18528 0.466698 0)
(9.06301 0.474197 0)
(8.94735 0.475121 0)
(8.83697 0.472697 0)
(8.73159 0.468448 0)
(8.63079 0.46313 0)
(8.53438 0.457147 0)
(8.44258 0.450775 0)
(8.35575 0.444222 0)
(8.27456 0.437742 0)
(8.19994 0.431509 0)
(8.13306 0.425896 0)
(8.07531 0.420322 0)
(8.02278 0.41487 0)
(-0.127913 -0.0271457 5.88207e-20)
(-0.238958 0.209297 -1.97881e-20)
(-0.522781 0.20806 0)
(-0.783244 0.180738 0)
(-1.04195 0.13055 0)
(-1.28294 0.0744017 2.15123e-21)
(-1.50392 0.0110605 0)
(-1.69983 -0.0555277 0)
(-1.86941 -0.122863 0)
(-2.01149 -0.187743 0)
(-2.12617 -0.247917 1.79471e-21)
(-2.21419 -0.301479 0)
(-2.27713 -0.346988 0)
(-2.31671 -0.383161 0)
(-2.33395 -0.409135 0)
(-2.32938 -0.426018 1.13555e-21)
(-2.31013 -0.440235 0)
(-2.27736 -0.452707 0)
(-2.23327 -0.463443 0)
(-2.17943 -0.473613 0)
(-2.11703 -0.483644 0)
(-2.04704 -0.493573 0)
(-1.97014 -0.502519 0)
(-1.88683 -0.511264 -6.45655e-21)
(-1.7987 -0.521586 7.97698e-21)
(-1.70585 -0.531259 -9.64968e-21)
(-1.60822 -0.540967 -1.14878e-20)
(-1.50749 -0.551676 0)
(-1.40304 -0.562326 0)
(-1.2961 -0.573516 1.81969e-20)
(-1.1872 -0.58365 2.09152e-20)
(-1.07621 -0.594556 0)
(-0.964613 -0.606269 0)
(-0.851415 -0.61763 3.11148e-20)
(-0.73798 -0.630828 0)
(-0.623883 -0.644329 0)
(-0.509298 -0.658602 -4.60148e-20)
(-0.395128 -0.672666 0)
(-0.28247 -0.686483 -6.06672e-20)
(-0.171567 -0.69923 -1.40494e-19)
(-0.0635966 -0.708095 0)
(0.0418414 -0.699071 0)
(0.150457 -0.677111 0)
(0.262179 -0.654773 0)
(0.37427 -0.633526 0)
(0.48523 -0.613756 -1.25261e-19)
(0.594317 -0.595623 -1.18933e-19)
(0.701137 -0.57904 -1.13574e-19)
(0.805571 -0.563933 0)
(0.907577 -0.550102 1.04848e-19)
(1.00723 -0.537436 0)
(1.10459 -0.525754 -9.80287e-20)
(1.19977 -0.514972 -9.51269e-20)
(1.29283 -0.504967 0)
(1.38385 -0.495685 0)
(1.4729 -0.48703 0)
(1.56007 -0.47897 -8.59079e-20)
(1.64541 -0.471433 0)
(1.72899 -0.464393 0)
(1.81086 -0.457778 0)
(1.89107 -0.451558 0)
(1.96968 -0.445683 0)
(2.04672 -0.440144 0)
(2.12222 -0.434908 0)
(2.19618 -0.429968 0)
(2.26861 -0.425281 7.29169e-20)
(2.33952 -0.420831 0)
(2.40889 -0.416566 0)
(2.4767 -0.412446 -6.9949e-20)
(2.54292 -0.408426 -6.90701e-20)
(2.60754 -0.404521 0)
(2.67057 -0.400722 6.74547e-20)
(2.73202 -0.397002 -6.67142e-20)
(2.79188 -0.393348 0)
(2.85014 -0.389778 6.53633e-20)
(2.90685 -0.386426 0)
(2.96215 -0.383382 0)
(3.01605 -0.380575 -6.35817e-20)
(3.0685 -0.378072 0)
(3.11954 -0.376124 6.25396e-20)
(3.16911 -0.374465 0)
(3.21749 -0.373669 -6.15896e-20)
(3.26469 -0.373214 -6.11548e-20)
(3.31085 -0.373225 -6.07407e-20)
(3.3559 -0.373332 -1.20685e-19)
(3.40003 -0.373955 1.19914e-19)
(3.4431 -0.374921 0)
(3.4853 -0.376404 0)
(3.52661 -0.378193 0)
(3.56714 -0.380386 1.17162e-19)
(3.60689 -0.382771 1.16579e-19)
(3.64596 -0.385441 -1.16027e-19)
(3.68434 -0.388166 0)
(3.72206 -0.390845 1.1501e-19)
(3.75905 -0.393072 1.14552e-19)
(3.79521 -0.394684 1.14118e-19)
(3.83071 -0.395396 0)
(3.86543 -0.395049 0)
(3.8995 -0.393788 0)
(3.93329 -0.391687 1.1258e-19)
(3.96653 -0.388911 0)
(3.99967 -0.386066 0)
(4.03277 -0.383217 -1.11505e-19)
(4.06594 -0.380697 0)
(4.09905 -0.378439 0)
(4.13187 -0.376564 -1.10428e-19)
(4.16412 -0.374948 0)
(4.19549 -0.373667 0)
(4.22643 -0.372798 1.0969e-19)
(4.25699 -0.37215 1.09528e-19)
(4.28699 -0.37157 0)
(4.31636 -0.37099 -1.09272e-19)
(4.34503 -0.370387 0)
(4.37305 -0.369841 1.0902e-19)
(4.40043 -0.369478 0)
(4.42721 -0.369358 1.08819e-19)
(4.45342 -0.369516 1.08739e-19)
(4.47918 -0.370009 0)
(4.50457 -0.370916 0)
(4.52964 -0.372265 0)
(4.5544 -0.374047 0)
(4.57885 -0.376223 0)
(4.60298 -0.37873 0)
(4.62674 -0.381509 0)
(4.65008 -0.384514 1.07453e-19)
(4.67292 -0.387701 -1.07279e-19)
(4.69518 -0.391027 0)
(4.7168 -0.394444 0)
(4.73775 -0.397911 0)
(4.75799 -0.401383 0)
(4.77753 -0.404833 -2.13219e-19)
(4.7964 -0.408258 0)
(4.81464 -0.411668 2.12928e-19)
(4.83225 -0.415078 -2.12842e-19)
(4.8493 -0.418479 0)
(4.86576 -0.42177 0)
(4.88162 -0.42482 0)
(4.89692 -0.427618 2.1265e-19)
(4.91174 -0.430182 2.12615e-19)
(4.92611 -0.432537 0)
(4.94006 -0.434711 2.12595e-19)
(4.9536 -0.436728 2.12615e-19)
(4.96676 -0.438604 -2.1266e-19)
(4.97954 -0.440333 0)
(4.99197 -0.441911 0)
(5.00406 -0.443354 -2.12793e-19)
(5.01579 -0.444659 0)
(5.02714 -0.445822 0)
(5.0381 -0.446848 0)
(5.04867 -0.447758 0)
(5.05884 -0.448558 2.13045e-19)
(5.06861 -0.449231 2.13104e-19)
(5.07806 -0.449797 0)
(5.0871 -0.45005 2.13262e-19)
(5.09485 -0.449755 0)
(5.10112 -0.449063 0)
(5.10576 -0.448092 2.13805e-19)
(5.10867 -0.446873 0)
(5.1098 -0.445397 2.14543e-19)
(5.10918 -0.443642 0)
(5.10692 -0.441603 0)
(5.10316 -0.439292 2.16233e-19)
(5.09802 -0.436746 0)
(5.09163 -0.434008 2.17673e-19)
(5.08401 -0.431128 0)
(5.07516 -0.428152 0)
(5.06503 -0.425121 0)
(5.05349 -0.422072 -2.21087e-19)
(5.04035 -0.419023 0)
(5.02538 -0.415965 2.23154e-19)
(5.00825 -0.412852 0)
(4.98852 -0.409582 0)
(4.96558 -0.405989 0)
(4.93822 -0.401755 0)
(4.90494 -0.396376 0)
(4.86165 -0.38892 0)
(4.80479 -0.377478 0)
(4.71533 -0.360137 -4.89324e-19)
(4.59805 -0.324208 0)
(4.31089 -0.286979 0)
(-0.481053 0.52612 -5.53976e-20)
(-0.32568 0.795135 1.65677e-20)
(-0.644322 0.810577 0)
(-0.838656 0.818565 -1.95268e-21)
(-1.0513 0.787612 0)
(-1.22303 0.750679 -1.10265e-21)
(-1.36859 0.699103 -2.15424e-21)
(-1.48218 0.64518 -3.02221e-21)
(-1.56927 0.589422 0)
(-1.63358 0.534685 -4.0636e-21)
(-1.6807 0.480796 -9.98195e-22)
(-1.71501 0.428138 0)
(-1.7399 0.376096 0)
(-1.75728 0.324623 0)
(-1.76824 0.273583 0)
(-1.77522 0.223829 -5.76793e-22)
(-1.77254 0.181428 0)
(-1.76075 0.145179 1.63479e-21)
(-1.73892 0.113904 0)
(-1.7073 0.086618 0)
(-1.66646 0.0625926 7.62133e-22)
(-1.61708 0.0413274 0)
(-1.55958 0.0229246 -2.67595e-21)
(-1.49502 0.00788217 2.70762e-21)
(-1.42468 -0.00467463 -3.26273e-21)
(-1.34851 -0.0156765 3.84423e-21)
(-1.26786 -0.0246149 4.45103e-21)
(-1.18279 -0.0318115 0)
(-1.0943 -0.0374023 0)
(-1.00306 -0.0414565 -6.41459e-21)
(-0.908756 -0.044484 5.30547e-21)
(-0.812503 -0.0466773 0)
(-0.714183 -0.0481609 0)
(-0.614789 -0.0493575 -9.32881e-21)
(-0.514103 -0.0506709 0)
(-0.412739 -0.0521305 0)
(-0.310267 -0.0544928 1.1755e-20)
(-0.206131 -0.0584354 0)
(-0.100017 -0.0646011 -1.15103e-20)
(0.0091475 -0.0713324 2.84924e-20)
(0.123414 -0.0744485 0)
(0.238513 -0.0721169 0)
(0.347331 -0.0663062 5.5998e-20)
(0.449642 -0.0589444 5.67885e-20)
(0.548412 -0.0509457 5.75901e-20)
(0.644622 -0.042619 -2.7388e-20)
(0.738863 -0.0343762 3.13574e-20)
(0.831396 -0.0263081 9.15957e-20)
(0.922388 -0.0186137 -6.05875e-20)
(1.01188 -0.0112601 -3.22857e-20)
(1.09994 -0.00434979 0)
(1.18655 0.00219753 3.27721e-20)
(1.27171 0.00835175 -2.98261e-20)
(1.3554 0.0142315 0)
(1.43761 0.0198249 0)
(1.51834 0.0252202 0)
(1.59761 0.0303973 3.35901e-20)
(1.67547 0.0354147 0)
(1.75194 0.0402609 -6.48011e-20)
(1.82707 0.0449982 0)
(1.90088 0.0495975 -6.52032e-20)
(1.97339 0.0541034 0)
(2.04461 0.0585273 6.55039e-20)
(2.11456 0.06295 0)
(2.18324 0.0673753 -6.57196e-20)
(2.25067 0.0718232 3.16927e-20)
(2.31683 0.0762557 0)
(2.38167 0.0806882 6.59297e-20)
(2.44514 0.0850988 3.41282e-20)
(2.50718 0.0894688 3.41274e-20)
(2.56772 0.0937354 0)
(2.62669 0.0978856 3.1976e-20)
(2.68398 0.101946 3.41173e-20)
(2.73953 0.105897 0)
(2.79326 0.109799 -3.4127e-20)
(2.84507 0.113557 6.62904e-20)
(2.89471 0.117293 0)
(2.94208 0.121221 3.41336e-20)
(2.98713 0.125509 0)
(3.02938 0.130043 -1.00629e-19)
(3.06867 0.134748 0)
(3.10466 0.139808 1.00791e-19)
(3.137 0.1449 3.42133e-20)
(3.16551 0.150233 -3.25898e-20)
(3.19013 0.155579 -6.5353e-20)
(3.21066 0.16132 6.55465e-20)
(3.22703 0.167211 0)
(3.2391 0.173372 0)
(3.24698 0.179549 0)
(3.25076 0.185848 -2.05752e-19)
(3.25082 0.192053 -6.98977e-20)
(3.24753 0.198239 7.02738e-20)
(3.24158 0.204159 0)
(3.23376 0.209725 6.83502e-20)
(3.22514 0.21452 -7.1547e-20)
(3.21686 0.2183 -7.19791e-20)
(3.21014 0.220718 0)
(3.20611 0.221706 0)
(3.2056 0.221381 0)
(3.20907 0.220003 -7.33941e-20)
(3.21699 0.217914 0)
(3.22907 0.215511 1.45097e-19)
(3.24455 0.213197 2.19503e-19)
(3.26285 0.211363 -1.45796e-19)
(3.2832 0.210231 0)
(3.305 0.210088 -7.18634e-20)
(3.32843 0.210317 0)
(3.35327 0.210625 -1.47145e-19)
(3.37922 0.210998 7.27094e-20)
(3.40595 0.211558 7.3114e-20)
(3.43334 0.212291 0)
(3.46145 0.213104 2.26855e-19)
(3.49032 0.213938 -1.51206e-19)
(3.52002 0.214846 -7.71652e-20)
(3.55053 0.215946 0)
(3.58168 0.217288 -7.77951e-20)
(3.61322 0.21886 -2.31672e-19)
(3.64483 0.220726 0)
(3.67606 0.222988 -1.54297e-19)
(3.70644 0.225716 -1.54564e-19)
(3.73553 0.228909 -1.54808e-19)
(3.76295 0.23252 0)
(3.78833 0.236485 0)
(3.81133 0.240761 0)
(3.8317 0.245319 7.66878e-20)
(3.8493 0.250111 7.9097e-20)
(3.86414 0.25506 0)
(3.87631 0.260082 1.56664e-19)
(3.88593 0.265106 1.57111e-19)
(3.89321 0.270049 0)
(3.89836 0.27486 1.60286e-19)
(3.90159 0.279543 3.17573e-19)
(3.90303 0.284123 -1.6157e-19)
(3.90277 0.288612 -1.58217e-19)
(3.90089 0.293007 0)
(3.89757 0.297183 0)
(3.89333 0.300945 0)
(3.88825 0.304334 -1.65148e-19)
(3.88252 0.307386 1.61832e-19)
(3.87627 0.310149 3.28907e-19)
(3.8696 0.312678 -1.67073e-19)
(3.8626 0.315005 1.63927e-19)
(3.8554 0.317125 1.68547e-19)
(3.84817 0.319042 0)
(3.8411 0.320763 0)
(3.83441 0.322323 -1.66683e-19)
(3.82829 0.32373 0)
(3.82284 0.324987 0)
(3.81813 0.326085 3.39749e-19)
(3.81416 0.327014 0)
(3.81088 0.327788 1.688e-19)
(3.80823 0.328403 -1.72769e-19)
(3.80601 0.328861 0)
(3.80451 0.329273 1.69578e-19)
(3.80478 0.329629 0)
(3.80697 0.329938 0)
(3.81119 0.330172 -1.73618e-19)
(3.81748 0.330235 3.43771e-19)
(3.82579 0.32998 -1.73725e-19)
(3.83597 0.329294 0)
(3.84779 0.32813 0)
(3.86106 0.326527 1.70133e-19)
(3.87554 0.324579 0)
(3.89106 0.322409 1.69947e-19)
(3.90742 0.320131 0)
(3.92441 0.317854 0)
(3.94176 0.315668 0)
(3.95917 0.313646 1.7225e-19)
(3.97631 0.311829 0)
(3.99278 0.310225 -1.71363e-19)
(4.00824 0.308809 0)
(4.02236 0.307567 0)
(4.03504 0.306501 3.37066e-19)
(4.0463 0.305698 -3.36709e-19)
(4.05723 0.305262 0)
(4.06791 0.305647 0)
(4.08435 0.307778 0)
(4.10003 0.313344 1.02828e-18)
(4.1473 0.333451 0)
(4.177 0.356653 -7.14786e-19)
(-0.581044 1.14718 1.03212e-20)
(-0.285539 1.30396 -7.49117e-21)
(-0.644303 1.26196 0)
(-0.778641 1.19229 -4.61782e-22)
(-0.959388 1.05595 0)
(-1.07652 0.905432 0)
(-1.18508 0.735993 -1.72416e-21)
(-1.27213 0.574511 1.80894e-21)
(-1.34858 0.420688 3.40692e-21)
(-1.41135 0.287165 2.3635e-21)
(-1.46129 0.172383 0)
(-1.49599 0.0770338 0)
(-1.51546 -0.00271603 -3.11445e-21)
(-1.51899 -0.0686079 -5.76856e-21)
(-1.50733 -0.124437 5.20021e-21)
(-1.48224 -0.174 0)
(-1.44634 -0.221269 3.77724e-21)
(-1.40051 -0.265529 -9.00609e-22)
(-1.34609 -0.306369 0)
(-1.284 -0.343536 1.1355e-21)
(-1.21519 -0.377071 -4.13436e-22)
(-1.14046 -0.406902 9.06092e-22)
(-1.06063 -0.432795 1.43838e-21)
(-0.976099 -0.454925 0)
(-0.887252 -0.474081 -4.32274e-21)
(-0.794726 -0.490464 -5.54052e-21)
(-0.699122 -0.504125 0)
(-0.600782 -0.51533 -8.0764e-21)
(-0.500144 -0.524179 0)
(-0.397603 -0.530918 -1.07221e-20)
(-0.293524 -0.53562 -6.41707e-21)
(-0.18832 -0.538397 0)
(-0.0822493 -0.539519 0)
(0.0243806 -0.538942 0)
(0.131193 -0.536916 0)
(0.237547 -0.533528 0)
(0.342911 -0.528978 0)
(0.446533 -0.523492 -2.00226e-20)
(0.547258 -0.517468 3.17899e-20)
(0.64432 -0.510847 0)
(0.738787 -0.503745 0)
(0.83205 -0.496875 0)
(0.924429 -0.490193 -7.7898e-22)
(1.01586 -0.483051 -2.57393e-20)
(1.10639 -0.475469 -5.21553e-20)
(1.19596 -0.467514 5.35441e-20)
(1.28454 -0.459375 2.70727e-20)
(1.37209 -0.451171 -2.8431e-20)
(1.45855 -0.443026 7.09657e-22)
(1.54385 -0.434969 -2.8893e-20)
(1.62796 -0.427039 0)
(1.71083 -0.41922 -2.99586e-20)
(1.79244 -0.411528 6.76402e-22)
(1.87281 -0.403961 0)
(1.95199 -0.396573 0)
(2.03003 -0.389407 3.17763e-20)
(2.10701 -0.382525 0)
(2.18299 -0.375933 0)
(2.258 -0.369638 -3.22668e-20)
(2.33208 -0.363596 -6.6475e-20)
(2.4052 -0.357792 3.41785e-20)
(2.47731 -0.352209 0)
(2.54834 -0.346865 -3.47545e-20)
(2.61818 -0.341746 0)
(2.68671 -0.336821 -3.40715e-20)
(2.75377 -0.332024 -3.55178e-20)
(2.81918 -0.327295 7.03189e-20)
(2.88278 -0.322536 3.48022e-20)
(2.94442 -0.317675 0)
(3.004 -0.312695 -7.16677e-20)
(3.06143 -0.307594 0)
(3.11661 -0.302352 -1.09362e-19)
(3.16947 -0.296915 -7.29584e-20)
(3.21994 -0.291375 -7.33897e-20)
(3.26802 -0.285698 7.38192e-20)
(3.31374 -0.279933 -1.11923e-19)
(3.35708 -0.274159 0)
(3.39824 -0.268422 0)
(3.43749 -0.262575 7.552e-20)
(3.47516 -0.256549 1.1446e-19)
(3.51155 -0.250485 0)
(3.54688 -0.244377 -3.89189e-20)
(3.5814 -0.238366 0)
(3.61524 -0.232431 1.16896e-19)
(3.64858 -0.226618 1.05609e-21)
(3.68161 -0.220981 -1.05315e-21)
(3.71461 -0.21563 -7.87759e-20)
(3.74785 -0.210701 0)
(3.78163 -0.206331 7.95751e-20)
(3.81624 -0.20269 1.04436e-21)
(3.852 -0.199969 0)
(3.88912 -0.198352 0)
(3.92781 -0.197945 0)
(3.96815 -0.198754 -8.25037e-20)
(4.01013 -0.200687 0)
(4.05356 -0.203584 0)
(4.09809 -0.207236 0)
(4.14328 -0.211366 0)
(4.1886 -0.215687 0)
(4.23356 -0.219939 -8.31576e-20)
(4.27772 -0.22384 0)
(4.32072 -0.22711 -8.46058e-20)
(4.36231 -0.229638 -8.48299e-20)
(4.40223 -0.23137 8.5034e-20)
(4.44037 -0.232422 0)
(4.47722 -0.233141 8.53749e-20)
(4.51322 -0.233809 0)
(4.54812 -0.234263 8.61304e-20)
(4.58166 -0.234262 -8.67021e-20)
(4.614 -0.23394 -2.59958e-19)
(4.64532 -0.233505 0)
(4.67583 -0.233115 -2.64145e-19)
(4.70572 -0.232887 -8.74702e-20)
(4.73509 -0.232888 0)
(4.76405 -0.233093 -1.79881e-19)
(4.79274 -0.233418 -1.81053e-19)
(4.82127 -0.233773 2.73767e-19)
(4.84967 -0.234091 0)
(4.87799 -0.234304 9.26686e-20)
(4.90635 -0.234404 9.30478e-20)
(4.9348 -0.234406 2.78283e-19)
(4.96336 -0.234278 0)
(4.99201 -0.233962 0)
(5.02068 -0.233468 0)
(5.0493 -0.232897 9.24763e-20)
(5.07775 -0.232368 0)
(5.10595 -0.231958 0)
(5.13385 -0.231709 -9.50377e-20)
(5.16145 -0.231643 -9.52666e-20)
(5.18877 -0.231772 0)
(5.21586 -0.232106 0)
(5.24278 -0.232626 -1.92096e-19)
(5.26963 -0.233283 0)
(5.29649 -0.234057 1.93461e-19)
(5.32345 -0.234994 1.92174e-19)
(5.35049 -0.236095 0)
(5.37726 -0.237216 0)
(5.40368 -0.238306 -1.93124e-19)
(5.42957 -0.239351 -1.89979e-21)
(5.45478 -0.240326 -1.89303e-21)
(5.47923 -0.241215 0)
(5.50287 -0.242042 -3.91326e-19)
(5.52573 -0.242864 0)
(5.54789 -0.243747 0)
(5.56944 -0.244738 0)
(5.59039 -0.245817 1.97646e-19)
(5.61071 -0.246913 0)
(5.63036 -0.247935 -3.91655e-19)
(5.64927 -0.248793 -1.97674e-19)
(5.66739 -0.249429 0)
(5.68469 -0.24984 -1.97627e-19)
(5.70121 -0.250018 0)
(5.71679 -0.249975 0)
(5.73116 -0.249905 -5.8846e-19)
(5.74421 -0.249935 3.90936e-19)
(5.75589 -0.250032 0)
(5.76604 -0.250064 3.90769e-19)
(5.77444 -0.249823 -1.97198e-19)
(5.78086 -0.249093 0)
(5.78514 -0.247761 0)
(5.78721 -0.245839 0)
(5.78711 -0.243442 -5.89386e-19)
(5.7849 -0.240712 0)
(5.78067 -0.237766 -1.97977e-19)
(5.77452 -0.234672 0)
(5.76651 -0.23145 0)
(5.75665 -0.228083 0)
(5.74493 -0.224525 0)
(5.73124 -0.220694 0)
(5.71543 -0.216476 0)
(5.69732 -0.211758 -3.90309e-19)
(5.67665 -0.206427 0)
(5.65311 -0.200404 -1.96576e-19)
(5.62604 -0.193461 5.8647e-19)
(5.59475 -0.185172 0)
(5.55698 -0.17468 0)
(5.51164 -0.159532 -3.96235e-19)
(5.44987 -0.137789 -4.05279e-19)
(5.37675 -0.0938329 4.09868e-19)
(5.2581 -0.0245804 4.32535e-19)
(-0.552248 1.69732 8.486e-21)
(-0.137097 1.69841 -9.15018e-21)
(-0.482175 1.61516 -7.29511e-21)
(-0.518313 1.4924 -6.35515e-21)
(-0.656965 1.30902 0)
(-0.717307 1.14778 7.45019e-21)
(-0.802318 0.991427 -5.05284e-21)
(-0.858692 0.862909 0)
(-0.911145 0.738305 -2.47258e-21)
(-0.943845 0.62337 0)
(-0.963464 0.505614 6.51541e-21)
(-0.964888 0.391183 0)
(-0.953153 0.277539 2.16935e-21)
(-0.926944 0.169086 3.97927e-21)
(-0.88968 0.0674037 -3.53879e-21)
(-0.841213 -0.0228651 0)
(-0.784132 -0.101937 -2.51455e-21)
(-0.71953 -0.17094 0)
(-0.648921 -0.231369 0)
(-0.572979 -0.284401 -7.36786e-22)
(-0.492569 -0.330991 0)
(-0.408214 -0.371748 -6.24985e-22)
(-0.32043 -0.407094 0)
(-0.229484 -0.437471 0)
(-0.135763 -0.463398 5.50337e-22)
(-0.0397376 -0.48524 3.49699e-21)
(0.0581502 -0.503265 3.73028e-21)
(0.157459 -0.517807 4.98447e-21)
(0.257767 -0.529139 0)
(0.358725 -0.537514 1.24217e-20)
(0.45998 -0.543266 0)
(0.561251 -0.546708 7.41658e-21)
(0.662268 -0.548029 0)
(0.762737 -0.547315 0)
(0.862438 -0.544786 -9.46448e-21)
(0.961179 -0.540681 0)
(1.05886 -0.535257 1.07459e-20)
(1.15535 -0.528696 4.37171e-22)
(1.25042 -0.521076 -2.43656e-20)
(1.34386 -0.512199 2.51032e-20)
(1.43557 -0.501904 0)
(1.52543 -0.490407 0)
(1.61336 -0.478081 1.38001e-20)
(1.69942 -0.465201 0)
(1.78373 -0.45201 1.56607e-20)
(1.86645 -0.438682 -1.61505e-20)
(1.94766 -0.425365 -1.66227e-20)
(2.02745 -0.412147 0)
(2.10584 -0.399097 1.75137e-20)
(2.18288 -0.386259 1.79329e-20)
(2.25858 -0.373692 -3.58668e-20)
(2.33299 -0.36145 1.87226e-20)
(2.40613 -0.349581 1.90943e-20)
(2.47808 -0.338108 0)
(2.54892 -0.327061 0)
(2.61869 -0.316436 -2.01256e-20)
(2.6874 -0.306212 0)
(2.75496 -0.296329 0)
(2.82125 -0.286704 4.20966e-20)
(2.88607 -0.277239 4.26718e-20)
(2.94923 -0.267844 0)
(3.01051 -0.258408 0)
(3.0697 -0.248817 0)
(3.12654 -0.238965 0)
(3.18074 -0.228783 4.53332e-20)
(3.23206 -0.218233 -4.51003e-20)
(3.28029 -0.207352 -4.63387e-20)
(3.32529 -0.196193 -9.29456e-20)
(3.36702 -0.184857 0)
(3.40552 -0.173413 7.19406e-22)
(3.44088 -0.161943 0)
(3.47322 -0.150512 4.88423e-20)
(3.50277 -0.139167 7.02387e-22)
(3.52975 -0.127909 4.98725e-20)
(3.55439 -0.116837 -5.0392e-20)
(3.57688 -0.105952 6.85382e-22)
(3.59747 -0.0954165 0)
(3.61639 -0.085294 -5.12973e-20)
(3.63393 -0.07564 -5.25023e-20)
(3.65041 -0.0664242 -1.05411e-19)
(3.66613 -0.0576012 0)
(3.68136 -0.0490956 5.34588e-20)
(3.69633 -0.0408984 0)
(3.71127 -0.0329645 -1.09751e-19)
(3.72638 -0.0253131 5.57462e-20)
(3.74183 -0.0179567 -5.62949e-20)