# vtk DataFile Version 2.0
track0
ASCII
DATASET POLYDATA
POINTS 10900 double
-0.0205 0.001 1e-05
-0.0202034 0.00100003 1e-05
-0.0199069 0.00100026 1e-05
-0.0196103 0.00100071 1e-05
-0.0193137 0.00100137 1e-05
-0.0190172 0.00100225 1e-05
-0.0187132 0.00100354 1e-05
-0.0184093 0.0010045 1e-05
-0.0181054 0.00100547 1e-05
-0.0178015 0.00100644 1e-05
-0.0174976 0.0010074 1e-05
-0.0172058 0.00100862 1e-05
-0.016914 0.00100939 1e-05
-0.0166222 0.0010101 1e-05
-0.0163305 0.00101075 1e-05
-0.0160387 0.00101135 1e-05
-0.0157586 0.00101219 1e-05
-0.0154784 0.0010126 1e-05
-0.0151983 0.00101296 1e-05
-0.0149182 0.00101328 1e-05
-0.0146381 0.00101355 1e-05
-0.0143692 0.0010141 1e-05
-0.0141002 0.00101424 1e-05
-0.0138313 0.00101435 1e-05
-0.0135624 0.00101442 1e-05
-0.0132934 0.00101445 1e-05
-0.0130353 0.0010148 1e-05
-0.0127771 0.00101474 1e-05
-0.0125189 0.00101465 1e-05
-0.0122607 0.00101454 1e-05
-0.0120025 0.0010144 1e-05
-0.0117547 0.0010146 1e-05
-0.0115068 0.00101439 1e-05
-0.0112589 0.00101416 1e-05
-0.0110111 0.00101391 1e-05
-0.0107632 0.00101363 1e-05
-0.0105252 0.00101375 1e-05
-0.0102873 0.00101342 1e-05
-0.0100493 0.00101308 1e-05
-0.00981133 0.00101271 1e-05
-0.00957337 0.00101232 1e-05
-0.00934491 0.00101239 1e-05
-0.00911645 0.00101197 1e-05
-0.008888 0.00101153 1e-05
-0.00865954 0.00101107 1e-05
-0.00843108 0.00101059 1e-05
-0.00821175 0.00101063 1e-05
-0.00799242 0.00101012 1e-05
-0.00777309 0.00100959 1e-05
-0.00755376 0.00100905 1e-05
-0.00733443 0.00100848 1e-05
-0.00712387 0.0010085 1e-05
-0.0069133 0.00100791 1e-05
-0.00670273 0.0010073 1e-05
-0.00649217 0.00100668 1e-05
-0.0062816 0.00100603 1e-05
-0.00607944 0.00100603 1e-05
-0.00587729 0.00100537 1e-05
-0.00567514 0.00100469 1e-05
-0.00547299 0.00100398 1e-05
-0.00527083 0.00100325 1e-05
-0.00507675 0.00100325 1e-05
-0.00488268 0.00100251 1e-05
-0.0046886 0.00100175 1e-05
-0.00449453 0.00100096 1e-05
-0.00430044 0.00100016 1e-05
-0.00411412 0.00100014 1e-05
-0.0039278 0.000999325 1e-05
-0.00374148 0.000998481 1e-05
-0.00355516 0.000997611 1e-05
-0.00336883 0.000996714 1e-05
-0.00318995 0.000996692 1e-05
-0.00301107 0.000995785 1e-05
-0.0028322 0.000994849 1e-05
-0.00265332 0.000993882 1e-05
-0.00247443 0.000992884 1e-05
-0.0023027 0.000992841 1e-05
-0.00213097 0.000991828 1e-05
-0.00195924 0.00099078 1e-05
-0.00178751 0.000989697 1e-05
-0.00161577 0.000988577 1e-05
-0.0014509 0.000988498 1e-05
-0.00128603 0.000987357 1e-05
-0.00112117 0.000986167 1e-05
-0.000956302 0.000984928 1e-05
-0.000791418 0.000983638 1e-05
-0.000633135 0.000983473 1e-05
-0.000474857 0.000982123 1e-05
-0.000316579 0.000980718 1e-05
-0.000158302 0.000979256 1e-05
0 0.000977735 1e-05
0.000105677 0.000977548 1e-05
0.00021135 0.000976467 1e-05
0.000317021 0.00097535 1e-05
0.000422693 0.000974198 1e-05
0.000528387 0.000973008 1e-05
0.000634886 0.000972813 1e-05
0.000741379 0.000971593 1e-05
0.000847871 0.000970347 1e-05
0.000954362 0.000969074 1e-05
0.00106088 0.000967774 1e-05
0.00116821 0.000967611 1e-05
0.00127553 0.000966315 1e-05
0.00138285 0.000964996 1e-05
0.00149017 0.000963654 1e-05
0.00159752 0.000962378 1e-05
0.00170568 0.000962249 1e-05
0.00181383 0.000961057 1e-05
0.00192199 0.000959707 1e-05
0.00203014 0.000958336 1e-05
0.00213833 0.00095718 1e-05
0.00224733 0.000957085 1e-05
0.00235633 0.000956021 1e-05
0.00246532 0.000954673 1e-05
0.00257431 0.000953303 1e-05
0.00268334 0.000952264 1e-05
0.00279319 0.000952194 1e-05
0.00290303 0.000951243 1e-05
0.00301288 0.000949907 1e-05
0.00312272 0.000948548 1e-05
0.00323259 0.000947608 1e-05
0.00334329 0.000947546 1e-05
0.00345399 0.000946685 1e-05
0.00356469 0.000945364 1e-05
0.00367538 0.00094402 1e-05
0.00378611 0.000943159 1e-05
0.00389767 0.000943091 1e-05
0.00400923 0.000942299 1e-05
0.00412079 0.000940993 1e-05
0.00423235 0.000939662 1e-05
0.00434393 0.00093886 1e-05
0.00445636 0.000938775 1e-05
0.00456879 0.00093803 1e-05
0.00468122 0.000936734 1e-05
0.00479364 0.000935413 1e-05
0.00490609 0.00093465 1e-05
0.0050194 0.000934535 1e-05
0.0051327 0.00093382 1e-05
0.005246 0.000932526 1e-05
0.0053593 0.000931206 1e-05
0.00547262 0.000930466 1e-05
0.00558681 0.000930311 1e-05
0.00570099 0.000929608 1e-05
0.00581517 0.000928362 1e-05
0.00592935 0.000927105 1e-05
0.00604356 0.000926372 1e-05
0.00615863 0.000926168 1e-05
0.0062737 0.000925465 1e-05
0.00638877 0.000924265 1e-05
0.00650384 0.000923052 1e-05
0.00661893 0.000922314 1e-05
0.0067349 0.000922054 1e-05
0.00685087 0.000921338 1e-05
0.00696683 0.000920168 1e-05
0.0070828 0.000918984 1e-05
0.00719878 0.00091823 1e-05
0.00731565 0.000917909 1e-05
0.00743252 0.00091717 1e-05
0.00754939 0.000916017 1e-05
0.00766625 0.000914848 1e-05
0.00778313 0.000914069 1e-05
0.00790091 0.000913681 1e-05
0.00801869 0.000912911 1e-05
0.00813647 0.000911762 1e-05
0.00825424 0.000910597 1e-05
0.00837203 0.000909784 1e-05
0.00849073 0.000909325 1e-05
0.00860942 0.000908517 1e-05
0.00872811 0.000907362 1e-05
0.0088468 0.00090619 1e-05
0.00896551 0.000905336 1e-05
0.00908513 0.000904804 1e-05
0.00920475 0.00090395 1e-05
0.00932436 0.000902779 1e-05
0.00944397 0.00090159 1e-05
0.0095636 0.000900691 1e-05
0.00968415 0.00090008 1e-05
0.0098047 0.000899175 1e-05
0.00992524 0.00089798 1e-05
0.0100458 0.00089677 1e-05
0.0101663 0.000895818 1e-05
0.0102878 0.000895126 1e-05
0.0104093 0.000894165 1e-05
0.0105308 0.000892965 1e-05
0.0106523 0.000891755 1e-05
0.0107738 0.000890746 1e-05
0.0108962 0.00088997 1e-05
0.0110186 0.000888948 1e-05
0.0111411 0.000887737 1e-05
0.0112635 0.000886515 1e-05
0.0113859 0.000885444 1e-05
0.0115093 0.000884582 1e-05
0.0116327 0.000883494 1e-05
0.0117561 0.000882261 1e-05
0.0118794 0.000881016 1e-05
0.0120028 0.000879879 1e-05
0.0121272 0.000878929 1e-05
0.0122515 0.000877772 1e-05
0.0123759 0.000876506 1e-05
0.0125002 0.000875229 1e-05
0.0126245 0.000874022 1e-05
0.0127498 0.000872982 1e-05
0.0128752 0.000871752 1e-05
0.0130005 0.000870446 1e-05
0.0131258 0.000869128 1e-05
0.0132511 0.000867848 1e-05
0.0133774 0.000866716 1e-05
0.0135036 0.000865411 1e-05
0.0136299 0.000864057 1e-05
0.0137562 0.000862691 1e-05
0.0138825 0.000861334 1e-05
0.0140098 0.000860111 1e-05
0.014137 0.000858727 1e-05
0.0142643 0.000857319 1e-05
0.0143915 0.000855898 1e-05
0.0145188 0.000854465 1e-05
0.0146471 0.000853148 1e-05
0.0147753 0.000851693 1e-05
0.0149036 0.000850226 1e-05
0.0150318 0.000848745 1e-05
0.0151601 0.000847253 1e-05
0.0152893 0.000845843 1e-05
0.0154186 0.000844325 1e-05
0.0155478 0.000842794 1e-05
0.0156771 0.000841251 1e-05
0.0158063 0.000839695 1e-05
0.0159366 0.000838193 1e-05
0.0160668 0.000836609 1e-05
0.0161971 0.000835012 1e-05
0.0163273 0.000833402 1e-05
0.0164576 0.000831781 1e-05
0.0165889 0.000830189 1e-05
0.0167201 0.000828536 1e-05
0.0168514 0.000826871 1e-05
0.0169827 0.000825195 1e-05
0.0171139 0.000823506 1e-05
0.0172462 0.000821827 1e-05
0.0173785 0.000820105 1e-05
0.0175108 0.000818372 1e-05
0.0176431 0.000816627 1e-05
0.0177754 0.000814872 1e-05
0.0179087 0.000813108 1e-05
0.018042 0.000811318 1e-05
0.0181753 0.000809518 1e-05
0.0183087 0.000807707 1e-05
0.018442 0.000805886 1e-05
0.0184637 0.000805588 1e-05
0.0184854 0.00080529 1e-05
0.0185071 0.000804991 1e-05
0.0185288 0.000804692 1e-05
0.0185504 0.000804395 1e-05
0.018663 0.000802841 1e-05
0.0187757 0.00080128 1e-05
0.0188884 0.000799712 1e-05
0.0190011 0.000798138 1e-05
0.0191137 0.000796557 1e-05
0.0192491 0.00079464 1e-05
0.0193845 0.000792723 1e-05
0.0195199 0.000790798 1e-05
0.0196553 0.000788864 1e-05
0.0197907 0.000786923 1e-05
0.0199272 0.000784942 1e-05
0.0200636 0.000782969 1e-05
0.0202001 0.000780989 1e-05
0.0203365 0.000779004 1e-05
0.020473 0.000777012 1e-05
0.0206105 0.000774976 1e-05
0.020748 0.000772955 1e-05
0.0208855 0.000770931 1e-05
0.021023 0.000768901 1e-05
0.0211606 0.000766868 1e-05
0.0212991 0.000764789 1e-05
0.0214377 0.000762731 1e-05
0.0215763 0.000760671 1e-05
0.0217149 0.000758609 1e-05
0.0218535 0.000756545 1e-05
0.0219931 0.000754435 1e-05
0.0221328 0.000752352 1e-05
0.0222724 0.000750268 1e-05
0.0224121 0.000748185 1e-05
0.0225517 0.000746101 1e-05
0.0226925 0.000743975 1e-05
0.0228332 0.000741875 1e-05
0.022974 0.00073978 1e-05
0.0231147 0.000737687 1e-05
0.0232555 0.000735593 1e-05
0.0233973 0.000733462 1e-05
0.0235391 0.000731356 1e-05
0.023681 0.000729261 1e-05
0.0238228 0.000727171 1e-05
0.0239647 0.000725081 1e-05
0.0241076 0.000722963 1e-05
0.0242505 0.000720872 1e-05
0.0243935 0.000718797 1e-05
0.0245364 0.000716733 1e-05
0.0246794 0.000714672 1e-05
0.0248234 0.00071259 1e-05
0.0249675 0.000710538 1e-05
0.0251115 0.00070851 1e-05
0.0252556 0.000706495 1e-05
0.0253996 0.000704484 1e-05
0.0255448 0.000702457 1e-05
0.02569 0.00070046 1e-05
0.0258351 0.000698488 1e-05
0.0259803 0.000696532 1e-05
0.0261255 0.000694583 1e-05
0.0262718 0.000692626 1e-05
0.0264181 0.000690697 1e-05
0.0265644 0.000688798 1e-05
0.0267107 0.000686916 1e-05
0.026857 0.000685047 1e-05
0.0270044 0.000683175 1e-05
0.0271519 0.000681333 1e-05
0.0272993 0.000679522 1e-05
0.0274468 0.000677731 1e-05
0.0275942 0.000675957 1e-05
0.0277428 0.000674187 1e-05
0.0278914 0.000672447 1e-05
0.0280399 0.000670738 1e-05
0.0281885 0.000669052 1e-05
0.0283371 0.000667386 1e-05
0.0284869 0.000665728 1e-05
0.0286366 0.0006641 1e-05
0.0287863 0.000662502 1e-05
0.0289361 0.00066093 1e-05
0.0290858 0.00065938 1e-05
0.0292367 0.00065784 1e-05
0.0293876 0.000656329 1e-05
0.0295385 0.000654847 1e-05
0.0296894 0.000653392 1e-05
0.0298403 0.000651959 1e-05
0.0299924 0.000650537 1e-05
0.0301445 0.000649143 1e-05
0.0302966 0.000647775 1e-05
0.0304486 0.000646433 1e-05
0.0306007 0.000645112 1e-05
0.030754 0.000643803 1e-05
0.0309072 0.000642517 1e-05
0.0310605 0.000641255 1e-05
0.0312138 0.000640016 1e-05
0.031367 0.000638796 1e-05
0.0315215 0.000637586 1e-05
0.0316759 0.000636395 1e-05
0.0318304 0.000635221 1e-05
0.0319848 0.000634069 1e-05
0.0321393 0.00063293 1e-05
0.0322949 0.000631798 1e-05
0.0324506 0.000630678 1e-05
0.0326062 0.000629571 1e-05
0.0327619 0.000628478 1e-05
0.0329175 0.000627395 1e-05
[...]
POINT_DATA 10900
 FIELD attributes 1
U 3 10900 float
10.0021 	0.00097981 	0 10.0076 	0.00792565 	0 10.013 	0.015113 	0 10.0184 	0.0223136 	0 10.0239 	0.0295274 	0 10.0306 	0.0425758 	0 10.0339 	0.0319065 	0 10.0371 	0.0319237 	0 10.0403 	0.0319409 	0 10.0435 	0.0319582 	0 10.0462 	0.0419736 	0 10.0442 	0.0264171 	0 10.0432 	0.0244598 	0 10.0422 	0.0224764 	0 10.0412 	0.0204666 	0 10.0403 	0.0301432 	0 10.0367 	0.0145939 	0 10.0345 	0.0130063 	0 10.0322 	0.0113911 	0 10.0299 	0.00974791 	0 10.028 	0.0206089 	0 10.0247 	0.00520601 	0 10.0223 	0.00392887 	0 10.02 	0.00262549 	0 10.0177 	0.00129531 	0 10.0156 	0.0135095 	0 10.0125 	-0.00228648 	0 10.01 	-0.0033625 	0 10.0076 	-0.0044632 	0 10.0052 	-0.00558915 	0 10.0029 	0.00841488 	0 9.9999 	-0.00846326 	0 9.9974 	-0.00937703 	0 9.9949 	-0.0103132 	0 9.99239 	-0.0112724 	0 9.98991 	0.00508528 	0 9.98711 	-0.0136556 	0 9.98463 	-0.0144945 	0 9.98215 	-0.0153547 	0 9.97966 	-0.016237 	0 9.97699 	0.00296682 	0 9.9745 	-0.0183574 	0 9.97208 	-0.0192026 	0 9.96965 	-0.0200698 	0 9.96721 	-0.0209596 	0 9.96429 	0.00156306 	0 9.96218 	-0.0229709 	0 9.95981 	-0.0238601 	0 9.95742 	-0.0247726 	0 9.95504 	-0.025709 	0 9.95177 	0.000638874 	0 9.95013 	-0.0276704 	0 9.94783 	-0.02862 	0 9.94552 	-0.0295943 	0 9.9432 	-0.0305941 	0 9.93954 	8.22915e-05 	0 9.93849 	-0.0325519 	0 9.93628 	-0.0335865 	0 9.93406 	-0.0346477 	0 9.93183 	-0.0357364 	0 9.92769 	-0.00025216 	0 9.92733 	-0.0377582 	0 9.92524 	-0.0389271 	0 9.92314 	-0.0401257 	0 9.92103 	-0.0413547 	0 9.91635 	-0.000613589 	0 9.91681 	-0.0435684 	0 9.91484 	-0.0449175 	0 9.91285 	-0.0463002 	0 9.91086 	-0.0477173 	0 9.90545 	-0.00120018 	0 9.90684 	-0.0502198 	0 9.90498 	-0.0518549 	0 9.90312 	-0.0535297 	0 9.90124 	-0.055245 	0 9.89503 	-0.00246062 	0 9.89755 	-0.0583795 	0 9.89581 	-0.0603791 	0 9.89405 	-0.0624259 	0 9.89228 	-0.064521 	0 9.88503 	-0.00470698 	0 9.88859 	-0.0684543 	0 9.88658 	-0.0713406 	0 9.88455 	-0.0742929 	0 9.8825 	-0.0773126 	0 9.87338 	-0.0102876 	0 9.87684 	-0.0842509 	3.0334e-22 9.87449 	-0.0876813 	1.0326e-21 9.87211 	-0.0911897 	1.76129e-21 9.8697 	-0.094778 	2.48941e-21 9.85962 	-0.0174801 	2.95906e-21 9.86375 	-0.100904 	-2.71499e-21 9.86136 	-0.104207 	-3.64104e-21 9.85895 	-0.10756 	-4.57116e-21 9.85652 	-0.110965 	-5.50541e-21 9.84462 	-0.0180278 	1.00742e-21 9.85253 	-0.112871 	7.28589e-22 9.8504 	-0.115263 	5.23796e-23 9.84825 	-0.11769 	-6.23378e-22 9.8461 	-0.120154 	-1.29868e-21 9.82986 	-0.0149602 	-2.08854e-21 9.84388 	-0.118847 	-1.93351e-21 9.84183 	-0.120933 	-1.27223e-21 9.83977 	-0.12305 	-6.10749e-22 9.83616 	-0.116932 	-1.11365e-22 9.81416 	-0.0116732 	-1.55747e-21 9.8328 	-0.108412 	-1.79588e-22 9.83328 	-0.122718 	-2.04886e-21 9.83104 	-0.124668 	-4.40482e-21 9.82324 	-0.104974 	-6.69501e-21 9.79594 	-0.00851461 	-8.76327e-21 9.81873 	-0.0957865 	-1.36155e-20 9.82327 	-0.121547 	-1.39386e-20 9.82081 	-0.123456 	-1.25086e-20 9.80745 	-0.0934236 	-8.99734e-21 9.7749 	-0.00625027 	-1.77165e-21 9.80175 	-0.0848685 	-1.8644e-21 9.81142 	-0.119353 	-7.04535e-22 9.80867 	-0.121344 	1.37101e-21 9.78844 	-0.083765 	3.79184e-21 9.75063 	-0.00545317 	6.56656e-21 9.78111 	-0.0760783 	1.97632e-20 9.79672 	-0.116857 	2.68908e-20 9.79355 	-0.118909 	2.61427e-20 9.76535 	-0.0759887 	1.69572e-20 9.72251 	-0.00587818 	2.66237e-21 9.75621 	-0.0693059 	-1.55686e-20 9.77845 	-0.114468 	-2.88847e-20 9.7748 	-0.116563 	-3.06511e-20 9.73783 	-0.0700323 	-2.01476e-20 9.69036 	-0.00735175 	-5.57948e-21 9.7269 	-0.0643946 	-3.48266e-21 9.75632 	-0.112496 	-2.21779e-21 9.75216 	-0.114633 	-5.23494e-21 9.70587 	-0.0658204 	-1.08384e-20 9.65425 	-0.00979103 	-1.68289e-20 9.69324 	-0.061186 	-1.99286e-20 9.73029 	-0.111126 	-2.28646e-20 9.72556 	-0.113257 	-2.12704e-20 9.66959 	-0.0631824 	-1.54905e-20 9.61429 	-0.0130579 	-9.72592e-21 9.65531 	-0.0594158 	-6.19523e-21 9.6957 	-0.10581 	-2.64889e-21 9.68839 	-0.106656 	-1.28302e-22 9.62927 	-0.0618227 	-1.16736e-21 9.57078 	-0.0169426 	-2.19982e-21 9.61343 	-0.0587922 	-1.21002e-21 9.65545 	-0.100678 	-2.26728e-22 9.64693 	-0.101665 	-2.54341e-22 9.58516 	-0.0615045 	-1.29331e-21 9.524 	-0.0213003 	-2.32635e-21 9.56786 	-0.0591015 	-1.33678e-21 9.61111 	-0.0969373 	-3.53121e-22 9.60146 	-0.0980214 	-1.88461e-21 9.53756 	-0.0620412 	-4.69628e-21 9.47424 	-0.0260208 	-7.52789e-21 9.51892 	-0.060179 	-1.54315e-20 9.56302 	-0.0943701 	-2.3316e-20 9.55233 	-0.095516 	-2.47726e-20 9.48678 	-0.0632808 	-1.98084e-20 9.42178 	-0.0310088 	-1.48512e-20 9.46691 	-0.0618893 	-2.90522e-20 9.5115 	-0.0928007 	-4.32453e-20 9.49988 	-0.0939814 	-4.08427e-20 9.43312 	-0.065097 	-2.06859e-20 9.36688 	-0.036179 	-5.13443e-22 9.41212 	-0.0641062 	-5.73634e-22 9.45684 	-0.0920621 	-6.46513e-22 9.44441 	-0.0932616 	4.76016e-22 9.37686 	-0.067386 	2.38025e-21 9.3098 	-0.0414798 	4.29267e-21 9.35483 	-0.0667465 	2.29286e-21 9.39937 	-0.0920399 	2.8513e-22 9.38625 	-0.0932482 	-9.64928e-22 9.31829 	-0.0700774 	-2.09767e-21 9.25079 	-0.0468788 	-3.22661e-21 9.29533 	-0.0697437 	-2.15206e-21 9.33941 	-0.0926332 	-1.08155e-21 9.32518 	-0.0936232 	-1.09567e-23 9.2577 	-0.0731026 	-1.99339e-21 9.19009 	-0.0523394 	-4.01428e-21 9.2339 	-0.0730334 	-1.89557e-21 9.27097 	-0.0915774 	-2.70124e-22 9.2556 	-0.092179 	-2.77345e-21 9.19542 	-0.076396 	-8.75552e-21 9.12801 	-0.0578247 	-1.53305e-20 9.17087 	-0.0765586 	-4.32587e-20 9.19968 	-0.0910156 	-6.43804e-20 9.18435 	-0.0916595 	-6.36148e-20 9.13169 	-0.0799089 	-4.17512e-20 9.06473 	-0.0633079 	-1.16528e-20 9.10645 	-0.0802705 	-7.13503e-21 9.12702 	-0.0912448 	-3.39901e-21 9.11173 	-0.0919198 	-1.00356e-21 9.06669 	-0.0835915 	0 9.0004 	-0.0687604 	0 9.04081 	-0.084121 	0 9.05323 	-0.0921353 	0 9.03798 	-0.0928322 	0 9.00058 	-0.0873978 	0 8.93515 	-0.0741564 	0 8.97412 	-0.0880683 	0 8.97855 	-0.0935749 	1.68479e-21 8.96333 	-0.0942843 	4.33057e-21 8.9335 	-0.0912836 	7.58899e-21 8.8691 	-0.0794662 	1.23022e-20 8.90652 	-0.0920664 	4.35952e-20 8.90317 	-0.095455 	4.999e-20 8.88799 	-0.0961672 	4.91507e-20 8.86561 	-0.0951994 	4.37599e-20 8.80236 	-0.0846545 	1.24387e-20 8.83814 	-0.0960674 	7.75906e-21 8.8273 	-0.0976743 	7.75822e-21 8.81215 	-0.0983788 	8.18835e-21 8.79697 	-0.0990829 	8.61929e-21 8.73504 	-0.0896827 	1.20201e-20 8.76622 	-0.0994477 	3.05508e-20 8.75113 	-0.100135 	2.82244e-20 8.73601 	-0.100822 	2.58952e-20 8.72086 	-0.101509 	2.3563e-20 8.66731 	-0.0945095 	4.60647e-21 8.68996 	-0.102086 	-1.58861e-20 8.6749 	-0.102748 	-2.19693e-20 8.6598 	-0.103409 	-2.80498e-20 8.64468 	-0.104069 	-3.41275e-20 8.59926 	-0.0990987 	-2.56724e-20 8.61376 	-0.104802 	-4.31641e-20 8.59873 	-0.105428 	-4.05598e-20 8.58366 	-0.106054 	-3.79516e-20 8.56857 	-0.10668 	-3.53395e-20 8.53101 	-0.103415 	-1.79434e-20 8.53775 	-0.107513 	-1.32474e-20 8.52275 	-0.108094 	-9.60311e-21 8.50772 	-0.108676 	-5.95935e-21 8.49266 	-0.109257 	-2.31613e-21 8.46262 	-0.107417 	0 8.46204 	-0.110137 	7.13667e-22 8.44707 	-0.110662 	1.79659e-21 8.43208 	-0.111187 	2.87966e-21 8.41705 	-0.111713 	3.96285e-21 8.39419 	-0.111052 	5.04697e-21 8.38674 	-0.112587 	4.91629e-21 8.37181 	-0.113042 	4.98544e-21 8.35686 	-0.113498 	5.05484e-21 8.34189 	-0.113954 	5.1245e-21 8.32583 	-0.114259 	5.22273e-21 8.32442 	-0.114457 	5.43372e-21 8.32202 	-0.114517 	5.71627e-21 8.31962 	-0.114576 	5.99882e-21 8.31722 	-0.114636 	6.28139e-21 8.31483 	-0.114696 	6.56172e-21 8.30209 	-0.115012 	7.81486e-21 8.28934 	-0.115329 	9.0677e-21 8.27656 	-0.115645 	1.03202e-20 8.26377 	-0.115962 	1.15725e-20 8.24939 	-0.116779 	1.27163e-20 8.2362 	-0.116618 	9.78449e-21 8.22106 	-0.116895 	9.10367e-21 8.20591 	-0.117172 	8.42091e-21 8.19074 	-0.11745 	7.73623e-21 8.17247 	-0.118665 	1.20431e-20 8.16133 	-0.118003 	1.04708e-20 8.14629 	-0.118165 	8.63118e-21 8.13123 	-0.118327 	6.79132e-21 8.11616 	-0.118489 	4.95118e-21 8.09686 	-0.119878 	4.43168e-21 8.08747 	-0.118827 	6.80421e-21 8.07256 	-0.118862 	4.13734e-21 8.05764 	-0.118897 	1.47093e-21 8.0427 	-0.118933 	-1.19501e-21 8.02272 	-0.12036 	-9.88266e-21 8.01484 	-0.119016 	-1.75871e-20 8.0001 	-0.118918 	-1.92259e-20 7.98535 	-0.11882 	-2.0865e-20 7.9706 	-0.118722 	-2.25043e-20 7.95027 	-0.120085 	-1.82231e-20 7.94368 	-0.118528 	-3.53418e-20 7.92916 	-0.118297 	-3.32195e-20 7.91463 	-0.118067 	-3.10972e-20 7.90006 	-0.117848 	-2.87895e-20 7.87972 	-0.11906 	-4.79419e-21 7.87356 	-0.117456 	-1.13321e-21 7.85996 	-0.117004 	-2.2279e-21 7.84569 	-0.116653 	-3.74801e-21 7.83053 	-0.116519 	-5.29756e-21 7.81126 	-0.11736 	-6.97976e-21 7.80472 	-0.115889 	-2.02675e-20 7.79271 	-0.115113 	-2.59244e-20 7.7787 	-0.114591 	-2.87955e-20 7.76318 	-0.114385 	-2.55403e-20 7.74487 	-0.114761 	-1.10422e-20 7.73793 	-0.11323 	1.73972e-20 7.72726 	-0.112132 	3.3421e-20 7.71354 	-0.111389 	3.92633e-20 7.69794 	-0.111014 	2.97712e-20 7.6806 	-0.110976 	6.22136e-21 7.67328 	-0.109298 	2.67098e-21 7.66377 	-0.107914 	3.39181e-22 7.65047 	-0.107034 	8.34606e-23 7.6352 	-0.106593 	4.84685e-24 7.61902 	-0.106351 	6.89873e-24 7.6116 	-0.104741 	4.713e-24 7.60316 	-0.103255 	-5.38078e-22 7.59041 	-0.102291 	-3.30482e-21 7.57577 	-0.101691 	-6.08074e-21 7.5608 	-0.101156 	-8.85841e-21 7.55343 	-0.099556 	-5.90472e-21 7.54599 	-0.0979689 	-2.95166e-21 7.53385 	-0.0969001 	0 7.52011 	-0.0960973 	0 7.50639 	-0.0952939 	0 7.49916 	-0.0936708 	0 7.49199 	-0.0920464 	0 7.48098 	-0.0908507 	-1.52195e-21 7.46855 	-0.0898536 	-3.18596e-21 7.45615 	-0.0888558 	-4.8503e-21 7.44916 	-0.0872337 	-1.7758e-20 7.44223 	-0.0856104 	-3.06663e-20 7.43255 	-0.0843119 	-3.31336e-20 7.42151 	-0.0831914 	-2.55662e-20 7.41051 	-0.0820701 	-1.79992e-20 7.40387 	-0.0804988 	-5.33595e-20 7.39729 	-0.0789263 	-8.87202e-20 7.38897 	-0.0775725 	-8.95917e-20 7.37933 	-0.0763895 	-5.62889e-20 7.36974 	-0.0752058 	-2.29857e-20 7.36351 	-0.0737302 	-4.20844e-20 7.35733 	-0.0722536 	-6.11818e-20 7.35037 	-0.0708986 	-5.8568e-20 7.34211 	-0.0697214 	-3.41887e-20 7.3339 	-0.0685436 	-9.80888e-21 7.32808 	-0.0672044 	-6.14811e-21 7.32231 	-0.0658644 	-2.48637e-21 7.31668 	-0.0645681 	0 7.30982 	-0.0634728 	0 7.30301 	-0.062377 	0 7.29762 	-0.0612263 	0 7.29228 	-0.0600751 	0 7.28795 	-0.0588996 	0 7.28247 	-0.0579578 	0 7.27701 	-0.0570157 	0 7.27209 	-0.0561106 	0 7.2672 	-0.0552051 	0 7.26413 	-0.054217 	0 7.25993 	-0.0534989 	0 7.25575 	-0.0527805 	0 7.25128 	-0.0521768 	0 7.24688 	-0.0515705 	0 7.24488 	-0.0508493 	0 7.24191 	-0.0504023 	0 7.23891 	-0.049968 	0 7.23488 	-0.0497237 	0 7.2312 	-0.0494628 	0 7.22993 	-0.0490842 	0 7.22809 	-0.0489282 	0 7.22614 	-0.0488113 	0 7.22254 	-0.0489629 	0 7.2196 	-0.0490817 	0 7.21899 	-0.0490852 	0 7.21807 	-0.0492662 	0 7.21705 	-0.0495072 	0 7.21385 	-0.0500899 	0 7.21165 	-0.0506212 	0 7.2116 	-0.0510441 	0 7.21143 	-0.0516052 	-2.38514e-21 7.21119 	-0.0522424 	-6.08782e-21 7.20835 	-0.0532834 	-2.22774e-21 7.20689 	-0.0542506 	0 7.20731 	-0.0551173 	0 7.20771 	-0.0560855 	-2.00271e-21 7.20809 	-0.0571411 	-5.72876e-21 7.2056 	-0.0586466 	-1.83557e-21 7.20484 	-0.0600555 	0 7.20563 	-0.0613784 	0 7.20644 	-0.0627728 	0 7.20729 	-0.0642638 	0 7.20512 	-0.0662419 	0 7.20505 	-0.0680969 	7.65291e-23 7.20612 	-0.0698827 	1.95997e-22 7.2072 	-0.0717128 	-3.76892e-22 7.20836 	-0.0736453 	-2.53698e-21 7.20649 	-0.0761045 	-1.89079e-20 7.20706 	-0.0784039 	-2.24601e-20 7.20833 	-0.0806528 	-2.19952e-20 7.20956 	-0.0829218 	-2.01511e-20 7.21088 	-0.0852915 	-1.1655e-20 7.20931 	-0.0882336 	-8.41945e-22 7.21047 	-0.0909662 	-4.14907e-21 7.21187 	-0.0936728 	-9.13607e-21 7.21318 	-0.0963805 	-1.42652e-20 7.21452 	-0.0991789 	-2.51601e-20 7.21336 	-0.10259 	-3.18746e-20 7.21492 	-0.105748 	-3.16354e-20 7.21638 	-0.108905 	-3.13901e-20 7.21774 	-0.11206 	-3.11385e-20 7.21897 	-0.115269 	-1.80793e-20 7.21852 	-0.119106 	-1.52988e-20 7.22011 	-0.122708 	-1.06953e-20 7.22157 	-0.126308 	-6.09574e-21 7.22291 	-0.129905 	-1.50026e-21 7.22399 	-0.133525 	0 7.2242 	-0.13777 	0 7.22574 	-0.141809 	0 7.22716 	-0.145846 	0 7.22845 	-0.14988 	0 7.22938 	-0.153914 	0 7.23015 	-0.158547 	0 7.23162 	-0.163023 	0 7.23295 	-0.167494 	0 7.23414 	-0.171963 	0 7.235 	-0.176422 	-1.89928e-21 7.23603 	-0.180935 	-8.06697e-23 7.23727 	-0.18536 	-1.85498e-22 7.23838 	-0.189781 	-2.90429e-22 7.23936 	-0.1942 	-3.95461e-22 7.24005 	-0.197736 	-4.79681e-22 7.24013 	-0.198396 	-4.93887e-22 7.2402 	-0.199055 	-5.0809e-22 7.24028 	-0.199714 	-5.22291e-22 7.24035 	-0.200374 	-5.36489e-22 7.24041 	-0.201004 	-5.43396e-22 7.24162 	-0.206352 	-2.46298e-21 7.24256 	-0.211679 	-3.63138e-21 7.24332 	-0.217001 	-4.8263e-21 7.24392 	-0.222316 	-6.04773e-21 7.24438 	-0.227399 	5.006e-22 7.24603 	-0.23329 	2.55372e-21 7.24677 	-0.239074 	7.15283e-21 7.24732 	-0.24485 	1.17452e-20 7.24768 	-0.25062 	1.63309e-20 7.24813 	-0.255987 	2.08659e-20 7.25009 	-0.262396 	1.71033e-20 7.25059 	-0.268658 	1.64523e-20 7.25088 	-0.274912 	1.57867e-20 7.25098 	-0.281157 	1.51064e-20 7.25155 	-0.286865 	1.36418e-20 7.2536 	-0.293768 	1.36406e-20 7.25396 	-0.30055 	1.28646e-20 7.25397 	-0.307312 	1.19994e-20 7.25403 	-0.313919 	1.17737e-20 7.25453 	-0.320174 	1.31034e-20 7.25617 	-0.327563 	1.05628e-20 7.25687 	-0.334914 	8.84228e-21 7.25654 	-0.342223 	8.0329e-21 7.25669 	-0.349232 	8.68954e-21 7.25696 	-0.356097 	1.00274e-20 7.25823 	-0.364036 	7.34946e-21 7.25925 	-0.371962 	4.6572e-21 7.25867 	-0.37983 	-3.01427e-22 7.2588 	-0.387354 	-3.34107e-21 7.2587 	-0.394868 	-6.38727e-21 7.25964 	-0.403431 	-3.89667e-21 7.26031 	-0.411979 	-1.41201e-21 7.26061 	-0.420342 	0 7.26024 	-0.428557 	0 7.25961 	-0.436761 	0 7.26023 	-0.446024 	0 7.2606 	-0.455259 	-1.19336e-22 7.26157 	-0.464199 	-3.07725e-21 7.26083 	-0.473143 	-6.04968e-21 7.2595 	-0.482083 	-9.03199e-21 7.2598 	-0.49213 	-6.69702e-21 7.26019 	-0.50201 	-5.88435e-21 7.26058 	-0.511756 	-6.24299e-21 7.26041 	-0.521486 	-6.44411e-21 7.25819 	-0.531222 	-5.52891e-21 7.25818 	-0.542122 	-2.38492e-20 7.25819 	-0.552786 	-2.15307e-20 7.25788 	-0.563428 	-1.91749e-20 7.25726 	-0.574047 	-1.67818e-20 7.25547 	-0.584653 	-6.84204e-21 7.25527 	-0.589665 	-1.34552e-20 7.25501 	-0.594613 	-1.27236e-20 7.25469 	-0.599556 	-1.19849e-20 7.25431 	-0.604494 	-1.1239e-20 7.2539 	-0.609023 	-1.05478e-20 7.25286 	-0.615684 	-1.03305e-20 7.25169 	-0.622334 	-1.0109e-20 7.25041 	-0.628975 	-9.88319e-21 7.24902 	-0.635605 	-9.65316e-21 7.24736 	-0.642063 	-5.55815e-21 7.24677 	-0.654671 	-6.78845e-21 7.24433 	-0.667185 	-2.14083e-21 7.24151 	-0.679666 	2.50566e-21 7.23823 	-0.692072 	6.88167e-21 7.2339 	-0.704144 	9.06438e-21 7.23378 	-0.718014 	2.5225e-20 7.23195 	-0.731787 	3.64882e-20 7.22785 	-0.745436 	4.07769e-20 7.22228 	-0.758784 	1.75766e-20 7.21612 	-0.772079 	-9.751e-21 7.21504 	-0.787306 	-7.10075e-21 7.21349 	-0.802488 	-4.50708e-21 7.20953 	-0.817414 	-3.6362e-21 7.20167 	-0.832055 	-7.87688e-21 7.19335 	-0.846685 	-1.21535e-20 7.19098 	-0.863418 	-1.07893e-20 7.18684 	-0.880015 	-5.1765e-21 7.18119 	-0.896494 	3.81403e-21 7.17504 	-0.912921 	1.27997e-20 7.16489 	-0.929114 	1.87459e-20 7.16269 	-0.939055 	1.72319e-20 7.15884 	-0.948928 	2.09875e-20 7.15482 	-0.958784 	2.47607e-20 7.15065 	-0.968624 	2.85514e-20 7.14677 	-0.977396 	3.19524e-20 7.14349 	-0.985878 	3.63015e-20 7.14009 	-0.994345 	4.06728e-20 7.13658 	-1.0028 	4.50664e-20 7.13295 	-1.01124 	4.94823e-20 7.12768 	-1.01975 	4.03895e-20 7.12347 	-1.03994 	4.08864e-20 7.11474 	-1.05977 	3.7744e-20 7.10545 	-1.07953 	3.46275e-20 7.09366 	-1.0993 	2.93715e-20 7.079 	-1.11918 	2.15854e-20 7.07373 	-1.14182 	-5.74666e-22 7.06781 	-1.16439 	-2.27174e-20 7.05553 	-1.1864 	-3.33052e-20 7.03637 	-1.20773 	-3.08558e-20 7.01644 	-1.2291 	-2.84777e-20 7.00708 	-1.25365 	-1.15914e-20 6.99279 	-1.27815 	-1.19893e-20 6.97575 	-1.30258 	-2.06735e-20 6.95792 	-1.32691 	-2.95809e-20 6.93779 	-1.35109 	-4.17357e-20 6.93661 	-1.35331 	-4.161e-20 6.93502 	-1.35558 	-4.08269e-20 6.93327 	-1.35786 	-3.98097e-20 6.93152 	-1.36014 	-3.87927e-20 6.92979 	-1.36238 	-3.7795e-20 6.91277 	-1.38676 	-2.42686e-20 6.8951 	-1.41105 	-1.07288e-20 6.87678 	-1.43525 	2.82421e-21 6.85684 	-1.45962 	1.20962e-20 6.83302 	-1.48494 	7.74603e-21 6.81583 	-1.51633 	4.38783e-20 6.79769 	-1.54759 	7.98784e-20 6.77164 	-1.57765 	7.7997e-20 6.73827 	-1.60684 	3.75227e-20 6.7036 	-1.63625 	-3.47385e-21 6.68377 	-1.66276 	2.09642e-20 6.65908 	-1.68843 	2.43676e-20 6.63052 	-1.71344 	1.16685e-20 6.60127 	-1.73836 	-1.31306e-21 6.57661 	-1.75881 	-1.22365e-20 6.56891 	-1.7666 	-1.38351e-20 6.56115 	-1.77438 	-1.54464e-20 6.55334 	-1.78215 	-1.70704e-20 6.54451 	-1.78958 	-1.56093e-20 6.53453 	-1.79665 	-1.07067e-20 6.49944 	-1.83058 	-4.24395e-20 6.46053 	-1.86719 	-5.90613e-20 6.42049 	-1.90357 	-7.60634e-20 6.37836 	-1.94742 	-5.03467e-20 6.33389 	-1.99305 	-1.77991e-20 6.30131 	-2.0396 	-1.19003e-20 6.26877 	-2.09534 	-8.21484e-21 6.23718 	-2.16822 	-8.6058e-21 6.20375 	-2.24103 	-9.103e-21 6.17837 	-2.29334 	-9.53768e-21 6.17146 	-2.3013 	-1.00817e-20 6.16451 	-2.30924 	-1.06298e-20 6.15752 	-2.31716 	-1.11819e-20 6.1524 	-2.32948 	-9.9624e-21 6.14775 	-2.34311 	-8.22918e-21 6.12785 	-2.44609 	-3.0602e-22 6.08996 	-2.53941 	4.75124e-21 6.04835 	-2.63244 	8.92438e-21 5.98695 	-2.72572 	4.56429e-21 5.91951 	-2.82459 	-4.43907e-23 5.90028 	-2.87305 	-1.86757e-21 5.88064 	-2.92138 	-3.6839e-21 5.83531 	-2.92944 	-2.55184e-21 5.78747 	-2.93377 	-1.14914e-21 5.74603 	-2.93736 	6.84601e-23 5.71891 	-3.00663 	2.27738e-21 5.69166 	-3.07661 	4.53594e-21 5.65959 	-3.14073 	6.5008e-21 5.59073 	-3.15415 	5.82741e-21 5.51758 	-3.16859 	5.13467e-21 5.45435 	-3.20008 	2.63511e-21 5.39071 	-3.2318 	1.7411e-22 5.29634 	-3.1929 	2.26178e-21 5.1922 	-3.1315 	5.79463e-21 5.10073 	-3.07758 	8.89871e-21 5.0711 	-3.10165 	1.21937e-20 5.04155 	-3.12625 	1.55258e-20 5.00537 	-3.13759 	1.70866e-20 4.94754 	-3.10477 	1.28324e-20 4.88783 	-3.07091 	8.4411e-21 4.76948 	-3.01004 	5.78657e-21 4.65112 	-2.94945 	3.1368e-21 4.52244 	-2.84101 	2.20459e-21 4.38965 	-2.71279 	1.94432e-21 4.25666 	-2.58346 	1.65897e-21 4.23516 	-2.57339 	1.07446e-21 4.21366 	-2.56334 	4.89842e-22 4.1912 	-2.55016 	-1.33036e-22 4.16373 	-2.52066 	-9.5279e-22 4.13623 	-2.49105 	-1.77259e-21 3.9886 	-2.32504 	-1.10641e-21 3.84084 	-2.15558 	-3.6419e-22 3.70071 	-1.98792 	-4.71649e-21 3.56783 	-1.82138 	-1.38768e-20 3.44683 	-1.66584 	-2.19977e-20 3.41342 	-1.61945 	-2.27809e-20 3.38069 	-1.57422 	-2.35353e-20 3.35393 	-1.5422 	-2.42426e-20 3.32716 	-1.50987 	-2.49323e-20 3.2964 	-1.47239 	-2.57034e-20 3.21707 	-1.35379 	-2.97921e-20 3.13812 	-1.23343 	-3.3552e-20 3.05961 	-1.11122 	-3.69497e-20 2.99075 	-1.00864 	-2.39327e-20 2.93256 	-0.923129 	-5.06552e-21 2.85037 	-0.795956 	-2.88157e-21 2.76898 	-0.664977 	-9.63253e-22 2.69938 	-0.567726 	-7.31444e-22 2.64082 	-0.502673 	-2.23842e-21 2.58767 	-0.44179 	-3.50928e-21 2.53043 	-0.375876 	-2.52209e-20 2.47735 	-0.315703 	-3.90198e-20 2.43081 	-0.266288 	-3.94618e-20 2.38722 	-0.224989 	-3.31848e-20 2.34932 	-0.199234 	-1.58689e-20 2.30705 	-0.172254 	-3.2051e-20 2.27135 	-0.152454 	-2.92645e-20 2.23682 	-0.133421 	-2.37579e-20 2.20251 	-0.114019 	-1.83699e-20 2.17437 	-0.108487 	6.63566e-22 2.14221 	-0.103955 	2.74322e-20 2.11574 	-0.10271 	2.62054e-20 2.08927 	-0.101465 	2.49779e-20 2.0628 	-0.100221 	2.37496e-20 2.04079 	-0.105755 	9.2501e-22 2.01655 	-0.114127 	-4.93154e-22 1.99648 	-0.123524 	-4.85448e-22 1.97624 	-0.133041 	-4.79409e-22 1.95583 	-0.142679 	-4.75089e-22 1.93799 	-0.15526 	-6.55811e-22 1.92131 	-0.170663 	-2.53364e-21 1.90682 	-0.186111 	3.23969e-21 1.89204 	-0.20167 	9.21344e-21 1.87696 	-0.217339 	1.53916e-20 1.87509 	-0.219255 	1.61669e-20 1.87194 	-0.222246 	1.76048e-20 1.86877 	-0.22524 	1.90538e-20 1.86559 	-0.228236 	2.05138e-20 1.86239 	-0.231234 	2.1985e-20 1.85977 	-0.234364 	2.01242e-20 1.84821 	-0.252134 	2.57072e-20 1.83696 	-0.270495 	2.87642e-20 1.82525 	-0.288868 	3.21165e-20 1.8131 	-0.307251 	3.57677e-20 1.8047 	-0.326025 	2.06561e-20 1.79153 	-0.341946 	2.65415e-20 1.78229 	-0.360277 	2.86091e-20 1.77325 	-0.378954 	3.01551e-20 1.76733 	-0.397215 	2.60241e-20 1.76305 	-0.415577 	1.83173e-20 1.75178 	-0.430933 	2.6635e-