# vtk DataFile Version 2.0
track0
ASCII
DATASET POLYDATA
POINTS 10900 double
-0.0205 0.001 1e-05
-0.0202034 0.00100003 1e-05
-0.0199069 0.00100026 1e-05
-0.0196103 0.00100071 1e-05
-0.0193137 0.00100137 1e-05
-0.0190172 0.00100225 1e-05
-0.0187132 0.00100354 1e-05
-0.0184093 0.0010045 1e-05
-0.0181054 0.00100547 1e-05
-0.0178015 0.00100644 1e-05
-0.0174976 0.0010074 1e-05
-0.0172058 0.00100862 1e-05
-0.016914 0.00100939 1e-05
-0.0166222 0.0010101 1e-05
-0.0163305 0.00101075 1e-05
-0.0160387 0.00101135 1e-05
-0.0157586 0.00101219 1e-05
-0.0154784 0.0010126 1e-05
-0.0151983 0.00101296 1e-05
-0.0149182 0.00101328 1e-05
-0.0146381 0.00101355 1e-05
-0.0143692 0.0010141 1e-05
-0.0141002 0.00101424 1e-05
-0.0138313 0.00101435 1e-05
-0.0135624 0.00101442 1e-05
-0.0132934 0.00101445 1e-05
-0.0130353 0.0010148 1e-05
-0.0127771 0.00101474 1e-05
-0.0125189 0.00101465 1e-05
-0.0122607 0.00101454 1e-05
-0.0120025 0.0010144 1e-05
-0.0117547 0.0010146 1e-05
-0.0115068 0.00101439 1e-05
-0.0112589 0.00101416 1e-05
-0.0110111 0.00101391 1e-05
-0.0107632 0.00101363 1e-05
-0.0105252 0.00101375 1e-05
-0.0102873 0.00101342 1e-05
-0.0100493 0.00101308 1e-05
-0.00981133 0.00101271 1e-05
-0.00957337 0.00101232 1e-05
-0.00934491 0.00101239 1e-05
-0.00911645 0.00101197 1e-05
-0.008888 0.00101153 1e-05
-0.00865954 0.00101107 1e-05
-0.00843108 0.00101059 1e-05
-0.00821175 0.00101063 1e-05
-0.00799242 0.00101012 1e-05
-0.00777309 0.00100959 1e-05
-0.00755376 0.00100905 1e-05
-0.00733443 0.00100848 1e-05
-0.00712387 0.0010085 1e-05
-0.0069133 0.00100791 1e-05
-0.00670273 0.0010073 1e-05
-0.00649217 0.00100668 1e-05
-0.0062816 0.00100603 1e-05
-0.00607944 0.00100603 1e-05
-0.00587729 0.00100537 1e-05
-0.00567514 0.00100469 1e-05
-0.00547299 0.00100398 1e-05
-0.00527083 0.00100325 1e-05
-0.00507675 0.00100325 1e-05
-0.00488268 0.00100251 1e-05
-0.0046886 0.00100175 1e-05
-0.00449453 0.00100096 1e-05
-0.00430044 0.00100016 1e-05
-0.00411412 0.00100014 1e-05
-0.0039278 0.000999325 1e-05
-0.00374148 0.000998481 1e-05
-0.00355516 0.000997611 1e-05
-0.00336883 0.000996714 1e-05
-0.00318995 0.000996692 1e-05
-0.00301107 0.000995785 1e-05
-0.0028322 0.000994849 1e-05
-0.00265332 0.000993882 1e-05
-0.00247443 0.000992884 1e-05
-0.0023027 0.000992841 1e-05
-0.00213097 0.000991828 1e-05
-0.00195924 0.00099078 1e-05
-0.00178751 0.000989697 1e-05
-0.00161577 0.000988577 1e-05
-0.0014509 0.000988498 1e-05
-0.00128603 0.000987357 1e-05
-0.00112117 0.000986167 1e-05
-0.000956302 0.000984928 1e-05
-0.000791418 0.000983638 1e-05
-0.000633135 0.000983473 1e-05
-0.000474857 0.000982123 1e-05
-0.000316579 0.000980718 1e-05
-0.000158302 0.000979256 1e-05
0 0.000977735 1e-05
0.000105677 0.000977548 1e-05
0.00021135 0.000976467 1e-05
0.000317021 0.00097535 1e-05
0.000422693 0.000974198 1e-05
0.000528387 0.000973008 1e-05
0.000634886 0.000972813 1e-05
0.000741379 0.000971593 1e-05
0.000847871 0.000970347 1e-05
0.000954362 0.000969074 1e-05
0.00106088 0.000967774 1e-05
0.00116821 0.000967611 1e-05
0.00127553 0.000966315 1e-05
0.00138285 0.000964996 1e-05
0.00149017 0.000963654 1e-05
0.00159752 0.000962378 1e-05
0.00170568 0.000962249 1e-05
0.00181383 0.000961057 1e-05
0.00192199 0.000959707 1e-05
0.00203014 0.000958336 1e-05
0.00213833 0.00095718 1e-05
0.00224733 0.000957085 1e-05
0.00235633 0.000956021 1e-05
0.00246532 0.000954673 1e-05
0.00257431 0.000953303 1e-05
0.00268334 0.000952264 1e-05
0.00279319 0.000952194 1e-05
0.00290303 0.000951243 1e-05
0.00301288 0.000949907 1e-05
0.00312272 0.000948548 1e-05
0.00323259 0.000947608 1e-05
0.00334329 0.000947546 1e-05
0.00345399 0.000946685 1e-05
0.00356469 0.000945364 1e-05
0.00367538 0.00094402 1e-05
0.00378611 0.000943159 1e-05
0.00389767 0.000943091 1e-05
0.00400923 0.000942299 1e-05
0.00412079 0.000940993 1e-05
0.00423235 0.000939662 1e-05
0.00434393 0.00093886 1e-05
0.00445636 0.000938775 1e-05
0.00456879 0.00093803 1e-05
0.00468122 0.000936734 1e-05
0.00479364 0.000935413 1e-05
0.00490609 0.00093465 1e-05
0.0050194 0.000934535 1e-05
0.0051327 0.00093382 1e-05
0.005246 0.000932526 1e-05
0.0053593 0.000931206 1e-05
0.00547262 0.000930466 1e-05
0.00558681 0.000930311 1e-05
0.00570099 0.000929608 1e-05
0.00581517 0.000928362 1e-05
0.00592935 0.000927105 1e-05
0.00604356 0.000926372 1e-05
0.00615863 0.000926168 1e-05
0.0062737 0.000925465 1e-05
0.00638877 0.000924265 1e-05
0.00650384 0.000923052 1e-05
0.00661893 0.000922314 1e-05
0.0067349 0.000922054 1e-05
0.00685087 0.000921338 1e-05
0.00696683 0.000920168 1e-05
0.0070828 0.000918984 1e-05
0.00719878 0.00091823 1e-05
0.00731565 0.000917909 1e-05
0.00743252 0.00091717 1e-05
0.00754939 0.000916017 1e-05
0.00766625 0.000914848 1e-05
0.00778313 0.000914069 1e-05
0.00790091 0.000913681 1e-05
0.00801869 0.000912911 1e-05
0.00813647 0.000911762 1e-05
0.00825424 0.000910597 1e-05
0.00837203 0.000909784 1e-05
0.00849073 0.000909325 1e-05
0.00860942 0.000908517 1e-05
0.00872811 0.000907362 1e-05
0.0088468 0.00090619 1e-05
0.00896551 0.000905336 1e-05
0.00908513 0.000904804 1e-05
0.00920475 0.00090395 1e-05
0.00932436 0.000902779 1e-05
0.00944397 0.00090159 1e-05
0.0095636 0.000900691 1e-05
0.00968415 0.00090008 1e-05
0.0098047 0.000899175 1e-05
0.00992524 0.00089798 1e-05
0.0100458 0.00089677 1e-05
0.0101663 0.000895818 1e-05
0.0102878 0.000895126 1e-05
0.0104093 0.000894165 1e-05
0.0105308 0.000892965 1e-05
0.0106523 0.000891755 1e-05
0.0107738 0.000890746 1e-05
0.0108962 0.00088997 1e-05
0.0110186 0.000888948 1e-05
0.0111411 0.000887737 1e-05
0.0112635 0.000886515 1e-05
0.0113859 0.000885444 1e-05
0.0115093 0.000884582 1e-05
0.0116327 0.000883494 1e-05
0.0117561 0.000882261 1e-05
0.0118794 0.000881016 1e-05
0.0120028 0.000879879 1e-05
0.0121272 0.000878929 1e-05
0.0122515 0.000877772 1e-05
0.0123759 0.000876506 1e-05
0.0125002 0.000875229 1e-05
0.0126245 0.000874022 1e-05
0.0127498 0.000872982 1e-05
0.0128752 0.000871752 1e-05
0.0130005 0.000870446 1e-05
0.0131258 0.000869128 1e-05
0.0132511 0.000867848 1e-05
0.0133774 0.000866716 1e-05
0.0135036 0.000865411 1e-05
0.0136299 0.000864057 1e-05
0.0137562 0.000862691 1e-05
0.0138825 0.000861334 1e-05
0.0140098 0.000860111 1e-05
0.014137 0.000858727 1e-05
0.0142643 0.000857319 1e-05
0.0143915 0.000855898 1e-05
0.0145188 0.000854465 1e-05
0.0146471 0.000853148 1e-05
0.0147753 0.000851693 1e-05
0.0149036 0.000850226 1e-05
0.0150318 0.000848745 1e-05
0.0151601 0.000847253 1e-05
0.0152893 0.000845843 1e-05
0.0154186 0.000844325 1e-05
0.0155478 0.000842794 1e-05
0.0156771 0.000841251 1e-05
0.0158063 0.000839695 1e-05
0.0159366 0.000838193 1e-05
0.0160668 0.000836609 1e-05
0.0161971 0.000835012 1e-05
0.0163273 0.000833402 1e-05
0.0164576 0.000831781 1e-05
0.0165889 0.000830189 1e-05
0.0167201 0.000828536 1e-05
0.0168514 0.000826871 1e-05
0.0169827 0.000825195 1e-05
0.0171139 0.000823506 1e-05
0.0172462 0.000821827 1e-05
0.0173785 0.000820105 1e-05
0.0175108 0.000818372 1e-05
0.0176431 0.000816627 1e-05
0.0177754 0.000814872 1e-05
0.0179087 0.000813108 1e-05
0.018042 0.000811318 1e-05
0.0181753 0.000809518 1e-05
0.0183087 0.000807707 1e-05
0.018442 0.000805886 1e-05
0.0184637 0.000805588 1e-05
0.0184854 0.00080529 1e-05
0.0185071 0.000804991 1e-05
0.0185288 0.000804692 1e-05
0.0185504 0.000804395 1e-05
0.018663 0.000802841 1e-05
0.0187757 0.00080128 1e-05
0.0188884 0.000799712 1e-05
0.0190011 0.000798138 1e-05
0.0191137 0.000796557 1e-05
0.0192491 0.00079464 1e-05
0.0193845 0.000792723 1e-05
0.0195199 0.000790798 1e-05
0.0196553 0.000788864 1e-05
0.0197907 0.000786923 1e-05
0.0199272 0.000784942 1e-05
0.0200636 0.000782969 1e-05
0.0202001 0.000780989 1e-05
0.0203365 0.000779004 1e-05
0.020473 0.000777012 1e-05
0.0206105 0.000774976 1e-05
0.020748 0.000772955 1e-05
0.0208855 0.000770931 1e-05
0.021023 0.000768901 1e-05
0.0211606 0.000766868 1e-05
0.0212991 0.000764789 1e-05
0.0214377 0.000762731 1e-05
0.0215763 0.000760671 1e-05
0.0217149 0.000758609 1e-05
0.0218535 0.000756545 1e-05
0.0219931 0.000754435 1e-05
0.0221328 0.000752352 1e-05
0.0222724 0.000750268 1e-05
0.0224121 0.000748185 1e-05
0.0225517 0.000746101 1e-05
0.0226925 0.000743975 1e-05
0.0228332 0.000741875 1e-05
0.022974 0.00073978 1e-05
0.0231147 0.000737687 1e-05
0.0232555 0.000735593 1e-05
0.0233973 0.000733462 1e-05
0.0235391 0.000731356 1e-05
0.023681 0.000729261 1e-05
0.0238228 0.000727171 1e-05
0.0239647 0.000725081 1e-05
0.0241076 0.000722963 1e-05
0.0242505 0.000720872 1e-05
0.0243935 0.000718797 1e-05
0.0245364 0.000716733 1e-05
0.0246794 0.000714672 1e-05
0.0248234 0.00071259 1e-05
0.0249675 0.000710538 1e-05
0.0251115 0.00070851 1e-05
0.0252556 0.000706495 1e-05
0.0253996 0.000704484 1e-05
0.0255448 0.000702457 1e-05
0.02569 0.00070046 1e-05
0.0258351 0.000698488 1e-05
0.0259803 0.000696532 1e-05
0.0261255 0.000694583 1e-05
0.0262718 0.000692626 1e-05
0.0264181 0.000690697 1e-05
0.0265644 0.000688798 1e-05
0.0267107 0.000686916 1e-05
0.026857 0.000685047 1e-05
0.0270044 0.000683175 1e-05
0.0271519 0.000681333 1e-05
0.0272993 0.000679522 1e-05
0.0274468 0.000677731 1e-05
0.0275942 0.000675957 1e-05
0.0277428 0.000674187 1e-05
0.0278914 0.000672447 1e-05
0.0280399 0.000670738 1e-05
0.0281885 0.000669052 1e-05
0.0283371 0.000667386 1e-05
0.0284869 0.000665728 1e-05
0.0286366 0.0006641 1e-05
0.0287863 0.000662502 1e-05
0.0289361 0.00066093 1e-05
0.0290858 0.00065938 1e-05
0.0292367 0.00065784 1e-05
0.0293876 0.000656329 1e-05
0.0295385 0.000654847 1e-05
0.0296894 0.000653392 1e-05
0.0298403 0.000651959 1e-05
0.0299924 0.000650537 1e-05
0.0301445 0.000649143 1e-05
0.0302966 0.000647775 1e-05
0.0304486 0.000646433 1e-05
0.0306007 0.000645112 1e-05
0.030754 0.000643803 1e-05
0.0309072 0.000642517 1e-05
0.0310605 0.000641255 1e-05
0.0312138 0.000640016 1e-05
0.031367 0.000638796 1e-05
0.0315215 0.000637586 1e-05
0.0316759 0.000636395 1e-05
0.0318304 0.000635221 1e-05
0.0319848 0.000634069 1e-05
0.0321393 0.00063293 1e-05
0.0322949 0.000631798 1e-05
0.0324506 0.000630678 1e-05
0.0326062 0.000629571 1e-05
0.0327619 0.000628478 1e-05
0.0329175 0.000627395 1e-05
[...]
POINT_DATA 10900
 FIELD attributes 2
p 1 10900 float
0.263911 0.213808 0.15375 0.0931289 0.0319442 -0.0933614 -0.166632 -0.24661 -0.326589 -0.406567 -0.491749 -0.495967 -0.516514 -0.537009 -0.557451 -0.589619 -0.578996 -0.588133 -0.597205 -0.60621 -0.631523 -0.627584 -0.640841 -0.654042 -0.667188 -0.696451 -0.69192 -0.70372 -0.715473 -0.727178 -0.755652 -0.748438 -0.758212 -0.767946 -0.77764 -0.80594 -0.797107 -0.80662 -0.816097 -0.825537 -0.855927 -0.845209 -0.854801 -0.864359 -0.87388 -0.90713 -0.893667 -0.903138 -0.912574 -0.921974 -0.958445 -0.941722 -0.951173 -0.960587 -0.969963 -1.01033 -0.990131 -0.999928 -1.00969 -1.01941 -1.06464 -1.04073 -1.05109 -1.06141 -1.07168 -1.12246 -1.0943 -1.10532 -1.11629 -1.12721 -1.18436 -1.15151 -1.16318 -1.17479 -1.18634 -1.25044 -1.21186 -1.22401 -1.2361 -1.24812 -1.32027 -1.27477 -1.28656 -1.29827 -1.30988 -1.39065 -1.32845 -1.33144 -1.33434 -1.33714 -1.41744 -1.30548 -1.29672 -1.28788 -1.27895 -1.39042 -1.26466 -1.25785 -1.25098 -1.24405 -1.3717 -1.26264 -1.26141 -1.26014 -1.26783 -1.38366 -1.29959 -1.289 -1.28942 -1.31034 -1.4041 -1.33946 -1.32284 -1.32489 -1.35506 -1.4357 -1.38777 -1.37009 -1.37476 -1.41178 -1.48219 -1.44533 -1.42727 -1.43374 -1.4751 -1.53761 -1.50807 -1.48963 -1.49746 -1.54236 -1.59956 -1.57525 -1.55638 -1.56544 -1.61347 -1.66695 -1.6462 -1.62643 -1.63641 -1.68718 -1.73785 -1.71949 -1.70125 -1.71357 -1.76212 -1.81052 -1.79386 -1.77734 -1.79066 -1.83724 -1.88365 -1.86813 -1.85278 -1.86672 -1.9116 -1.95629 -1.94165 -1.92719 -1.94153 -1.98486 -2.02801 -2.01404 -2.00027 -2.01482 -2.05677 -2.09853 -2.08521 -2.0721 -2.08671 -2.12727 -2.16763 -2.15498 -2.14252 -2.15706 -2.19617 -2.2351 -2.22311 -2.21133 -2.22591 -2.26332 -2.30078 -2.28949 -2.28114 -2.2956 -2.32858 -2.36455 -2.354 -2.34934 -2.36317 -2.39192 -2.42638 -2.41659 -2.41534 -2.42857 -2.45329 -2.48623 -2.4772 -2.47907 -2.49172 -2.51265 -2.54406 -2.53579 -2.54049 -2.55256 -2.56993 -2.5998 -2.5923 -2.59952 -2.61103 -2.62505 -2.6534 -2.64668 -2.65613 -2.66708 -2.67804 -2.70483 -2.69986 -2.71025 -2.72066 -2.73108 -2.75402 -2.75194 -2.7618 -2.77168 -2.78157 -2.80096 -2.80143 -2.81078 -2.82015 -2.82954 -2.84567 -2.84835 -2.85723 -2.86612 -2.87502 -2.88823 -2.8928 -2.90123 -2.90967 -2.91813 -2.92873 -2.93488 -2.94291 -2.95094 -2.95898 -2.96731 -2.96832 -2.96956 -2.9708 -2.97204 -2.97327 -2.97982 -2.98637 -2.99294 -2.99951 -3.0057 -3.01334 -3.02089 -3.02844 -3.036 -3.04254 -3.05031 -3.05772 -3.06514 -3.07257 -3.07814 -3.08631 -3.09374 -3.10118 -3.10862 -3.11322 -3.12207 -3.12967 -3.13727 -3.14487 -3.14853 -3.15829 -3.16614 -3.17398 -3.18179 -3.18446 -3.19506 -3.20342 -3.21159 -3.21875 -3.22133 -3.23254 -3.24185 -3.25047 -3.25703 -3.25985 -3.272 -3.28259 -3.29189 -3.29802 -3.30124 -3.31429 -3.32637 -3.33682 -3.34304 -3.34734 -3.36181 -3.37576 -3.38761 -3.39406 -3.39953 -3.4157 -3.43177 -3.44507 -3.45209 -3.45909 -3.47725 -3.49539 -3.51004 -3.5191 -3.52815 -3.54874 -3.56932 -3.58579 -3.59702 -3.60824 -3.6313 -3.65433 -3.67283 -3.68643 -3.70002 -3.72563 -3.75123 -3.772 -3.78818 -3.80436 -3.83279 -3.86121 -3.88441 -3.90306 -3.92171 -3.95293 -3.98414 -4.00967 -4.03045 -4.05122 -4.08487 -4.11851 -4.14615 -4.16883 -4.19151 -4.2273 -4.26295 -4.29245 -4.31711 -4.34154 -4.37927 -4.41621 -4.4475 -4.47416 -4.50001 -4.53937 -4.57724 -4.60988 -4.6381 -4.66483 -4.70528 -4.74351 -4.77707 -4.80656 -4.83381 -4.87492 -4.91305 -4.9471 -4.97758 -5.00499 -5.04636 -5.0839 -5.11801 -5.14917 -5.17632 -5.21751 -5.25394 -5.2877 -5.31926 -5.34576 -5.38639 -5.42122 -5.45425 -5.48601 -5.51152 -5.55124 -5.58401 -5.61598 -5.64778 -5.67203 -5.7102 -5.7408 -5.77142 -5.80206 -5.82592 -5.8613 -5.8903 -5.91933 -5.94838 -5.97204 -6.00424 -6.03144 -6.05868 -6.08595 -6.10947 -6.1381 -6.16335 -6.18862 -6.21393 -6.23741 -6.25986 -6.28067 -6.3015 -6.32237 -6.33911 -6.34229 -6.34546 -6.34864 -6.35182 -6.35473 -6.37603 -6.39707 -6.41815 -6.43928 -6.4581 -6.47949 -6.49812 -6.51681 -6.53555 -6.54966 -6.57138 -6.58748 -6.60363 -6.61985 -6.62887 -6.65049 -6.66461 -6.67808 -6.68931 -6.69507 -6.71393 -6.72886 -6.73941 -6.74461 -6.74734 -6.7632 -6.77913 -6.78584 -6.78514 -6.78453 -6.79705 -6.80966 -6.81395 -6.80954 -6.80522 -6.81402 -6.82257 -6.82307 -6.81615 -6.80767 -6.81224 -6.81197 -6.808 -6.80289 -6.7897 -6.78827 -6.77908 -6.77 -6.76104 -6.74875 -6.74481 -6.73837 -6.73197 -6.72558 -6.71974 -6.71181 -6.70393 -6.6961 -6.68832 -6.67731 -6.66211 -6.64178 -6.62164 -6.60074 -6.57222 -6.55426 -6.5323 -6.50457 -6.46884 -6.43204 -6.40553 -6.37925 -6.344 -6.29746 -6.25107 -6.21444 -6.17197 -6.12489 -6.07806 -6.02221 -5.99574 -5.96315 -5.93065 -5.89825 -5.86938 -5.8425 -5.81569 -5.78897 -5.76233 -5.7307 -5.66787 -5.59621 -5.52502 -5.44878 -5.36626 -5.2898 -5.2138 -5.12659 -5.02738 -4.9282 -4.8334 -4.73016 -4.62322 -4.51685 -4.40792 -4.39827 -4.38776 -4.37695 -4.36614 -4.35554 -4.24389 -4.13297 -4.02281 -3.90987 -3.78558 -3.6554 -3.52619 -3.38135 -3.22189 -3.06181 -2.93782 -2.80647 -2.66971 -2.53372 -2.42237 -2.38485 -2.34741 -2.31007 -2.27106 -2.23005 -2.06001 -1.86869 -1.67971 -1.46712 -1.2492 -1.05679 -0.856246 -0.63898 -0.425024 -0.273557 -0.244776 -0.216092 -0.187503 -0.154087 -0.119187 0.108869 0.341054 0.567339 0.795938 1.03118 1.12526 1.21776 1.29477 1.36967 1.43348 1.55735 1.67792 1.7957 1.91451 2.03818 2.17301 2.30475 2.40621 2.49822 2.57897 2.65677 2.73367 2.80794 2.87598 2.94616 3.1092 3.2715 3.38453 3.47978 3.5781 3.61904 3.65997 3.69855 3.72516 3.7519 3.9142 4.08053 4.19029 4.24646 4.29996 4.31617 4.33124 4.3345 4.33796 4.34216 4.39064 4.43939 4.48841 4.51236 4.52362 4.54332 4.56443 4.5599 4.53143 4.50529 4.48398 4.46055 4.43352 4.3978 4.34875 4.30889 4.26974 4.23053 4.19114 4.1364 4.09496 4.05704 4.01912 3.9812 3.93641 3.90706 3.88128 3.85586 3.83082 3.80452 3.79636 3.79031 3.78494 3.78026 3.77978 3.77851 3.77726 3.77602 3.7748 3.77434 3.78639 3.7996 3.81336 3.82769 3.84754 3.87477 3.90738 3.94129 3.97867 4.01916 4.06286 4.10704 4.15475 4.20854 4.26398 4.31433 4.36619 4.41869 4.47141 4.5117 4.51974 4.52778 4.53582 4.54357 4.55068 4.61217 4.67366 4.73526 4.79298 4.84827 4.91351 4.97879 5.03641 5.09351 5.1513 5.17635 5.19986 5.22182 5.24377 5.26507 5.30073 5.33638 5.37202 5.40892 5.44758 5.50074 5.55389 5.61165 5.67289 5.73438 5.77368 5.81468 5.85741 5.90013 5.94272 5.95667 5.97061 5.98456 5.99725 6.00889 6.06686 6.1223 6.17774 6.22436 6.27032 6.32516 6.37589 6.42152 6.46718 6.51376 6.51468 6.51559 6.51651 6.51751 6.51859 6.56377 6.60929 6.65484 6.7053 6.75909 6.79878 6.83927 6.88769 6.93617 6.98811 6.99823 7.00952 7.022 7.03449 7.0472 7.08173 7.11625 7.15078 7.18082 7.20618 7.25644 7.3067 7.34841 7.38168 7.4148 7.44765 7.47598 7.50071 7.52546 7.55135 7.56322 7.57509 7.58696 7.60061 7.61677 7.6465 7.68227 7.71825 7.76578 7.81481 7.84313 7.87428 7.9162 7.95811 8.00582 8.01509 8.0275 8.04148 8.05545 8.07001 8.09677 8.12351 8.15025 8.17355 8.18933 8.2371 8.28314 8.32031 8.34341 8.36644 8.41317 8.45285 8.48304 8.51329 8.53805 8.5505 8.55946 8.56744 8.57543 8.58356 8.60511 8.62669 8.64829 8.67271 8.70829 8.72676 8.74895 8.77863 8.82698 8.87482 8.89225 8.91309 8.94981 8.98961 9.03662 9.0469 9.06774 9.09018 9.11261 9.13705 9.15013 9.16321 9.17629 9.18846 9.19318 9.23773 9.27305 9.30836 9.33188 9.34402 9.39145 9.43888 9.46831 9.47962 9.4909 9.53762 9.56898 9.59273 9.61655 9.63374 9.64736 9.65423 9.66111 9.66799 9.67491 9.69143 9.70798 9.72456 9.74118 9.77608 9.78236 9.80355 9.82665 9.86637 9.91573 9.92122 9.92655 9.95385 10.0029 10.0516 10.0563 10.0715 10.1024 10.136 10.1841 10.19 10.2156 10.2413 10.2669 10.2974 10.3013 10.3052 10.309 10.3129 10.3134 10.3469 10.3771 10.4073 10.4376 10.4376 10.4873 10.5267 10.5566 10.5604 10.5592 10.6083 10.6574 10.6814 10.6797 10.6778 10.7264 10.76 10.7782 10.7959 10.7935 10.8336 10.8518 10.8701 10.8885 10.9059 10.9081 10.9091 10.9101 10.9111 10.9122 10.9294 10.9466 10.964 10.9814 11.019 11.0168 11.0351 11.0534 11.0768 11.129 11.1202 11.1259 11.1442 11.1844 11.2361 11.2269 11.2173 11.2382 11.2895 11.3407 11.3311 11.321 11.3415 11.3924 11.4432 11.4331 11.4228 11.4446 11.4932 11.5436 11.5332 11.5356 11.5575 11.5924 11.6424 11.6317 11.6469 11.6688 11.6906 11.7398 11.7351 11.7569 11.7787 11.8006 11.8359 11.8418 11.8609 11.88 11.8991 11.9242 11.9258 11.9273 11.9289 11.9304 11.9308 11.9537 11.9756 11.9975 12.0195 12.0238 12.0627 12.0846 12.1067 12.1288 12.1158 12.1666 12.1935 12.2156 12.2215 12.2068 12.2571 12.301 12.3234 12.3115 12.2966 12.3465 12.3968 12.4148 12.4001 12.385 12.4346 12.4845 12.5022 12.4873 12.472 12.5212 12.5607 12.5745 12.5729 12.5573 12.6063 12.6314 12.6454 12.6568 12.6411 12.6882 12.7022 12.7163 12.7305 12.7233 12.7592 12.7733 12.7875 12.8018 12.8038 12.8304 12.8446 12.8588 12.8731 12.8827 12.8982 12.9089 12.9196 12.9303 12.9399 12.9436 12.9474 12.9512 12.9549 12.9605 12.9728 12.987 13.0012 13.0154 13.0377 13.0436 13.0577 13.0718 13.086 13.1133 13.1139 13.1279 13.142 13.1561 13.1875 13.1837 13.1976 13.2115 13.2255 13.2603 13.2528 13.2666 13.2804 13.2942 13.3317 13.3211 13.3348 13.3485 13.3622 13.4017 13.3888 13.4023 13.4158 13.4293 13.4705 13.4555 13.4689 13.4822 13.4956 13.5381 13.5215 13.5347 13.5479 13.5611 13.6045 13.5866 13.5997 13.6128 13.6258 13.67 13.6512 13.6641 13.677 13.69 13.7345 13.715 13.7279 13.7408 13.7537 13.7987 13.7789 13.7918 13.8047 13.8176 13.8625 13.8426 13.8558 13.8689 13.882 13.9272 13.9083 13.9216 13.9349 13.9482 13.9927 13.9745 13.9888 14.0031 14.0174 14.0628 14.0477 14.0624 14.0771 14.0919 14.1346 14.1214 14.1388 14.1563 14.1738 14.219 14.2146 14.2311 14.2476 14.2641 14.2985 14.2965 14.3134 14.3303 14.3473 14.3757 14.373 14.3726 14.3719 14.371 14.3784 14.3183 14.2941 14.27 14.2518 14.2667 14.2108 14.1789 14.1607 14.1614 14.1843 14.1367 14.0982 14.0805 14.0876 14.1042 14.0508 13.9982 13.9757 13.9855 13.9972 13.9388 13.8796 13.854 13.8623 13.8714 13.81 13.7477 13.7186 13.7229 13.7281 13.6619 13.5948 13.5609 13.5605 13.5609 13.4887 13.4156 13.3761 13.3702 13.3652 13.2863 13.2065 13.1608 13.1489 13.1378 13.0517 12.9646 12.9116 12.8923 12.8739 12.7791 12.6873 12.626 12.5951 12.5689 12.4651 12.3685 12.2976 12.2525 12.2159 12.1005 11.9969 11.9157 11.8566 11.8105 11.6842 11.5732 11.4793 11.402 11.341 11.1982 11.0771 10.9704 10.8774 10.8069 10.6534 10.5211 10.3968 10.2795 10.1839 10.0032 9.85796 9.71859 9.58333 9.48415 9.29869 9.13271 8.96696 8.80124 8.65257 8.42416 8.24603 8.06806 7.89025 7.75533 7.5386 7.31031 7.08205 6.8538 6.61681 6.34347 6.12648 5.91028 5.6949 5.50413 5.37623 5.21884 5.06138 4.90384 4.68185 4.51378 4.34609 4.17881 4.01194 3.79077 3.45635 3.17875 2.89803 2.61404 2.55451 2.63123 2.28496 1.94381 1.10605 0