/*--------------------------------*- C++ -*----------------------------------*\
| =========                 |                                                 |
| \\      /  F ield         | OpenFOAM: The Open Source CFD Toolbox           |
|  \\    /   O peration     | Version:  v1906                                 |
|   \\  /    A nd           | Web:      www.OpenFOAM.com                      |
|    \\/     M anipulation  |                                                 |
\*---------------------------------------------------------------------------*/
FoamFile
{
    version     2.0;
    format      ascii;
    class       volScalarField;
    location    "1276";
    object      epsilon;
}
// * * * * * * * * * * * * * * * * * * * * * * * * * * * * * * * * * * * * * //

dimensions      [0 2 -3 0 0 0 0];


internalField   nonuniform List<scalar> 
12225
(
8534.02
8352.95
7991.38
7605.1
7244.29
6922.38
6639.03
6393.41
6174.85
5988.61
5815.32
5676.32
5564.97
5475.4
5393.81
5335.5
5265.91
5239.8
612.84
1496.62
1698.53
1689.07
1643.06
1565
1507.05
1461.04
1422.79
1390.28
1362.87
1338.77
1320.25
1303.99
1290.47
1279.45
1265.02
1256.56
136.092
458.854
618.698
686.922
717.305
720.674
717.575
710.235
700.281
689.73
679.715
669.723
660.663
652.167
644.148
637.546
629.281
625.464
58.494
196.182
292.43
349.17
383.809
402.638
412.977
418.173
419.615
419.071
417.536
414.786
411.603
408.194
404.568
401.353
396.974
395.309
35.983
104.797
162.954
203.263
231.268
250.092
262.828
271.463
277.088
280.627
282.803
283.886
284.094
283.874
283.269
282.46
280.923
280.875
26.8377
65.6337
102.216
130.425
151.688
167.445
179.141
187.872
194.354
199.14
202.686
205.267
207.069
208.312
209.117
209.606
209.72
210.274
22.3043
46.1292
70.0866
90.0242
105.968
118.524
128.395
136.183
142.335
147.196
151.052
154.11
156.518
158.411
159.892
161.048
161.88
162.927
19.7657
35.3024
51.5623
65.8845
77.8829
87.7556
95.8421
102.473
107.921
112.403
116.105
119.17
121.706
123.808
125.551
127
128.186
129.441
18.2251
28.7916
40.1556
50.6105
59.7074
67.4551
74.0054
79.5375
84.2138
88.1735
91.5357
94.3978
96.8388
98.9244
100.71
102.244
103.567
104.865
17.2354
24.6378
32.7697
40.5141
47.4715
53.5697
58.862
63.4402
67.3995
70.8271
73.8
76.3844
78.6354
80.6001
82.319
83.8272
85.1642
86.4303
16.5719
21.8684
27.7958
33.6058
38.9716
43.7937
48.0736
51.853
55.1846
58.1219
60.7142
63.0056
65.0346
66.8344
68.4345
69.8616
71.1467
72.3457
16.1501
20.118
24.6283
29.1495
33.4184
37.3328
40.8712
44.048
46.8917
49.435
51.7103
53.7477
55.5742
57.2142
58.6895
60.0205
61.2308
62.3545
15.8382
18.8308
22.2847
25.821
29.2309
32.4187
35.3508
38.0251
40.4537
42.6548
44.6485
46.4546
48.0918
49.5774
50.9275
52.1574
53.2844
54.33
15.58
17.7731
20.3482
23.0456
25.7067
28.2475
30.6292
32.8388
34.8767
36.7498
38.4685
40.0443
41.489
42.8138
44.0298
45.1479
46.1798
47.1389
15.3746
16.9401
18.8141
20.8271
22.8634
24.853
26.7574
28.5572
30.2448
31.8193
33.2837
34.643
35.9034
37.0715
38.1541
39.1585
40.0919
40.9625
15.2202
16.3203
17.6662
19.1523
20.6973
22.2457
23.7614
25.2226
26.6171
27.9385
29.1846
30.3558
31.454
32.4824
33.4444
34.3441
35.1858
35.9739
15.1154
15.9034
16.8899
18.0101
19.2077
20.4385
21.6706
22.8819
24.0575
25.188
26.2681
27.2949
28.2677
29.1868
30.0538
30.8704
31.639
32.3613
15.0629
15.6954
16.5005
17.4331
18.4493
19.5123
20.5928
21.6693
22.726
23.7523
24.7413
25.6886
26.5919
27.4506
28.2648
29.0354
29.7639
30.4525
15.079
15.7585
16.6172
17.6041
18.6719
19.7823
20.9057
22.0204
23.1114
24.1684
25.1849
26.157
27.0828
27.9617
28.794
29.5806
30.3224
31.0203
15.1988
16.233
17.5007
18.9059
20.3738
21.8524
23.3072
24.7167
26.0681
27.3546
28.5732
29.7233
30.8061
31.8237
32.7786
33.6733
34.5101
35.2898
15.4072
17.0667
19.0414
21.1513
23.2773
25.3488
27.3279
29.1964
30.9477
32.5819
34.1026
35.5155
36.8272
38.0444
39.1738
40.221
41.1904
42.0824
15.7671
18.5249
21.7123
24.9934
28.1791
31.1794
33.9598
36.5147
38.8519
40.9856
42.9323
44.7085
46.3304
47.8127
49.1693
50.4115
51.5479
52.5772
16.3867
21.0659
26.3183
31.5136
36.362
40.7671
44.7214
48.2517
51.3977
54.2012
56.702
58.9364
60.9365
62.7308
64.3449
65.8003
67.1146
68.2796
17.4988
25.6603
34.5308
42.8942
50.3476
56.8496
62.4804
67.3434
71.5447
75.181
78.3357
81.0797
83.4732
85.5668
87.4057
89.0267
90.4678
91.7069
19.6474
34.5755
50.1052
63.833
75.3836
84.9727
92.9185
99.4898
104.937
109.467
113.246
116.407
119.058
121.285
123.166
124.758
126.146
127.275
24.2998
53.9036
82.4117
105.38
123.266
137.149
147.962
156.309
162.791
167.843
171.773
174.829
177.191
178.996
180.395
181.434
182.293
182.836
36.4922
103.325
158.512
197.273
224.157
242.904
255.96
264.561
270.35
274.155
276.469
277.737
278.216
278.117
277.766
277.019
276.267
275.225
81.6126
262.528
372.083
433.121
466.544
484.625
492.86
493.494
492.264
489.337
485.117
480.465
475.709
470.813
466.221
461.458
457.497
453.139
390.158
975.275
1160.18
1205.52
1197.66
1174.09
1134.76
1094.94
1063.52
1037.63
1015.61
996.498
979.866
965.067
952.205
940.454
930.55
921.131
6457.22
6260.43
5992.31
5735.77
5500.35
5289.59
5101.41
4933.97
4785.16
4652.53
4533.89
4427.17
4331.03
4243.68
4164.75
4092.05
4026.53
3964.87
6.47252
9.04944
15.5752
20.1141
23.6347
26.1617
28.1769
29.7549
31.0662
32.1519
33.0802
33.8755
34.5692
35.1741
35.7017
36.1548
36.5332
36.8351
37.0564
37.1981
37.2154
37.1601
36.8859
36.2665
35.3179
34.0562
32.493
30.6079
28.4153
25.8357
22.8528
19.5306
16.0351
12.5198
10.319
9.19789
9.01091
9.3851
10.3198
11.0252
11.2277
10.8161
9.56437
8.09885
7.45536
7.88333
9.02505
10.9154
13.5989
17.4125
22.6901
28.3652
33.948
39.546
45.1501
50.6349
55.9791
61.1802
66.2393
71.1628
75.9619
80.6509
85.2463
89.7661
94.2284
98.6513
103.052
107.447
111.851
116.278
120.739
125.244
129.802
134.42
139.104
143.858
148.686
153.588
158.568
163.623
168.752
173.953
179.223
184.556
189.946
195.387
200.87
206.385
211.922
217.468
223.013
228.543
234.049
239.52
244.951
250.335
255.659
260.934
266.221
271.533
276.874
282.239
287.614
292.98
298.32
303.606
308.811
313.91
318.894
323.807
328.62
333.3
337.784
341.974
345.697
348.559
350.415
352.531
354.289
355.977
357.48
358.871
360.043
361.219
362.14
363.126
363.95
364.665
365.289
365.783
365.982
366.594
366.414
366.815
366.874
367.006
367.06
367.108
367.136
367.163
367.198
367.249
367.324
367.434
367.59
367.794
368.076
368.439
369.029
369.47
370.194
370.867
371.73
372.722
373.843
375.116
376.545
378.134
379.875
381.812
383.988
386.502
389.92
394.384
399.306
404.605
407.585
409.643
411.738
413.822
415.902
417.7
419.44
420.54
421.633
421.477
421.961
419.85
418.568
391.342
19.163
13.8758
13.2074
13.3841
13.7769
14.2054
14.6032
14.9703
15.3024
15.6123
15.8907
16.1375
16.3496
16.5294
16.6788
16.8016
16.901
16.98
17.0411
17.0873
17.1235
17.1609
17.2199
17.3299
17.4487
17.5431
17.5984
17.6528
17.8551
18.2435
18.7739
19.359
19.8394
20.4273
21.214
22.2423
23.5477
25.1532
27.0236
28.9782
30.7235
31.9786
32.6601
32.9854
33.1903
33.3087
33.3496
33.3681
33.4638
33.7227
34.18
34.7935
35.5285
36.3894
37.3478
38.3875
39.4938
40.6541
41.8575
43.095
44.3598
45.6464
46.9512
48.2714
49.6059
50.9539
52.3156
53.6915
55.0825
56.4898
57.9145
59.3578
60.8211
62.3053
63.8116
65.3408
66.8938
68.4713
70.0737
71.7013
73.3545
75.0333
76.7377
78.4673
80.2221
82.0014
83.8051
85.6325
87.4835
89.3582
91.2568
93.1807
95.1315
97.1115
99.1205
101.158
103.23
105.347
107.464
109.58
111.691
113.792
115.871
117.934
119.991
122.052
124.136
126.274
128.532
130.804
133.047
135.244
137.376
139.424
141.369
143.202
144.962
146.708
148.406
150.072
151.696
153.279
154.816
156.315
157.769
159.182
160.541
161.851
163.11
164.312
165.468
166.586
167.627
168.666
169.633
170.566
171.451
172.295
173.096
173.858
174.582
175.271
175.926
176.551
177.149
177.725
178.276
178.811
179.329
179.812
180.295
180.757
181.217
181.673
182.122
182.57
183.021
183.477
183.944
184.425
184.949
185.559
186.217
186.903
187.6
188.256
188.55
188.606
188.512
188.278
187.895
187.351
186.625
185.741
184.635
183.365
181.78
180.071
177.151
175.907
40.3149
21.752
17.8188
15.9566
15.23
14.8039
14.6412
14.6324
14.6916
14.8026
14.9253
15.0517
15.1719
15.2866
15.3958
15.5032
15.6121
15.727
15.8533
16
16.1827
16.4339
16.7705
17.1818
17.6596
18.2105
18.8648
19.6772
20.7208
22.0665
23.7595
25.8268
28.2855
30.9766
33.8146
36.731
39.6433
42.414
44.7901
46.4095
47.0168
46.6444
45.4425
43.7146
41.7687
39.8471
38.1239
36.7132
35.6744
35.0494
34.8122
34.8758
35.2225
35.7874
36.5283
37.3969
38.3531
39.3645
40.4072
41.4642
42.5243
43.5816
44.6335
45.6797
46.722
47.7626
48.8043
49.85
50.9025
51.9641
53.0372
54.1236
55.225
56.3429
57.4784
58.6326
59.8063
61.0001
62.2147
63.4507
64.7084
65.9884
67.2911
68.6173
69.9677
71.3432
72.7454
74.1762
75.6383
77.1356
78.6735
80.2599
81.9064
83.6307
85.4304
87.2695
89.1331
91.012
92.899
94.7905
96.6825
98.5698
100.449
102.321
104.193
106.07
107.955
109.849
111.745
113.627
115.483
117.309
119.098
120.848
122.558
124.232
125.881
127.513
129.127
130.721
132.288
133.821
135.317
136.774
138.189
139.56
140.885
142.164
143.394
144.574
145.705
146.788
147.818
148.802
149.733
150.615
151.445
152.225
152.955
153.635
154.267
154.851
155.388
155.881
156.33
156.735
157.099
157.421
157.704
157.946
158.152
158.321
158.455
158.553
158.616
158.649
158.647
158.61
158.546
158.456
158.342
158.209
158.046
157.841
157.582
157.212
156.676
156.008
155.226
154.327
153.3
152.146
150.852
149.438
147.868
146.194
144.305
142.342
140.137
139.837
53.8841
28.4561
22.1814
19.4564
17.9889
17.175
16.672
16.4315
16.3043
16.276
16.291
16.3433
16.417
16.5143
16.6331
16.7791
16.9569
17.1741
17.4388
17.7607
18.1543
18.6479
19.2943
20.0809
21.002
22.0587
23.2582
24.6095
26.1183
27.7856
29.6176
31.6172
33.7773
36.0689
38.4361
40.7832
42.953
44.7165
45.8254
46.178
45.7994
44.7509
43.2293
41.4749
39.7362
38.1932
36.9583
36.0889
35.6181
35.4777
35.6269
36.035
36.6663
37.4638
38.3748
39.3561
40.3749
41.4085
42.4426
43.4695
44.4865
45.4943
46.4954
47.4937
48.4931
49.498
50.5119
51.5377
52.578
53.6356
54.7127
55.8112
56.9329
58.0792
59.2513
60.4502
61.6767
62.9314
64.2148
65.5271
66.8687
68.2396
69.6401
71.07
72.5297
74.0193
75.5391
77.0897
78.6719
80.2867
81.9352
83.6188
85.338
87.0914
88.8741
90.6798
92.5048
94.3455
96.1975
98.0565
99.9188
101.781
103.641
105.498
107.354
109.208
111.059
112.903
114.737
116.553
118.348
120.118
121.862
123.58
125.272
126.944
128.603
130.259
131.931
133.595
135.233
136.834
138.395
139.911
141.381
142.802
144.172
145.489
146.754
147.963
149.118
150.216
151.256
152.239
153.164
154.03
154.836
155.584
156.273
156.904
157.477
157.992
158.45
158.853
159.201
159.495
159.736
159.924
160.061
160.15
160.187
160.173
160.113
160.004
159.848
159.645
159.394
159.096
158.753
158.364
157.928
157.434
156.869
156.229
155.507
154.687
153.746
152.687
151.508
150.209
148.787
147.25
145.593
143.832
141.95
139.983
137.881
135.773
133.756
132.868
75.2872
35.5682
26.8916
23.0716
21.0294
19.7887
19.0177
18.5421
18.2554
18.1261
18.0767
18.0986
18.1641
18.2751
18.4248
18.6206
18.8671
19.1773
19.5632
20.0381
20.6033
21.2654
22.0396
22.9382
23.9669
25.1206
26.3805
27.7158
29.0945
30.4978
31.9286
33.406
34.9492
36.5504
38.1614
39.6657
40.8792
41.6061
41.8003
41.4809
40.7392
39.762
38.7282
37.7863
37.0231
36.4977
36.2492
36.238
36.468
36.9333
37.5867
38.3846
39.2871
40.2626
41.2852
42.3349
43.3976
44.4645
45.5311
46.5958
47.6591
48.723
49.7903
50.8643
51.9482
53.0452
54.1586
55.292
56.4483
57.6301
58.8396
60.0788
61.3492
62.652
63.9885
65.3593
66.765
68.2061
69.6827
71.1949
72.7427
74.3258
75.9442
77.5973
79.285
81.0067
82.762
84.5503
86.3709
88.223
90.1055
92.0168
93.9548
95.9169
97.9002
99.9021
101.921
103.955
106.002
108.061
110.128
112.201
114.279
116.359
118.441
120.519
122.589
124.649
126.692
128.715
130.714
132.688
134.634
136.551
138.441
140.305
142.145
143.962
145.754
147.512
149.227
150.896
152.514
154.078
155.587
157.037
158.426
159.753
161.017
162.215
163.348
164.413
165.41
166.339
167.198
167.987
168.707
169.357
169.938
170.449
170.891
171.263
171.568
171.805
171.977
172.085
172.125
172.103
172.02
171.876
171.67
171.403
171.076
170.69
170.243
169.736
169.169
168.542
167.855
167.105
166.287
165.393
164.417
163.36
162.214
160.967
159.61
158.137
156.546
154.837
153.016
151.087
149.061
146.938
144.747
142.477
140.202
137.918
135.923
134.29
92.735
43.0075
31.6364
26.6897
24.076
22.4604
21.4715
20.8223
20.4386
20.205
20.0969
20.0769
20.1364
20.2637
20.4482
20.6917
20.9982
21.3789
21.8396
22.3717
22.9667
23.6199
24.336
25.1208
25.9734
26.883
27.8316
28.7992
29.771
30.7453
31.7333
32.735
33.7206
34.6461
35.443
36.0468
36.4252
36.5857
36.5675
36.4035
36.1607
35.9125
35.7307
35.6642
35.744
35.9909
36.3988
36.9611
37.6774
38.5175
39.4585
40.478
41.5562
42.6763
43.8248
44.9916
46.1696
47.3544
48.544
49.7381
50.9379
52.1456
53.3641
54.5968
55.8471
57.1186
58.4147
59.7387
61.0936
62.482
63.9063
65.3686
66.8704
68.4132
69.9981
71.6259
73.2971
75.012
76.7706
78.5729
80.4185
82.3068
84.2372
86.2088
88.2205
90.2712
92.3595
94.4838
96.6425
98.8337
101.055
103.305
105.581
107.881
110.204
112.546
114.908
117.287
119.681
122.086
124.501
126.922
129.346
131.768
134.185
136.592
138.986
141.363
143.717
146.047
148.347
150.615
152.849
155.046
157.206
159.328
161.409
163.447
165.437
167.375
169.256
171.075
172.829
174.515
176.13
177.673
179.14
180.529
181.838
183.067
184.213
185.276
186.254
187.146
187.952
188.672
189.306
189.853
190.314
190.689
190.976
191.179
191.294
191.326
191.276
191.147
190.938
190.652
190.29
189.851
189.337
188.748
188.086
187.352
186.544
185.664
184.713
183.691
182.598
181.433
180.19
178.864
177.451
175.948
174.348
172.644
170.831
168.907
166.87
164.72
162.465
160.107
157.663
155.133
152.555
149.916
147.311
144.696
142.324
139.909
112.764
50.6825
36.3812
30.1842
27.0705
25.1216
23.9665
23.2005
22.7357
22.4487
22.3048
22.2564
22.2886
22.3884
22.5531
22.778
23.0627
23.4054
23.804
24.2538
24.7492
25.2827
25.8486
26.4421
27.0576
27.6873
28.322
28.9537
29.5777
30.1868
30.7715
31.3246
31.8423
32.308
32.707
33.0337
33.2955
33.5107
33.7056
33.9105
34.1576
34.4666
34.8381
35.2818
35.8134
36.4554
37.2301
38.1233
39.1104
40.1777
41.3122
42.5017
43.7355
45.0039
46.2991
47.615
48.9474
50.2936
51.6528
53.0252
54.4123
55.8166
57.2408
58.6883
60.1627
61.6676
63.2066
64.7831
66.4002
68.0608
69.7675
71.5225
73.3276
75.1842
77.0935
79.0563
81.0729
83.1436
85.2681
87.446
89.6765
91.9586
94.2912
96.6728
99.1018
101.576
104.094
106.653
109.251
111.885
114.553
117.252
119.979
122.732
125.508
128.304
131.118
133.946
136.786
139.635
142.489
145.347
148.204
151.054
153.895
156.721
159.527
162.309
165.061
167.78
170.46
173.099
175.691
178.234
180.725
183.161
185.538
187.853
190.1
192.277
194.377
196.398
198.336
200.187
201.949
203.618
205.192
206.669
208.045
209.32
210.492
211.558
212.519
213.373
214.12
214.759
215.29
215.714
216.031
216.24
216.337
216.329
216.215
215.998
215.683
215.269
214.758
214.152
213.451
212.658
211.774
210.802
209.742
208.596
207.365
206.051
204.655
203.179
201.622
199.985
198.263
196.453
194.552
192.558
190.468
188.275
185.976
183.569
181.053
178.428
175.702
172.88
169.979
167.002
163.987
160.926
157.899
154.846
151.932
148.782
127.246
57.1513
40.474
33.2739
29.7499
27.5387
26.2088
25.3215
24.7705
24.4253
24.2433
24.1718
24.1863
24.2688
24.4098
24.6002
24.8351
25.1081
25.4145
25.7491
26.1071
26.4834
26.873
27.271
27.6731
28.0749
28.473
28.8647
29.2446
29.6151
29.9765
30.3302
30.6795
31.0296
31.3891
31.7703
32.1882
32.6272
33.0819
33.5547
34.053
34.5855
35.1706
35.8318
36.5916
37.4641
38.4403
39.5072
40.654
41.8712
43.1498
44.4816
45.8591
47.2755
48.7253
50.2039
51.7083
53.2368
54.7888
56.3652
57.9675
59.5984
61.2608
62.9584
64.6948
66.4738
68.299
70.174
72.102
74.0858
76.128
78.2305
80.3951
82.6229
84.915
87.2717
89.6932
92.1791
94.7289
97.3414
100.016
102.75
105.542
108.391
111.293
114.247
117.25
120.298
123.389
126.52
129.687
132.887
136.116
139.371
142.649
145.948
149.263
152.593
155.934
159.284
162.637
165.989
169.336
172.673
175.993
179.291
182.562
185.799
188.996
192.149
195.252
198.299
201.287
204.21
207.064
209.844
212.547
215.167
217.699
220.14
222.483
224.727
226.865
228.895
230.813
232.616
234.301
235.864
237.304
238.618
239.804
240.86
241.786
242.581
243.243
243.773
244.171
244.437
244.567
244.567
244.432
244.168
243.777
243.263
242.629
241.876
241.005
240.02
238.923
237.718
236.406
234.991
233.476
231.864
230.157
228.359
226.472
224.498
222.44
220.297
218.067
215.749
213.339
210.836
208.237
205.539
202.74
199.837
196.831
193.723
190.52
187.227
183.861
180.426
176.959
173.447
169.96
166.411
162.93
159.092
141.241
62.6735
43.8141
35.7586
31.9193
29.5038
28.0318
27.0429
26.4153
26.0126
25.7851
25.6792
25.6638
25.7156
25.8224
25.9724
26.1578
26.3717
26.608
26.8605
27.1237
27.3929
27.6643
27.935
28.2033
28.4686
28.732
28.9959
29.2646
29.54
29.8297
30.1446
30.4975
30.9028
31.3543
31.8369
32.3448
32.8757
33.4319
34.0202
34.6521
35.3412
36.0968
36.927
37.8403
38.8492
39.9547
41.1474
42.4192
43.7628
45.1713
46.6385
48.1588
49.7272
51.3397
52.9932
54.686
56.417
58.1865
59.9957
61.8466
63.7417
65.6841
67.6772
69.7245
71.8295
73.9956
76.2258
78.5231
80.8898
83.3281
85.8396
88.4258
91.0875
93.8253
96.6393
99.5293
102.495
105.534
108.646
111.83
115.083
118.402
121.787
125.233
128.738
132.298
135.91
139.571
143.276
147.022
150.804
154.619
158.462
162.33
166.217
170.12
174.032
177.948
181.866
185.78
189.687
193.577
197.447
201.289
205.099
208.869
212.594
216.266
219.88
223.428
226.905
230.305
233.621
236.849
239.982
243.015
245.944
248.762
251.464
254.047
256.504
258.832
261.027
263.084
265
266.771
268.395
269.868
271.188
272.352
273.36
274.209
274.9
275.431
275.803
276.012
276.063
275.954
275.685
275.258
274.676
273.945
273.068
272.047
270.885
269.586
268.153
266.591
264.903
263.095
261.171
259.135
256.993
254.748
252.406
249.971
247.447
244.837
242.142
239.361
236.495
233.543
230.502
227.371
224.148
220.832
217.42
213.913
210.312
206.623
202.852
199.015
195.116
191.187
187.212
183.247
179.189
175.141
170.69
147.221
66.2701
46.0536
37.5009
33.4211
30.8543
29.2856
28.229
27.555
27.1193
26.8685
26.7459
26.7183
26.7581
26.8506
26.9808
27.1396
27.3191
27.5134
27.7174
27.9268
28.1381
28.3484
28.5566
28.7628
28.9687
29.1776
29.3942
29.6267
29.8852
30.1798
30.5224
30.9276
31.3926
31.9064
32.4618
33.0525
33.6769
34.3378
35.0401
35.7905
36.5968
37.4682
38.4134
39.4411
40.5604
41.7771
43.0832
44.4725
45.9392
47.4784
49.0857
50.7571
52.4895
54.2804
56.128
58.0315
59.9909
62.0068
64.0807
66.2147
68.4113
70.6733
73.0037
75.4056
77.8821
80.4359
83.0696
85.7854
88.5854
91.471
94.4438
97.5045
100.654
103.892
107.218
110.632
114.132
117.717
121.385
125.134
128.961
132.863
136.837
140.88
144.988
149.157
153.382
157.659
161.982
166.346
170.747
175.179
179.636
184.113
188.604
193.105
197.61
202.116
206.615
211.103
215.574
220.024
224.445
228.83
233.17
237.458
241.685
245.844
249.927
253.927
257.837
261.649
265.356
268.952
272.43
275.784
279.008
282.097
285.044
287.845
290.493
292.984
295.315
297.479
299.474
301.295
302.939
304.404
305.686
306.783
307.693
308.416
308.95
309.296
309.45
309.418
309.197
308.787
308.189
307.407
306.445
305.31
304.005
302.533
300.898
299.107
297.165
295.076
292.847
290.485
287.995
285.385
282.663
279.833
276.904
273.881
270.77
267.575
264.3
260.946
257.513
254.001
250.41
246.739
242.986
239.151
235.231
231.227
227.14
222.976
218.738
214.442
210.091
205.71
201.281
196.848
192.299
187.733
182.743
156.11
68.7833
47.4836
38.5351
34.2669
31.5945
29.963
28.8693
28.1746
27.7299
27.4793
27.3637
27.3467
27.4011
27.5098
27.6564
27.83
28.0212
28.224
28.4331
28.6449
28.8568
29.0675
29.2772
29.4878
29.7026
29.9265
30.1657
30.4278
30.7226
31.0601
31.4502
31.9019
32.4178
32.9861
33.6006
34.2585
34.9599
35.7072
36.5048
37.358
38.2732
39.2578
40.3195
41.4672
42.711
44.0524
45.4864
47.0091
48.6174
50.3083
52.0795
53.9293
55.856
57.8589
59.9374
62.0919
64.323
66.6319
69.0202
71.4901
74.0438
76.6837
79.4122
82.2319
85.145
88.1535
91.2592
94.4638
97.7684
101.174
104.682
108.291
112.002
115.815
119.727
123.739
127.847
132.049
136.343
140.726
145.195
149.746
154.375
159.079
163.852
168.689
173.586
178.535
183.532
188.571
193.646
198.75
203.877
209.022
214.177
219.333
224.482
229.621
234.746
239.849
244.919
249.948
254.929
259.854
264.716
269.507
274.217
278.839
283.365
287.784
292.091
296.275
300.331
304.25
308.025
311.649
315.116
318.418
321.551
324.508
327.284
329.872
332.27
334.472
336.473
338.271
339.861
341.24
342.406
343.356
344.09
344.605
344.901
344.979
344.839
344.481
343.905
343.111
342.102
340.884
339.461
337.841
336.026
334.024
331.839
329.478
326.95
324.26
321.418
318.431
315.309
312.06
308.695
305.222
301.65
297.987
294.241
290.419
286.525
282.562
278.533
274.439
270.28
266.055
261.765
257.407
252.98
248.484
243.919
239.289
234.599
229.86
225.073
220.261
215.399
210.525
205.524
200.491
195.046
157.724
69.3245
47.951
38.9148
34.5655
31.8508
30.206
29.1119
28.4283
28.0018
27.7772
27.6911
27.7081
27.8012
27.952
28.1431
28.3634
28.6026
28.854
29.1121
29.3732
29.6353
29.898
30.1627
30.4319
30.7092
30.9997
31.3093
31.6447
32.0135
32.4228
32.8791
33.3877
33.9523
34.5762
35.2571
35.9917
36.7798
37.6237
38.5267
39.4938
40.5306
41.6442
42.8429
44.1362
45.5301
47.0234
48.6147
50.3034
52.0887
53.9703
55.948
58.0219
60.1921
62.4593
64.8241
67.2877
69.8512
72.5163
75.2846
78.1578
81.138
84.2267
87.4258
90.7368
94.161
97.6996
101.353
105.123
109.008
113.01
117.128
121.36
125.707
130.166
134.735
139.411
144.193
149.077
154.06
159.138
164.307
169.564
174.902
180.318
185.804
191.354
196.963
202.622
208.325
214.064
219.832
225.621
231.422
237.227
243.029
248.821
254.593
260.337
266.048
271.72
277.346
282.92
288.429
293.865
299.217
304.475
309.631
314.675
319.596
324.386
329.036
333.538
337.882
342.061
346.066
349.891
353.527
356.969
360.21
363.243
366.063
368.665
371.044
373.195
375.115
376.799
378.244
379.447
380.405
381.118
381.582
381.8
381.77
381.495
380.97
380.198
379.18
377.917
376.414
374.678
372.714
370.53
368.13
365.522
362.714
359.714
356.531
353.175
349.655
345.984
342.171
338.229
334.17
330.006
325.747
321.405
316.989
312.508
307.969
303.377
298.737
294.049
289.316
284.537
279.712
274.84
269.918
264.947
259.924
254.854
249.738
244.585
239.394
234.184
228.926
223.654
218.253
212.825
207.005
158.244
68.7995
47.6925
38.7621
34.4077
31.7092
30.0961
29.0394
28.4005
28.0256
27.8592
27.8312
27.9143
28.0784
28.3054
28.5773
28.8825
29.2101
29.5528
29.9048
30.2621
30.6229
30.9869
31.3551
31.7297
32.1146
32.5141
32.9334
33.3785
33.8554
34.3699
34.9272
35.532
36.1883
36.8996
37.6686
38.4983
39.3924
40.3559
41.3911
42.5024
43.696
44.9807
46.3616
47.8433
49.4292
51.122
52.9236
54.8361
56.8613
59.001
61.2569
63.6308
66.1243
68.7393
71.4773
74.3401
77.3294
80.4466
83.6934
87.0709
90.5804
94.2226
97.9983
101.908
105.951
110.128
114.439
118.882
123.456
128.161
132.995
137.955
143.039
148.244
153.567
159.004
164.552
170.206
175.963
181.817
187.763
193.796
199.91
206.096
212.348
218.658
225.019
231.422
237.858
244.32
250.799
257.285
263.77
270.244
276.695
283.117
289.506
295.854
302.148
308.376
314.528
320.596
326.568
332.437
338.193
343.826
349.327
354.685
359.892
364.938
369.814
374.51
379.018
383.329
387.435
391.328
395
398.445
401.657
404.628
407.355
409.831
412.052
414.015
415.715
417.148
418.313
419.206
419.824
420.169
420.237
420.037
419.559
418.805
417.777
416.476
414.904
413.064
410.963
408.607
406.003
403.159
400.081
396.779
393.262
389.54
385.623
381.523
377.254
372.827
368.258
363.56
358.749
353.839
348.844
343.777
338.649
333.474
328.26
323.016
317.745
312.452
307.138
301.805
296.451
291.076
285.677
280.252
274.798
269.317
263.808
258.279
252.725
247.16
241.556
235.94
230.202
224.447
218.336
156.018
67.5251
46.9169
38.2283
33.9211
31.2855
29.7476
28.7681
28.2117
27.9241
27.8451
27.9102
28.0942
28.3654
28.7062
29.0982
29.5298
29.9898
30.4707
30.9658
31.4711
31.9837
32.5027
33.0283
33.5623
34.1073
34.6671
35.2469
35.8524
36.4883
37.1596
37.8714
38.6287
39.4367
40.3005
41.2254
42.2167
43.28
44.4209
45.6453
46.9592
48.3691
49.8812
51.5013
53.2347
55.0861
57.0602
59.1611
61.3928
63.7589
66.2631
68.9087
71.6987
74.636
77.723
80.9619
84.3547
87.9029
91.6076
95.4695
99.4892
103.666
108.001
112.491
117.136
121.935
126.884
131.983
137.228
142.616
148.145
153.811
159.609
165.536
171.587
177.758
184.042
190.436
196.933
203.528
210.214
216.984
223.832
230.749
237.727
244.757
251.831
258.939
266.073
273.222
280.377
287.529
294.667
301.782
308.86
315.887
322.851
329.744
336.562
343.299
349.946
356.492
362.926
369.238
375.416
381.45
387.329
393.043
398.582
403.936
409.094
414.048
418.789
423.306
427.591
431.637
435.436
438.98
442.263
445.28
448.024
450.491
452.677
454.578
456.19
457.51
458.537
459.267
459.699
459.83
459.668
459.208
458.444
457.381
456.021
454.366
452.416
450.174
447.647
444.841
441.764
438.422
434.826
430.983
426.903
422.598
418.078
413.357
408.447
403.365
398.125
392.745
387.242
381.634
375.937
370.168
364.344
358.479
352.589
346.685
340.777
334.873
328.977
323.091
317.217
311.353
305.5
299.653
293.809
287.963
282.115
276.261
270.405
264.542
258.68
252.79
246.896
240.892
234.889
228.569
151.287
65.1281
45.4832
37.2533
33.1203
30.6321
29.2321
28.3821
27.9591
27.8023
27.8567
28.0614
28.3923
28.8187
29.3242
29.8903
30.5056
31.1584
31.8409
32.5459
33.2683
34.0044
34.7523
35.5112
36.282
37.0666
37.8684
38.6911
39.5389
40.4164
41.329
42.2821
43.2813
44.3336
45.4461
46.6257
47.8796
49.2151
50.6393
52.1598
53.7842
55.5201
57.3747
59.3554
61.4688
63.7218
66.1206
68.6713
71.3795
74.2505
77.2893
80.5001
83.887
87.4531
91.201
95.1329
99.2499
103.553
108.042
112.716
117.573
122.613
127.831
133.225
138.792
144.526
150.424
156.481
162.691
169.049
175.55
182.188
188.956
195.849
202.859
209.979
217.203
224.524
231.933
239.424
246.989
254.619
262.305
270.038
277.807
285.604
293.418
301.239
309.056
316.858
324.632
332.365
340.046
347.661
355.204
362.668
370.046
377.328
384.5
391.55
398.464
405.233
411.846
418.293
424.565
430.653
436.546
442.235
447.712
452.966
457.989
462.772
467.304
471.579
475.588
479.324
482.78
485.949
488.826
491.406
493.685
495.659
497.325
498.682
499.724
500.452
500.866
500.956
500.742
500.206
499.347
498.17
496.677
494.87
492.748
490.315
487.574
484.529
481.187
477.555
473.642
469.455
465.005
460.301
455.354
450.177
444.782
439.184
433.398
427.441
421.333
415.092
408.739
402.294
395.776
389.204
382.599
375.979
369.362
362.762
356.191
349.659
343.172
336.732
330.34
323.997
317.701
311.447
305.23
299.042
292.881
286.74
280.621
274.514
268.423
262.318
256.22
250.03
243.859
237.416
143.782
61.9512
43.5817
35.9871
32.1285
29.8694
28.6671
28.0082
27.7764
27.8043
28.0528
28.4629
29.0132
29.6717
30.4251
31.2543
32.1483
33.0948
34.0857
35.1131
36.1718
37.2573
38.3669
39.4988
40.6528
41.8296
43.0306
44.2573
45.5111
46.7956
48.1171
49.4811
50.8952
52.3694
53.9131
55.5349
57.2431
59.0463
60.9539
62.9756
65.1212
67.4001
69.8219
72.3956
75.1301
78.0338
81.115
84.381
87.8388
91.4946
95.3538
99.4209
103.699
108.192
112.9
117.823
122.962
128.314
133.878
139.649
145.623
151.796
158.16
164.709
171.437
178.334
185.395
192.609
199.969
207.466
215.092
222.836
230.691
238.648
246.696
254.826
263.031
271.299
279.623
287.992
296.397
304.828
313.274
321.726
330.171
338.6
347.002
355.366
363.682
371.938
380.124
388.227
396.234
404.13
411.902
419.538
427.032
434.376
441.562
448.582
455.426
462.086
468.551
474.811
480.857
486.679
492.267
497.613
502.707
507.541
512.106
516.394
520.398
524.111
527.525
530.636
533.437
535.922
538.09
539.939
541.462
542.657
543.528
544.072
544.278
544.164
543.734
542.957
541.852
540.416
538.65
536.559
534.144
531.404
528.342
524.964
521.273
517.276
512.978
508.388
503.514
498.366
492.955
487.292
481.387
475.254
468.908
462.365
455.642
448.758
441.735
434.596
427.362
420.054
412.695
405.308
397.917
390.542
383.204
375.921
368.707
361.571
354.524
347.565
340.694
333.915
327.225
320.618
314.085
307.618
301.209
294.85
288.539
282.261
276.018
269.777
263.554
257.257
250.999
244.516
135.658
58.2751
41.4455
34.6018
31.1357
29.2118
28.262
27.8574
27.8775
28.1697
28.7098
29.4317
30.319
31.339
32.4789
33.7189
35.0502
36.4601
37.9426
39.4899
41.0976
42.7607
44.4758
46.2396
48.0504
49.9065
51.8063
53.7476
55.7304
57.7563
59.8248
61.9385
64.1106
66.3593
68.6936
71.1194
73.6448
76.2828
79.0459
81.9467
84.9973
88.2094
91.5941
95.1624
98.9248
102.891
107.07
111.47
116.098
120.958
126.055
131.39
136.966
142.782
148.835
155.123
161.641
168.383
175.344
182.514
189.886
197.448
205.192
213.105
221.176
229.394
237.747
246.221
254.806
263.489
272.257
281.101
290.006
298.963
307.96
316.985
326.029
335.079
344.127
353.161
362.171
371.147
380.079
388.954
397.764
406.497
415.142
423.688
432.122
440.434
448.614
456.652
464.536
472.259
479.808
487.176
494.353
501.332
508.105
514.662
520.994
527.092
532.948
538.554
543.902
548.985
553.795
558.326
562.573
566.53
570.189
573.545
576.592
579.325
581.741
583.835
585.601
587.034
588.141
588.92
589.36
589.456
589.246
588.701
587.811
586.594
585.046
583.162
580.949
578.407
575.54
572.349
568.834
564.999
560.849
556.389
551.623
546.557
541.199
535.556
529.638
523.456
517.021
510.345
503.438
496.316
488.993
481.488
473.82
466.009
458.081
450.061
441.97
433.829
425.666
417.507
409.377
401.301
393.302
385.4
377.608
369.937
362.39
354.972
347.69
340.548
333.543
326.664
319.9
313.24
306.674
300.19
293.782
287.433
281.139
274.866
268.623
262.319
256.063
249.63
126.195
54.4753
39.3297
33.3168
30.3226
28.8148
28.2014
28.1142
28.4882
29.1672
30.1291
31.305
32.6855
34.2349
35.9461
37.7994
39.7905
41.9083
44.1511
46.5127
48.9899
51.5767
54.2694
57.0635
59.9555
62.9406
66.0138
69.1691
72.4017
75.7056
79.0761
82.5129
86.0243
89.626
93.3178
97.107
101.008
105.035
109.203
113.529
118.023
122.7
127.572
132.649
137.944
143.466
149.223
155.221
161.463
167.951
174.685
181.662
188.879
196.331
204.009
211.906
220.013
228.318
236.811
245.477
254.305
263.278
272.383
281.605
290.928
300.337
309.817
319.353
328.93
338.535
348.153
357.77
367.375
376.954
386.496
395.99
405.424
414.788
424.073
433.268
442.364
451.352
460.223
468.967
477.577
486.044
494.358
502.51
510.49
518.29
525.9
533.31