/*--------------------------------*- C++ -*----------------------------------*\
| =========                 |                                                 |
| \\      /  F ield         | OpenFOAM: The Open Source CFD Toolbox           |
|  \\    /   O peration     | Version:  v1906                                 |
|   \\  /    A nd           | Web:      www.OpenFOAM.com                      |
|    \\/     M anipulation  |                                                 |
\*---------------------------------------------------------------------------*/
FoamFile
{
    version     2.0;
    format      ascii;
    class       volScalarField;
    location    "1276";
    object      k;
}
// * * * * * * * * * * * * * * * * * * * * * * * * * * * * * * * * * * * * * //

dimensions      [0 2 -2 0 0 0 0];


internalField   nonuniform List<scalar> 
12225
(
2.25874
2.22668
2.16195
2.09171
2.02501
1.96457
1.91059
1.86317
1.82046
1.78367
1.74909
1.72111
1.69853
1.68025
1.66352
1.6515
1.63711
1.6317
2.25029
2.13779
1.98564
1.87243
1.78123
1.71368
1.66066
1.61696
1.58112
1.55029
1.52533
1.50224
1.48548
1.46763
1.45716
1.4424
1.43609
1.42192
2.25785
2.21888
2.1436
2.07155
2.00395
1.94414
1.89182
1.84558
1.80505
1.76892
1.73733
1.70851
1.68378
1.66047
1.64123
1.62189
1.60737
1.59144
2.25839
2.23538
2.18791
2.13577
2.08419
2.03588
1.99182
1.95173
1.91551
1.88261
1.85295
1.82579
1.80143
1.77888
1.75881
1.73983
1.72357
1.70654
2.25891
2.24457
2.21501
2.18006
2.14382
2.10823
2.07435
2.04243
2.01264
1.98489
1.95921
1.93531
1.91326
1.89272
1.87382
1.85612
1.84022
1.82442
2.25905
2.24839
2.22761
2.20199
2.17442
2.14647
2.1191
2.09276
2.06769
2.04397
2.02165
2.00064
1.98096
1.96249
1.94523
1.92902
1.91396
1.89921
2.25918
2.25077
2.23561
2.21657
2.1956
2.17389
2.1522
2.13092
2.11033
2.09054
2.07166
2.05368
2.03661
2.02044
2.00516
1.99072
1.97717
1.96403
2.25922
2.25211
2.24034
2.22547
2.20883
2.19132
2.17352
2.15582
2.13846
2.12159
2.10531
2.08967
2.07468
2.06037
2.04674
2.03376
2.02141
2.00949
2.25927
2.2531
2.24365
2.23178
2.2184
2.20416
2.18953
2.17482
2.16025
2.14595
2.13202
2.11853
2.10551
2.09298
2.08097
2.06946
2.05847
2.04786
2.25929
2.25376
2.24586
2.23607
2.22499
2.21312
2.20081
2.18832
2.17584
2.16349
2.15138
2.13956
2.12808
2.11696
2.10624
2.09591
2.08597
2.07637
2.25932
2.2543
2.24753
2.23929
2.22998
2.21996
2.20951
2.19884
2.1881
2.17742
2.16687
2.15652
2.14641
2.13657
2.12704
2.11781
2.1089
2.10027
2.25934
2.25466
2.24864
2.24143
2.23332
2.22458
2.21543
2.20605
2.19655
2.18706
2.17764
2.16835
2.15924
2.15034
2.14168
2.13326
2.1251
2.11718
2.25937
2.25498
2.24954
2.24315
2.23601
2.22832
2.22024
2.21192
2.20348
2.195
2.18655
2.17819
2.16996
2.16189
2.15401
2.14633
2.13886
2.13159
2.25939
2.25525
2.25032
2.24464
2.23834
2.23156
2.22443
2.21707
2.20957
2.20201
2.19445
2.18693
2.1795
2.1722
2.16503
2.15803
2.15119
2.14454
2.25943
2.25552
2.25102
2.24594
2.24036
2.23438
2.22809
2.22157
2.21492
2.20819
2.20143
2.19469
2.18801
2.18141
2.17492
2.16855
2.16233
2.15624
2.25946
2.25574
2.25157
2.24697
2.24196
2.23661
2.23099
2.22517
2.2192
2.21315
2.20706
2.20096
2.1949
2.18889
2.18297
2.17715
2.17144
2.16586
2.25949
2.25592
2.252
2.24774
2.24314
2.23826
2.23314
2.22782
2.22237
2.21683
2.21123
2.20562
2.20002
2.19447
2.18898
2.18356
2.17825
2.17304
2.25951
2.25603
2.25225
2.24818
2.24381
2.23919
2.23434
2.22932
2.22416
2.21891
2.21361
2.20829
2.20297
2.19769
2.19245
2.18729
2.18221
2.17721
2.2595
2.25599
2.25218
2.24805
2.24363
2.23894
2.23402
2.22892
2.22368
2.21835
2.21296
2.20755
2.20215
2.19678
2.19147
2.18624
2.18109
2.17606
2.25949
2.25585
2.25179
2.24732
2.24248
2.23731
2.23188
2.22626
2.2205
2.21466
2.20877
2.20287
2.19699
2.19117
2.18542
2.17976
2.17419
2.16871
2.25943
2.25553
2.25102
2.24592
2.24031
2.23429
2.22796
2.2214
2.21469
2.20791
2.20109
2.19429
2.18754
2.18087
2.17431
2.16788
2.16159
2.15549
2.25941
2.25519
2.25002
2.24399
2.23727
2.23003
2.22243
2.2146
2.20663
2.19862
2.19062
2.18268
2.17485
2.16716
2.15963
2.15228
2.14511
2.13809
2.25935
2.25456
2.24826
2.24066
2.23209
2.22284
2.21316
2.20324
2.19322
2.1832
2.17326
2.16348
2.15388
2.14451
2.13538
2.12651
2.11791
2.10967
2.25935
2.25385
2.24584
2.23594
2.22475
2.21278
2.20039
2.18782
2.17527
2.16284
2.15065
2.13874
2.12717
2.11597
2.10516
2.09475
2.08478
2.07513
2.25927
2.25242
2.24124
2.22717
2.21139
2.1947
2.17766
2.16062
2.14384
2.12747
2.11162
2.09634
2.08166
2.0676
2.05413
2.04124
2.02886
2.01715
2.25924
2.25041
2.23397
2.21363
2.19147
2.16867
2.14591
2.12362
2.10205
2.08135
2.0616
2.0428
2.02496
2.00806
1.99208
1.97698
1.96286
1.94964
2.25889
2.24472
2.21618
2.18219
2.14678
2.11176
2.07806
2.04624
2.01648
1.98877
1.96302
1.93911
1.91689
1.89627
1.87704
1.85919
1.84219
1.82642
2.25872
2.23436
2.18569
2.13367
2.08299
2.03496
1.99029
1.94961
1.91263
1.87901
1.84841
1.82054
1.79504
1.77176
1.75033
1.73073
1.71261
1.69711
2.25333
2.17275
2.05404
1.95318
1.87048
1.80144
1.74472
1.69879
1.66017
1.62711
1.59839
1.57343
1.55131
1.532
1.51454
1.49938
1.48527
1.47205
2.25474
2.20869
2.14517
2.0835
2.02609
1.974
1.9269
1.8845
1.84642
1.81214
1.7812
1.75314
1.72767
1.70436
1.68316
1.66351
1.64571
1.62886
0.0262768
0.0545103
0.0782788
0.09281
0.103329
0.110544
0.116119
0.12038
0.123853
0.126683
0.129068
0.131086
0.132826
0.134326
0.135621
0.13672
0.137628
0.138337
0.138844
0.139155
0.139152
0.138955
0.138222
0.136623
0.134185
0.130927
0.126852
0.121863
0.115942
0.108794
0.100239
0.0902684
0.0791601
0.0670818
0.0589213
0.0545137
0.0537061
0.0551377
0.0587014
0.0613652
0.0621379
0.0606404
0.0559059
0.0500088
0.0472173
0.0489333
0.0534884
0.0606457
0.0701417
0.0826806
0.0985933
0.11446
0.129023
0.142828
0.15599
0.168347
0.179944
0.190867
0.201182
0.210956
0.220254
0.229136
0.237662
0.245885
0.253857
0.261623
0.269223
0.276695
0.284071
0.291376
0.298635
0.305866
0.313085
0.320305
0.327535
0.334782
0.342051
0.349344
0.356663
0.364006
0.371372
0.378756
0.386153
0.393555
0.400955
0.408343
0.415707
0.423037
0.430317
0.437535
0.444676
0.451726
0.458674
0.46551
0.47223
0.478825
0.485287
0.491627
0.497928
0.504204
0.510462
0.516696
0.52289
0.529019
0.535066
0.540999
0.546789
0.552407
0.557846
0.563162
0.56832
0.573287
0.577992
0.582323
0.586086
0.588849
0.590488
0.592417
0.593923
0.595348
0.59655
0.597601
0.598525
0.599158
0.599875
0.600369
0.600797
0.601075
0.601244
0.601275
0.601013
0.601126
0.600403
0.600306
0.599829
0.599429
0.598937
0.598435
0.597905
0.597369
0.596836
0.596316
0.595817
0.595351
0.594928
0.59455
0.59424
0.594026
0.59405
0.59387
0.594055
0.594132
0.594415
0.594823
0.595363
0.596053
0.596899
0.597902
0.599055
0.600402
0.601985
0.603906
0.606747
0.61064
0.614967
0.619638
0.621956
0.623305
0.624675
0.626029
0.627369
0.628413
0.629398
0.629746
0.630059
0.629133
0.628823
0.625943
0.62387
0.595777
0.0541718
0.1129
0.157663
0.182958
0.202195
0.216777
0.228644
0.238245
0.246357
0.253268
0.259359
0.264826
0.269854
0.274529
0.278907
0.282995
0.28678
0.290223
0.29327
0.295847
0.297853
0.299177
0.299702
0.299438
0.298532
0.297273
0.296217
0.296022
0.297141
0.300369
0.306322
0.314862
0.325321
0.336654
0.348034
0.359608
0.371564
0.384148
0.397413
0.410653
0.422479
0.431352
0.436641
0.439348
0.440894
0.441682
0.441867
0.441668
0.441557
0.44194
0.443041
0.445564
0.450221
0.457179
0.466233
0.476992
0.489044
0.502012
0.515576
0.529477
0.543513
0.557534
0.571435
0.585149
0.598638
0.611893
0.624919
0.637738
0.65038
0.662878
0.675269
0.687591
0.699878
0.712164
0.724478
0.736847
0.749294
0.761838
0.774496
0.787281
0.800205
0.813275
0.826496
0.839871
0.853401
0.867083
0.880909
0.894869
0.908947
0.923121
0.937359
0.951622
0.96586
0.980016
0.994033
1.00785
1.02142
1.03462
1.04754
1.06031
1.073
1.08563
1.09819
1.11066
1.12306
1.13538
1.14761
1.15972
1.17168
1.18351
1.19518
1.20667
1.21793
1.22892
1.23957
1.24988
1.25987
1.2696
1.27905
1.28822
1.29711
1.30574
1.31411
1.32222
1.33008
1.3377
1.34506
1.35215
1.35895
1.36546
1.37168
1.37766
1.38331
1.38873
1.39386
1.39872
1.4033
1.40761
1.41165
1.41542
1.41893
1.42218
1.42517
1.42791
1.43039
1.43263
1.43464
1.43641
1.43797
1.43928
1.44034
1.44117
1.44175
1.44205
1.44209
1.44186
1.44134
1.44047
1.43922
1.43759
1.43554
1.43312
1.43117
1.42972
1.42798
1.4251
1.42088
1.41583
1.41026
1.40414
1.39748
1.3901
1.38221
1.37338
1.3643
1.35388
1.34413
1.33154
1.31885
1.28779
0.0889938
0.160953
0.21566
0.245933
0.269791
0.287433
0.302136
0.314258
0.32491
0.334337
0.343031
0.351156
0.358924
0.366411
0.373699
0.380826
0.387839
0.394779
0.401701
0.408667
0.415733
0.422914
0.430178
0.437511
0.44505
0.453118
0.462236
0.47305
0.486168
0.501969
0.520428
0.541137
0.563479
0.586785
0.610473
0.63414
0.657429
0.679702
0.699586
0.715023
0.724089
0.726409
0.722663
0.714288
0.703147
0.691011
0.679471
0.669885
0.663417
0.660711
0.661573
0.666363
0.674783
0.686336
0.700388
0.716277
0.733379
0.751159
0.76919
0.787153
0.804827
0.822076
0.838827
0.855059
0.870787
0.88605
0.900899
0.915397
0.929606
0.943588
0.957402
0.971103
0.984738
0.998351
1.01198
1.02565
1.0394
1.05325
1.06721
1.0813
1.09553
1.1099
1.12442
1.1391
1.15392
1.1689
1.18401
1.19926
1.21463
1.2301
1.24568
1.26132
1.27703
1.29276
1.30851
1.32426
1.33999
1.35573
1.37149
1.38729
1.40314
1.41906
1.43506
1.45109
1.46712
1.48311
1.49903
1.51485
1.53055
1.54609
1.56145
1.57659
1.59147
1.60606
1.62034
1.6343
1.64795
1.66129
1.6743
1.68697
1.6993
1.7113
1.72297
1.7343
1.7453
1.75594
1.76623
1.77614
1.78567
1.79483
1.8036
1.812
1.82
1.82763
1.83487
1.84171
1.84817
1.85424
1.85992
1.86521
1.87012
1.87465
1.8788
1.88258
1.88599
1.88905
1.89175
1.89409
1.89607
1.8977
1.89895
1.89987
1.90042
1.90059
1.90037
1.89976
1.89873
1.89726
1.89533
1.89288
1.88993
1.88655
1.88282
1.8786
1.87352
1.86742
1.8602
1.85193
1.8427
1.83255
1.82153
1.80961
1.79692
1.78329
1.7691
1.75385
1.7385
1.72102
1.70213
1.67287
0.107979
0.198063
0.262053
0.296447
0.324374
0.345538
0.363782
0.378949
0.39251
0.404617
0.415972
0.426712
0.437143
0.447334
0.457431
0.467495
0.477629
0.487928
0.498534
0.509622
0.521386
0.533958
0.547347
0.561471
0.576268
0.591735
0.607934
0.624938
0.642785
0.661478
0.681011
0.701405
0.722685
0.744783
0.767468
0.790165
0.811686
0.830239
0.843969
0.851515
0.853079
0.84957
0.842534
0.833836
0.825212
0.818038
0.813424
0.811873
0.813652
0.818986
0.827688
0.839422
0.853719
0.87003
0.88778
0.906431
0.925522
0.944688
0.963665
0.982278
1.00043
1.01808
1.03523
1.05191
1.06816
1.08406
1.09966
1.11503
1.13023
1.14533
1.16038
1.17542
1.19052
1.2057
1.221
1.23644
1.25206
1.26788
1.28389
1.30013
1.31658
1.33326
1.35017
1.36729
1.38462
1.40216
1.41988
1.43779
1.45586
1.47409
1.49245
1.51093
1.52954
1.54825
1.56706
1.58597
1.60499
1.62409
1.64327
1.6625
1.68177
1.70104
1.72028
1.73947
1.75857
1.77759
1.79648
1.81523
1.83381
1.85217
1.8703
1.88816
1.90571
1.92293
1.93982
1.95635
1.97252
1.98833
2.00375
2.01878
2.03339
2.0476
2.06138
2.07474
2.08765
2.10012
2.11212
2.12364
2.13468
2.14524
2.1553
2.16487
2.17393
2.1825
2.19056
2.19812
2.20517
2.21171
2.21775
2.22328
2.22831
2.23283
2.23686
2.2404
2.24345
2.24602
2.24811
2.24972
2.25085
2.25149
2.25165
2.25132
2.2505
2.24917
2.24732
2.24493
2.24199
2.23847
2.23435
2.22962
2.22426
2.21828
2.21167
2.2043
2.19594
2.18644
2.17579
2.16405
2.15126
2.13743
2.12261
2.10678
2.09005
2.07235
2.05397
2.03458
2.01479
1.99302
1.96966
1.93791
0.134956
0.241668
0.311723
0.349293
0.380215
0.404101
0.425255
0.443373
0.459871
0.4747
0.488632
0.501797
0.51464
0.527264
0.539892
0.55258
0.565444
0.578515
0.59186
0.605526
0.619576
0.634087
0.649207
0.665051
0.681651
0.698911
0.716588
0.734332
0.751813
0.768897
0.785722
0.802612
0.81985
0.837448
0.854992
0.871605
0.886113
0.897442
0.905041
0.908975
0.910084
0.909484
0.908333
0.907769
0.908661
0.911694
0.917245
0.925442
0.936212
0.949348
0.964544
0.981429
0.999605
1.01868
1.03831
1.05818
1.07806
1.09779
1.11723
1.13632
1.15502
1.17334
1.1913
1.20893
1.22629
1.24342
1.26039
1.27726
1.29407
1.3109
1.32777
1.34475
1.36187
1.37917
1.39667
1.4144
1.43238
1.45063
1.46916
1.48797
1.50706
1.52644
1.54611
1.56605
1.58625
1.60672
1.62743
1.64837
1.66952
1.69087
1.71241
1.73411
1.75596
1.77795
1.80006
1.82227
1.84459
1.86699
1.88946
1.91199
1.93455
1.95711
1.97965
2.00213
2.02453
2.04681
2.06892
2.09084
2.11253
2.13394
2.15505
2.17582
2.19622
2.21624
2.23584
2.25503
2.27379
2.2921
2.30997
2.32735
2.34425
2.36064
2.3765
2.39182
2.40659
2.4208
2.43442
2.44745
2.45989
2.47171
2.48292
2.49352
2.50349
2.51284
2.52156
2.52964
2.5371
2.54393
2.55013
2.5557
2.56065
2.56497
2.56867
2.57175
2.57424
2.57611
2.5774
2.57807
2.57815
2.57762
2.5765
2.57476
2.57241
2.56942
2.56579
2.56151
2.55655
2.55089
2.54453
2.53742
2.52953
2.52081
2.51122
2.50068
2.48907
2.47631
2.46239
2.44728
2.43099
2.41353
2.39497
2.37532
2.3547
2.33307
2.3107
2.28733
2.26333
2.23738
2.20944
2.17411
0.155095
0.278194
0.356394
0.398161
0.432153
0.458784
0.482457
0.503152
0.52219
0.539596
0.555913
0.571267
0.586058
0.60048
0.614781
0.629076
0.643476
0.658024
0.672735
0.687555
0.702408
0.717251
0.732149
0.747185
0.762354
0.777537
0.792544
0.807178
0.821334
0.835051
0.848494
0.861838
0.87512
0.88814
0.900484
0.911659
0.921301
0.929322
0.935944
0.941637
0.947003
0.95268
0.959254
0.967198
0.976829
0.988309
1.00165
1.01676
1.03344
1.05148
1.07063
1.09063
1.11123
1.13221
1.15337
1.17455
1.19562
1.21648
1.23707
1.25736
1.27735
1.29704
1.31648
1.33571
1.35477
1.37372
1.39262
1.41153
1.43049
1.44957
1.4688
1.48823
1.50789
1.52783
1.54805
1.5686
1.58947
1.61069
1.63226
1.65419
1.67647
1.6991
1.72207
1.74538
1.769
1.79292
1.81713
1.84161
1.86633
1.89128
1.91643
1.94177
1.96727
1.99292
2.01869
2.04458
2.07057
2.09664
2.12277
2.14892
2.17507
2.20117
2.2272
2.25313
2.27889
2.30447
2.32982
2.3549
2.37967
2.4041
2.42816
2.4518
2.475
2.49774
2.52
2.54174
2.56297
2.58365
2.60378
2.62332
2.64226
2.66057
2.67825
2.69527
2.71161
2.72726
2.74221
2.75644
2.76995
2.78272
2.79474
2.80602
2.81654
2.82631
2.83531
2.84355
2.85103
2.85775
2.86372
2.86892
2.87337
2.87706
2.88
2.8822
2.88368
2.88441
2.88444
2.88375
2.88235
2.88022
2.87736
2.87378
2.86947
2.86441
2.85859
2.85201
2.84465
2.83649
2.82752
2.8177
2.80699
2.79534
2.78268
2.76894
2.75406
2.73797
2.72066
2.70211
2.68231
2.66129
2.63909
2.61575
2.59138
2.56597
2.53975
2.51247
2.4844
2.45422
2.42189
2.38251
0.176713
0.312453
0.398387
0.443587
0.480105
0.508919
0.534578
0.557244
0.578222
0.597576
0.615789
0.632946
0.649309
0.665008
0.680251
0.695156
0.709843
0.724377
0.738798
0.753102
0.767257
0.7812
0.794885
0.808284
0.821361
0.834059
0.846318
0.858098
0.869409
0.880305
0.890861
0.901125
0.911087
0.920694
0.929897
0.938719
0.947292
0.955851
0.964692
0.974131
0.984463
0.995929
1.0087
1.02285
1.03839
1.05525
1.07334
1.09253
1.11266
1.1336
1.15517
1.17723
1.19961
1.22219
1.24485
1.26747
1.28998
1.31233
1.33447
1.35641
1.37815
1.3997
1.42112
1.44243
1.4637
1.48497
1.50631
1.52776
1.54938
1.57121
1.59331
1.61571
1.63844
1.66153
1.68501
1.70889
1.73319
1.75792
1.78307
1.80864
1.83464
1.86104
1.88784
1.91502
1.94256
1.97044
1.99864
2.02713
2.0559
2.0849
2.11412
2.14354
2.17311
2.20282
2.23265
2.26256
2.29252
2.32252
2.35251
2.38247
2.41236
2.44216
2.47182
2.50131
2.53058
2.55959
2.5883
2.61667
2.64466
2.67222
2.69932
2.72592
2.75199
2.7775
2.80242
2.82672
2.8504
2.87341
2.89575
2.91737
2.93827
2.95842
2.9778
2.99639
3.01418
3.03113
3.04725
3.06252
3.07692
3.09044
3.10308
3.11483
3.12569
3.13564
3.1447
3.15285
3.1601
3.16645
3.17191
3.17647
3.18014
3.18291
3.1848
3.18582
3.18599
3.18532
3.1838
3.18145
3.17825
3.17421
3.16934
3.16363
3.15709
3.14969
3.14144
3.13232
3.12233
3.11146
3.09967
3.08695
3.07324
3.05849
3.04265
3.02568
3.00751
2.9881
2.96744
2.94548
2.92223
2.8977
2.87194
2.845
2.81699
2.78791
2.75795
2.72685
2.69476
2.66041
2.62374
2.58078
0.191565
0.338557
0.432402
0.481106
0.520059
0.550806
0.578109
0.602256
0.624591
0.645246
0.664707
0.683047
0.700486
0.717104
0.733033
0.748345
0.763127
0.777423
0.79127
0.804681
0.817657
0.830185
0.842249
0.853836
0.864934
0.875541
0.885666
0.895336
0.904598
0.913518
0.922175
0.930662
0.939085
0.947579
0.956316
0.9655
0.975352
0.986081
0.997856
1.0108
1.02497
1.04037
1.05696
1.07468
1.09343
1.11315
1.13373
1.1551
1.17715
1.19979
1.22292
1.24644
1.27023
1.2942
1.31826
1.34234
1.36639
1.39036
1.41424
1.43803
1.46174
1.4854
1.50905
1.53273
1.5565
1.5804
1.6045
1.62883
1.65345
1.6784
1.70372
1.72945
1.75561
1.78222
1.8093
1.83687
1.86492
1.89346
1.92249
1.952
1.98197
2.01238
2.04323
2.07449
2.10614
2.13814
2.17047
2.20311
2.23601
2.26916
2.30251
2.33604
2.36971
2.40349
2.43734
2.47125
2.50517
2.53909
2.57296
2.60676
2.64045
2.67398
2.70731
2.74041
2.77323
2.8057
2.8378
2.86948
2.90068
2.93136
2.96149
2.99102
3.01993
3.04816
3.0757
3.1025
3.12856
3.15383
3.17829
3.20191
3.22467
3.24654
3.26751
3.28755
3.30664
3.32476
3.3419
3.35804
3.37317
3.38728
3.40035
3.41239
3.42338
3.43332
3.44222
3.45006
3.45686
3.46262
3.46734
3.47102
3.47366
3.47527
3.47586
3.47548
3.47412
3.47178
3.46848
3.46422
3.45901
3.45286
3.44577
3.43774
3.42879
3.41891
3.40809
3.39634
3.38364
3.37
3.35538
3.33976
3.3231
3.30535
3.28646
3.26638
3.24507
3.22249
3.19861
3.17342
3.14691
3.11909
3.09001
3.0597
3.02829
2.99576
2.96225
2.9275
2.89158
2.85323
2.81259
2.7661
0.205385
0.359751
0.459765
0.511152
0.551935
0.584139
0.612637
0.637817
0.661036
0.682473
0.702618
0.721564
0.739513
0.756526
0.772715
0.788142
0.802874
0.816948
0.830399
0.84324
0.85548
0.867122
0.878174
0.888651
0.898577
0.907991
0.916946
0.925517
0.933795
0.941896
0.949958
0.958143
0.966638
0.975648
0.985381
0.996025
1.00773
1.02061
1.03469
1.04998
1.06643
1.08397
1.10254
1.12204
1.1424
1.16357
1.18548
1.20808
1.23131
1.25508
1.27934
1.30399
1.32896
1.35417
1.37957
1.40509
1.43071
1.45639
1.48214
1.50795
1.53385
1.55986
1.58602
1.61238
1.63897
1.66584
1.69303
1.7206
1.74857
1.77698
1.80586
1.83525
1.86515
1.89558
1.92655
1.95808
1.99015
2.02276
2.05591
2.08958
2.12375
2.1584
2.19351
2.22905
2.265
2.30132
2.33799
2.37496
2.41221
2.44969
2.48738
2.52522
2.5632
2.60126
2.63937
2.67749
2.71558
2.75359
2.79148
2.82921
2.86675
2.90405
2.94107
2.97775
3.01405
3.04992
3.08532
3.1202
3.15451
3.18821
3.22125
3.25358
3.28517
3.31597
3.34596
3.3751
3.40335
3.43069
3.45708
3.48249
3.50691
3.5303
3.55263
3.57389
3.59406
3.61311
3.63103
3.64781
3.66342
3.67786
3.69111
3.70318
3.71404
3.72371
3.73218
3.73946
3.74554
3.75043
3.75414
3.75667
3.75801
3.7582
3.75727
3.75522
3.75206
3.74781
3.74248
3.73609
3.72865
3.72018
3.71068
3.70017
3.68866
3.67615
3.66266
3.64817
3.63271
3.61625
3.59878
3.58028
3.5607
3.54001
3.51815
3.49509
3.47079
3.44522
3.41833
3.39011
3.36056
3.32968
3.29751
3.26409
3.22952
3.19377
3.15696
3.11879
3.07929
3.03727
2.99292
2.94307
0.211182
0.371066
0.476962
0.530921
0.573422
0.606872
0.636392
0.662415
0.686368
0.708444
0.729156
0.748602
0.766986
0.78436
0.80082
0.816408
0.831187
0.845197
0.85848
0.871062
0.882974
0.894243
0.904899
0.914982
0.924545
0.933659
0.942413
0.950913
0.959287
0.967684
0.97627
0.985226
0.994739
1.00499
1.01614
1.0283
1.04155
1.05594
1.07144
1.08803
1.10565
1.12424
1.14375
1.16411
1.18528
1.20723
1.22992
1.2533
1.27732
1.30194
1.3271
1.35272
1.37877
1.40517
1.43189
1.45889
1.48615
1.51364
1.54138
1.56936
1.59761
1.62615
1.655
1.68421
1.71381
1.74384
1.77432
1.8053
1.8368
1.86884
1.90145
1.93464
1.96843
2.00283
2.03783
2.07344
2.10965
2.14645
2.18381
2.22173
2.26018
2.29913
2.33856
2.37843
2.41871
2.45937
2.50037
2.54166
2.5832
2.62496
2.66689
2.70894
2.75107
2.79323
2.83538
2.87747
2.91946
2.96131
3.00298
3.04442
3.08559
3.12645
3.16697
3.20708
3.24673
3.28588
3.32445
3.36241
3.3997
3.43626
3.47205
3.50702
3.54113
3.57434
3.6066
3.63787
3.66813
3.69734
3.72546
3.75246
3.77832
3.80301
3.82649
3.84876
3.86978
3.88953
3.908
3.92517
3.94103
3.95556
3.96875
3.9806
3.9911
4.00025
4.00806
4.01452
4.01965
4.02345
4.02592
4.02706
4.02691
4.02547
4.02279
4.01886
4.01372
4.00738
3.99987
3.9912
3.9814
3.97049
3.95849
3.94542
3.9313
3.91615
3.89999
3.88281
3.86463
3.84544
3.82524
3.80399
3.78167
3.75823
3.73363
3.70784
3.6808
3.65249
3.62287
3.59192
3.55963
3.526
3.49107
3.45486
3.41745
3.37881
3.33901
3.29774
3.25501
3.2097
3.16211
3.10928
0.219626
0.382126
0.489249
0.543846
0.586885
0.620809
0.650759
0.677189
0.701529
0.723984
0.745072
0.764895
0.783661
0.801418
0.818258
0.834216
0.849342
0.863667
0.877234
0.890078
0.902235
0.913745
0.924661
0.935045
0.944975
0.954542
0.963854
0.973038
0.982233
0.991591
1.00127
1.01143
1.02222
1.03378
1.04621
1.05958
1.07394
1.0893
1.10565
1.12297
1.14123
1.1604
1.18045
1.20134
1.22307
1.24559
1.26889
1.29293
1.31769
1.34312
1.36917
1.39581
1.423
1.45069
1.47886
1.50749
1.53656
1.56605
1.59598
1.62635
1.65717
1.68846
1.72025
1.75256
1.78541
1.81882
1.85283
1.88744
1.92268
1.95857
1.99511
2.03231
2.07018
2.10872
2.14791
2.18776
2.22824
2.26933
2.31102
2.35327
2.39606
2.43937
2.48315
2.52737
2.572
2.61698
2.66229
2.70787
2.75368
2.79968
2.8458
2.89201
2.93826
2.9845
3.03068
3.07675
3.12264
3.1683
3.2137
3.2588
3.30355
3.34787
3.39172
3.43504
3.47779
3.51991
3.56135
3.60206
3.64198
3.68106
3.71925
3.7565
3.79276
3.82799
3.86215
3.89518
3.92707
3.95776
3.98722
4.01543
4.04235
4.06795
4.0922
4.11508
4.13657
4.15665
4.1753
4.19249
4.20822
4.22248
4.23525
4.24653
4.25631
4.2646
4.27141
4.27673
4.28059
4.28299
4.28392
4.28342
4.28149
4.27817
4.27348
4.26744
4.26008
4.25144
4.24154
4.23042
4.2181
4.20461
4.19
4.17428
4.15749
4.13965
4.12079
4.10092
4.08006
4.0582
4.03534
4.01146
3.98653
3.96051
3.93336
3.90505
3.87552
3.84474
3.81267
3.77929
3.74457
3.70852
3.67115
3.63248
3.59256
3.55136
3.50892
3.46493
3.41938
3.37125
3.3209
3.26565
0.221151
0.386187
0.493533
0.548467
0.592018
0.62633
0.656668
0.683447
0.708143
0.73095
0.752408
0.772619
0.791801
0.810003
0.82732
0.843784
0.859446
0.874334
0.88849
0.901947
0.91475
0.926947
0.938603
0.949794
0.960609
0.971147
0.981521
0.991849
1.00226
1.0129
1.02389
1.03536
1.04743
1.06019
1.07372
1.08808
1.1033
1.1194
1.13641
1.1543
1.17309
1.19277
1.21332
1.23474
1.25703
1.28017
1.30414
1.32894
1.35453
1.3809
1.40801
1.43583
1.46435
1.49354
1.52338
1.55386
1.58497
1.61669
1.64905
1.68203
1.71564
1.7499
1.78482
1.82042
1.85669
1.89366
1.93134
1.96974
2.00886
2.0487
2.08927
2.13057
2.17258
2.2153
2.25871
2.3028
2.34754
2.39291
2.43887
2.48541
2.53248
2.58006
2.6281
2.67657
2.72542
2.7746
2.82407
2.87378
2.92367
2.97368
3.02378
3.07389
3.12397
3.17395
3.22378
3.27341
3.32278
3.37184
3.42052
3.46879
3.51661
3.56393
3.61071
3.65688
3.70237
3.74713
3.7911
3.83422
3.87643
3.91768
3.95791
3.99707
4.03511
4.07199
4.10766
4.14208
4.1752
4.20699
4.23741
4.26643
4.29401
4.32013
4.34476
4.36787
4.38944
4.40945
4.42788
4.44473
4.45996
4.47358
4.48556
4.49592
4.50465
4.51175
4.51725
4.52113
4.52343
4.52415
4.5233
4.5209
4.51696
4.51152
4.50461
4.49627
4.48653
4.47543
4.46301
4.44931
4.43438
4.41825
4.40097
4.38257
4.3631
4.3426
4.32109
4.29861
4.27516
4.25075
4.22539
4.19907
4.17174
4.14338
4.11394
4.08339
4.05166
4.01873
3.98454
3.94907
3.91229
3.87417
3.83473
3.79398
3.75195
3.70857
3.6639
3.6176
3.5697
3.51924
3.46669
3.40958
0.22165
0.386496
0.492411
0.547047
0.590686
0.625133
0.655693
0.682722
0.707726
0.730882
0.752752
0.773428
0.793136
0.811923
0.829889
0.84706
0.863488
0.879192
0.894215
0.908588
0.922358
0.93558
0.948321
0.960657
0.972673
0.984468
0.996147
1.00782
1.0196
1.0316
1.04394
1.05671
1.07001
1.08391
1.09848
1.11378
1.12986
1.14674
1.16446
1.18303
1.20249
1.22283
1.24408
1.26623
1.2893
1.31328
1.33818
1.36399
1.39069
1.41829
1.44676
1.4761
1.50628
1.53731
1.56916
1.60183
1.63532
1.66962
1.70472
1.74063
1.77735
1.81487
1.85321
1.89235
1.93231
1.97308
2.01466
2.05704
2.10022
2.14419
2.18894
2.23446
2.28073
2.32773
2.37544
2.42383
2.47287
2.52253
2.57277
2.62357
2.67489
2.72668
2.7789
2.8315
2.88444
2.93765
2.99109
3.0447
3.09843
3.15221
3.206
3.25972
3.31334
3.36677
3.41997
3.47286
3.52539
3.57754
3.62925
3.68044
3.73105
3.78101
3.83028
3.87878
3.92647
3.9733
4.01919
4.06411
4.10799
4.15078
4.19242
4.23287
4.27207
4.30997
4.34652
4.38169
4.41543
4.4477
4.47846
4.50768
4.53532
4.56137
4.58578
4.60855
4.62964
4.64903
4.66672
4.68268
4.6969
4.70938
4.7201
4.72907
4.7363
4.74179
4.74556
4.74762
4.748
4.74672
4.74375
4.73912
4.73286
4.72502
4.71564
4.70476
4.69242
4.67867
4.66357
4.64715
4.62947
4.6106
4.59057
4.56944
4.54726
4.52409
4.49996
4.4749
4.44894
4.4221
4.39437
4.36576
4.33622
4.30574
4.27426
4.24173
4.20811
4.17334
4.13738
4.10017
4.06169
4.02189
3.98077
3.93833
3.89458
3.84946
3.80298
3.75484
3.70508
3.65283
3.59862
3.54022
0.219569
0.382101
0.486216
0.540378
0.584006
0.618523
0.649289
0.676584
0.701947
0.725521
0.747882
0.76911
0.789443
0.808926
0.827665
0.845686
0.863042
0.879759
0.895872
0.911402
0.926391
0.940889
0.954957
0.968665
0.982096
0.995335
1.00847
1.02162
1.03487
1.04833
1.06209
1.07622
1.09081
1.10594
1.12167
1.13806
1.15517
1.17305
1.19174
1.21129
1.23171
1.25306
1.27533
1.29858
1.3228
1.34801
1.37423
1.40146
1.4297
1.45897
1.48925
1.52054
1.55284
1.58615
1.62046
1.65576
1.69205
1.72932
1.76756
1.80676
1.84692
1.88803
1.93007
1.97304
2.01692
2.06169
2.10735
2.15387
2.20124
2.24944
2.29844
2.34822
2.39875
2.45001
2.50195
2.55456
2.60778
2.66159
2.71594
2.77079
2.8261
2.88183
2.93792
2.99431
3.05097
3.10782
3.16482
3.2219
3.27901
3.33608
3.39306
3.44989
3.50651
3.56284
3.61883
3.67438
3.72942
3.78391
3.83781
3.89109
3.94369
3.99554
4.04659
4.09677
4.14602
4.19428
4.24149
4.28759
4.33252
4.37623
4.41866
4.45976
4.49948
4.53777
4.57458
4.60986
4.64358
4.67569
4.70616
4.73496
4.76205
4.78742
4.81103
4.83286
4.85289
4.87112
4.88751
4.90207
4.91477
4.92562
4.9346
4.94174
4.94703
4.9505
4.95216
4.95204
4.95021
4.94656
4.94114
4.93399
4.92515
4.91467
4.90259
4.88898
4.87387
4.85732
4.8394
4.82016
4.79966
4.77799
4.75518
4.73132
4.70646
4.68067
4.65398
4.62646
4.59812
4.56899
4.53909
4.5084
4.47691
4.44457
4.41134
4.37716
4.34198
4.30574
4.26839
4.22985
4.19007
4.14901
4.10665
4.06296
4.01795
3.97154
3.92373
3.87426
3.82316
3.76965
3.71434
3.65518
0.21511
0.373855
0.475498
0.529033
0.572565
0.607139
0.638143
0.66577
0.691592
0.715711
0.738724
0.76069
0.781863
0.802274
0.822035
0.841161
0.859703
0.87767
0.895097
0.912015
0.92846
0.94447
0.9601
0.975409
0.990468
1.00536
1.02017
1.03499
1.04991
1.06501
1.08038
1.09608
1.1122
1.12881
1.14599
1.1638
1.18232
1.20161
1.22171
1.24267
1.26456
1.2874
1.31123
1.3361
1.36203
1.38904
1.41716
1.44641
1.47681
1.50835
1.54105
1.57492
1.60996
1.64615
1.6835
1.722
1.76163
1.80239
1.84426
1.88722
1.93125
1.97633
2.02243
2.06954
2.11762
2.16665
2.2166
2.26743
2.31912
2.37163
2.42494
2.47899
2.53377
2.58922
2.64531
2.70199
2.75923
2.81698
2.87519
2.93382
2.99282
3.05213
3.11171
3.1715
3.23143
3.29145
3.35151
3.41153
3.47146
3.53124
3.59078
3.65003
3.7089
3.76734
3.82529
3.88271
3.93956
3.99577
4.05127
4.10599
4.15986
4.21283
4.26482
4.31579
4.36569
4.41444
4.46201
4.50833
4.55335
4.59702
4.63928
4.68009
4.71939
4.75713
4.79326
4.82775
4.86056
4.89164
4.92097
4.94851
4.97424
4.99813
5.02016
5.04031
5.05857
5.07492
5.08935
5.10185
5.11241
5.12104
5.12772
5.13248
5.13534
5.13632
5.13548
5.13283
5.12827
5.12187
5.11364
5.10365
5.09193
5.07854
5.06354
5.04697
5.0289
5.00939
4.98852
4.96635
4.94296
4.91843
4.89284
4.86625
4.83874
4.81038
4.78123
4.75135
4.72079
4.68956
4.65768
4.62516
4.59197
4.55807
4.5234
4.48792
4.45155
4.41424
4.3759
4.33645
4.29583
4.25396
4.21083
4.16638
4.12059
4.0734
4.02479
3.97451
3.92261
3.86841
3.81254
3.75316
0.207932
0.361514
0.460548
0.513422
0.556863
0.591554
0.6229
0.650991
0.67744
0.702293
0.72617
0.749101
0.771356
0.79295
0.814004
0.834526
0.854569
0.874138
0.893262
0.911953
0.930226
0.948133
0.96573
0.983069
1.00021
1.01724
1.0342
1.05119
1.06827
1.0855
1.10298
1.12078
1.13896
1.15764
1.17688
1.19678
1.2174
1.2388
1.26105
1.28421
1.30834
1.33349
1.35971
1.38705
1.41555
1.44524
1.47616
1.50832
1.54176
1.57648
1.61249
1.6498
1.68841
1.72831
1.7695
1.81195
1.85564
1.90056
1.94667
1.99395
2.04236
2.09187
2.14244
2.19402
2.24658
2.30008
2.35447
2.40971
2.46576
2.52257
2.58009
2.63827
2.69708
2.75647
2.81638
2.87677
2.93759
2.99879
3.06032
3.12212
3.18415
3.24636
3.30867
3.37105
3.43342
3.49572
3.55791
3.61991
3.68168
3.74314
3.80424
3.8649
3.92506
3.98463
4.04355
4.10176
4.1592
4.21582
4.27158
4.32643
4.38031
4.43316
4.48492
4.53555
4.58497
4.63314
4.67999
4.72547
4.76952
4.8121
4.85316
4.89263
4.93049
4.96667
5.00113
5.03385
5.06478
5.09388
5.12114
5.14652
5.17
5.19156
5.21118
5.22884
5.24455
5.25828
5.27002
5.27977
5.28753
5.29329
5.29707
5.2989
5.2988
5.29694
5.29308
5.28729
5.2796
5.27004
5.25865
5.24547
5.23057
5.21399
5.1958
5.17606
5.15484
5.13222
5.10827
5.08307
5.05673
5.02932
5.00093
4.97165
4.94156
4.91074
4.87926
4.8472
4.8146
4.7815
4.74792
4.71386
4.67929
4.64417
4.60844
4.57204
4.5349
4.49693
4.45805
4.41815
4.37714
4.33495
4.29153
4.24681
4.20077
4.15331
4.10442
4.05386
4.0017
3.94734
3.89141
3.83228
0.200025
0.347646
0.443145
0.495088
0.538372
0.573237
0.605057
0.633778
0.661061
0.686882
0.711896
0.736095
0.759771
0.782919
0.805668
0.828006
0.849988
0.871608
0.892889
0.913821
0.934481
0.954906
0.975142
0.995243
1.01526
1.03523
1.05522
1.07526
1.09542
1.11576
1.13632
1.15716
1.17839
1.20016
1.22256
1.24564
1.26946
1.29411
1.31965
1.34616
1.3737
1.40235
1.43214
1.46314
1.49539
1.52892
1.56377
1.59997
1.63753
1.67646
1.71677
1.75846
1.80152
1.84592
1.89166
1.9387
1.987
2.03654
2.08727
2.13915
2.19212
2.24615
2.30118
2.35716
2.41402
2.47173
2.53022
2.58944
2.64934
2.70986
2.77094
2.83254
2.8946
2.95707
3.0199
3.08303
3.14641
3.21
3.27373
3.33756
3.40143
3.4653
3.52909
3.59277
3.65627
3.71952
3.78248
3.84508
3.90726
3.96896
4.03011
4.09066
4.15055
4.20972
4.26811
4.32565
4.38231
4.43801
4.49272
4.54637
4.59891
4.65028
4.70042
4.74929
4.79683
4.84299
4.88772
4.93097
4.9727
5.01286
5.0514
5.08829
5.12347
5.15692
5.18857
5.21842
5.24641
5.27253
5.29675
5.31904
5.33939
5.35779
5.3742
5.38863
5.40107
5.41151
5.41993
5.42635
5.43076
5.43318
5.43361
5.43222
5.42887
5.42355
5.41627
5.40707
5.39599
5.38305
5.3683
5.35178
5.33356
5.3137
5.29226
5.26932
5.24495
5.21925
5.19229
5.16418
5.135
5.10485
5.07381
5.04201
5.00955
4.97653
4.94302
4.90912
4.87487
4.84032
4.80549
4.77038
4.73496
4.69917