/*--------------------------------*- C++ -*----------------------------------*\
| =========                 |                                                 |
| \\      /  F ield         | OpenFOAM: The Open Source CFD Toolbox           |
|  \\    /   O peration     | Version:  v1906                                 |
|   \\  /    A nd           | Web:      www.OpenFOAM.com                      |
|    \\/     M anipulation  |                                                 |
\*---------------------------------------------------------------------------*/
FoamFile
{
    version     2.0;
    format      ascii;
    class       volScalarField;
    location    "1276";
    object      nut;
}
// * * * * * * * * * * * * * * * * * * * * * * * * * * * * * * * * * * * * * //

dimensions      [0 2 -1 0 0 0 0];


internalField   nonuniform List<scalar> 
12225
(
5.38048e-05
5.34216e-05
5.26393e-05
5.17772e-05
5.0945e-05
5.0179e-05
4.94848e-05
4.88668e-05
4.83035e-05
4.78129e-05
4.73472e-05
4.69669e-05
4.66577e-05
4.64061e-05
4.61744e-05
4.60074e-05
4.58064e-05
4.57305e-05
0.000743659
0.000274828
0.000208916
0.000186813
0.000173792
0.000168884
0.000164694
0.000161057
0.000158135
0.000155584
0.000153645
0.00015171
0.000150426
0.000148662
0.000148085
0.00014635
0.000146727
0.000144813
0.00337131
0.000965688
0.000668425
0.000562247
0.000503861
0.000472019
0.000448885
0.000431625
0.000418744
0.000408302
0.000399653
0.000392267
0.000386219
0.000380492
0.000376355
0.000371339
0.000369515
0.000364434
0.00784749
0.00229238
0.00147326
0.00117575
0.00101859
0.000926473
0.000864606
0.000819836
0.000786973
0.000761157
0.000740077
0.000723305
0.000709575
0.000697703
0.000688159
0.00067878
0.000673498
0.000663042
0.0127627
0.00432672
0.00270975
0.00210436
0.00178857
0.00159949
0.00147344
0.00138301
0.0013157
0.00126353
0.00122158
0.00118741
0.00115965
0.00113577
0.00111558
0.00109773
0.00108491
0.00106654
0.0171139
0.00693199
0.00436917
0.0033459
0.00280529
0.00247638
0.00225606
0.00209807
0.0019798
0.00188813
0.0018148
0.00175495
0.00170562
0.00166396
0.00162853
0.00159776
0.00157206
0.00154384
0.0205947
0.00988395
0.00641799
0.00491187
0.00409426
0.00358851
0.00324682
0.00300092
0.00281599
0.00267219
0.00255713
0.00246306
0.00238504
0.00231926
0.00226316
0.00221466
0.00217338
0.00213083
0.0232407
0.0129306
0.00876066
0.00676557
0.00563802
0.00492468
0.00443623
0.00408185
0.00381365
0.00360401
0.00343576
0.00329785
0.00318298
0.00308593
0.00300294
0.00293117
0.00286889
0.00280765
0.0252064
0.0158686
0.0112825
0.0088574
0.00741813
0.00648208
0.00583017
0.00535203
0.00498731
0.00470049
0.00446926
0.00427907
0.00412009
0.00398538
0.00386989
0.00376983
0.0036822
0.00359923
0.0266541
0.0185549
0.0138527
0.0111073
0.00938571
0.00822872
0.00740579
0.00679358
0.00632176
0.00594775
0.00564441
0.00539368
0.0051832
0.00500419
0.00485019
0.00471634
0.00459834
0.00448938
0.0277221
0.0209146
0.0163558
0.0134291
0.011484
0.0101279
0.00913958
0.0083918
0.00780836
0.00734153
0.00696014
0.00664308
0.00637563
0.00614721
0.00595
0.00577801
0.005626
0.00548756
0.0284467
0.0227415
0.0184776
0.0155118
0.0134326
0.0119302
0.0108079
0.00994365
0.00926042
0.00870821
0.00825348
0.00787304
0.00755044
0.00727369
0.00703382
0.00682388
0.00663789
0.00646982
0.0290075
0.0243029
0.0204373
0.0175383
0.0153939
0.0137848
0.0125499
0.0115801
0.010802
0.0101659
0.00963732
0.00919193
0.00881203
0.00848452
0.00819947
0.00794912
0.00772693
0.00752682
0.0294889
0.0257555
0.0223978
0.0196765
0.0175407
0.0158664
0.0145393
0.0134714
0.0125986
0.0118748
0.0112665
0.0107491
0.0103045
0.00991876
0.0095813
0.00928366
0.00901882
0.00878077
0.0298837
0.0270285
0.0242392
0.0217977
0.0197578
0.0180791
0.0166979
0.0155542
0.0145985
0.0137919
0.0131045
0.0125133
0.0120006
0.0115525
0.011158
0.0108083
0.0104961
0.0102153
0.0301876
0.0280603
0.0258268
0.0237255
0.0218566
0.0202385
0.0188524
0.0176676
0.0166524
0.0157783
0.0150216
0.0143624
0.0137846
0.0132753
0.0128238
0.0124213
0.0120607
0.0117358
0.0303978
0.0288005
0.0270243
0.0252474
0.0235767
0.0220605
0.020711
0.0195215
0.0184767
0.0175595
0.0167526
0.0160407
0.0154102
0.0148496
0.0143491
0.0139005
0.0134969
0.0131327
0.0305044
0.0291848
0.027668
0.0260933
0.0245604
0.0231268
0.0218185
0.0206416
0.0195908
0.0186559
0.0178247
0.017085
0.0164252
0.0158351
0.0153059
0.0148296
0.0143994
0.0140094
0.0304715
0.0290671
0.0274719
0.0258371
0.0242637
0.0228061
0.0214859
0.0203051
0.0192558
0.0183255
0.0175005
0.0167678
0.0161155
0.0155329
0.0150111
0.0145422
0.0141198
0.0137385
0.030231
0.028214
0.0260761
0.0240423
0.0222139
0.0206156
0.0192352
0.018047
0.017023
0.0161371
0.0153668
0.0146934
0.0141015
0.0135783
0.0131136
0.0126991
0.012328
0.0119949
0.0298206
0.0268281
0.0239498
0.0214631
0.0194056
0.0177241
0.0163474
0.0152113
0.014264
0.0134657
0.0127859
0.0122015
0.0116946
0.0112515
0.0108615
0.0105162
0.0102092
0.00993655
0.0291396
0.0247088
0.020985
0.0181325
0.0159864
0.0143548
0.0130898
0.0120883
0.0112795
0.0106148
0.0100598
0.00959031
0.00918831
0.00884057
0.00853703
0.00827007
0.00803401
0.00782526
0.028036
0.0217163
0.0172853
0.0143383
0.0123315
0.0109081
0.00985722
0.00905428
0.0084229
0.00791442
0.00749667
0.00714766
0.00685188
0.0065981
0.00637792
0.00618514
0.00601505
0.0058665
0.0262544
0.0178168
0.013146
0.0104897
0.00884763
0.00775162
0.00697426
0.00639695
0.00595237
0.00559996
0.00531401
0.00507748
0.00487867
0.00470929
0.00456322
0.00443594
0.00432382
0.00422602
0.0233814
0.013206
0.00902269
0.00699366
0.00583842
0.00510167
0.00459323
0.004223
0.00394183
0.00372121
0.00354363
0.00339769
0.00327569
0.00317226
0.00308323
0.00300582
0.00293678
0.00287723
0.0189046
0.00845563
0.00545015
0.00418497
0.00350646
0.00308627
0.00280101
0.00259663
0.00244286
0.00232291
0.00222686
0.00214824
0.00208274
0.00202746
0.00197984
0.00193878
0.00190217
0.00187108
0.0125845
0.00438897
0.00278862
0.0021725
0.0018504
0.00165232
0.0015184
0.0014244
0.00135365
0.00129843
0.00125442
0.00121846
0.00118865
0.00116363
0.00114159
0.00112301
0.00110556
0.00109083
0.00562612
0.00171149
0.00115553
0.000945992
0.000836998
0.000769038
0.000723352
0.000693193
0.000668814
0.000649372
0.000633857
0.000620845
0.000609608
0.000600075
0.000591412
0.000584209
0.000576996
0.000572043
0.00117126
0.000435645
0.000327293
0.00028481
0.000262915
0.000248761
0.000241428
0.000237209
0.000233239
0.000229632
0.000226403
0.000223595
0.00022104
0.000218879
0.000216807
0.000215145
0.00021336
0.000211723
7.08579e-05
7.01306e-05
6.91148e-05
6.81141e-05
6.71692e-05
6.63e-05
6.55043e-05
6.47796e-05
6.41217e-05
6.35238e-05
6.29791e-05
6.24811e-05
6.20255e-05
6.16057e-05
6.12213e-05
6.0863e-05
6.05365e-05
6.02259e-05
9.60093e-06
2.95513e-05
3.54076e-05
3.85417e-05
4.06571e-05
4.20387e-05
4.30682e-05
4.38322e-05
4.44397e-05
4.49233e-05
4.53225e-05
4.56531e-05
4.59323e-05
4.61682e-05
4.6367e-05
4.65312e-05
4.66627e-05
4.67579e-05
4.68204e-05
4.68508e-05
4.6827e-05
4.67644e-05
4.66159e-05
4.63215e-05
4.58834e-05
4.53009e-05
4.45706e-05
4.3667e-05
4.25769e-05
4.12316e-05
3.95706e-05
3.75491e-05
3.51708e-05
3.23484e-05
3.02795e-05
2.9078e-05
2.88086e-05
2.91541e-05
3.00516e-05
3.07398e-05
3.09503e-05
3.05982e-05
2.94104e-05
2.77914e-05
2.69138e-05
2.73365e-05
2.85307e-05
3.03252e-05
3.25606e-05
3.53336e-05
3.85569e-05
4.15688e-05
4.41331e-05
4.64267e-05
4.85041e-05
5.03734e-05
5.20585e-05
5.35911e-05
5.49927e-05
5.62826e-05
5.7477e-05
5.85897e-05
5.96329e-05
6.06171e-05
6.15515e-05
6.24439e-05
6.33009e-05
6.41284e-05
6.49312e-05
6.57132e-05
6.64779e-05
6.72279e-05
6.79654e-05
6.86921e-05
6.94095e-05
7.01185e-05
7.08198e-05
7.15139e-05
7.22012e-05
7.28816e-05
7.35551e-05
7.42214e-05
7.48803e-05
7.55311e-05
7.61733e-05
7.68062e-05
7.74289e-05
7.80405e-05
7.86402e-05
7.92268e-05
7.97995e-05
8.03572e-05
8.08993e-05
8.14252e-05
8.19349e-05
8.24282e-05
8.29044e-05
8.3365e-05
8.38172e-05
8.42623e-05
8.47009e-05
8.51327e-05
8.55563e-05
8.597e-05
8.63724e-05
8.67612e-05
8.71342e-05
8.74894e-05
8.78265e-05
8.81501e-05
8.84577e-05
8.87466e-05
8.90115e-05
8.92437e-05
8.94273e-05
8.95311e-05
8.95535e-05
8.95985e-05
8.96077e-05
8.96111e-05
8.9595e-05
8.95626e-05
8.95472e-05
8.94446e-05
8.9431e-05
8.9335e-05
8.92598e-05
8.91672e-05
8.90652e-05
8.8954e-05
8.8828e-05
8.87131e-05
8.85433e-05
8.84178e-05
8.82635e-05
8.81139e-05
8.79566e-05
8.77975e-05
8.76354e-05
8.7472e-05
8.73077e-05
8.71434e-05
8.69798e-05
8.68177e-05
8.66576e-05
8.64997e-05
8.63434e-05
8.61962e-05
8.60652e-05
8.59105e-05
8.57958e-05
8.56625e-05
8.55449e-05
8.54344e-05
8.5333e-05
8.52406e-05
8.51582e-05
8.50858e-05
8.50228e-05
8.49722e-05
8.4937e-05
8.49238e-05
8.49734e-05
8.50928e-05
8.52392e-05
8.54057e-05
8.5417e-05
8.53567e-05
8.52963e-05
8.5235e-05
8.51723e-05
8.5088e-05
8.50008e-05
8.48724e-05
8.47363e-05
8.45187e-05
8.43388e-05
8.3988e-05
8.36882e-05
8.16309e-05
1.37824e-05
8.26743e-05
0.000169388
0.00022509
0.000267075
0.000297724
0.000322192
0.00034124
0.000356954
0.000369774
0.000380979
0.000391137
0.000400859
0.000410357
0.000419755
0.000428992
0.000437952
0.000446444
0.000454233
0.000461002
0.000466288
0.000469416
0.000469452
0.000465651
0.000459687
0.000453362
0.000448735
0.00044676
0.000445047
0.000445089
0.000449825
0.000460895
0.000480107
0.000499342
0.000513881
0.000523264
0.000527669
0.000528014
0.000525996
0.000523747
0.000522854
0.000523658
0.000525379
0.00052667
0.000527107
0.000527115
0.000526907
0.000526142
0.000524374
0.000521251
0.000516841
0.00051353
0.000513474
0.00051694
0.000523821
0.000533427
0.000545016
0.000557912
0.00057155
0.000585475
0.000599339
0.000612885
0.000625937
0.000638388
0.000650187
0.000661326
0.00067183
0.000681745
0.000691135
0.000700067
0.000708613
0.000716844
0.000724826
0.000732619
0.000740276
0.000747847
0.000755372
0.000762885
0.000770417
0.000777992
0.00078563
0.000793346
0.000801153
0.000809057
0.000817063
0.000825167
0.000833363
0.000841633
0.00084995
0.000858273
0.000866541
0.000874673
0.000882565
0.0008901
0.000897182
0.000903733
0.000909587
0.000914504
0.000919007
0.000923373
0.000927734
0.000932173
0.000936737
0.000941379
0.000946024
0.000950566
0.000954845
0.000958589
0.000961289
0.000963752
0.000966277
0.000968947
0.000971803
0.000974878
0.000978209
0.000981811
0.000985456
0.000988838
0.000992121
0.000995223
0.00099821
0.00100109
0.00100389
0.00100658
0.0010092
0.00101173
0.00101424
0.00101666
0.00101898
0.00102125
0.00102338
0.00102539
0.00102739
0.00102909
0.00103079
0.00103232
0.00103373
0.00103498
0.00103611
0.0010371
0.00103792
0.00103859
0.00103908
0.00103938
0.00103947
0.00103934
0.00103905
0.0010385
0.00103775
0.00103684
0.00103559
0.00103414
0.00103234
0.00103018
0.0010277
0.00102484
0.00102158
0.00101782
0.00101348
0.00100854
0.00100281
0.000996153
0.000989929
0.000984307
0.000978258
0.000970927
0.000963676
0.000956554
0.000949513
0.000942454
0.000935437
0.000928282
0.000921347
0.00091394
0.000907291
0.000899681
0.00089449
0.000886153
0.000883661
0.000848488
1.76806e-05
0.000107186
0.00023491
0.000341143
0.000430127
0.000502271
0.000561137
0.000607437
0.000646692
0.00067963
0.000709559
0.000737322
0.0007642
0.00079044
0.000816365
0.000841926
0.00086713
0.000891877
0.000916071
0.000939426
0.000961214
0.000979504
0.0009931
0.00100266
0.00100944
0.00101471
0.00101934
0.00102351
0.00102662
0.00102769
0.00102595
0.00102044
0.00101026
0.00100039
0.000991906
0.000985326
0.000981228
0.000980326
0.000983427
0.000991459
0.00100363
0.00101814
0.00103431
0.00105042
0.00106533
0.00107849
0.0010899
0.00110007
0.00111035
0.00112095
0.00113153
0.00114588
0.00116346
0.00118464
0.00120862
0.00123472
0.00126212
0.00129003
0.0013178
0.00134489
0.00137091
0.00139561
0.00141882
0.00144049
0.00146065
0.00147935
0.00149671
0.00151285
0.00152792
0.00154207
0.00155543
0.00156815
0.00158033
0.0015921
0.00160354
0.00161475
0.00162579
0.00163672
0.00164759
0.00165843
0.00166927
0.00168013
0.001691
0.00170189
0.00171277
0.00172362
0.00173439
0.00174502
0.00175544
0.00176551
0.00177511
0.00178401
0.00179195
0.00179852
0.00180379
0.00180853
0.00181305
0.00181757
0.00182228
0.0018273
0.00183272
0.00183866
0.00184517
0.00185212
0.00185924
0.00186636
0.00187335
0.00188011
0.00188671
0.00189335
0.00190011
0.00190699
0.00191397
0.001921
0.00192803
0.00193496
0.00194164
0.00194796
0.00195384
0.00195933
0.00196455
0.00196957
0.00197444
0.00197919
0.00198384
0.0019884
0.00199283
0.00199714
0.00200132
0.00200538
0.00200932
0.00201311
0.00201678
0.00202027
0.00202365
0.00202684
0.00202988
0.00203276
0.00203548
0.00203802
0.00204038
0.00204254
0.0020445
0.00204625
0.00204777
0.0020491
0.0020502
0.00205106
0.00205168
0.00205205
0.00205209
0.00205188
0.00205133
0.00205043
0.00204914
0.0020474
0.00204519
0.00204252
0.00203919
0.00203507
0.00203019
0.00202463
0.00201872
0.00201228
0.00200472
0.00199637
0.00198774
0.00197854
0.00196874
0.00195844
0.00194793
0.00193711
0.00192642
0.00191524
0.00190491
0.00189363
0.00188501
0.00187276
0.00186068
0.00180113
1.94742e-05
0.000124071
0.000278633
0.000406514
0.000526417
0.00062566
0.000714394
0.000786548
0.000850438
0.000905281
0.000955927
0.00100271
0.0010476
0.00109056
0.00113219
0.00117227
0.00121082
0.00124761
0.00128267
0.00131607
0.00134766
0.00137602
0.00139746
0.00141291
0.00142309
0.00142862
0.00143014
0.00142828
0.00142374
0.00141727
0.00140929
0.00140042
0.0013916
0.00138411
0.00137919
0.00137783
0.00138046
0.00138733
0.00139891
0.00141316
0.00143008
0.00145157
0.00147788
0.00150875
0.00154236
0.0015769
0.00161125
0.00164378
0.00167282
0.00170153
0.00173061
0.00175986
0.00178898
0.00181844
0.00184845
0.00187889
0.00190943
0.00193968
0.00196921
0.00199769
0.00202483
0.00205045
0.00207445
0.00209682
0.00211757
0.00213679
0.0021546
0.00217116
0.00218663
0.00220116
0.0022149
0.00222798
0.00224053
0.00225267
0.0022645
0.00227611
0.00228757
0.00229894
0.00231029
0.00232163
0.00233301
0.00234443
0.0023559
0.00236742
0.00237896
0.00239051
0.00240202
0.00241344
0.00242473
0.00243582
0.00244664
0.00245713
0.00246728
0.00247712
0.00248679
0.00249646
0.00250623
0.00251618
0.00252637
0.00253683
0.00254758
0.00255861
0.00256986
0.00258125
0.00259267
0.00260406
0.00261539
0.00262663
0.00263783
0.002649
0.00266014
0.00267122
0.00268217
0.00269293
0.0027034
0.00271345
0.00272293
0.00273157
0.00273895
0.00274554
0.00275172
0.00275764
0.00276338
0.00276896
0.0027744
0.00277969
0.00278483
0.0027898
0.00279461
0.00279923
0.00280368
0.00280795
0.00281204
0.00281595
0.00281967
0.00282319
0.00282652
0.00282966
0.00283258
0.00283528
0.00283776
0.00284002
0.00284203
0.00284379
0.00284531
0.00284657
0.00284758
0.00284829
0.00284872
0.00284877
0.00284851
0.00284791
0.00284691
0.00284549
0.00284359
0.00284115
0.00283816
0.00283455
0.00283025
0.00282519
0.00281939
0.00281305
0.00280638
0.00279912
0.00279081
0.0027814
0.00277123
0.00276041
0.0027491
0.00273735
0.00272532
0.00271285
0.00270032
0.00268728
0.00267481
0.00266144
0.00264971
0.00263302
0.00261042
0.00254382
2.17724e-05
0.000147781
0.00032521
0.000475932
0.000618693
0.000742684
0.000855821
0.000954161
0.00104261
0.00111886
0.00118874
0.00125214
0.00131231
0.00136911
0.00142382
0.00147584
0.00152516
0.00157067
0.00161154
0.00164683
0.00167685
0.00170163
0.00172109
0.00173538
0.00174484
0.00175007
0.00175186
0.00175106
0.00174845
0.00174465
0.00174021
0.00173552
0.00173091
0.0017269
0.00172402
0.00172372
0.0017287
0.0017422
0.0017636
0.00179266
0.00182976
0.00187225
0.00191737
0.00196272
0.00200712
0.00204963
0.00208888
0.00212704
0.00216311
0.00219622
0.00222768
0.00225841
0.00228902
0.00231963
0.00235017
0.00238047
0.00241027
0.0024393
0.00246727
0.00249399
0.00251928
0.00254306
0.0025653
0.00258602
0.00260529
0.00262321
0.00263989
0.00265544
0.00266999
0.00268367
0.00269662
0.00270898
0.00272086
0.00273238
0.00274364
0.00275473
0.00276574
0.00277673
0.00278775
0.00279885
0.00281005
0.00282139
0.00283287
0.00284449
0.00285626
0.00286815
0.00288015
0.00289225
0.00290442
0.00291664
0.00292892
0.00294124
0.00295362
0.00296611
0.00297874
0.00299155
0.00300454
0.00301774
0.00303113
0.00304472
0.00305848
0.00307239
0.0030864
0.00310046
0.00311452
0.00312854
0.00314252
0.00315644
0.00317029
0.00318405
0.00319767
0.00321112
0.00322434
0.00323727
0.00324982
0.00326193
0.0032735
0.00328446
0.00329484
0.00330477
0.00331438
0.00332371
0.00333279
0.00334163
0.00335024
0.0033586
0.00336672
0.00337459
0.00338222
0.00338958
0.0033967
0.00340355
0.00341015
0.00341648
0.00342255
0.00342835
0.00343388
0.00343914
0.00344411
0.00344881
0.00345322
0.00345734
0.00346117
0.0034647
0.00346792
0.0034708
0.00347344
0.00347571
0.0034776
0.0034791
0.00348023
0.00348095
0.00348122
0.00348102
0.00348031
0.00347905
0.0034772
0.00347472
0.00347155
0.00346768
0.0034631
0.00345786
0.00345195
0.00344517
0.00343738
0.0034286
0.00341897
0.0034086
0.00339755
0.00338589
0.00337368
0.00336093
0.00334771
0.00333399
0.00331985
0.00330487
0.00328838
0.00326663
0.00323232
0.00316782
2.33449e-05
0.000161955
0.00036134
0.000534584
0.000698125
0.000843415
0.00097566
0.00109424
0.00120074
0.00129694
0.00138397
0.00146293
0.00153512
0.00160148
0.00166352
0.00172128
0.0017747
0.00182281
0.00186503
0.00190177
0.00193341
0.00196023
0.00198241
0.00200016
0.00201385
0.00202399
0.00203119
0.00203611
0.00203934
0.00204122
0.00204185
0.00204212
0.00204401
0.00204905
0.00205903
0.00207511
0.00209722
0.00212453
0.00215599
0.00219213
0.00223207
0.00227453
0.00231776
0.0023607
0.00240257
0.0024425
0.00248079
0.00251728
0.00255114
0.00258339
0.00261447
0.00264471
0.00267433
0.0027034
0.00273188
0.00275966
0.00278658
0.00281248
0.00283722
0.00286069
0.00288282
0.00290358
0.00292296
0.00294102
0.00295783
0.00297347
0.00298805
0.0030017
0.00301453
0.00302667
0.00303825
0.00304939
0.0030602
0.0030708
0.00308126
0.00309169
0.00310215
0.0031127
0.0031234
0.0031343
0.00314542
0.00315678
0.00316841
0.0031803
0.00319247
0.00320491
0.00321761
0.00323057
0.00324378
0.00325723
0.00327092
0.00328484
0.003299
0.0033134
0.00332803
0.00334288
0.00335794
0.0033732
0.00338863
0.0034042
0.0034199
0.00343568
0.00345153
0.0034674
0.00348327
0.00349912
0.00351491
0.00353062
0.00354623
0.0035617
0.00357699
0.00359207
0.00360689
0.0036214
0.00363557
0.00364935
0.00366271
0.00367566
0.00368822
0.00370044
0.00371236
0.00372398
0.00373533
0.00374639
0.00375718
0.00376769
0.00377792
0.00378786
0.00379752
0.00380689
0.00381597
0.00382477
0.00383328
0.0038415
0.00384942
0.00385706
0.00386441
0.00387146
0.00387821
0.00388467
0.00389086
0.00389673
0.00390234
0.00390766
0.00391269
0.00391733
0.0039217
0.0039257
0.00392934
0.0039326
0.00393546
0.00393792
0.00393992
0.00394144
0.00394245
0.0039429
0.00394277
0.00394199
0.00394054
0.00393836
0.00393545
0.00393177
0.00392726
0.00392181
0.00391536
0.00390796
0.00389963
0.00389045
0.00388046
0.00386972
0.00385826
0.00384612
0.0038333
0.0038198
0.0038054
0.00378963
0.00377097
0.00374637
0.00370913
0.00365145
2.49235e-05
0.000173362
0.000392623
0.000586707
0.000766335
0.000927882
0.00107315
0.00120458
0.0013235
0.00143165
0.00153006
0.00162002
0.0017024
0.00177776
0.00184661
0.00190937
0.00196633
0.00201769
0.00206369
0.0021046
0.00214074
0.00217242
0.00219996
0.00222369
0.00224399
0.00226129
0.00227607
0.00228883
0.00229999
0.00231043
0.00232121
0.00233307
0.00234616
0.00236136
0.00237942
0.0024008
0.00242563
0.0024538
0.00248495
0.00251851
0.00255361
0.00259
0.00262851
0.00266879
0.00270967
0.00274911
0.00278498
0.00281783
0.00284891
0.00287857
0.00290709
0.00293464
0.00296135
0.00298725
0.00301232
0.00303649
0.0030597
0.00308186
0.0031029
0.00312279
0.00314149
0.00315901
0.00317539
0.00319067
0.00320494
0.00321827
0.00323079
0.00324258
0.00325378
0.00326449
0.00327484
0.00328492
0.00329484
0.00330471
0.00331459
0.00332458
0.00333474
0.00334512
0.00335577
0.00336673
0.00337803
0.0033897
0.00340173
0.00341415
0.00342695
0.00344014
0.0034537
0.00346763
0.00348192
0.00349655
0.00351152
0.00352682
0.00354242
0.00355831
0.00357448
0.00359089
0.00360753
0.00362436
0.00364136
0.0036585
0.00367573
0.00369304
0.00371038
0.00372773
0.00374506
0.00376233
0.00377954
0.00379664
0.00381362
0.00383043
0.00384705
0.00386345
0.0038796
0.00389546
0.00391101
0.00392624
0.00394113
0.00395568
0.00396991
0.00398382
0.00399744
0.00401075
0.00402377
0.00403649
0.00404891
0.00406103
0.00407285
0.00408437
0.00409559
0.00410651
0.00411713
0.00412746
0.00413748
0.00414721
0.00415665
0.00416579
0.00417465
0.00418321
0.0041915
0.00419949
0.00420732
0.00421481
0.00422204
0.00422896
0.00423561
0.00424196
0.00424801
0.00425373
0.00425912
0.00426415
0.00426881
0.00427308
0.00427692
0.00428029
0.00428317
0.0042855
0.00428725
0.00428837
0.0042888
0.00428849
0.00428741
0.00428548
0.00428265
0.00427883
0.00427401
0.00426818
0.00426135
0.00425357
0.00424488
0.00423531
0.0042249
0.00421369
0.00420163
0.00418869
0.00417451
0.00415853
0.00413908
0.00411378
0.00407788
0.00402898
2.59555e-05
0.000180502
0.000415758
0.000626067
0.000818207
0.000991511
0.00114767
0.00128919
0.00141742
0.0015341
0.00164026
0.00173714
0.00182588
0.00190704
0.00198119
0.00204883
0.00211042
0.00216642
0.00221723
0.00226323
0.00230476
0.00234217
0.00237579
0.00240597
0.00243305
0.00245741
0.00247942
0.00249947
0.0025183
0.00253608
0.00255322
0.0025701
0.00258705
0.00260434
0.0026222
0.00264074
0.00265992
0.00268218
0.00270887
0.00274042
0.00277656
0.00281658
0.00285878
0.00290088
0.00294067
0.00297667
0.00300937
0.0030395
0.00306763
0.00309414
0.00311934
0.00314342
0.0031665
0.00318866
0.0032099
0.00323022
0.00324961
0.00326803
0.00328547
0.00330193
0.0033174
0.00333193
0.00334555
0.00335832
0.00337032
0.00338165
0.00339239
0.00340265
0.00341253
0.00342215
0.0034316
0.00344098
0.00345039
0.0034599
0.00346961
0.00347956
0.00348983
0.00350045
0.00351147
0.00352292
0.00353482
0.00354718
0.00356002
0.00357334
0.00358712
0.00360137
0.00361608
0.00363123
0.00364681
0.00366279
0.00367916
0.0036959
0.00371298
0.00373038
0.00374805
0.00376598
0.00378413
0.00380245
0.00382092
0.0038395
0.00385815
0.00387685
0.00389556
0.00391427
0.00393294
0.00395154
0.00397006
0.00398846
0.00400671
0.00402479
0.00404267
0.00406032
0.00407773
0.00409487
0.00411173
0.00412829
0.00414454
0.00416048
0.00417611
0.00419143
0.00420644
0.00422115
0.00423554
0.00424962
0.00426339
0.00427684
0.00428998
0.00430281
0.00431533
0.00432754
0.00433945
0.00435105
0.00436236
0.00437336
0.00438408
0.00439451
0.00440467
0.00441454
0.00442424
0.00443363
0.00444283
0.00445174
0.00446041
0.00446884
0.00447702
0.00448493
0.00449257
0.00449993
0.004507
0.00451376
0.00452018
0.00452625
0.00453192
0.00453716
0.00454193
0.00454618
0.00454985
0.0045529
0.00455526
0.00455686
0.00455764
0.00455753
0.00455647
0.00455439
0.00455125
0.00454705
0.00454178
0.00453545
0.0045281
0.00451976
0.00451046
0.00450022
0.00448899
0.00447668
0.00446288
0.00444702
0.00442756
0.00440285
0.00436973
0.00432841
2.68795e-05
0.00018585
0.000434212
0.000657601
0.000858943
0.00104087
0.00120503
0.00135389
0.0014888
0.0016115
0.00172311
0.00182478
0.00191785
0.00200306
0.00208106
0.00215249
0.00221787
0.00227768
0.0023324
0.00238249
0.00242836
0.00247039
0.00250891
0.00254423
0.00257664
0.00260639
0.00263369
0.00265873
0.00268165
0.00270295
0.00272272
0.00274091
0.00275744
0.00277224
0.00278711
0.00280448
0.00282572
0.00285156
0.00288205
0.00291652
0.00295377
0.00299226
0.00303082
0.00306841
0.00310403
0.0031365
0.00316566
0.00319222
0.00321671
0.00323954
0.003261
0.0032813
0.00330058
0.00331892
0.00333638
0.00335298
0.00336875
0.00338368
0.0033978
0.00341112
0.00342367
0.00343551
0.00344669
0.00345728
0.00346735
0.003477
0.00348633
0.00349542
0.00350437
0.00351329
0.00352226
0.00353137
0.0035407
0.00355031
0.00356028
0.00357066
0.00358148
0.00359279
0.00360461
0.00361696
0.00362986
0.0036433
0.00365729
0.00367183
0.00368689
0.00370247
0.00371855
0.00373511
0.00375212
0.00376957
0.00378743
0.00380566
0.00382423
0.00384312
0.00386229
0.0038817
0.00390133
0.00392114
0.00394109
0.00396115
0.00398127
0.00400143
0.0040216
0.00404174
0.00406184
0.00408185
0.00410175
0.00412152
0.00414113
0.00416055
0.00417977
0.00419876
0.0042175
0.00423597
0.00425416
0.00427206
0.00428965
0.00430694
0.00432391
0.00434057
0.0043569
0.0043729
0.00438858
0.00440393
0.00441895
0.00443364
0.004448
0.00446203
0.00447574
0.00448914
0.00450222
0.00451499
0.00452745
0.00453962
0.00455151
0.00456311
0.00457449
0.00458561
0.0045965
0.00460718
0.00461762
0.00462788
0.00463792
0.00464774
0.00465734
0.00466673
0.00467591
0.00468485
0.00469355
0.004702
0.00471017
0.00471803
0.00472556
0.0047327
0.00473941
0.00474564
0.00475132
0.00475639
0.00476077
0.00476439
0.00476716
0.00476901
0.00476986
0.00476965
0.00476832
0.00476585
0.00476221
0.00475741
0.00475147
0.00474442
0.00473627
0.00472703
0.00471663
0.00470497
0.00469163
0.00467607
0.004657
0.00463337
0.00460303
0.00456706
2.72639e-05
0.000186994
0.000444576
0.000676489
0.000885463
0.00107429
0.00124463
0.00139897
0.00153871
0.00166562
0.0017809
0.00188576
0.00198156
0.00206927
0.0021496
0.00222332
0.00229106
0.00235338
0.00241078
0.0024637
0.00251256
0.00255776
0.00259964
0.00263852
0.00267465
0.00270826
0.00273952
0.00276861
0.00279548
0.00282002
0.00284228
0.00286217
0.00287948
0.0028956
0.00291251
0.00293162
0.00295395
0.0029798
0.0030089
0.00304061
0.00307406
0.00310828
0.00314224
0.00317502
0.00320581
0.00323386
0.00325878
0.00328127
0.00330182
0.00332081
0.00333851
0.00335511
0.00337076
0.00338554
0.00339954
0.00341278
0.00342532
0.00343719
0.00344843
0.00345908
0.00346919
0.00347883
0.00348807
0.00349697
0.00350563
0.00351413
0.00352256
0.00353101
0.00353958
0.00354833
0.00355736
0.00356673
0.0035765
0.00358674
0.00359747
0.00360876
0.00362061
0.00363307
0.00364613
0.00365982
0.00367412
0.00368903
0.00370454
0.00372065
0.00373732
0.00375454
0.00377229
0.00379055
0.00380927
0.00382845
0.00384804
0.00386801
0.00388833
0.00390897
0.00392989
0.00395105
0.00397241
0.00399393
0.00401557
0.00403729
0.00405906
0.00408084
0.0041026
0.00412431
0.00414594
0.00416747
0.00418887
0.00421012
0.0042312
0.00425207
0.00427273
0.00429314
0.00431329
0.00433317
0.00435275
0.00437203
0.004391
0.00440964
0.00442796
0.00444594
0.00446357
0.00448086
0.0044978
0.00451439
0.00453063
0.00454651
0.00456205
0.00457725
0.00459211
0.00460663
0.00462083
0.00463471
0.00464827
0.00466154
0.00467452
0.00468726
0.00469973
0.00471198
0.00472403
0.00473589
0.00474758
0.00475909
0.00477041
0.00478156
0.00479254
0.00480335
0.00481401
0.0048245
0.00483481
0.00484495
0.00485487
0.00486456
0.00487398
0.00488308
0.00489181
0.00490011
0.00490791
0.00491513
0.00492168
0.00492748
0.00493241
0.0049364
0.00493935
0.00494119
0.00494184
0.00494127
0.00493942
0.00493629
0.00493189
0.00492622
0.0049193
0.00491111
0.00490159
0.00489061
0.00487777
0.00486263
0.00484412
0.00482162
0.00479353
0.00476123
2.78087e-05
0.000191062
0.00045369
0.000690775
0.000904637
0.00109786
0.00127203
0.00142964
0.00157209
0.00170119
0.00181816
0.0019243
0.00202112
0.00210956
0.00219046
0.00226466
0.00233289
0.00239578
0.00245389
0.0025077
0.00255761
0.00260402
0.00264728
0.00268768
0.00272546
0.00276081
0.00279389
0.00282481
0.00285365
0.00288038
0.00290498
0.00292747
0.00294794
0.002967
0.0029864
0.00300721
0.00302994
0.00305469
0.00308122
0.00310907
0.00313767
0.00316639
0.00319456
0.00322153
0.00324666
0.00326927
0.00328942
0.0033076
0.0033242
0.00333949
0.00335367
0.00336691
0.00337931
0.00339097
0.00340196
0.00341235
0.00342219
0.00343154
0.00344045
0.003449
0.00345725
0.00346527
0.00347315
0.00348096
0.0034888
0.00349674
0.00350487
0.00351328
0.00352203
0.0035312
0.00354085
0.00355103
0.00356179
0.00357317
0.00358519
0.00359788
0.00361126
0.00362534
0.0036401
0.00365555
0.00367168
0.00368847
0.0037059
0.00372394
0.00374258
0.00376178
0.00378152
0.00380177
0.0038225
0.00384366
0.00386524
0.00388718
0.00390946
0.00393203
0.00395485
0.0039779
0.00400113
0.00402452
0.004048
0.00407154
0.00409511
0.00411868
0.00414222
0.0041657
0.00418909
0.00421236
0.00423549
0.00425843
0.00428118
0.00430371
0.004326
0.00434802
0.00436977
0.00439121
0.00441234
0.00443315
0.00445362
0.00447374
0.00449351
0.00451291
0.00453194
0.0045506
0.00456889
0.00458679
0.00460431
0.00462146
0.00463823
0.00465464
0.00467068
0.00468636
0.0047017
0.0047167
0.00473138
0.00474575
0.00475983
0.00477364
0.00478723
0.00480062
0.00481383
0.00482689
0.0048398
0.00485253
0.00486512
0.00487757
0.00488992
0.00490217
0.00491432
0.00492638
0.00493835
0.00495022
0.00496197
0.00497358
0.00498501
0.0049962
0.00500711
0.00501767
0.00502779
0.00503739
0.00504635
0.00505458
0.00506195
0.00506837
0.0050737
0.00507787
0.00508078
0.00508235
0.00508255
0.00508132
0.00507865
0.00507455
0.00506901
0.005062
0.00505345
0.00504323
0.00503098
0.00501634
0.00499844
0.00497695
0.00495061
0.00492089
2.79076e-05
0.00019362
0.000457169
0.000695711
0.000912576
0.00110848
0.00128482
0.00144405
0.00158757
0.00171724
0.00183426
0.00194014
0.00203642
0.00212399
0.00220383
0.00227684
0.00234381
0.00240543
0.0024623
0.00251496
0.00256387
0.00260942
0.00265194
0.00269172
0.00272902
0.00276404
0.00279694
0.00282788
0.00285696
0.0028843
0.00291003
0.00293431
0.00295737
0.00297949
0.00300088
0.00302215
0.00304388
0.00306625
0.00308921
0.00311257
0.003136
0.00315914
0.00318154
0.00320271
0.0032221
0.0032395
0.00325522
0.00326953
0.00328265
0.00329474
0.00330595
0.00331638
0.00332614
0.00333532
0.00334397
0.0033522
0.00336006
0.00336763
0.00337499
0.00338222
0.0033894
0.00339661
0.00340395
0.00341149
0.00341931
0.0034275
0.00343613
0.00344527
0.00345497
0.00346529
0.00347628
0.00348798
0.0035004
0.00351357
0.00352751
0.00354223
0.00355771
0.00357395
0.00359095
0.00360867
0.00362711
0.00364623
0.003666
0.00368641
0.00370741
0.00372898
0.00375108
0.00377368
0.00379675
0.00382024
0.00384413
0.00386837
0.00389292
0.00391776
0.00394284
0.00396812
0.00399356
0.00401911
0.00404474
0.00407042
0.00409609
0.00412173
0.0041473
0.00417277
0.00419812
0.00422333
0.00424835
0.00427318
0.00429778
0.00432213
0.00434622
0.00437001
0.00439349
0.00441664
0.00443945
0.00446191
0.004484
0.00450571
0.00452703
0.00454796
0.00456848
0.0045886
0.00460831
0.0046276
0.00464648
0.00466495