/*--------------------------------*- C++ -*----------------------------------*\
| =========                 |                                                 |
| \\      /  F ield         | OpenFOAM: The Open Source CFD Toolbox           |
|  \\    /   O peration     | Version:  v1906                                 |
|   \\  /    A nd           | Web:      www.OpenFOAM.com                      |
|    \\/     M anipulation  |                                                 |
\*---------------------------------------------------------------------------*/
FoamFile
{
    version     2.0;
    format      ascii;
    class       volScalarField;
    location    "1276";
    object      p;
}
// * * * * * * * * * * * * * * * * * * * * * * * * * * * * * * * * * * * * * //

dimensions      [0 2 -2 0 0 0 0];


internalField   nonuniform List<scalar> 
12225
(
-2.78201
-3.98444
-4.0346
-4.03974
-4.17537
-4.31331
-4.41907
-4.51294
-4.60331
-4.68855
-4.76762
-4.84484
-4.92389
-5.00632
-5.09225
-5.18697
-5.29979
-5.44196
-4.54253
-5.05742
-5.21517
-5.20094
-5.25627
-5.32102
-5.36917
-5.41781
-5.47186
-5.52751
-5.58294
-5.63984
-5.70146
-5.7673
-5.83869
-5.91782
-6.00441
-6.13188
-3.9575
-4.73798
-4.87745
-4.84578
-4.87867
-4.92791
-4.96887
-5.01158
-5.05898
-5.10781
-5.15695
-5.20732
-5.26153
-5.31881
-5.3811
-5.44619
-5.51581
-5.56857
-4.61268
-5.07928
-5.29702
-5.37112
-5.46359
-5.54722
-5.60877
-5.66282
-5.71621
-5.76854
-5.82008
-5.87245
-5.92754
-5.98566
-6.04701
-6.11142
-6.17667
-6.25123
-4.42177
-4.88041
-5.09564
-5.15631
-5.21857
-5.27346
-5.31489
-5.354
-5.39474
-5.43612
-5.47785
-5.52074
-5.56566
-5.61308
-5.66131
-5.71159
-5.75194
-5.78357
-4.79913
-5.10106
-5.30719
-5.41001
-5.51358
-5.6058
-5.68093
-5.74773
-5.81056
-5.87021
-5.92754
-5.984
-6.04067
-6.09818
-6.15546
-6.21323
-6.26754
-6.32743
-4.73371
-4.98124
-5.18122
-5.27958
-5.36633
-5.43725
-5.49289
-5.5419
-5.58823
-5.6327
-5.67593
-5.71877
-5.76159
-5.80465
-5.84615
-5.88627
-5.9156
-5.93308
-4.97454
-5.15819
-5.33304
-5.44065
-5.54485
-5.63702
-5.71653
-5.78872
-5.85621
-5.91995
-5.98078
-6.03967
-6.09716
-6.1536
-6.20822
-6.26113
-6.31183
-6.36439
-4.9618
-5.08855
-5.24926
-5.35115
-5.44475
-5.52329
-5.58889
-5.64683
-5.69986
-5.74931
-5.79604
-5.8408
-5.88378
-5.92507
-5.96325
-5.998
-6.02311
-6.03794
-5.1233
-5.23295
-5.3724
-5.47219
-5.57098
-5.65969
-5.73933
-5.81281
-5.88161
-5.94658
-6.00835
-6.06751
-6.12433
-6.17893
-6.2311
-6.28068
-6.32924
-6.37697
-5.1332
-5.19791
-5.31811
-5.40922
-5.49873
-5.57756
-5.64718
-5.71002
-5.76756
-5.82083
-5.87055
-5.91722
-5.96097
-6.00179
-6.03877
-6.07159
-6.09665
-6.11445
-5.23595
-5.30249
-5.41045
-5.49758
-5.58701
-5.66944
-5.74572
-5.81699
-5.88393
-5.94712
-6.00697
-6.0638
-6.11779
-6.16891
-6.21727
-6.26253
-6.3066
-6.34763
-5.25308
-5.29024
-5.38016
-5.45843
-5.53966
-5.61492
-5.68428
-5.7484
-5.80781
-5.86305
-5.91453
-5.96254
-6.00716
-6.04836
-6.08571
-6.11897
-6.1468
-6.1696
-5.33773
-5.38147
-5.46344
-5.53804
-5.61693
-5.6929
-5.76532
-5.83421
-5.89952
-5.9614
-6.02
-6.07542
-6.12778
-6.17705
-6.22346
-6.26669
-6.30786
-6.3449
-5.36017
-5.38245
-5.44537
-5.50955
-5.57919
-5.648
-5.71416
-5.77713
-5.83656
-5.89244
-5.94482
-5.99377
-6.03933
-6.08147
-6.12026
-6.15552
-6.18785
-6.21671
-5.42743
-5.45471
-5.51238
-5.57255
-5.63769
-5.70353
-5.76796
-5.83019
-5.8896
-5.94589
-5.99889
-6.04855
-6.09481
-6.13768
-6.17703
-6.21297
-6.24471
-6.27317
-5.4527
-5.47209
-5.51944
-5.57426
-5.63553
-5.69979
-5.76438
-5.82808
-5.89006
-5.9498
-6.00706
-6.06169
-6.11372
-6.16297
-6.20996
-6.25394
-6.29718
-6.33579
-5.4631
-5.47747
-5.51573
-5.56112
-5.61093
-5.66252
-5.71326
-5.76182
-5.80735
-5.8493
-5.88737
-5.9215
-5.95155
-5.97788
-5.99998
-6.01936
-6.03349
-6.04845
-5.5034
-5.53149
-5.58595
-5.64843
-5.71773
-5.79181
-5.86804
-5.94516
-6.02231
-6.09885
-6.17439
-6.24856
-6.32122
-6.39179
-6.46047
-6.52563
-6.58901
-6.64482
-5.36838
-5.37543
-5.41031
-5.4517
-5.49498
-5.53748
-5.5765
-5.611
-5.64055
-5.665
-5.68432
-5.69874
-5.70832
-5.71369
-5.71468
-5.71342
-5.70797
-5.70643
-5.39669
-5.44237
-5.51792
-5.59396
-5.67372
-5.75538
-5.83635
-5.91598
-5.994
-6.07022
-6.14472
-6.2177
-6.28963
-6.36072
-6.43208
-6.50279
-6.57608
-6.64433
-5.21191
-5.23095
-5.29573
-5.3552
-5.40992
-5.45854
-5.49908
-5.53231
-5.55926
-5.58063
-5.59687
-5.60831
-5.61485
-5.6165
-5.61198
-5.60191
-5.58143
-5.55846
-5.23979
-5.32162
-5.43656
-5.53402
-5.6296
-5.72303
-5.81098
-5.89379
-5.97229
-6.04686
-6.11795
-6.1862
-6.25258
-6.31811
-6.38515
-6.45504
-6.53535
-6.62231
-4.9767
-5.05129
-5.17457
-5.25463
-5.31644
-5.36605
-5.40284
-5.43069
-5.45309
-5.47144
-5.48634
-5.49818
-5.50691
-5.5122
-5.51218
-5.50527
-5.4817
-5.44101
-5.04075
-5.19955
-5.37022
-5.48734
-5.59547
-5.69787
-5.78732
-5.86611
-5.9378
-6.00361
-6.06432
-6.12094
-6.17454
-6.22608
-6.2777
-6.33181
-6.40003
-6.4902
-4.62704
-4.8694
-5.05675
-5.12651
-5.1703
-5.20662
-5.23101
-5.24936
-5.267
-5.28427
-5.30047
-5.31553
-5.3294
-5.34189
-5.35196
-5.35825
-5.35006
-5.31479
-4.81887
-5.12009
-5.35079
-5.46612
-5.57079
-5.66675
-5.73903
-5.79636
-5.84735
-5.89396
-5.93666
-5.97639
-6.01403
-6.04996
-6.08495
-6.1199
-6.16422
-6.23461
-4.08248
-4.68746
-4.85196
-4.83193
-4.83772
-4.86699
-4.89095
-4.91324
-4.93939
-4.96705
-4.994
-5.01994
-5.04489
-5.06872
-5.09113
-5.11234
-5.12624
-5.11759
-4.70738
-5.09392
-5.31772
-5.33029
-5.37048
-5.41913
-5.45207
-5.48144
-5.51457
-5.54956
-5.58409
-5.61789
-5.65101
-5.68325
-5.71435
-5.74438
-5.778
-5.8298
-2.83667
-3.9574
-4.02784
-4.00776
-4.10699
-4.22557
-4.31732
-4.39479
-4.46826
-4.53698
-4.59967
-4.65708
-4.71018
-4.75929
-4.8045
-4.84551
-4.8808
-4.90878
-5.76577
-5.78722
-5.80842
-5.83651
-5.87146
-5.90998
-5.94929
-5.9893
-6.02946
-6.06962
-6.1094
-6.14855
-6.18674
-6.22367
-6.25902
-6.29253
-6.32393
-6.35293
-6.37921
-6.40245
-6.42208
-6.43705
-6.44614
-6.44965
-6.4488
-6.44361
-6.43362
-6.41869
-6.39901
-6.37511
-6.34801
-6.31947
-6.29145
-6.26673
-6.24916
-6.24056
-6.23976
-6.24437
-6.25175
-6.25851
-6.26163
-6.25941
-6.25104
-6.23922
-6.23061
-6.22898
-6.23436
-6.24727
-6.26886
-6.29994
-6.3393
-6.38356
-6.43066
-6.47986
-6.52993
-6.57947
-6.62746
-6.67317
-6.71602
-6.75566
-6.79192
-6.82475
-6.85421
-6.88043
-6.90359
-6.92386
-6.94143
-6.95648
-6.96915
-6.97956
-6.98783
-6.99401
-6.99817
-7.00033
-7.00049
-6.99865
-6.99475
-6.98877
-6.98063
-6.97027
-6.95759
-6.94251
-6.92491
-6.90469
-6.88172
-6.85588
-6.82703
-6.79502
-6.75972
-6.72095
-6.67858
-6.63243
-6.58234
-6.52814
-6.46974
-6.40709
-6.33984
-6.26724
-6.18925
-6.10626
-6.01821
-5.92484
-5.82601
-5.72182
-5.61224
-5.49721
-5.37663
-5.25041
-5.11851
-4.98088
-4.83747
-4.68821
-4.53309
-4.37207
-4.20502
-4.03162
-3.85192
-3.66637
-3.47507
-3.27798
-3.07521
-2.86685
-2.653
-2.4337
-2.2091
-1.97943
-1.74483
-1.50538
-1.26124
-1.01248
-0.759381
-0.502339
-0.241219
0.0235753
0.291681
0.563093
0.837478
1.11466
1.39438
1.67641
1.96054
2.24656
2.53426
2.82346
3.11401
3.40572
3.6985
3.99219
4.28647
4.58156
4.8773
5.17351
5.47037
5.76759
6.06519
6.36319
6.66152
6.96011
7.25881
7.55752
7.8561
8.15405
8.45196
8.75032
9.04803
9.34463
9.63956
9.93077
10.2174
10.4988
10.7744
11.0433
11.3053
11.5588
11.8061
12.043
12.2787
12.5018
12.7552
12.9956
-5.82832
-5.88753
-5.92575
-5.97426
-6.01753
-6.06117
-6.10121
-6.14191
-6.18056
-6.21891
-6.25596
-6.29218
-6.32694
-6.36027
-6.39181
-6.42149
-6.4491
-6.47453
-6.49763
-6.51821
-6.5361
-6.55096
-6.56298
-6.57072
-6.57232
-6.56784
-6.55701
-6.53886
-6.51251
-6.47862
-6.43923
-6.39735
-6.35689
-6.32143
-6.29362
-6.27518
-6.26612
-6.26491
-6.26898
-6.27512
-6.28099
-6.28487
-6.28318
-6.27452
-6.26822
-6.27067
-6.28203
-6.30312
-6.3342
-6.37482
-6.42321
-6.47702
-6.53425
-6.59312
-6.6518
-6.70881
-6.76312
-6.81405
-6.86126
-6.9046
-6.94411
-6.97994
-7.01229
-7.04141
-7.06756
-7.09095
-7.11182
-7.13033
-7.14665
-7.16088
-7.17312
-7.18343
-7.19183
-7.19834
-7.20292
-7.20555
-7.20618
-7.20473
-7.20112
-7.19527
-7.18706
-7.17638
-7.16312
-7.14715
-7.12833
-7.10652
-7.08159
-7.05337
-7.0217
-6.98643
-6.94737
-6.90433
-6.85707
-6.80538
-6.74903
-6.68762
-6.62075
-6.54935
-6.47408
-6.39441
-6.3102
-6.22135
-6.1279
-6.02959
-5.92612
-5.81728
-5.70291
-5.58285
-5.45698
-5.32523
-5.18753
-5.04379
-4.89394
-4.7379
-4.57554
-4.40679
-4.23204
-4.0515
-3.86504
-3.67274
-3.47465
-3.27087
-3.06145
-2.8465
-2.62621
-2.40072
-2.17001
-1.93429
-1.69372
-1.44835
-1.19878
-0.944777
-0.686651
-0.424914
-0.159425
0.109446
0.381527
0.656555
0.934299
1.21454
1.49706
1.78165
2.0681
2.35622
2.64587
2.93678
3.22899
3.52206
3.81612
4.11123
4.40689
4.70334
5.00046
5.29808
5.5963
5.8951
6.19439
6.49415
6.7943
7.09451
7.39451
7.6942
7.99161
8.2861
8.57919
8.87021
9.15995
9.44757
9.7317
10.0112
10.2855
10.5535
10.8155
11.0692
11.3177
11.5557
11.7944
12.0178
12.2703
12.4908
-5.85051
-5.93694
-5.95683
-6.00826
-6.0349
-6.07744
-6.10718
-6.14292
-6.1741
-6.20888
-6.24166
-6.27551
-6.30762
-6.33902
-6.3684
-6.39614
-6.42163
-6.445
-6.46592
-6.48425
-6.49951
-6.51087
-6.51709
-6.51888
-6.51742
-6.51364
-6.50793
-6.50006
-6.48845
-6.47104
-6.44675
-6.41657
-6.38377
-6.35218
-6.32458
-6.30305
-6.28836
-6.27965
-6.27698
-6.27948
-6.28464
-6.29143
-6.29879
-6.30571
-6.31369
-6.3254
-6.3427
-6.36627
-6.39648
-6.4324
-6.47237
-6.51546
-6.5605
-6.60604
-6.65104
-6.69461
-6.73619
-6.77541
-6.81207
-6.84611
-6.8775
-6.9063
-6.93258
-6.95644
-6.97797
-6.99728
-7.01446
-7.02962
-7.04283
-7.05415
-7.06363
-7.07132
-7.07722
-7.08133
-7.08365
-7.08414
-7.08275
-7.07944
-7.07412
-7.06673
-7.05716
-7.04531
-7.03108
-7.01435
-6.99498
-6.97284
-6.94778
-6.91967
-6.88834
-6.85364
-6.8154
-6.77346
-6.72764
-6.67779
-6.6238
-6.56549
-6.50254
-6.43502
-6.36283
-6.28591
-6.20414
-6.11711
-6.02447
-5.92638
-5.82296
-5.71415
-5.59988
-5.48006
-5.3546
-5.22343
-5.08646
-4.94363
-4.79487
-4.64014
-4.47936
-4.31248
-4.13961
-3.96087
-3.77627
-3.58586
-3.38971
-3.1879
-2.98051
-2.76762
-2.54936
-2.32591
-2.09736
-1.8638
-1.62542
-1.3823
-1.13477
-0.883014
-0.627058
-0.367377
-0.104046
0.162707
0.432644
0.705562
0.981228
1.2594
1.53987
1.82242
2.10686
2.39299
2.68066
2.96968
3.25989
3.55111
3.84327
4.13632
4.4301
4.7246
5.01971
5.31537
5.61158
5.90828
6.20538
6.50288
6.80064
7.09879
7.39714
7.69531
7.99293
8.28958
8.58502
8.87924
9.17096
9.45971
9.74489
10.0256
10.3016
10.5713
10.8355
11.0913
11.3426
11.5826
11.8246
12.0482
12.3003
12.5035
-5.86767
-5.98189
-6.00073
-6.06925
-6.0896
-6.1413
-6.16883
-6.21354
-6.24497
-6.28417
-6.31726
-6.35366
-6.38583
-6.41812
-6.44722
-6.47506
-6.50032
-6.52395
-6.54553
-6.56549
-6.58322
-6.59738
-6.60646
-6.61083
-6.61147
-6.6094
-6.60509
-6.59817
-6.58693
-6.56918
-6.54374
-6.51168
-6.47623
-6.44127
-6.40946
-6.38289
-6.36359
-6.35189
-6.34718
-6.34832
-6.35385
-6.36239
-6.37296
-6.38544
-6.40088
-6.42028
-6.44416
-6.47222
-6.5043
-6.54015
-6.57912
-6.62057
-6.66384
-6.70823
-6.75301
-6.79749
-6.84105
-6.88317
-6.92345
-6.96162
-6.99749
-7.03099
-7.06211
-7.09089
-7.11739
-7.14169
-7.1639
-7.18409
-7.20234
-7.21872
-7.23327
-7.246
-7.25694
-7.26605
-7.27332
-7.2787
-7.28212
-7.2835
-7.28275
-7.27978
-7.27446
-7.26667
-7.25628
-7.24315
-7.22714
-7.20809
-7.18586
-7.16029
-7.13121
-7.09847
-7.06189
-7.02133
-6.97661
-6.92757
-6.87409
-6.81604
-6.75336
-6.6862
-6.61456
-6.53833
-6.45732
-6.37146
-6.28121
-6.18604
-6.0857
-5.97996
-5.86865
-5.75166
-5.62886
-5.50017
-5.36553
-5.22485
-5.07809
-4.92521
-4.76618
-4.60101
-4.4298
-4.25262
-4.06949
-3.88046
-3.6856
-3.48498
-3.27871
-3.06687
-2.8496
-2.62703
-2.39925
-2.16642
-1.9287
-1.68625
-1.43933
-1.18807
-0.932664
-0.67342
-0.410464
-0.144057
0.125606
0.398273
0.673714
0.951686
1.23199
1.5144
1.79871
2.08474
2.37231
2.66124
2.95141
3.24261
3.53477
3.82782
4.12162
4.41611
4.71123
5.00698
5.30332
5.60016
5.8975
6.19529
6.49344
6.79185
7.09028
7.38851
7.68595
7.98237
8.27774
8.5714
8.86345
9.1532
9.43976
9.72197
9.9995
10.2708
10.5366
10.7938
11.0468
11.2874
11.5309
11.7516
12.0003
12.1868
-5.84534
-5.98136
-5.9988
-6.07616
-6.08844
-6.14286
-6.16256
-6.20616
-6.23231
-6.27239
-6.30209
-6.33774
-6.36708
-6.3985
-6.4253
-6.45199
-6.47527
-6.4975
-6.51733
-6.53596
-6.55259
-6.56649
-6.57575
-6.58067
-6.58252
-6.58252
-6.58159
-6.57977
-6.57574
-6.56744
-6.55338
-6.53381
-6.51047
-6.48587
-6.46244
-6.44242
-6.42737
-6.41789
-6.41417
-6.4159
-6.42238
-6.43261
-6.44563
-6.46071
-6.47764
-6.4966
-6.51786
-6.54148
-6.56749
-6.5959
-6.62646
-6.65898
-6.69306
-6.72819
-6.76381
-6.79934
-6.8343
-6.86826
-6.9009
-6.93198
-6.96135
-6.98889
-7.01457
-7.03836
-7.06028
-7.08034
-7.09859
-7.11504
-7.12974
-7.14269
-7.15393
-7.16346
-7.17127
-7.17734
-7.18165
-7.18417
-7.18483
-7.18359
-7.18037
-7.17508
-7.16765
-7.15797
-7.14593
-7.13143
-7.11435
-7.09455
-7.07191
-7.04629
-7.01754
-6.98553
-6.9501
-6.9111
-6.86835
-6.8217
-6.77097
-6.71595
-6.65645
-6.59232
-6.52343
-6.44966
-6.37087
-6.28702
-6.19775
-6.10312
-6.00316
-5.89778
-5.7869
-5.67042
-5.54825
-5.42031
-5.28652
-5.14681
-5.00113
-4.84944
-4.6917
-4.52792
-4.35812
-4.18237
-4.00068
-3.81313
-3.61974
-3.42062
-3.21582
-3.00545
-2.78962
-2.56847
-2.3421
-2.11066
-1.87432
-1.63321
-1.38757
-1.13758
-0.883398
-0.625325
-0.363518
-0.0982153
0.170366
0.441995
0.716432
0.993436
1.2728
1.5543
1.83774
2.12291
2.40966
2.6978
2.98714
3.27752
3.56891
3.86111
4.15408
4.44774
4.74199
5.03682
5.33219
5.62805
5.92435
6.22109
6.51819
6.81567
7.1134
7.41121
7.70885
8.00603
8.30241
8.59752
8.89057
9.18099
9.46817
9.75111
10.0296
10.3019
10.5691
10.8276
11.0822
11.3238
11.5687
11.7887
12.0357
12.2165
-5.80512
-5.96971
-5.9965
-6.08544
-6.10084
-6.15955
-6.18199
-6.22772
-6.25585
-6.29614
-6.32853
-6.36669
-6.39932
-6.43272
-6.4624
-6.49126
-6.51712
-6.54148
-6.56364
-6.58448
-6.60385
-6.6206
-6.63327
-6.6422
-6.64762
-6.65006
-6.6497
-6.6464
-6.63961
-6.62877
-6.61378
-6.59536
-6.57496
-6.55438
-6.53528
-6.5191
-6.50694
-6.49945
-6.49685
-6.49896
-6.50538
-6.51531
-6.52812
-6.54346
-6.56101
-6.58075
-6.60281
-6.62725
-6.65411
-6.68341
-6.71497
-6.74854
-6.78374
-6.82012
-6.85719
-6.89447
-6.93149
-6.96787
-7.00326
-7.03742
-7.07014
-7.10129
-7.1308
-7.1586
-7.1847
-7.20908
-7.23176
-7.25277
-7.27211
-7.2898
-7.30584
-7.32022
-7.33293
-7.34393
-7.35318
-7.36061
-7.36617
-7.36975
-7.37128
-7.37062
-7.36768
-7.36232
-7.35439
-7.34376
-7.33028
-7.31379
-7.29412
-7.27113
-7.24463
-7.21448
-7.18052
-7.14258
-7.10052
-7.05422
-7.00356
-6.94847
-6.88888
-6.82479
-6.75617
-6.68295
-6.60507
-6.52248
-6.43473
-6.34176
-6.24338
-6.13949
-6.02994
-5.91465
-5.79351
-5.66645
-5.53341
-5.39432
-5.24915
-5.09787
-4.94047
-4.77695
-4.60735
-4.43172
-4.25008
-4.06251
-3.86904
-3.66978
-3.46479
-3.25418
-3.03807
-2.81657
-2.58982
-2.35798
-2.12119
-1.87963
-1.6335
-1.38299
-1.12829
-0.869655
-0.607262
-0.341357
-0.0721538
0.200101
0.47518
0.752836
1.03285
1.31501
1.5991
1.88497
2.17239
2.46119
2.75125
3.04234
3.33444
3.6274
3.92108
4.2155
4.51055
4.80624
5.10251
5.39932
5.69666
5.9945
6.29276
6.59139
6.8902
7.18905
7.48756
7.7855
8.0826
8.3784
8.67255
8.96437
9.25313
9.53769
9.8178
10.0916
10.3603
10.62
10.8758
11.1174
11.3626
11.579
11.8237
11.9939
-5.74399
-5.93711
-5.96948
-6.06742
-6.08223
-6.14291
-6.1643
-6.20916
-6.23562
-6.27408
-6.30393
-6.33933
-6.3704
-6.40328
-6.4324
-6.46063
-6.48606
-6.50999
-6.53147
-6.55125
-6.56915
-6.58542
-6.59932
-6.61076
-6.61968
-6.62625
-6.63053
-6.63247
-6.6318
-6.62822
-6.62167
-6.61255
-6.6017
-6.59024
-6.57937
-6.57024
-6.56382
-6.56072
-6.56122
-6.56523
-6.57249
-6.58254
-6.59499
-6.60954
-6.626
-6.64432
-6.66453
-6.68663
-6.7106
-6.73635
-6.76372
-6.79249
-6.82237
-6.85304
-6.88415
-6.91537
-6.94639
-6.97692
-7.00672
-7.0356
-7.06339
-7.08998
-7.11526
-7.13916
-7.16165
-7.18268
-7.20223
-7.22028
-7.23682
-7.25183
-7.26529
-7.27717
-7.28744
-7.29607
-7.303
-7.30819
-7.31157
-7.31307
-7.31261
-7.3101
-7.30545
-7.29855
-7.2893
-7.27757
-7.26326
-7.24622
-7.22634
-7.20348
-7.1775
-7.14826
-7.11562
-7.07942
-7.0395
-6.99571
-6.94786
-6.89577
-6.83926
-6.77811
-6.71213
-6.64113
-6.56493
-6.48329
-6.39686
-6.30517
-6.2082
-6.10576
-5.99777
-5.88409
-5.76464
-5.63932
-5.50807
-5.3708
-5.22749
-5.07808
-4.92256
-4.76093
-4.59321
-4.41941
-4.23959
-4.05378
-3.86204
-3.66445
-3.46109
-3.25204
-3.03744
-2.81739
-2.59203
-2.3615
-2.12596
-1.8856
-1.64059
-1.39115
-1.13745
-0.879739
-0.618216
-0.353116
-0.0846628
0.1869
0.461331
0.738379
1.01782
1.29945
1.58306
1.86843
2.15541
2.44375
2.73336
3.02402
3.31563
3.60811
3.90131
4.1952
4.4897
4.78481
5.08046
5.37663
5.67333
5.97053
6.2682
6.56634
6.86484
7.16359
7.46235
7.76083
8.05869
8.3554
8.65041
8.94302
9.23266
9.5182
9.79949
10.0746
10.3447
10.6057
10.8631
11.1056
11.352
11.5681
11.8123
11.9795
-5.68739
-5.90312
-5.94453
-6.05245
-6.06986
-6.13476
-6.15818
-6.20505
-6.23287
-6.27199
-6.30261
-6.33853
-6.37027
-6.4037
-6.43465
-6.46547
-6.49369
-6.52042
-6.54507
-6.56786
-6.58823
-6.60623
-6.62151
-6.63409
-6.6439
-6.65104
-6.65558
-6.6576
-6.65718
-6.65447
-6.64976
-6.64355
-6.63655
-6.62959
-6.62353
-6.61915
-6.61707
-6.61767
-6.62109
-6.6273
-6.63616
-6.64746
-6.661
-6.67664
-6.69428
-6.71389
-6.73545
-6.7589
-6.78419
-6.8112
-6.83975
-6.86965
-6.90065
-6.93248
-6.96486
-6.99752
-7.03016
-7.06255
-7.09446
-7.12568
-7.15606
-7.18545
-7.21376
-7.24088
-7.26677
-7.29138
-7.31466
-7.33659
-7.35714
-7.37628
-7.39398
-7.4102
-7.42489
-7.43801
-7.44949
-7.45926
-7.46723
-7.47331
-7.47741
-7.47939
-7.47914
-7.47653
-7.47142
-7.46365
-7.45308
-7.43955
-7.42289
-7.40294
-7.37954
-7.35252
-7.32173
-7.287
-7.24818
-7.20515
-7.15779
-7.10599
-7.04971
-6.98889
-6.92352
-6.85353
-6.77897
-6.6994
-6.61415
-6.52349
-6.42723
-6.32533
-6.21767
-6.1042
-5.98482
-5.85946
-5.72806
-5.59057
-5.44696
-5.29719
-5.14125
-4.97916
-4.81092
-4.63657
-4.45615
-4.26969
-4.07728
-3.87897
-3.67486
-3.46504
-3.24962
-3.02874
-2.80252
-2.57111
-2.33468
-2.0934
-1.84746
-1.59706
-1.3424
-1.0837
-0.821173
-0.555056
-0.285574
-0.012973
0.262506
0.540613
0.821124
1.1038
1.38849
1.67494
1.96301
2.25247
2.54316
2.83494
3.12768
3.42127
3.7156
4.01062
4.30626
4.60254
4.89938
5.19678
5.49473
5.79323
6.09224
6.39171
6.69153
6.99156
7.29151
7.59113
7.89011
8.188
8.48435
8.77842
9.06959
9.35666
9.63947
9.91595
10.1874
10.4494
10.7077
10.9501
11.1965
11.4098
11.6529
11.8123
-5.63454
-5.86413
-5.91256
-6.0264
-6.04481
-6.11129
-6.13491
-6.18162
-6.20887
-6.24678
-6.27596
-6.30989
-6.33975
-6.3713
-6.40031
-6.42908
-6.45594
-6.48187
-6.50569
-6.52803
-6.54866
-6.56758
-6.58457
-6.59962
-6.61262
-6.62357
-6.63249
-6.6394
-6.6444
-6.64763
-6.64936
-6.64999
-6.65003
-6.65007
-6.65069
-6.65243
-6.65567
-6.66068
-6.66762
-6.67651
-6.68735
-6.70007
-6.71459
-6.73084
-6.74877
-6.7683
-6.78939
-6.81197
-6.83592
-6.86115
-6.88749
-6.91479
-6.94286
-6.97151
-7.00053
-7.02973
-7.05891
-7.08787
-7.11645
-7.1445
-7.17187
-7.19845
-7.22413
-7.24884
-7.27248
-7.295
-7.31635
-7.33647
-7.35532
-7.37284
-7.38899
-7.40371
-7.41696
-7.42866
-7.43875
-7.44715
-7.4538
-7.45859
-7.46144
-7.46224
-7.46088
-7.45727
-7.45126
-7.44275
-7.4316
-7.4177
-7.4009
-7.38107
-7.35808
-7.33179
-7.30205
-7.26873
-7.23168
-7.19075
-7.14578
-7.09659
-7.043
-6.98474
-6.92156
-6.8532
-6.7794
-6.7009
-6.61739
-6.52864
-6.43451
-6.33482
-6.22947
-6.11832
-6.00129
-5.87827
-5.7492
-5.61402
-5.47266
-5.32511
-5.17135
-5.01136
-4.84517
-4.67278
-4.49425
-4.30961
-4.11893
-3.92227
-3.71972
-3.51137
-3.29735
-3.07776
-2.85275
-2.62246
-2.38707
-2.14675
-1.90168
-1.65206
-1.39811
-1.14004
-0.878072
-0.612436
-0.34337
-0.0711209
0.20406
0.481908
0.762191
1.0447
1.32925
1.61562
1.90358
2.19296
2.48358
2.77529
3.06795
3.36145
3.65567
3.95056
4.24606
4.54215
4.83879
5.13598
5.43373
5.73204
6.03091
6.33033
6.63023
6.93048
7.23086
7.53109
7.83084
8.12959
8.42686
8.72188
9.01411
9.30234
9.58641
9.8642
10.1371
10.4003
10.66
10.9033
11.1507
11.3639
11.6073
11.764
-5.6019
-5.83682
-5.89242
-6.01204
-6.03159
-6.10109
-6.12514
-6.17351
-6.201
-6.23969
-6.26895
-6.30318
-6.33309
-6.36491
-6.39439
-6.42402
-6.45171
-6.47838
-6.5033
-6.5268
-6.54817
-6.56754
-6.58499
-6.60045
-6.61401
-6.62573
-6.63572
-6.64412
-6.65111
-6.65692
-6.66183
-6.66619
-6.67039
-6.6748
-6.6798
-6.68571
-6.69279
-6.70123
-6.71117
-6.72267
-6.73578
-6.7505
-6.76683
-6.78473
-6.80419
-6.82515
-6.84757
-6.87139
-6.89651
-6.92284
-6.95026
-6.97862
-7.00777
-7.03755
-7.06778
-7.0983
-7.12892
-7.15948
-7.18981
-7.21977
-7.24923
-7.27807
-7.30618
-7.33347
-7.35987
-7.3853
-7.40971
-7.43304
-7.45523
-7.47623
-7.49598
-7.51443
-7.53149
-7.54711
-7.5612
-7.57367
-7.58444
-7.5934
-7.60044
-7.60543
-7.60826
-7.60877
-7.60682
-7.60228
-7.59497
-7.58475
-7.57144
-7.55489
-7.53493
-7.51138
-7.48408
-7.45286
-7.41757
-7.37805
-7.33418
-7.28583
-7.23297
-7.17549
-7.11351
-7.04692
-6.97513
-6.89777
-6.81493
-6.7265
-6.63241
-6.53258
-6.42693
-6.31537
-6.19783
-6.07423
-5.94452
-5.80864
-5.66656
-5.51824
-5.36369
-5.20289
-5.03586
-4.86262
-4.6832
-4.49767
-4.30606
-4.10846
-3.90496
-3.69564
-3.48062
-3.26002
-3.03398
-2.80266
-2.5662
-2.3248
-2.07864
-1.82791
-1.57283
-1.31362
-1.05049
-0.783681
-0.51343
-0.239985
0.0363963
0.315454
0.596953
0.880709
1.16651
1.45413
1.74336
2.03401
2.32589
2.61886
2.91277
3.20752
3.50297
3.7991
4.09583
4.39316
4.69104
4.98948
5.28848
5.58806
5.88821
6.1889
6.49004
6.7915
7.09306
7.39444
7.69535
7.9953
8.29383
8.59015
8.8837
9.17322
9.45856
9.7375
10.0114
10.2754
10.5357
10.7789
11.0261
11.2373
11.4798
11.6312
-5.57475
-5.81702
-5.8723
-5.99435
-6.0138
-6.0842
-6.10802
-6.15646
-6.18333
-6.22142
-6.24954
-6.28256
-6.31087
-6.34107
-6.3688
-6.3969
-6.42342
-6.44947
-6.47398
-6.49765
-6.51992
-6.54069
-6.55983
-6.57762
-6.594
-6.60897
-6.62259
-6.63498
-6.64625
-6.65659
-6.66619
-6.67532
-6.68423
-6.6932
-6.7025
-6.71235
-6.72298
-6.73455
-6.74719
-6.76101
-6.77608
-6.79243
-6.81008
-6.82903
-6.84925
-6.87071
-6.89336
-6.91714
-6.94197
-6.96776
-6.99441
-7.02181
-7.04982
-7.07832
-7.10718
-7.13625
-7.1654
-7.19449
-7.2234
-7.25201
-7.28019
-7.30785
-7.33489
-7.36121
-7.38675
-7.41142
-7.43515
-7.45787
-7.47951
-7.50002
-7.5193
-7.5373
-7.55392
-7.5691
-7.58274
-7.59475
-7.60504
-7.61351
-7.62004
-7.62453
-7.62684
-7.62684
-7.62442
-7.61944
-7.61176
-7.60124
-7.58776
-7.57117
-7.55133
-7.5281
-7.50135
-7.47094
-7.43673
-7.3986
-7.35637
-7.30992
-7.25907
-7.20344
-7.14268
-7.07701
-7.00659
-6.93112
-6.85044
-6.76435
-6.67273
-6.57541
-6.47229
-6.36324
-6.24817
-6.12698
-5.99962
-5.86602
-5.72613
-5.57992
-5.42737
-5.26849
-5.10328
-4.93176
-4.75396
-4.56994
-4.37975
-4.18347
-3.98119
-3.77299
-3.55899
-3.33931
-3.11411
-2.88352
-2.64771
-2.40687
-2.16119
-1.91086
-1.6561
-1.39712
-1.13415
-0.867437
-0.597218
-0.323742
-0.0472946
0.231882
0.513566
0.797543
1.08361
1.37151
1.66103
1.95197
2.24416
2.53743
2.83162
3.12665
3.42236
3.71874
4.01569
4.31322
4.6113
4.90993
5.20913
5.50892
5.80931
6.11031
6.41184
6.71378
7.01594
7.31802
7.61972
7.92053
8.21998
8.51728
8.81187
9.10248
9.38895
9.66905
9.94413
10.2092
10.4705
10.7143
10.9621
11.1732
11.4157
11.5651
-5.56734
-5.81745
-5.86816
-5.99297
-6.01078
-6.0834
-6.10659
-6.15655
-6.18328
-6.22236
-6.25052
-6.28409
-6.31241
-6.34286
-6.37058
-6.39877
-6.42518
-6.45119
-6.47575
-6.49943
-6.52158
-6.54271
-6.56257
-6.581
-6.59804
-6.61403
-6.62901
-6.64303
-6.6562
-6.6687
-6.68068
-6.69236
-6.70392
-6.71559
-6.72755
-6.74
-6.7531
-6.76699
-6.78181
-6.79765
-6.81457
-6.83264
-6.85189
-6.87231
-6.89391
-6.91667
-6.94055
-6.96551
-6.99148
-7.01839
-7.04616
-7.07468
-7.10385
-7.13356
-7.16368
-7.1941
-7.2247
-7.25534
-7.28591
-7.31629
-7.34638
-7.37607
-7.40526
-7.43388
-7.46183
-7.48903
-7.51542
-7.54093
-7.56546
-7.58897
-7.61136
-7.63256
-7.65248
-7.67103
-7.68814
-7.70369
-7.71759
-7.72972
-7.73997
-7.7482
-7.75428
-7.75807
-7.75942
-7.75818
-7.7542
-7.74732
-7.73739
-7.72422
-7.70766
-7.68753
-7.66366
-7.63586
-7.60399
-7.56788
-7.52736
-7.48229
-7.43274
-7.37854
-7.31933
-7.25486
-7.18501
-7.10973
-7.02892
-6.94248
-6.85033
-6.75236
-6.64848
-6.53861
-6.42267
-6.30058
-6.17228
-6.03773
-5.89687
-5.74969
-5.59616
-5.43629
-5.27009
-5.09757
-4.91876
-4.73373
-4.54251
-4.3452
-4.14186
-3.93261
-3.71755
-3.49679
-3.27049
-3.03879
-2.80186
-2.55989
-2.31306
-2.06156
-1.80561
-1.54543
-1.28126
-1.01332
-0.741866
-0.46717
-0.189489
0.0909585
0.373943
0.659228
0.946589
1.23579
1.52662
1.81888
2.11236
2.40693
2.70241
2.9987
3.29568
3.5933
3.89148
4.19023
4.48951
4.78933
5.0897
5.39065
5.69219
5.99432
6.29695
6.59996
6.90315
7.20626
7.50897
7.8108
8.11129
8.40961
8.70521
8.9968
9.28418
9.56509
9.84082
10.1064
10.3678
10.6115
10.8586
11.0682
11.3097
11.4555
-5.57019
-5.82033
-5.86507
-5.98934
-6.00469
-6.07759
-6.09922
-6.14938
-6.17503
-6.21408
-6.24139
-6.27478
-6.30249
-6.33273
-6.36004
-6.38816
-6.41454
-6.44082
-6.46574
-6.49004
-6.51317
-6.53535
-6.55632
-6.57651
-6.59583
-6.61402
-6.63117
-6.64763
-6.66325
-6.67827
-6.6928
-6.70706
-6.72117
-6.73532
-6.74967
-6.76438
-6.77961
-6.79548
-6.81212
-6.82962
-6.84806
-6.86749
-6.88794
-6.90943
-6.93196
-6.95552
-6.98007
-7.00559
-7.03201
-7.05927
-7.08728
-7.11598
-7.14526
-7.17503
-7.20519
-7.23562
-7.26622
-7.29689
-7.32751
-7.35798
-7.38821
-7.41809
-7.44753
-7.47644
-7.50473
-7.53232
-7.55913
-7.58508
-7.61008
-7.63404
-7.65689
-7.67852
-7.69885
-7.71779
-7.73522
-7.75104
-7.76516
-7.77744
-7.78777
-7.79602
-7.80206
-7.80573
-7.80691
-7.80545
-7.80122
-7.79406
-7.78384
-7.7704
-7.7536
-7.7333
-7.70934
-7.68161
-7.64993
-7.61427
-7.57434
-7.53013
-7.4814
-7.4282
-7.37036
-7.30763
-7.2398
-7.1667
-7.08817
-7.00406
-6.91423
-6.81856
-6.71694
-6.60925
-6.4954
-6.37531
-6.24892
-6.11616
-5.977
-5.8314
-5.67935
-5.52085
-5.3559
-5.18454
-5.00678
-4.8227
-4.63233
-4.43577
-4.23309
-4.0244
-3.80981
-3.58944
-3.36344
-3.13196
-2.89519
-2.65329
-2.40647
-2.15491
-1.89884
-1.63848
-1.37405
-1.10582
-0.834055
-0.558998
-0.280865
8.97987e-05
0.2836
0.569434
0.857367
1.14716
1.43859
1.73144
2.02554
2.32071
2.6168
2.91368
3.21124
3.50942
3.80816
4.10745
4.40725
4.70759
5.00847
5.30994
5.612
5.91468
6.2179
6.52154
6.8254
7.12922
7.43268
7.73529
8.03658
8.33572
8.63214
8.92457
9.21275
9.49447
9.7709
10.0371
10.299
10.543
10.79
10.9994
11.2402
11.3844
-5.58774
-5.83358
-5.87275
-5.99613
-6.00956
-6.08325
-6.1038
-6.15493
-6.1801
-6.22003
-6.24723
-6.28131
-6.30906
-6.33979
-6.36723
-6.39571
-6.42223
-6.44878
-6.47399
-6.49874
-6.52227
-6.54501
-6.56666
-6.58738
-6.60707
-6.62615
-6.64465
-6.66225
-6.67902
-6.69541
-6.71132
-6.72703
-6.74268
-6.75837
-6.77428
-6.79055
-6.80732
-6.8247
-6.84281
-6.86174
-6.88156
-6.90233
-6.92409
-6.94685
-6.97064
-6.99543
-7.02123
-7.04798
-7.07565
-7.10418
-7.1335
-7.16354
-7.19421
-7.22543
-7.25709
-7.28911
-7.32137
-7.35377
-7.38621
-7.4186
-7.45082
-7.48278
-7.51438
-7.54554
-7.57616
-7.60615
-7.63544
-7.66393
-7.69154
-7.71818
-7.74376
-7.76819
-7.79137
-7.81321
-7.83359
-7.85242
-7.86959
-7.88497
-7.89844
-7.90987
-7.91912
-7.92604
-7.9305
-7.93233
-7.9314
-7.92754
-7.9206
-7.9104
-7.89679
-7.87958
-7.85862
-7.83368
-7.8047
-7.77142
-7.73372
-7.69132
-7.64393
-7.5914
-7.53367
-7.4707
-7.40235
-7.32853
-7.24913
-7.16404
-7.07315
-6.97637
-6.87358
-6.76471
-6.64966
-6.52837
-6.40077
-6.26681
-6.12644
-5.97964
-5.82639
-5.6667
-5.50057
-5.32802
-5.14908
-4.96381
-4.77226
-4.57451
-4.37065
-4.16076
-3.94498
-3.72341
-3.49621
-3.26353
-3.02554
-2.78242
-2.53438
-2.28159
-2.02426
-1.76264
-1.49699
-1.22754
-0.954547
-0.678197
-0.39876
-0.116519
0.168292
0.455433
0.744671
1.03577
1.3285
1.62267
1.91806
2.21453
2.51189
2.81004
3.10885
3.40826
3.70821
4.00869
4.30965
4.61112
4.9131
5.21563
5.51873
5.8224
6.12658
6.43113
6.73586
7.0405
7.34474
7.64811
7.95011
8.24993
8.54697
8.83995
9.12858
9.41067
9.68726
9.95353
10.2151
10.4587
10.7047
10.9128
11.1519
11.2939
-5.61253
-5.8477
-5.88071
-6.00072
-6.01159
-6.0846
-6.10328
-6.15447
-6.17839
-6.21858
-6.24508
-6.2795
-6.307
-6.33819
-6.36577
-6.39488
-6.42193
-6.44934
-6.47534
-6.50105
-6.52563
-6.54963
-6.57259
-6.59477
-6.61604
-6.63644
-6.6563
-6.67564
-6.69404
-6.71177
-6.72925
-6.74663
-6.76387
-6.7811
-6.79854
-6.81626
-6.83445
-6.8532
-6.87265
-6.89287
-6.91394
-6.93592
-6.95886
-6.98278
-7.0077
-7.0336
-7.06048
-7.08831
-7.11705
-7.14664
-7.17702
-7.20812
-7.23985
-7.27214
-7.3049
-7.33801
-7.3714
-7.40494
-7.43855
-7.47212
-7.50554
-7.53872
-7.57155
-7.60395
-7.6358
-7.66703
-7.69752
-7.7272
-7.75597
-7.78372
-7.81036
-7.83579
-7.85991
-7.8826
-7.90376
-7.92327
-7.94101
-7.95686
-7.97069
-7.98236
-7.99173
-7.99865
-8.00298
-8.00457
-8.00327
-7.99892
-7.99138
-7.98048
-7.96608
-7.94802
-7.92613
-7.9003
-7.87036
-7.83626
-7.79807
-7.75561
-7.70895
-7.65758
-7.60137
-7.54006
-7.47349
-7.40148
-7.32387
-7.24053
-7.15132
-7.05613
-6.95484
-6.84737
-6.73362
-6.61351
-6.48698
-6.35399
-6.21448
-6.06844
-5.91586
-5.75673
-5.59106
-5.41889
-5.24025
-5.05518
-4.86377
-4.66607
-4.4622
-4.25223
-4.0363
-3.81453
-3.58708
-3.35409
-3.11575
-2.87224
-2.62376
-2.37045
-2.11263
-1.85048
-1.58429
-1.31422
-1.04051
-0.76344
-0.48328
-0.200278
0.0853136
0.373252
0.6633
0.95522
1.24878
1.54378
1.84002
2.13731
2.43551
2.73447
3.03409
3.33431
3.63505
3.93629
4.23801
4.5402
4.84289
5.14611
5.4499
5.75424
6.05907
6.36427
6.66962
6.97487
7.27971
7.58365
7.88618
8.1865
8.48398
8.77737
9.06633
9.3487
9.62542
9.8918
10.1531
10.3965
10.6417
10.8494
11.0868
11.2278
-5.6439
-5.86392
-5.89268
-6.00855
-6.0181
-6.09071
-6.10839
-6.1603
-6.18371
-6.22492
-6.25137
-6.28683
-6.31462
-6.34678
-6.37484
-6.40483
-6.43253
-6.46085
-6.48761
-6.51433
-6.53992
-6.56501
-6.58904
-6.61237
-6.63476
-6.65637
-6.67723
-6.69726
-6.71693
-6.73636
-6.75511
-6.77352
-6.7921
-6.81049
-6.82906
-6.84803
-6.86748
-6.88755
-6.9083
-6.92985
-6.95226
-6.97562
-6.99995
-7.02531
-7.05169
-7.07912
-7.10756
-7.137
-7.1674
-7.1987
-7.23085
-7.26376
-7.29737
-7.33158
-7.36631
-7.40145
-7.4369
-7.47256
-7.50832
-7.54408
-7.57973
-7.61516
-7.65027
-7.68496
-7.71913
-7.75268
-7.78551
-7.81752
-7.84862
-7.87871
-7.90769
-7.93546
-7.96191
-7.98693
-8.01042
-8.03227
-8.05235
-8.07056
-8.08675
-8.10079
-8.11256
-8.12191
-8.12868
-8.13275
-8.13395
-8.13214
-8.12716
-8.11886
-8.10706
-8.0916
-8.07232
-8.04901
-8.02134
-7.9892
-7.95224
-7.9104
-7.86355
-7.81154
-7.75427
-7.69167
-7.62361