/*--------------------------------*- C++ -*----------------------------------*\
| =========                 |                                                 |
| \\      /  F ield         | OpenFOAM: The Open Source CFD Toolbox           |
|  \\    /   O peration     | Version:  v1906                                 |
|   \\  /    A nd           | Web:      www.OpenFOAM.com                      |
|    \\/     M anipulation  |                                                 |
\*---------------------------------------------------------------------------*/
FoamFile
{
    version     2.0;
    format      ascii;
    class       surfaceScalarField;
    location    "1276";
    object      phi;
}
// * * * * * * * * * * * * * * * * * * * * * * * * * * * * * * * * * * * * * //

dimensions      [0 3 -1 0 0 0 0];
oriented        oriented;


internalField   nonuniform List<scalar> 
24170
(
3.08282e-06
1.05583e-07
2.987e-06
9.58209e-08
2.92069e-06
6.63077e-08
2.86468e-06
5.60123e-08
2.81585e-06
4.8834e-08
2.773e-06
4.28525e-08
2.73491e-06
3.80894e-08
2.70069e-06
3.4212e-08
2.66986e-06
3.08339e-08
2.64204e-06
2.78162e-08
2.6168e-06
2.5245e-08
2.59372e-06
2.30773e-08
2.57271e-06
2.10125e-08
2.55378e-06
1.8928e-08
2.53725e-06
1.65321e-08
2.52348e-06
1.37694e-08
2.51336e-06
1.012e-08
-1.05392e-09
2.51441e-06
3.44276e-06
8.00743e-08
3.44404e-06
9.4536e-08
3.43233e-06
7.80218e-08
3.41873e-06
6.96145e-08
3.404e-06
6.35632e-08
3.3892e-06
5.7647e-08
3.37484e-06
5.24544e-08
3.36101e-06
4.80393e-08
3.34775e-06
4.40974e-08
3.33508e-06
4.04818e-08
3.32307e-06
3.72517e-08
3.31177e-06
3.43805e-08
3.30109e-06
3.16913e-08
3.29105e-06
2.89724e-08
3.2815e-06
2.60815e-08
3.27254e-06
2.27328e-08
3.26474e-06
1.792e-08
8.18145e-09
3.2555e-06
3.67627e-06
6.63195e-08
3.67857e-06
9.22416e-08
3.67279e-06
8.37986e-08
3.66527e-06
7.71315e-08
3.65769e-06
7.11455e-08
3.65053e-06
6.48081e-08
3.64384e-06
5.91393e-08
3.63757e-06
5.43153e-08
3.63164e-06
5.00282e-08
3.62601e-06
4.61107e-08
3.62069e-06
4.25653e-08
3.61573e-06
3.93454e-08
3.61112e-06
3.63004e-08
3.60688e-06
3.32138e-08
3.60298e-06
2.99814e-08
3.59959e-06
2.6125e-08
3.59553e-06
2.19788e-08
1.56311e-08
3.58808e-06
3.93546e-06
5.62431e-08
3.94302e-06
8.46854e-08
3.94511e-06
8.17097e-08
3.94513e-06
7.71136e-08
3.94395e-06
7.23233e-08
3.94194e-06
6.68184e-08
3.93946e-06
6.16224e-08
3.93675e-06
5.70244e-08
3.93395e-06
5.28274e-08
3.93114e-06
4.89194e-08
3.9284e-06
4.53025e-08
3.92581e-06
4.19365e-08
3.92342e-06
3.86965e-08
3.92124e-06
3.53909e-08
3.9193e-06
3.19237e-08
3.91753e-06
2.78953e-08
3.91621e-06
2.32935e-08
1.60084e-08
3.91583e-06
4.2181e-06
4.52681e-08
4.22758e-06
7.52037e-08
4.23152e-06
7.77737e-08
4.23288e-06
7.57516e-08
4.23307e-06
7.2139e-08
4.23259e-06
6.72944e-08
4.2318e-06
6.24147e-08
4.23088e-06
5.79374e-08
4.22993e-06
5.37841e-08
4.22896e-06
4.98881e-08
4.22802e-06
4.62453e-08
4.22715e-06
4.2808e-08
4.22637e-06
3.94729e-08
4.22569e-06
3.60674e-08
4.22506e-06
3.25527e-08
4.22441e-06
2.85506e-08
4.22301e-06
2.46909e-08
2.00419e-08
4.21898e-06
4.51709e-06
3.72606e-08
4.52582e-06
6.64775e-08
4.53155e-06
7.20449e-08
4.53559e-06
7.17061e-08
4.53863e-06
6.90997e-08
4.54085e-06
6.50748e-08
4.54248e-06
6.07903e-08
4.54371e-06
5.67041e-08
4.54468e-06
5.28172e-08
4.54546e-06
4.91058e-08
4.54613e-06
4.55723e-08
4.54676e-06
4.21791e-08
4.54739e-06
3.88462e-08
4.54801e-06
3.54426e-08
4.54865e-06
3.19134e-08
4.54917e-06
2.8034e-08
4.55002e-06
2.38372e-08
1.87567e-08
4.55131e-06
4.83986e-06
3.01211e-08
4.84839e-06
5.79468e-08
4.8544e-06
6.60328e-08
4.85856e-06
6.75469e-08
4.86157e-06
6.60866e-08
4.86377e-06
6.2875e-08
4.86546e-06
5.91066e-08
4.86685e-06
5.53129e-08
4.86807e-06
5.16014e-08
4.86917e-06
4.80037e-08
4.8702e-06
4.45393e-08
4.8712e-06
4.11813e-08
4.87217e-06
3.78743e-08
4.8731e-06
3.45153e-08
4.87391e-06
3.11031e-08
4.87446e-06
2.74831e-08
4.87421e-06
2.40898e-08
2.05657e-08
4.8724e-06
5.18533e-06
2.43681e-08
5.19297e-06
5.03077e-08
5.19934e-06
5.96627e-08
5.20461e-06
6.22832e-08
5.20908e-06
6.16091e-08
5.21289e-06
5.90739e-08
5.21616e-06
5.58287e-08
5.21907e-06
5.24088e-08
5.22169e-06
4.89751e-08
5.22411e-06
4.55904e-08
5.22636e-06
4.22842e-08
5.2285e-06
3.90421e-08
5.23055e-06
3.58259e-08
5.2325e-06
3.2568e-08
5.23435e-06
2.92454e-08
5.23606e-06
2.57799e-08
5.23799e-06
2.21567e-08
1.83975e-08
5.24016e-06
5.55573e-06
1.99787e-08
5.56255e-06
4.34834e-08
5.5688e-06
5.34183e-08
5.57403e-06
5.70496e-08
5.57839e-06
5.72443e-08
5.58202e-06
5.54431e-08
5.58511e-06
5.2742e-08
5.58783e-06
4.96934e-08
5.59028e-06
4.65201e-08
5.59254e-06
4.33275e-08
5.59466e-06
4.01676e-08
5.59666e-06
3.70449e-08
5.59854e-06
3.39474e-08
5.60027e-06
3.08329e-08
5.60179e-06
2.77305e-08
5.60297e-06
2.45997e-08
5.60341e-06
2.17166e-08
1.88643e-08
5.60294e-06
5.95382e-06
1.59373e-08
5.9602e-06
3.70998e-08
5.96645e-06
4.71687e-08
5.97216e-06
5.13355e-08
5.97734e-06
5.20642e-08
5.982e-06
5.07864e-08
5.98622e-06
4.85261e-08
5.99009e-06
4.58226e-08
5.99368e-06
4.29258e-08
5.99705e-06
3.99611e-08
6.00023e-06
3.69909e-08
6.00324e-06
3.40328e-08
6.0061e-06
3.10849e-08
6.00881e-06
2.81277e-08
6.01137e-06
2.51617e-08
6.0138e-06
2.21763e-08
6.01635e-06
1.91606e-08
1.63089e-08
6.01891e-06
6.37948e-06
1.32676e-08
6.3848e-06
3.17826e-08
6.39064e-06
4.13325e-08
6.39619e-06
4.57836e-08
6.40124e-06
4.70086e-08
6.40576e-06
4.62738e-08
6.40979e-06
4.44882e-08
6.41345e-06
4.21645e-08
6.4168e-06
3.95724e-08
6.41991e-06
3.68583e-08
6.4228e-06
3.41024e-08
6.42549e-06
3.1339e-08
6.42799e-06
2.8588e-08
6.43027e-06
2.58481e-08
6.43227e-06
2.31599e-08
6.43392e-06
2.05222e-08
6.43499e-06
1.80944e-08
1.5781e-08
6.43552e-06
5.74324e-06
1.08616e-08
5.7477e-06
2.73269e-08
5.75264e-06
3.63909e-08
5.75751e-06
4.09069e-08
5.76216e-06
4.2359e-08
5.7665e-06
4.19335e-08
5.77054e-06
4.04488e-08
5.77432e-06
3.83907e-08
5.77786e-06
3.60313e-08
5.78119e-06
3.35236e-08
5.78434e-06
3.09537e-08
5.78732e-06
2.83643e-08
5.79013e-06
2.57791e-08
5.79276e-06
2.3209e-08
5.79525e-06
2.06699e-08
5.79759e-06
1.81831e-08
5.79994e-06
1.57437e-08
1.35493e-08
5.80218e-06
6.99986e-06
9.15584e-09
7.00401e-06
2.31806e-08
7.00916e-06
3.12395e-08
7.01452e-06
3.55488e-08
7.01972e-06
3.71578e-08
7.0246e-06
3.70519e-08
7.02913e-06
3.59176e-08
7.03333e-06
3.41888e-08
7.03724e-06
3.21276e-08
7.04087e-06
2.98895e-08
7.04426e-06
2.75678e-08
7.04741e-06
2.52155e-08
7.05032e-06
2.28688e-08
7.05298e-06
2.05493e-08
7.05535e-06
1.8291e-08
7.05742e-06
1.61133e-08
7.0591e-06
1.40707e-08
1.20661e-08
7.06058e-06
8.53319e-06
6.81262e-09
8.53809e-06
1.82825e-08
8.54402e-06
2.53095e-08
8.5503e-06
2.92658e-08
8.55658e-06
3.08815e-08
8.56266e-06
3.09666e-08
8.56848e-06
3.00972e-08
8.57402e-06
2.86534e-08
8.57927e-06
2.68769e-08
8.58424e-06
2.49166e-08
8.58895e-06
2.2864e-08
8.59339e-06
2.07745e-08
8.59757e-06
1.86837e-08
8.6015e-06
1.66169e-08
8.6052e-06
1.45963e-08
8.60866e-06
1.26511e-08
8.61194e-06
1.07959e-08
9.19398e-09
8.61481e-06
1.04007e-05
5.35383e-09
1.04049e-05
1.40301e-08
1.04108e-05
1.94594e-08
1.04174e-05
2.26274e-08
1.04243e-05
2.40181e-08
1.04311e-05
2.4191e-08
1.04376e-05
2.35677e-08
1.04438e-05
2.24401e-08
1.04497e-05
2.10058e-08
1.04552e-05
1.93935e-08
1.04604e-05
1.7687e-08
1.04652e-05
1.59413e-08
1.04697e-05
1.4193e-08
1.04738e-05
1.247e-08
1.04777e-05
1.07876e-08
1.04811e-05
9.16694e-09
1.04843e-05
7.5982e-09
6.06769e-09
1.04875e-05
1.26789e-05
3.24298e-09
1.26839e-05
8.98326e-09
1.26906e-05
1.27719e-08
1.26982e-05
1.5054e-08
1.27061e-05
1.60904e-08
1.27141e-05
1.62362e-08
1.27219e-05
1.57824e-08
1.27294e-05
1.49376e-08
1.27365e-05
1.38501e-08
1.27433e-05
1.26199e-08
1.27497e-05
1.13143e-08
1.27556e-05
9.97886e-09
1.27612e-05
8.64725e-09
1.27663e-05
7.34307e-09
1.2771e-05
6.09391e-09
1.27753e-05
4.91762e-09
1.2779e-05
3.83899e-09
2.896e-09
1.27822e-05
1.5455e-05
1.46033e-09
1.54599e-05
4.0228e-09
1.54671e-05
5.63496e-09
1.54756e-05
6.5202e-09
1.54849e-05
6.79558e-09
1.54945e-05
6.62388e-09
1.55041e-05
6.14435e-09
1.55136e-05
5.45807e-09
1.55228e-05
4.64016e-09
1.55317e-05
3.74481e-09
1.55402e-05
2.80911e-09
1.55483e-05
1.86191e-09
1.55561e-05
9.19354e-10
1.55634e-05
2.05288e-12
1.55704e-05
-8.91827e-10
1.5577e-05
-1.73338e-09
1.55834e-05
-2.55427e-09
-3.23464e-09
1.55896e-05
1.88392e-05
-6.88221e-11
1.88439e-05
-7.5938e-10
1.8851e-05
-1.40706e-09
1.88594e-05
-1.90055e-09
1.88685e-05
-2.2877e-09
1.88777e-05
-2.60542e-09
1.88868e-05
-2.88171e-09
1.88953e-05
-3.13657e-09
1.89034e-05
-3.38043e-09
1.89107e-05
-3.6185e-09
1.89174e-05
-3.85229e-09
1.89233e-05
-4.08281e-09
1.89286e-05
-4.30887e-09
1.89331e-05
-4.53256e-09
1.8937e-05
-4.75435e-09
1.89402e-05
-4.97781e-09
1.89429e-05
-5.22182e-09
-5.55087e-09
1.89452e-05
2.29673e-05
-4.00255e-09
2.29763e-05
-9.76906e-09
2.29886e-05
-1.37039e-08
2.30031e-05
-1.63847e-08
2.30189e-05
-1.8172e-08
2.30357e-05
-1.93157e-08
2.30528e-05
-2.00166e-08
2.30701e-05
-2.04217e-08
2.30873e-05
-2.06295e-08
2.31044e-05
-2.07028e-08
2.31212e-05
-2.06797e-08
2.31377e-05
-2.05783e-08
2.31538e-05
-2.04032e-08
2.31694e-05
-2.01441e-08
2.31845e-05
-1.97867e-08
2.31988e-05
-1.92954e-08
2.32122e-05
-1.86649e-08
-1.75375e-08
2.32242e-05
1.68112e-05
-4.54e-09
1.68148e-05
-1.32775e-08
1.68203e-05
-1.92469e-08
1.68268e-05
-2.29388e-08
1.68336e-05
-2.49593e-08
1.68401e-05
-2.58298e-08
1.68461e-05
-2.59672e-08
1.68513e-05
-2.56585e-08
1.68558e-05
-2.50847e-08
1.68594e-05
-2.43564e-08
1.68623e-05
-2.35381e-08
1.68644e-05
-2.26684e-08
1.68658e-05
-2.1766e-08
1.68665e-05
-2.08518e-08
1.68666e-05
-1.99317e-08
1.68664e-05
-1.90537e-08
1.68659e-05
-1.8216e-08
-1.78883e-08
1.68663e-05
1.46387e-05
-8.64659e-09
1.46468e-05
-2.14048e-08
1.46568e-05
-2.92295e-08
1.46677e-05
-3.38208e-08
1.4679e-05
-3.62565e-08
1.46904e-05
-3.72235e-08
1.47017e-05
-3.72654e-08
1.47128e-05
-3.67614e-08
1.47236e-05
-3.59463e-08
1.47342e-05
-3.49656e-08
1.47446e-05
-3.39135e-08
1.47548e-05
-3.28487e-08
1.47648e-05
-3.18128e-08
1.47748e-05
-3.08238e-08
1.47848e-05
-2.99069e-08
1.47948e-05
-2.90284e-08
1.48048e-05
-2.82227e-08
-2.68505e-08
1.48137e-05
1.27416e-05
-1.01218e-08
1.27468e-05
-2.65541e-08
1.27534e-05
-3.58478e-08
1.27601e-05
-4.05433e-08
1.27663e-05
-4.24262e-08
1.27716e-05
-4.25714e-08
1.27761e-05
-4.17509e-08
1.27798e-05
-4.04501e-08
1.27828e-05
-3.89217e-08
1.27851e-05
-3.72957e-08
1.27868e-05
-3.56398e-08
1.2788e-05
-3.39865e-08
1.27885e-05
-3.23361e-08
1.27883e-05
-3.06818e-08
1.27874e-05
-2.89767e-08
1.27856e-05
-2.72244e-08
1.27827e-05
-2.53109e-08
-2.39614e-08
1.27798e-05
1.10965e-05
-1.57428e-08
1.11062e-05
-3.62119e-08
1.11166e-05
-4.61926e-08
1.11267e-05
-5.07342e-08
1.11366e-05
-5.22771e-08
1.1146e-05
-5.19313e-08
1.11548e-05
-5.05635e-08
1.11631e-05
-4.87396e-08
1.11709e-05
-4.6733e-08
1.11783e-05
-4.46802e-08
1.11853e-05
-4.26653e-08
1.1192e-05
-4.07393e-08
1.11986e-05
-3.89416e-08
1.12053e-05
-3.73022e-08
1.12122e-05
-3.58964e-08
1.12197e-05
-3.47622e-08
1.12285e-05
-3.41395e-08
-3.32636e-08
1.12378e-05
9.65974e-06
-2.02659e-08
9.66817e-06
-4.46395e-08
9.67607e-06
-5.41007e-08
9.68242e-06
-5.70775e-08
9.68728e-06
-5.71424e-08
9.69089e-06
-5.55431e-08
9.69355e-06
-5.32224e-08
9.69555e-06
-5.07355e-08
9.69707e-06
-4.82594e-08
9.69824e-06
-4.58442e-08
9.69909e-06
-4.35205e-08
9.69966e-06
-4.13033e-08
9.6999e-06
-3.91801e-08
9.69972e-06
-3.71296e-08
9.69888e-06
-3.50533e-08
9.69698e-06
-3.28613e-08
9.69293e-06
-3.0091e-08
-2.72397e-08
9.68691e-06
8.41352e-06
-2.8432e-08
8.42509e-06
-5.62106e-08
8.43527e-06
-6.42762e-08
8.44403e-06
-6.58461e-08
8.45175e-06
-6.48587e-08
8.45841e-06
-6.22066e-08
8.46413e-06
-5.89356e-08
8.46907e-06
-5.56808e-08
8.4734e-06
-5.25853e-08
8.47722e-06
-4.96631e-08
8.48063e-06
-4.69307e-08
8.48372e-06
-4.43944e-08
8.48659e-06
-4.20531e-08
8.48937e-06
-3.99039e-08
8.49233e-06
-3.8013e-08
8.49592e-06
-3.64567e-08
8.50165e-06
-3.5823e-08
-3.58626e-08
8.51028e-06
7.32785e-06
-3.90009e-08
7.33967e-06
-6.80295e-08
7.34639e-06
-7.0989e-08
7.34966e-06
-6.91186e-08
7.35109e-06
-6.6291e-08
7.35142e-06
-6.25366e-08
7.35117e-06
-5.86807e-08
7.35066e-06
-5.51743e-08
7.35004e-06
-5.1962e-08
7.34933e-06
-4.89588e-08
7.34855e-06
-4.61521e-08
7.3477e-06
-4.35417e-08
7.34676e-06
-4.11108e-08
7.34571e-06
-3.88527e-08
7.34438e-06
-3.66913e-08
7.3425e-06
-3.45693e-08
7.33839e-06
-3.17154e-08
-2.76147e-08
7.33014e-06
6.38127e-06
-5.02028e-08
6.39312e-06
-7.9877e-08
6.39988e-06
-7.77572e-08
6.40408e-06
-7.3311e-08
6.40651e-06
-6.87277e-08
6.40745e-06
-6.34764e-08
6.40736e-06
-5.85872e-08
6.40661e-06
-5.44208e-08
6.40543e-06
-5.07883e-08
6.40399e-06
-4.75132e-08
6.40237e-06
-4.45328e-08
6.40064e-06
-4.18157e-08
6.39886e-06
-3.93318e-08
6.39706e-06
-3.70497e-08
6.39536e-06
-3.49926e-08
6.39393e-06
-3.31439e-08
6.39447e-06
-3.2251e-08
-3.28979e-08
6.39975e-06
5.563e-06
-6.77368e-08
5.56909e-06
-8.59676e-08
5.56468e-06
-7.33503e-08
5.55725e-06
-6.58767e-08
5.54947e-06
-6.09456e-08
5.54204e-06
-5.60545e-08
5.53519e-06
-5.17306e-08
5.52885e-06
-4.80788e-08
5.52289e-06
-4.48338e-08
5.51724e-06
-4.18632e-08
5.51184e-06
-3.91318e-08
5.50665e-06
-3.66262e-08
5.50164e-06
-3.43239e-08
5.49682e-06
-3.22232e-08
5.49211e-06
-3.02915e-08
5.48756e-06
-2.85909e-08
5.4817e-06
-2.63881e-08
-2.22197e-08
5.47102e-06
4.85296e-06
-9.30936e-08
4.85866e-06
-9.16676e-08
4.84879e-06
-6.34789e-08
4.8377e-06
-5.47802e-08
4.82549e-06
-4.87372e-08
4.81328e-06
-4.38508e-08
4.80157e-06
-4.00138e-08
4.79041e-06
-3.69207e-08
4.7798e-06
-3.42232e-08
4.76968e-06
-3.1749e-08
4.76002e-06
-2.94654e-08
4.75076e-06
-2.73659e-08
4.74188e-06
-2.54448e-08
4.73335e-06
-2.36944e-08
4.72521e-06
-2.21489e-08
4.71743e-06
-2.08108e-08
4.71158e-06
-2.05404e-08
-2.17382e-08
4.7111e-06
4.10958e-06
4.01792e-06
3.95444e-06
3.89966e-06
3.85092e-06
3.80707e-06
3.76705e-06
3.73013e-06
3.69591e-06
3.66416e-06
3.6347e-06
3.60733e-06
3.58189e-06
3.55819e-06
3.53604e-06
3.51523e-06
3.49469e-06
3.47295e-06
4.97357e-08
-4.97334e-08
1.31948e-07
-8.22091e-08
2.28977e-07
-9.70288e-08
3.16111e-07
-8.71339e-08
3.94533e-07
-7.84221e-08
4.63252e-07
-6.87191e-08
5.2501e-07
-6.17581e-08
5.80497e-07
-5.54869e-08
6.31253e-07
-5.07551e-08
6.77807e-07
-4.65541e-08
7.20761e-07
-4.29539e-08
7.60282e-07
-3.952e-08
7.96547e-07
-3.6265e-08
8.29604e-07
-3.30563e-08
8.59528e-07
-2.99226e-08
8.8635e-07
-2.68205e-08
9.10094e-07
-2.3744e-08
9.30722e-07
-2.06262e-08
9.48103e-07
-1.73804e-08
9.61977e-07
-1.38729e-08
9.71903e-07
-9.92472e-09
9.77201e-07
-5.29694e-09
9.76819e-07
3.82248e-10
9.69755e-07
7.06456e-09
9.55368e-07
1.4388e-08
9.32978e-07
2.23904e-08
9.01758e-07
3.12214e-08
8.60886e-07
4.08733e-08
8.09957e-07
5.09299e-08
7.49274e-07
6.06866e-08
6.80167e-07
6.91087e-08
6.0505e-07
7.51235e-08
5.26771e-07
7.8282e-08
4.48209e-07
7.85691e-08
3.72845e-07
7.53648e-08
3.04936e-07
6.79136e-08
2.48189e-07
5.67455e-08
2.05489e-07
4.26987e-08
1.7792e-07
2.75658e-08
1.60742e-07
1.71735e-08
1.44359e-07
1.63808e-08
1.18621e-07
2.57371e-08
7.50393e-08
4.35808e-08
1.14492e-08
6.35945e-08
-6.61398e-08
7.75894e-08
-1.53434e-07
8.72996e-08
-2.49161e-07
9.57266e-08
-3.51387e-07
1.02229e-07
-4.57575e-07
1.06187e-07
-5.64964e-07
1.0739e-07
-6.7166e-07
1.06694e-07
-7.76448e-07
1.04788e-07
-8.78123e-07
1.01674e-07
-9.75504e-07
9.73805e-08
-1.06774e-06
9.22347e-08
-1.15434e-06
8.65943e-08
-1.23509e-06
8.07511e-08
-1.31005e-06
7.49647e-08
-1.37949e-06
6.9439e-08
-1.4438e-06
6.43081e-08
-1.50345e-06
5.96466e-08
-1.55893e-06
5.5481e-08
-1.61073e-06
5.18031e-08
-1.65931e-06
4.8582e-08
-1.70508e-06
4.57737e-08
-1.74841e-06
4.33282e-08
-1.78961e-06
4.11942e-08
-1.82893e-06
3.93225e-08
-1.8666e-06
3.76678e-08
-1.90279e-06
3.61893e-08
-1.93764e-06
3.48514e-08
-1.97126e-06
3.36232e-08
-2.00374e-06
3.24785e-08
-2.03513e-06
3.13951e-08
-2.06549e-06
3.03544e-08
-2.09483e-06
2.93406e-08
-2.12317e-06
2.83408e-08
-2.15051e-06
2.73436e-08
-2.17685e-06
2.63398e-08
-2.20217e-06
2.53212e-08
-2.22645e-06
2.42806e-08
-2.24967e-06
2.32117e-08
-2.27177e-06
2.21088e-08
-2.29274e-06
2.09662e-08
-2.31252e-06
1.9779e-08
-2.33106e-06
1.85414e-08
-2.34831e-06
1.72481e-08
-2.3642e-06
1.58929e-08
-2.37867e-06
1.44692e-08
-2.39164e-06
1.29694e-08
-2.40302e-06
1.13859e-08
-2.41273e-06
9.71294e-09
-2.42068e-06
7.94698e-09
-2.42677e-06
6.09017e-09
-2.43092e-06
4.15197e-09
-2.43307e-06
2.15534e-09
-2.43329e-06
2.19209e-10
-2.43195e-06
-1.3367e-09
-2.42944e-06
-2.51427e-09
-2.4258e-06
-3.63432e-09
-2.42104e-06
-4.75957e-09
-2.4151e-06
-5.94117e-09
-2.40796e-06
-7.14362e-09
-2.39967e-06
-8.28862e-09
-2.39023e-06
-9.43508e-09
-2.37964e-06
-1.05982e-08
-2.36785e-06
-1.17884e-08
-2.35484e-06
-1.30128e-08
-2.34056e-06
-1.4274e-08
-2.32499e-06
-1.55723e-08
-2.30809e-06
-1.68984e-08
-2.28985e-06
-1.82399e-08
-2.27027e-06
-1.9581e-08
-2.24938e-06
-2.08933e-08
-2.22724e-06
-2.21396e-08
-2.20392e-06
-2.33194e-08
-2.1794e-06
-2.45191e-08
-2.15363e-06
-2.57718e-08
-2.12659e-06
-2.70315e-08
-2.0983e-06
-2.82923e-08
-2.06874e-06
-2.95615e-08
-2.03791e-06
-3.0834e-08
-2.0058e-06
-3.21015e-08
-1.97244e-06
-3.33645e-08
-1.93781e-06
-3.46342e-08
-1.90188e-06
-3.59236e-08
-1.86468e-06
-3.72034e-08
-1.82624e-06
-3.84452e-08
-1.78658e-06
-3.96561e-08
-1.74577e-06
-4.08168e-08
-1.70381e-06
-4.19619e-08
-1.6607e-06
-4.31091e-08
-1.61654e-06
-4.41629e-08
-1.57131e-06
-4.52362e-08
-1.52503e-06
-4.62809e-08
-1.47777e-06
-4.72617e-08
-1.42954e-06
-4.82254e-08
-1.38041e-06
-4.91295e-08
-1.33042e-06
-4.99878e-08
-1.27962e-06
-5.07966e-08
-1.22804e-06
-5.15698e-08
-1.17573e-06
-5.22964e-08
-1.12274e-06
-5.29751e-08
-1.06912e-06
-5.36114e-08
-1.01488e-06
-5.42181e-08
-9.60079e-07
-5.47901e-08
-9.04748e-07
-5.53147e-08
-8.48969e-07
-5.57613e-08
-7.92651e-07
-5.63009e-08
-7.35831e-07
-5.68002e-08
-6.78653e-07
-5.71582e-08
-6.21011e-07
-5.76205e-08
-5.62902e-07
-5.80872e-08
-5.04343e-07
-5.85362e-08
-4.45233e-07
-5.90865e-08
-3.85526e-07
-5.96825e-08
-3.2516e-07
-6.03432e-08
-2.64026e-07
-6.11084e-08
-2.02044e-07
-6.19595e-08
-1.39029e-07
-6.29904e-08
-7.49322e-08
-6.40749e-08
-1.00438e-08
-6.48653e-08
5.70743e-08
-6.70989e-08
1.27371e-07
-7.02775e-08
2.00009e-07
-7.26229e-08
2.73933e-07
-7.39099e-08
3.48265e-07
-7.43209e-08
4.23013e-07
-7.47383e-08
4.98594e-07
-7.5573e-08
5.75119e-07
-7.65197e-08
6.52792e-07
-7.76695e-08
7.31209e-07
-7.84152e-08
8.10675e-07
-7.94659e-08
8.89859e-07
-7.91861e-08
9.69444e-07
-7.95883e-08
1.04634e-06
-7.6899e-08
1.12226e-06
-7.5934e-08
1.18916e-06
-6.68983e-08
1.24166e-06
-5.25064e-08
-1.19733e-08
1.25363e-06
1.01766e-07
-1.51498e-07
1.65844e-07
-1.46285e-07
2.15584e-07
-1.46769e-07
2.51721e-07
-1.23271e-07
2.89619e-07
-1.1632e-07
3.24955e-07
-1.04055e-07
3.61812e-07
-9.8615e-08
3.9764e-07
-9.13156e-08
4.33469e-07
-8.65836e-08
4.67944e-07
-8.10292e-08
5.01015e-07
-7.60246e-08
5.31778e-07
-7.0282e-08
5.60019e-07
-6.45064e-08
5.85385e-07
-5.84219e-08
6.079e-07
-5.24372e-08
6.27576e-07
-4.64957e-08
6.44577e-07
-4.07445e-08
6.59035e-07
-3.50837e-08
6.7111e-07
-2.94551e-08
6.80901e-07
-2.36638e-08
6.8857e-07
-1.7593e-08
6.9448e-07
-1.12064e-08
6.99672e-07
-4.80995e-09
7.04974e-07
1.7636e-09
7.10023e-07
9.33897e-09
7.13612e-07
1.88015e-08
7.1373e-07
3.11035e-08
7.07412e-07
4.71922e-08
6.90898e-07
6.74449e-08
6.61063e-07
9.05224e-08
6.16672e-07
1.135e-07
5.58878e-07
1.32919e-07
4.90956e-07
1.46206e-07
4.16913e-07
1.52613e-07
3.40338e-07
1.51941e-07
2.64533e-07
1.43719e-07
1.91745e-07
1.29533e-07
1.20568e-07
1.13875e-07
4.58352e-08
1.02298e-07
-3.78076e-08
1.00816e-07
-1.32638e-07
1.11211e-07
-2.36939e-07
1.30038e-07
-3.46404e-07
1.53046e-07
-4.58449e-07
1.7564e-07
-5.74767e-07
1.93908e-07
-6.94263e-07
2.06797e-07
-8.12749e-07
2.14212e-07
-9.26631e-07
2.16112e-07
-1.03313e-06
2.12687e-07
-1.13037e-06
2.04628e-07
-1.2168e-06
1.93129e-07
-1.29141e-06
1.7939e-07
-1.35407e-06
1.6434e-07
-1.40553e-06
1.48835e-07
-1.44697e-06
1.33672e-07
-1.47978e-06
1.19411e-07
-1.50543e-06
1.06395e-07
-1.52526e-06
9.47982e-08
-1.54048e-06
8.46615e-08
-1.55211e-06
7.59303e-08
-1.56095e-06
6.84905e-08
-1.56766e-06
6.21949e-08
-1.57274e-06
5.68853e-08
-1.57657e-06
5.24059e-08
-1.57941e-06
4.86127e-08
-1.58146e-06
4.53774e-08
-1.58285e-06
4.25898e-08
-1.58369e-06
4.01573e-08
-1.58402e-06
3.80034e-08
-1.5839e-06
3.60663e-08
-1.58334e-06
3.42965e-08
-1.58238e-06
3.2655e-08
-1.58101e-06
3.11118e-08
-1.57926e-06
2.96437e-08
-1.57714e-06
2.82333e-08
-1.57466e-06
2.68677e-08
-1.57186e-06
2.55377e-08
-1.56875e-06
2.4237e-08
-1.56538e-06
2.29615e-08
-1.56176e-06
2.17091e-08
-1.55796e-06
2.04793e-08
-1.55402e-06
1.92729e-08
-1.55001e-06
1.80924e-08
-1.54598e-06
1.69411e-08
-1.54203e-06
1.58236e-08
-1.53823e-06
1.4745e-08
-1.53469e-06
1.37116e-08
-1.53153e-06
1.27291e-08
-1.52886e-06
1.18037e-08
-1.52683e-06
1.09403e-08
-1.52559e-06
1.0142e-08
-1.52528e-06
9.40857e-09
-1.52607e-06
8.73243e-09
-1.52807e-06
8.09494e-09
-1.53139e-06
7.46922e-09
-1.53606e-06
6.82889e-09
-1.54195e-06
6.11229e-09
-1.54843e-06
5.14377e-09
-1.55494e-06
3.9888e-09
-1.56127e-06
2.69557e-09
-1.5673e-06
1.2763e-09
-1.57293e-06
-3.09806e-10
-1.57787e-06
-2.20688e-09
-1.58181e-06
-4.34449e-09
-1.58465e-06
-6.60172e-09
-1.5863e-06
-8.94682e-09
-1.58674e-06
-1.13489e-08
-1.58595e-06
-1.37964e-08
-1.58395e-06
-1.62805e-08
-1.58073e-06
-1.87882e-08
-1.57633e-06
-2.13046e-08
-1.57075e-06
-2.38135e-08
-1.56403e-06
-2.62989e-08
-1.55618e-06
-2.87429e-08
-1.54719e-06
-3.11378e-08
-1.53697e-06
-3.35317e-08
-1.52546e-06
-3.60283e-08
-1.51262e-06
-3.86174e-08
-1.49841e-06
-4.12441e-08
-1.4828e-06
-4.38948e-08
-1.4658e-06
-4.65662e-08
-1.44738e-06
-4.92509e-08
-1.42755e-06
-5.19354e-08
-1.4063e-06
-5.4615e-08
-1.38361e-06
-5.73178e-08
-1.35952e-06
-6.00174e-08
-1.33407e-06
-6.26556e-08
-1.30729e-06
-6.52261e-08
-1.2792e-06
-6.77433e-08
-1.24983e-06
-7.01878e-08
-1.21916e-06
-7.26353e-08
-1.18726e-06
-7.50086e-08
-1.15414e-06
-7.72866e-08
-1.11979e-06
-7.95895e-08
-1.0843e-06
-8.17668e-08
-1.0477e-06
-8.38701e-08
-1.01001e-06
-8.59071e-08
-9.71285e-07
-8.78569e-08
-9.31585e-07
-8.96853e-08
-8.90979e-07
-9.13988e-08
-8.49508e-07
-9.3037e-08
-8.07224e-07
-9.45753e-08
-7.64183e-07
-9.60101e-08
-7.2043e-07
-9.73591e-08
-6.75994e-07
-9.86479e-08
-6.30872e-07
-9.99053e-08
-5.85204e-07
-1.00976e-07
-5.38973e-07
-1.01985e-07
-4.92241e-07
-1.03025e-07
-4.45125e-07
-1.03908e-07
-3.97516e-07
-1.04759e-07
-3.49462e-07
-1.05665e-07
-3.0092e-07
-1.0662e-07
-2.51811e-07
-1.07636e-07
-2.02152e-07
-1.08736e-07
-1.5191e-07
-1.09914e-07
-1.0097e-07
-1.11273e-07
-4.91796e-08
-1.12889e-07
3.72513e-09
-1.14855e-07
5.77973e-08
-1.17053e-07
1.13253e-07
-1.19522e-07
1.70722e-07
-1.22325e-07
2.29649e-07
-1.26018e-07
2.89478e-07
-1.30099e-07
3.50391e-07
-1.33529e-07
4.13127e-07
-1.3664e-07
4.79053e-07
-1.40242e-07
5.47961e-07
-1.43642e-07
6.19186e-07
-1.46794e-07
6.92197e-07
-1.49528e-07
7.66701e-07
-1.52172e-07
8.42379e-07
-1.54093e-07
9.19054e-07
-1.56142e-07
9.96292e-07
-1.56426e-07
1.07386e-06
-1.5716e-07
1.15071e-06
-1.53749e-07
1.22657e-06
-1.51806e-07
1.29904e-06
-1.39366e-07
1.36976e-06
-1.23232e-07
-7.74943e-08
1.43527e-06
5.68906e-08
-2.08387e-07
8.15932e-08
-1.70987e-07
1.06788e-07
-1.71963e-07
1.28456e-07
-1.44939e-07
1.56018e-07
-1.43882e-07
1.85122e-07
-1.33158e-07
2.19218e-07
-1.32711e-07
2.54783e-07
-1.26881e-07
2.92889e-07
-1.2469e-07
3.30453e-07
-1.18593e-07
3.67032e-07
-1.12604e-07
4.00736e-07
-1.03985e-07
4.31393e-07
-9.51632e-08
4.58445e-07
-8.54742e-08
4.82166e-07
-7.61582e-08
5.02543e-07
-6.68716e-08
5.19859e-07
-5.8061e-08
5.34157e-07
-4.93816e-08
5.45447e-07
-4.07449e-08
5.53356e-07
-3.15716e-08
5.56715e-07
-2.09522e-08
5.53809e-07
-8.30035e-09
5.44512e-07
4.48751e-09
5.30012e-07
1.62634e-08
5.11957e-07
2.73946e-08
4.91869e-07
3.88893e-08
4.70438e-07
5.25346e-08
4.46698e-07
7.09322e-08
4.18093e-07
9.605e-08
3.81705e-07
1.26912e-07
3.35803e-07
1.59402e-07
2.8068e-07
1.88043e-07
2.18287e-07
2.08599e-07
1.51327e-07
2.19574e-07
8.19776e-08
2.2129e-07
1.04722e-08
2.15225e-07
-6.57314e-08
2.05737e-07
-1.51519e-07
1.99662e-07
-2.50848e-07
2.01627e-07
-3.62515e-07
2.12483e-07
-4.81208e-07
2.29903e-07
-6.01449e-07
2.50279e-07
-7.1858e-07
2.70177e-07
-8.2924e-07
2.863e-07
-9.31473e-07
2.9614e-07
-1.02356e-06
2.98885e-07
-1.10407e-06
2.94726e-07
-1.17233e-06
2.84369e-07
-1.2286e-06
2.68953e-07
-1.27404e-06
2.50074e-07
-1.31027e-06
2.29358e-07
-1.33895e-06
2.08066e-07
-1.3619e-06
1.87287e-07
-1.38091e-06
1.67849e-07
-1.3975e-06
1.50259e-07
-1.41283e-06
1.34745e-07
-1.42776e-06
1.21325e-07
-1.44285e-06
1.09884e-07
-1.45842e-06
1.00233e-07
-1.47464e-06
9.215e-08
-1.49156e-06
8.54078e-08
-1.50915e-06
7.9792e-08
-1.52738e-06
7.51079e-08
-1.54615e-06
7.11842e-08
-1.56542e-06
6.78732e-08
-1.58509e-06
6.50496e-08
-1.60511e-06
6.26083e-08
-1.62541e-06
6.04619e-08
-1.64595e-06
5.85386e-08
-1.66666e-06
5.67796e-08
-1.6875e-06
5.51373e-08
-1.70842e-06
5.35734e-08
-1.72936e-06
5.20574e-08
-1.75029e-06
5.05653e-08
-1.77113e-06
4.90782e-08
-1.79184e-06
4.75818e-08
-1.81237e-06
4.60654e-08
-1.83266e-06
4.45213e-08
-1.85264e-06
4.29444e-08
-1.87226e-06
4.13317e-08
-1.89146e-06
3.96825e-08
-1.91019e-06
3.79978e-08
-1.92838e-06
3.62806e-08
-1.94597e-06
3.45355e-08
-1.96292e-06
3.27689e-08
-1.97916e-06
3.09888e-08
-1.99465e-06
2.92045e-08
-2.00935e-06
2.74261e-08
-2.02321e-06
2.56642e-08
-2.0362e-06
2.39288e-08
-2.04828e-06
2.22272e-08
-2.05944e-06
2.05622e-08
-2.06963e-06
1.8928e-08
-2.07884e-06
1.73038e-08
-2.08702e-06
1.56495e-08
-2.09409e-06
1.39025e-08
-2.09994e-06
1.19563e-08
-2.10448e-06
9.68467e-09
-2.10761e-06
7.12241e-09
-2.10924e-06
4.32592e-09
-2.10928e-06
1.31777e-09
-2.10776e-06
-1.83263e-09
-2.10491e-06
-5.05918e-09
-2.10093e-06
-8.31926e-09
-2.09588e-06
-1.16551e-08
-2.08976e-06
-1.5063e-08
-2.08258e-06
-1.85358e-08
-2.07431e-06
-2.20661e-08
-2.06494e-06
-2.56458e-08
-2.05447e-06
-2.92643e-08
-2.04286e-06
-3.29069e-08
-2.03012e-06
-3.65581e-08
-2.01621e-06
-4.02056e-08
-2.00111e-06
-4.3843e-08
-1.98477e-06
-4.74781e-08
-1.96715e-06
-5.11519e-08
-1.94826e-06
-5.49184e-08
-1.92812e-06
-5.87582e-08
-1.90673e-06
-6.2638e-08
-1.88407e-06
-6.65539e-08
-1.86014e-06
-7.04976e-08
-1.83493e-06
-7.4461e-08
-1.80843e-06
-7.84327e-08
-1.78064e-06
-8.24067e-08
-1.75157e-06
-8.63839e-08
-1.72125e-06
-9.03356e-08
-1.68968e-06
-9.42308e-08
-1.65684e-06
-9.80669e-08
-1.62275e-06
-1.01835e-07
-1.58741e-06
-1.05527e-07
-1.55086e-06
-1.09178e-07
-1.51314e-06
-1.12734e-07
-1.47422e-06
-1.1621e-07
-1.43418e-06
-1.19628e-07
-1.39304e-06
-1.2291e-07
-1.3508e-06
-1.26105e-07
-1.30752e-06
-1.2919e-07
-1.26324e-06
-1.32138e-07
-1.218e-06
-1.34923e-07
-1.17183e-06
-1.37569e-07
-1.12476e-06
-1.40102e-07
-1.07684e-06
-1.42495e-07
-1.02809e-06
-1.44758e-07
-9.78532e-07
-1.46911e-07
-9.28202e-07
-1.48976e-07
-8.77166e-07
-1.50939e-07
-8.25434e-07
-1.52705e-07
-7.72991e-07
-1.54426e-07
-7.19884e-07
-1.56129e-07
-6.66088e-07
-1.57702e-07
-6.11559e-07
-1.59286e-07
-5.56304e-07
-1.60918e-07
-5.00268e-07
-1.62654e-07
-4.43431e-07
-1.6447e-07
-3.85831e-07
-1.66334e-07
-3.27332e-07
-1.68411e-07
-2.67831e-07
-1.70772e-07
-2.07289e-07
-1.73429e-07
-1.45665e-07
-1.76477e-07
-8.28204e-08
-1.79895e-07
-1.87142e-08
-1.83627e-07
4.64916e-08
-1.8753e-07
1.12655e-07
-1.92181e-07
1.80088e-07
-1.97531e-07
2.49407e-07
-2.02848e-07
3.20921e-07
-2.08153e-07
3.94148e-07
-2.13468e-07
4.68795e-07
-2.18288e-07
5.44888e-07
-2.22886e-07
6.22467e-07
-2.27107e-07
7.01457e-07
-2.31161e-07
7.81677e-07
-2.34312e-07
8.62804e-07
-2.37269e-07
9.44545e-07
-2.38166e-07
1.02635e-06
-2.38965e-07
1.10774e-06
-2.35137e-07
1.18764e-06
-2.31703e-07
1.26518e-06
-2.16913e-07
1.34244e-06
-2.0049e-07
-1.52038e-07
1.41699e-06
3.17341e-08
-2.4012e-07
3.66918e-08
-1.75944e-07
5.07202e-08
-1.85992e-07
6.59982e-08
-1.60217e-07
7.9982e-08
-1.57865e-07
9.39876e-08
-1.47164e-07
1.09039e-07
-1.47762e-07
1.27374e-07
-1.45216e-07
1.48371e-07
-1.45686e-07
1.71209e-07
-1.41431e-07
1.94196e-07
-1.3559e-07
2.15646e-07
-1.25435e-07
2.34889e-07
-1.14406e-07
2.51549e-07
-1.02134e-07
2.65614e-07
-9.02238e-08
2.77081e-07
-7.83379e-08
2.86145e-07
-6.71252e-08
2.93058e-07
-5.62943e-08
2.98023e-07
-4.57099e-08
3.00575e-07
-3.4123e-08
2.9896e-07
-1.9337e-08
2.90115e-07
5.44412e-10
2.72385e-07
2.22181e-08
2.46541e-07
4.21069e-08
2.14234e-07
5.97023e-08
1.77193e-07
7.59297e-08
1.36725e-07
9.30026e-08
9.37645e-08
1.13893e-07
4.91937e-08
1.40621e-07
3.82853e-09
1.72277e-07
-4.16672e-08
2.04898e-07
-8.70863e-08
2.33463e-07
-1.32985e-07
2.54498e-07
-1.80667e-07
2.67257e-07
-2.32827e-07
2.73451e-07
-2.9421e-07
2.76608e-07
-3.69494e-07
2.81021e-07
-4.59324e-07
2.89492e-07
-5.59621e-07
3.01924e-07
-6.63686e-07
3.16548e-07
-7.64867e-07
3.31084e-07
-8.57979e-07
3.43392e-07
-9.3945e-07
3.51648e-07
-1.00748e-06
3.54335e-07
-1.06204e-06
3.50692e-07
-1.10409e-06
3.40935e-07
-1.13535e-06
3.25994e-07
-1.15824e-06
3.07252e-07
-1.17546e-06
2.86176e-07
-1.18951e-06
2.64128e-07
-1.2024e-06
2.42245e-07
-1.2156e-06
2.21264e-07
-1.23006e-06
2.01749e-07
-1.24622e-06
1.84012e-07
-1.26412e-06
1.68159e-07
-1.28355e-06
1.54171e-07
-1.30417e-06
1.41946e-07
-1.32563e-06
1.31342e-07
-1.34759e-06
1.22196e-07
-1.36978e-06
1.14339e-07
-1.39198e-06
1.07609e-07
-1.41404e-06
1.01848e-07
-1.43584e-06
9.69094e-08
-1.45732e-06
9.26603e-08
-1.47842e-06
8.89796e-08
-1.49913e-06
8.57602e-08
-1.51943e-06
8.29084e-08
-1.53931e-06
8.03435e-08
-1.55877e-06
7.79972e-08
-1.57781e-06
7.5812e-08
-1.59641e-06
7.37407e-08
-1.61458e-06
7.17446e-08
-1.63232e-06
6.9793e-08
-1.64961e-06
6.78615e-08
-1.66646e-06
6.59313e-08
-1.68287e-06
6.39883e-08
-1.69883e-06
6.2022e-08
-1.71433e-06
6.00251e-08
-1.72938e-06
5.79927e-08
-1.74397e-06
5.59219e-08
-1.7581e-06
5.38117e-08
-1.77176e-06
5.16624e-08
-1.78496e-06
4.94757e-08
-1.79768e-06
4.72545e-08
-1.80991e-06
4.50026e-08
-1.82165e-06
4.2725e-08
-1.83287e-06
4.04269e-08
-1.84356e-06
3.8114e-08
-1.85368e-06
3.57912e-08
-1.86322e-06
3.34619e-08
-1.87212e-06
3.11269e-08
-1.88034e-06
2.87837e-08
-1.88783e-06
2.64247e-08
-1.89457e-06
2.4036e-08
-1.90051e-06
2.15977e-08
-1.90569e-06
1.90827e-08
-1.91018e-06
1.64407e-08
-1.9141e-06
1.36032e-08
-1.91753e-06
1.05531e-08
-1.92048e-06
7.28119e-09
-1.92295e-06
3.78809e-09
-1.92485e-06
6.65504e-11
-1.92605e-06
-3.85875e-09
-1.92633e-06
-8.04186e-09
-1.92558e-06
-1.24085e-08
-1.92372e-06
-1.69163e-08
-1.92072e-06
-2.15396e-08
-1.91653e-06
-2.62561e-08
-1.91113e-06
-3.10493e-08
-1.90449e-06
-3.59033e-08