/*--------------------------------*- C++ -*----------------------------------*\
| =========                 |                                                 |
| \\      /  F ield         | OpenFOAM: The Open Source CFD Toolbox           |
|  \\    /   O peration     | Version:  v1906                                 |
|   \\  /    A nd           | Web:      www.OpenFOAM.com                      |
|    \\/     M anipulation  |                                                 |
\*---------------------------------------------------------------------------*/
FoamFile
{
    version     2.0;
    format      ascii;
    class       volSymmTensorField;
    location    "1276";
    object      R;
}
// * * * * * * * * * * * * * * * * * * * * * * * * * * * * * * * * * * * * * //

dimensions      [0 2 -2 0 0 0 0];


internalField   nonuniform List<symmTensor> 
12225
(
(1.62918 -0.333427 0 1.36079 0 1.52752)
(1.99604 -0.59771 0 0.915072 0 1.54224)
(2.14975 -0.586212 0 0.68567 0 1.48847)
(2.1628 -0.548286 0 0.594793 0 1.42582)
(2.13 -0.521056 0 0.549798 0 1.37023)
(2.0841 -0.501321 0 0.521809 0 1.32323)
(2.03684 -0.485854 0 0.501247 0 1.28308)
(1.99274 -0.473119 0 0.484919 0 1.24867)
(1.95155 -0.462066 0 0.471116 0 1.21826)
(1.9156 -0.45267 0 0.459595 0 1.19214)
(1.88092 -0.443935 0 0.449195 0 1.16807)
(1.85355 -0.437329 0 0.440599 0 1.14807)
(1.83154 -0.432133 0 0.433625 0 1.13189)
(1.81416 -0.427858 0 0.427906 0 1.11844)
(1.79781 -0.423897 0 0.422743 0 1.10648)
(1.78636 -0.421433 0 0.419245 0 1.0974)
(1.77259 -0.417325 0 0.414282 0 1.08735)
(1.76713 -0.418164 0 0.413748 0 1.08252)
(1.52372 -0.0379491 0 1.4601 0 1.51677)
(1.57651 -0.140432 0 1.18694 0 1.51214)
(1.5867 -0.190036 0 0.927627 0 1.45696)
(1.57202 -0.209344 0 0.773774 0 1.39906)
(1.54343 -0.218156 0 0.676195 0 1.34284)
(1.51873 -0.22523 0 0.611058 0 1.29757)
(1.49704 -0.231419 0 0.564367 0 1.25992)
(1.47756 -0.236837 0 0.528996 0 1.22736)
(1.461 -0.241813 0 0.501387 0 1.19985)
(1.4463 -0.246077 0 0.479012 0 1.17527)
(1.43464 -0.25032 0 0.460927 0 1.15511)
(1.42362 -0.253592 0 0.445248 0 1.13561)
(1.41643 -0.257723 0 0.433134 0 1.12139)
(1.40885 -0.260031 0 0.42117 0 1.10523)
(1.4046 -0.264234 0 0.413704 0 1.09603)
(1.39986 -0.265322 0 0.403165 0 1.08178)
(1.39637 -0.269229 0 0.399531 0 1.07628)
(1.39203 -0.269056 0 0.389595 0 1.06222)
(1.51161 -0.00809936 0 1.49388 0 1.51021)
(1.53451 -0.0358604 0 1.38468 0 1.51858)
(1.54642 -0.0615107 0 1.23518 0 1.50561)
(1.54334 -0.0798398 0 1.11802 0 1.48175)
(1.52918 -0.0934404 0 1.02643 0 1.45229)
(1.5123 -0.105318 0 0.952989 0 1.423)
(1.495 -0.11598 0 0.893165 0 1.39548)
(1.47794 -0.125596 0 0.843479 0 1.36974)
(1.46204 -0.134416 0 0.801693 0 1.34637)
(1.44718 -0.142364 0 0.765962 0 1.3247)
(1.43389 -0.149837 0 0.7353 0 1.30547)
(1.42156 -0.15642 0 0.708258 0 1.2872)
(1.4107 -0.162888 0 0.685177 0 1.27168)
(1.40125 -0.168272 0 0.66364 0 1.25605)
(1.39153 -0.17388 0 0.646825 0 1.24411)
(1.38682 -0.178196 0 0.627159 0 1.22979)
(1.37248 -0.182648 0 0.619622 0 1.22264)
(1.38672 -0.185698 0 0.589778 0 1.20638)
(1.51151 -0.00606637 0 1.49419 0 1.51108)
(1.52717 -0.0162764 0 1.42187 0 1.52172)
(1.53967 -0.0294742 0 1.31301 0 1.52313)
(1.54282 -0.0419078 0 1.21364 0 1.51509)
(1.53769 -0.0521988 0 1.12988 0 1.50081)
(1.52862 -0.0612724 0 1.05927 0 1.48387)
(1.51772 -0.0695196 0 0.999722 0 1.46621)
(1.5059 -0.0770852 0 0.949069 0 1.4485)
(1.49399 -0.0841221 0 0.905608 0 1.43142)
(1.48228 -0.0906059 0 0.867927 0 1.41501)
(1.47112 -0.0967121 0 0.835092 0 1.39969)
(1.46049 -0.102294 0 0.80607 0 1.38503)
(1.4505 -0.107633 0 0.780659 0 1.3717)
(1.44142 -0.112362 0 0.757594 0 1.35875)
(1.43233 -0.116951 0 0.737849 0 1.34744)
(1.42548 -0.120812 0 0.718338 0 1.33584)
(1.41601 -0.124406 0 0.704257 0 1.32686)
(1.41277 -0.127505 0 0.684391 0 1.31592)
(1.50986 -0.00453794 0 1.49823 0 1.50974)
(1.52087 -0.00882177 0 1.44954 0 1.51873)
(1.53213 -0.0149099 0 1.37342 0 1.52448)
(1.5378 -0.0219653 0 1.29854 0 1.52378)
(1.53768 -0.0285918 0 1.23198 0 1.51799)
(1.53397 -0.0348901 0 1.1733 0 1.5092)
(1.52814 -0.0409873 0 1.12174 0 1.49882)
(1.52094 -0.0468534 0 1.07634 0 1.48758)
(1.51304 -0.0524816 0 1.03617 0 1.47607)
(1.5048 -0.0578203 0 1.00046 0 1.46453)
(1.49653 -0.062913 0 0.968603 0 1.45329)
(1.48835 -0.0676908 0 0.939975 0 1.4423)
(1.48037 -0.0722325 0 0.914281 0 1.43187)
(1.47279 -0.076388 0 0.890911 0 1.42174)
(1.46533 -0.0802769 0 0.869968 0 1.41235)
(1.45875 -0.0837251 0 0.850347 0 1.40314)
(1.45195 -0.0867582 0 0.833401 0 1.39509)
(1.44699 -0.0896418 0 0.815079 0 1.38677)
(1.50977 -0.0041119 0 1.49855 0 1.50978)
(1.51843 -0.00584597 0 1.46076 0 1.51759)
(1.52822 -0.00838417 0 1.40249 0 1.5245)
(1.53469 -0.0121898 0 1.34202 0 1.52727)
(1.53714 -0.016249 0 1.28557 0 1.52613)
(1.53663 -0.0203642 0 1.23403 0 1.52226)
(1.53408 -0.0245332 0 1.18751 0 1.51662)
(1.53008 -0.0286805 0 1.14567 0 1.50979)
(1.52511 -0.0327526 0 1.10802 0 1.50226)
(1.51953 -0.0367003 0 1.07407 0 1.49433)
(1.51362 -0.0405171 0 1.0434 0 1.48628)
(1.50753 -0.0441573 0 1.01557 0 1.47819)
(1.50139 -0.0476241 0 0.9903 0 1.47024)
(1.49534 -0.0508468 0 0.967207 0 1.46243)
(1.48937 -0.0538307 0 0.946144 0 1.45494)
(1.48377 -0.0565298 0 0.926611 0 1.44766)
(1.47821 -0.0589138 0 0.908852 0 1.44086)
(1.47326 -0.0612649 0 0.891084 0 1.43408)
(1.50946 -0.00338695 0 1.49937 0 1.50953)
(1.51631 -0.00433521 0 1.46916 0 1.51607)
(1.52447 -0.00509592 0 1.42403 0 1.52271)
(1.53072 -0.00677973 0 1.37566 0 1.52677)
(1.53419 -0.00890765 0 1.32905 0 1.52797)
(1.53537 -0.0113029 0 1.2855 0 1.52692)
(1.5348 -0.01393 0 1.24537 0 1.52422)
(1.53287 -0.0166985 0 1.20864 0 1.52033)
(1.52998 -0.0195277 0 1.17506 0 1.51562)
(1.52639 -0.0223563 0 1.14434 0 1.51035)
(1.52234 -0.0251477 0 1.11622 0 1.50476)
(1.51798 -0.0278559 0 1.09042 0 1.49896)
(1.51343 -0.030452 0 1.06671 0 1.49309)
(1.50882 -0.0328911 0 1.04484 0 1.48722)
(1.50421 -0.0351489 0 1.02466 0 1.48145)
(1.49975 -0.0372172 0 1.00587 0 1.47582)
(1.49545 -0.0390722 0 0.988423 0 1.47046)
(1.49129 -0.0409388 0 0.97161 0 1.46517)
(1.50951 -0.00299001 0 1.49932 0 1.50962)
(1.51529 -0.00360623 0 1.47357 0 1.51537)
(1.52211 -0.00350195 0 1.43714 0 1.52143)
(1.52786 -0.00398932 0 1.39718 0 1.52591)
(1.53172 -0.00493375 0 1.35759 0 1.52836)
(1.53385 -0.00621738 0 1.31976 0 1.52902)
(1.53452 -0.00779021 0 1.28425 0 1.52827)
(1.53401 -0.00956274 0 1.25122 0 1.5264)
(1.53259 -0.0114524 0 1.22062 0 1.52371)
(1.53047 -0.0133982 0 1.19231 0 1.5204)
(1.52784 -0.0153559 0 1.16611 0 1.51667)
(1.52484 -0.0172823 0 1.14186 0 1.51263)
(1.52158 -0.0191418 0 1.11939 0 1.5084)
(1.51816 -0.0209011 0 1.09851 0 1.50408)
(1.51467 -0.0225362 0 1.07907 0 1.49974)
(1.51119 -0.0240483 0 1.06091 0 1.49543)
(1.50769 -0.0254549 0 1.04393 0 1.49122)
(1.50404 -0.0268814 0 1.0279 0 1.48705)
(1.50947 -0.00244933 0 1.49948 0 1.5096)
(1.51437 -0.00305109 0 1.47721 0 1.51462)
(1.52004 -0.00260262 0 1.44727 0 1.51998)
(1.52513 -0.00238328 0 1.41405 0 1.52439)
(1.52894 -0.0025082 0 1.38051 0 1.52735)
(1.53145 -0.00295833 0 1.34794 0 1.52893)
(1.53279 -0.00370747 0 1.31693 0 1.52934)
(1.53314 -0.00468548 0 1.28774 0 1.52877)
(1.53268 -0.00581956 0 1.26038 0 1.52744)
(1.53157 -0.00705138 0 1.23482 0 1.5255)
(1.52997 -0.008334 0 1.21096 0 1.52312)
(1.52798 -0.00962494 0 1.18868 0 1.5204)
(1.52571 -0.0108879 0 1.16787 0 1.51744)
(1.52324 -0.0120953 0 1.14839 0 1.51433)
(1.52066 -0.0132281 0 1.13013 0 1.51114)
(1.51802 -0.0142926 0 1.11299 0 1.50792)
(1.51531 -0.0153005 0 1.09689 0 1.50473)
(1.51227 -0.0163578 0 1.0819 0 1.50155)
(1.5095 -0.00209433 0 1.49944 0 1.50964)
(1.51384 -0.00271628 0 1.47948 0 1.51421)
(1.51864 -0.00215204 0 1.45411 0 1.51897)
(1.5231 -0.00157001 0 1.42591 0 1.52312)
(1.5267 -0.00122003 0 1.39702 0 1.52627)
(1.52933 -0.0011541 0 1.36854 0 1.52836)
(1.53105 -0.00136701 0 1.34106 0 1.5295)
(1.53195 -0.00180601 0 1.31487 0 1.52982)
(1.53215 -0.00240997 0 1.29007 0 1.52945)
(1.53178 -0.00312639 0 1.26668 0 1.52853)
(1.53094 -0.00391099 0 1.24465 0 1.52716)
(1.52973 -0.00472531 0 1.22393 0 1.52545)
(1.52823 -0.00553721 0 1.20443 0 1.52349)
(1.52653 -0.00632446 0 1.18607 0 1.52133)
(1.52466 -0.0070746 0 1.16878 0 1.51905)
(1.52266 -0.00779596 0 1.15248 0 1.5167)
(1.52046 -0.00851689 0 1.13718 0 1.5143)
(1.51788 -0.00928466 0 1.12299 0 1.51188)
(1.50947 -0.00168299 0 1.49956 0 1.50962)
(1.51334 -0.00232985 0 1.48148 0 1.51378)
(1.51743 -0.00179273 0 1.45964 0 1.51799)
(1.5213 -0.00104937 0 1.43547 0 1.52181)
(1.52458 -0.000410703 0 1.41047 0 1.52491)
(1.52715 1.47515e-05 0 1.38555 0 1.52722)
(1.529 0.000204008 0 1.36125 0 1.52876)
(1.5302 0.000186506 0 1.33786 0 1.52962)
(1.5308 7.17038e-06 0 1.31552 0 1.52988)
(1.53091 -0.000290553 0 1.29428 0 1.52965)
(1.5306 -0.000667767 0 1.27413 0 1.52901)
(1.52996 -0.00109075 0 1.25504 0 1.52804)
(1.52904 -0.00153193 0 1.23697 0 1.52681)
(1.5279 -0.00197316 0 1.21986 0 1.52539)
(1.52659 -0.00240534 0 1.20366 0 1.52382)
(1.52511 -0.00283558 0 1.18835 0 1.52216)
(1.52341 -0.00327753 0 1.17396 0 1.52043)
(1.52127 -0.00378991 0 1.16064 0 1.51863)
(1.50943 -0.00141874 0 1.49966 0 1.50959)
(1.51302 -0.00206801 0 1.48281 0 1.5135)
(1.51661 -0.00159572 0 1.46334 0 1.51732)
(1.52003 -0.000818654 0 1.442 0 1.52084)
(1.523 -5.94052e-05 0 1.41982 0 1.52382)
(1.52545 0.000545148 0 1.39753 0 1.52618)
(1.52733 0.000954213 0 1.37561 0 1.52793)
(1.52866 0.00118053 0 1.35432 0 1.5291)
(1.52951 0.00125646 0 1.33383 0 1.52977)
(1.52992 0.00121736 0 1.3142 0 1.52999)
(1.52997 0.00109637 0 1.29546 0 1.52985)
(1.5297 0.000922176 0 1.27761 0 1.52939)
(1.52918 0.000717661 0 1.26061 0 1.52869)
(1.52845 0.000497143 0 1.24445 0 1.52779)
(1.52752 0.000266482 0 1.2291 0 1.52674)
(1.5264 1.8985e-05 0 1.21456 0 1.52556)
(1.52501 -0.000263646 0 1.20088 0 1.5243)
(1.5232 -0.000598316 0 1.18821 0 1.52296)
(1.50937 -0.00114574 0 1.49984 0 1.50953)
(1.51269 -0.0017581 0 1.48406 0 1.5132)
(1.51587 -0.00136355 0 1.46652 0 1.51669)
(1.51889 -0.00060906 0 1.44751 0 1.51991)
(1.52157 0.000200696 0 1.42772 0 1.52273)
(1.52385 0.000915215 0 1.40772 0 1.52507)
(1.52568 0.00147938 0 1.38789 0 1.52691)
(1.52707 0.00189039 0 1.3685 0 1.52827)
(1.52805 0.002168 0 1.34971 0 1.5292)
(1.52867 0.00233873 0 1.33159 0 1.52975)
(1.52896 0.00242922 0 1.31419 0 1.52996)
(1.52897 0.00246297 0 1.29752 0 1.52989)
(1.52875 0.00245848 0 1.28159 0 1.52959)
(1.52832 0.0024275 0 1.26638 0 1.52909)
(1.5277 0.00237465 0 1.25188 0 1.52844)
(1.52687 0.00229743 0 1.23812 0 1.52766)
(1.52578 0.00218853 0 1.22515 0 1.52679)
(1.52426 0.00202 0 1.21311 0 1.52581)
(1.50928 -0.000917637 0 1.50006 0 1.50944)
(1.51238 -0.0014762 0 1.48522 0 1.51292)
(1.51521 -0.00116695 0 1.46932 0 1.51611)
(1.51786 -0.000480529 0 1.45237 0 1.51905)
(1.52024 0.000312887 0 1.43475 0 1.52168)
(1.52232 0.00106333 0 1.41686 0 1.52394)
(1.52406 0.00170723 0 1.399 0 1.5258)
(1.52545 0.00222973 0 1.3814 0 1.52729)
(1.52652 0.00263952 0 1.36421 0 1.52842)
(1.52728 0.00295446 0 1.34753 0 1.52921)
(1.52776 0.00319437 0 1.33141 0 1.52972)
(1.52801 0.00337712 0 1.31588 0 1.52998)
(1.52803 0.00351671 0 1.30096 0 1.53002)
(1.52786 0.00362143 0 1.28665 0 1.52988)
(1.5275 0.0036939 0 1.27298 0 1.52958)
(1.52692 0.00373068 0 1.25998 0 1.52916)
(1.52608 0.00372237 0 1.24769 0 1.52862)
(1.52488 0.00368037 0 1.23622 0 1.52799)
(1.50917 -0.000644762 0 1.50035 0 1.50933)
(1.51203 -0.00107003 0 1.48643 0 1.51259)
(1.51454 -0.000819968 0 1.472 0 1.5155)
(1.51685 -0.000222236 0 1.45687 0 1.51817)
(1.51894 0.000512353 0 1.44119 0 1.52059)
(1.52081 0.00125226 0 1.42523 0 1.52272)
(1.52241 0.00193327 0 1.4092 0 1.52455)
(1.52376 0.00253204 0 1.3933 0 1.52609)
(1.52485 0.00304723 0 1.37766 0 1.52733)
(1.52569 0.00348771 0 1.36238 0 1.52831)
(1.52631 0.00386578 0 1.34751 0 1.52903)
(1.52672 0.00419352 0 1.33312 0 1.52954)
(1.52694 0.00448059 0 1.31922 0 1.52985)
(1.52698 0.00473358 0 1.30585 0 1.52999)
(1.52683 0.00495518 0 1.29302 0 1.52999)
(1.52648 0.00514486 0 1.28077 0 1.52986)
(1.52587 0.00529833 0 1.26917 0 1.52961)
(1.52493 0.00538659 0 1.25829 0 1.52926)
(1.50903 -0.000441159 0 1.50069 0 1.5092)
(1.51167 -0.000739671 0 1.48756 0 1.51224)
(1.51394 -0.000548104 0 1.47427 0 1.51494)
(1.51598 -6.94051e-05 0 1.46057 0 1.51738)
(1.51782 0.000545231 0 1.44648 0 1.51961)
(1.51949 0.00119207 0 1.43212 0 1.52161)
(1.52095 0.00181419 0 1.41764 0 1.52338)
(1.52222 0.00238585 0 1.4032 0 1.52491)
(1.52329 0.00289954 0 1.3889 0 1.52621)
(1.52417 0.00335721 0 1.37484 0 1.52729)
(1.52487 0.00376472 0 1.36108 0 1.52816)
(1.52538 0.0041285 0 1.3477 0 1.52884)
(1.52573 0.00445385 0 1.33471 0 1.52935)
(1.52592 0.004744 0 1.32216 0 1.5297)
(1.52594 0.0050003 0 1.31008 0 1.52992)
(1.52577 0.00522361 0 1.29851 0 1.53001)
(1.52539 0.00541427 0 1.28749 0 1.53)
(1.52474 0.0055982 0 1.27708 0 1.52989)
(1.50889 -0.000172782 0 1.50104 0 1.50905)
(1.51133 -0.000234009 0 1.4886 0 1.51191)
(1.5134 -1.23941e-05 0 1.47619 0 1.51442)
(1.51523 0.000396903 0 1.46356 0 1.51669)
(1.51689 0.000911967 0 1.45065 0 1.51875)
(1.51838 0.00147058 0 1.4375 0 1.52063)
(1.51973 0.00203479 0 1.42422 0 1.52233)
(1.52092 0.00258463 0 1.4109 0 1.52383)
(1.52195 0.00311134 0 1.39765 0 1.52514)
(1.52282 0.00361256 0 1.38456 0 1.52627)
(1.52355 0.00408889 0 1.3717 0 1.52722)
(1.52412 0.00454188 0 1.35911 0 1.528)
(1.52455 0.00497259 0 1.34687 0 1.52863)
(1.52483 0.0053811 0 1.33499 0 1.52912)
(1.52496 0.00576563 0 1.32352 0 1.52947)
(1.52492 0.00612188 0 1.3125 0 1.52971)
(1.5247 0.00644273 0 1.30196 0 1.52984)
(1.52427 0.00669984 0 1.29194 0 1.52987)
(1.50877 -1.01245e-05 0 1.50131 0 1.50894)
(1.51109 0.000104187 0 1.48931 0 1.51166)
(1.51306 0.00031828 0 1.47738 0 1.51407)
(1.51479 0.000604216 0 1.46532 0 1.51624)
(1.51635 0.000938096 0 1.45304 0 1.51823)
(1.51777 0.00129944 0 1.44056 0 1.52004)
(1.51905 0.00167393 0 1.42795 0 1.52168)
(1.5202 0.00205223 0 1.41528 0 1.52316)
(1.52121 0.0024284 0 1.40265 0 1.52446)
(1.52209 0.00279876 0 1.39014 0 1.52561)
(1.52283 0.00316088 0 1.3778 0 1.52659)
(1.52345 0.00351304 0 1.36571 0 1.52742)
(1.52393 0.00385392 0 1.35391 0 1.5281)
(1.52428 0.00418287 0 1.34243 0 1.52866)
(1.52451 0.00449991 0 1.33131 0 1.52909)
(1.52459 0.00480793 0 1.32059 0 1.52941)
(1.52452 0.00511028 0 1.31028 0 1.52962)
(1.52426 0.00543123 0 1.30043 0 1.52973)
(1.50879 0.00033774 0 1.50125 0 1.50896)
(1.51114 0.000838631 0 1.48913 0 1.51171)
(1.51313 0.00120833 0 1.47708 0 1.51414)
(1.5149 0.00150969 0 1.46488 0 1.51633)
(1.51648 0.00179312 0 1.45245 0 1.51833)
(1.51792 0.00209127 0 1.43982 0 1.52015)
(1.5192 0.0024221 0 1.42706 0 1.52179)
(1.52034 0.00279268 0 1.41425 0 1.52325)
(1.52134 0.003203 0 1.4015 0 1.52453)
(1.52219 0.003649 0 1.38887 0 1.52565)
(1.5229 0.00412443 0 1.37643 0 1.52659)
(1.52347 0.00462195 0 1.36425 0 1.52738)
(1.52392 0.00513358 0 1.35235 0 1.52803)
(1.52424 0.00565084 0 1.34079 0 1.52854)
(1.52445 0.00616434 0 1.32957 0 1.52893)
(1.52454 0.00666289 0 1.31872 0 1.52921)
(1.52454 0.007133 0 1.30824 0 1.5294)
(1.52446 0.0075488 0 1.29815 0 1.52952)
(1.50903 0.000520235 0 1.50077 0 1.50918)
(1.51171 0.00116941 0 1.48778 0 1.51221)
(1.51401 0.00147072 0 1.4747 0 1.51488)
(1.51607 0.00158187 0 1.46127 0 1.5173)
(1.51795 0.00161992 0 1.4475 0 1.5195)
(1.51965 0.00165941 0 1.43348 0 1.52149)
(1.52117 0.00174116 0 1.41935 0 1.52325)
(1.52249 0.00188162 0 1.40524 0 1.52479)
(1.52363 0.00208239 0 1.39127 0 1.5261)
(1.52459 0.00233698 0 1.37752 0 1.5272)
(1.52538 0.0026349 0 1.36405 0 1.5281)
(1.52599 0.00296396 0 1.35093 0 1.52882)
(1.52645 0.00331183 0 1.33818 0 1.52935)
(1.52676 0.00366687 0 1.32585 0 1.52973)
(1.52693 0.0040202 0 1.31395 0 1.52997)
(1.52695 0.00436686 0 1.3025 0 1.53007)
(1.52683 0.00471094 0 1.29152 0 1.53004)
(1.52653 0.00507905 0 1.28102 0 1.52988)
(1.50921 0.000886822 0 1.5003 0 1.50935)
(1.51221 0.00182362 0 1.48616 0 1.51268)
(1.5149 0.00215126 0 1.47146 0 1.51568)
(1.51737 0.00219909 0 1.45605 0 1.51842)
(1.51961 0.00217004 0 1.44012 0 1.52089)
(1.5216 0.00217484 0 1.42392 0 1.52306)
(1.52333 0.00226623 0 1.40767 0 1.52491)
(1.52478 0.00245943 0 1.39156 0 1.52646)
(1.52596 0.00274951 0 1.37572 0 1.52771)
(1.52689 0.00312312 0 1.36025 0 1.52867)
(1.52758 0.00356465 0 1.34522 0 1.52938)
(1.52806 0.00405941 0 1.33066 0 1.52986)
(1.52833 0.00459516 0 1.31662 0 1.53012)
(1.52843 0.00516332 0 1.30311 0 1.53021)
(1.52836 0.00575859 0 1.29014 0 1.53013)
(1.52816 0.00637893 0 1.27769 0 1.52991)
(1.52785 0.00701958 0 1.26575 0 1.52958)
(1.5275 0.00765603 0 1.25429 0 1.52919)
(1.50941 0.00115374 0 1.49989 0 1.50953)
(1.5128 0.00220242 0 1.4844 0 1.51318)
(1.516 0.00244201 0 1.46745 0 1.51658)
(1.51902 0.00238699 0 1.44923 0 1.51972)
(1.52175 0.00228962 0 1.43031 0 1.52247)
(1.5241 0.00226728 0 1.41118 0 1.52478)
(1.52604 0.00237142 0 1.39218 0 1.52664)
(1.52758 0.00261129 0 1.37357 0 1.52805)
(1.52873 0.00297422 0 1.35547 0 1.52906)
(1.52955 0.00344016 0 1.33798 0 1.5297)
(1.53006 0.00398784 0 1.32114 0 1.53003)
(1.5303 0.00459664 0 1.30497 0 1.53009)
(1.53032 0.00524712 0 1.28948 0 1.52991)
(1.53014 0.00592026 0 1.27465 0 1.52953)
(1.5298 0.00659718 0 1.26047 0 1.52899)
(1.52932 0.00725751 0 1.24693 0 1.52831)
(1.5287 0.00788595 0 1.23403 0 1.5275)
(1.52787 0.00849658 0 1.22177 0 1.52654)
(1.50955 0.0017225 0 1.4995 0 1.50965)
(1.51349 0.00298244 0 1.48186 0 1.51378)
(1.5175 0.0032302 0 1.46119 0 1.51783)
(1.52132 0.00328615 0 1.4385 0 1.5215)
(1.52463 0.00342692 0 1.41499 0 1.52455)
(1.52733 0.00373127 0 1.39145 0 1.52691)
(1.52939 0.00421874 0 1.36835 0 1.52859)
(1.53086 0.00487108 0 1.34598 0 1.52965)
(1.53179 0.00565327 0 1.32448 0 1.53016)
(1.53226 0.00653136 0 1.30392 0 1.53021)
(1.53233 0.00747714 0 1.28433 0 1.52987)
(1.53206 0.00846758 0 1.2657 0 1.5292)
(1.5315 0.00948459 0 1.24801 0 1.52826)
(1.5307 0.0105159 0 1.23123 0 1.52709)
(1.52968 0.0115561 0 1.21535 0 1.52574)
(1.52849 0.0126116 0 1.20031 0 1.52423)
(1.52714 0.0136985 0 1.18608 0 1.52259)
(1.52582 0.0148244 0 1.17257 0 1.52094)
(1.50958 0.00209306 0 1.49945 0 1.50966)
(1.51415 0.00345909 0 1.47929 0 1.51426)
(1.51922 0.00386219 0 1.45345 0 1.51901)
(1.52396 0.00427208 0 1.4248 0 1.52312)
(1.52778 0.00486819 0 1.39559 0 1.52614)
(1.53057 0.00565773 0 1.36693 0 1.52807)
(1.53239 0.00664576 0 1.33938 0 1.52901)
(1.53337 0.00780881 0 1.31316 0 1.52911)
(1.53363 0.00910317 0 1.28837 0 1.52853)
(1.53331 0.0104894 0 1.26498 0 1.5274)
(1.53252 0.0119373 0 1.24295 0 1.52583)
(1.53136 0.0134227 0 1.2222 0 1.52393)
(1.52991 0.0149267 0 1.20267 0 1.52177)
(1.52825 0.0164338 0 1.18426 0 1.51943)
(1.52644 0.017929 0 1.16691 0 1.51696)
(1.52454 0.0193865 0 1.15054 0 1.51441)
(1.52265 0.0207639 0 1.13506 0 1.51184)
(1.52058 0.0220109 0 1.12049 0 1.5092)
(1.50975 0.002995 0 1.49899 0 1.5098)
(1.51562 0.00467412 0 1.47378 0 1.51543)
(1.52243 0.00579063 0 1.43881 0 1.52123)
(1.52832 0.00736975 0 1.4004 0 1.52562)
(1.53252 0.00928097 0 1.3621 0 1.52815)
(1.53507 0.0113494 0 1.32531 0 1.52902)
(1.5362 0.0135321 0 1.29059 0 1.52852)
(1.53616 0.0157951 0 1.25812 0 1.52695)
(1.53521 0.0180861 0 1.22791 0 1.52455)
(1.53355 0.0203692 0 1.19985 0 1.52153)
(1.53137 0.0226248 0 1.17379 0 1.51808)
(1.52878 0.0248386 0 1.14959 0 1.5143)
(1.52592 0.026999 0 1.12708 0 1.51032)
(1.52285 0.0290959 0 1.10614 0 1.5062)
(1.51962 0.0311192 0 1.08664 0 1.502)
(1.51626 0.0330676 0 1.06847 0 1.49775)
(1.5127 0.0349565 0 1.05157 0 1.49344)
(1.50922 0.0368747 0 1.03586 0 1.48922)
(1.50955 0.00334621 0 1.4994 0 1.50953)
(1.51696 0.00625705 0 1.46777 0 1.51608)
(1.52588 0.00942413 0 1.41961 0 1.52245)
(1.53252 0.0131432 0 1.36895 0 1.52578)
(1.53609 0.0169585 0 1.3208 0 1.52605)
(1.53709 0.0206791 0 1.27628 0 1.52396)
(1.53615 0.0243556 0 1.2355 0 1.52018)
(1.5338 0.0280215 0 1.19821 0 1.51523)
(1.53045 0.0316275 0 1.16414 0 1.5095)
(1.52642 0.0351384 0 1.13299 0 1.5033)
(1.52195 0.0385406 0 1.10442 0 1.49682)
(1.5172 0.0418266 0 1.07818 0 1.49022)
(1.51231 0.0449922 0 1.05401 0 1.4836)
(1.50738 0.0480399 0 1.03171 0 1.47704)
(1.50247 0.0509748 0 1.01108 0 1.47061)
(1.49767 0.0538063 0 0.991961 0 1.46433)
(1.49321 0.0565254 0 0.974156 0 1.45835)
(1.48899 0.0589674 0 0.957647 0 1.45266)
(1.51072 0.00497694 0 1.49654 0 1.51053)
(1.52207 0.0113473 0 1.44806 0 1.51931)
(1.53419 0.0199329 0 1.37295 0 1.52521)
(1.54098 0.0285744 0 1.29832 0 1.52508)
(1.54244 0.0362536 0 1.23087 0 1.52025)
(1.54001 0.0428719 0 1.17116 0 1.51234)
(1.53504 0.0487667 0 1.11852 0 1.50256)
(1.52859 0.0542212 0 1.07209 0 1.4918)
(1.52124 0.0592746 0 1.03109 0 1.48064)
(1.51344 0.0639747 0 0.994694 0 1.46941)
(1.50548 0.0683719 0 0.962222 0 1.45833)
(1.49754 0.0724994 0 0.933107 0 1.44756)
(1.48975 0.076378 0 0.906877 0 1.43715)
(1.48221 0.080031 0 0.883149 0 1.42718)
(1.47489 0.0834627 0 0.861582 0 1.41761)
(1.46792 0.0866865 0 0.841937 0 1.40852)
(1.46084 0.0896501 0 0.82391 0 1.39963)
(1.45392 0.0924374 0 0.807694 0 1.39123)
(1.50985 0.0057928 0 1.49843 0 1.50915)
(1.52695 0.0254801 0 1.42427 0 1.51751)
(1.54205 0.0456258 0 1.31348 0 1.51586)
(1.54568 0.0605918 0 1.21737 0 1.50429)
(1.54104 0.072201 0 1.13754 0 1.4874)
(1.53134 0.0816123 0 1.07062 0 1.46796)
(1.51921 0.0898371 0 1.01359 0 1.44777)
(1.50652 0.0974167 0 0.964582 0 1.4281)
(1.49378 0.104333 0 0.922157 0 1.40932)
(1.48135 0.110653 0 0.885101 0 1.39157)
(1.46943 0.116456 0 0.852479 0 1.3749)
(1.45819 0.121809 0 0.82356 0 1.35934)
(1.44758 0.126749 0 0.797737 0 1.34477)
(1.4377 0.131332 0 0.774579 0 1.33124)
(1.42847 0.135602 0 0.753627 0 1.31856)
(1.41989 0.139564 0 0.734747 0 1.30682)
(1.41213 0.143419 0 0.717333 0 1.29577)
(1.40579 0.146733 0 0.702172 0 1.28625)
(1.5189 0.0284582 0 1.47294 0 1.51483)
(1.5634 0.112014 0 1.26339 0 1.5187)
(1.58322 0.161039 0 1.03772 0 1.48715)
(1.57567 0.181975 0 0.887063 0 1.44363)
(1.55683 0.192583 0 0.784397 0 1.39973)
(1.53313 0.198874 0 0.711488 0 1.35826)
(1.51042 0.204106 0 0.657327 0 1.32169)
(1.49091 0.209186 0 0.615946 0 1.29073)
(1.47355 0.213981 0 0.583056 0 1.26373)
(1.45809 0.218441 0 0.556197 0 1.23993)
(1.44423 0.22254 0 0.53384 0 1.21871)
(1.43206 0.226338 0 0.514948 0 1.19986)
(1.42109 0.229829 0 0.498722 0 1.1828)
(1.41165 0.233064 0 0.484705 0 1.16765)
(1.40298 0.236063 0 0.47241 0 1.15369)
(1.39576 0.238825 0 0.461625 0 1.14138)
(1.38874 0.241454 0 0.452049 0 1.12975)
(1.38187 0.243662 0 0.443298 0 1.11894)
(1.59274 0.291964 0 1.39581 0 1.52093)
(1.91623 0.578695 0 0.968061 0 1.53309)
(2.06904 0.585627 0 0.732305 0 1.48899)
(2.10353 0.552954 0 0.628166 0 1.43529)
(2.09256 0.525589 0 0.573907 0 1.38572)
(2.06469 0.505451 0 0.540737 0 1.34257)
(2.03084 0.489957 0 0.517676 0 1.30528)
(1.99595 0.477423 0 0.500096 0 1.27296)
(1.96236 0.466905 0 0.485813 0 1.24466)
(1.93089 0.457814 0 0.47376 0 1.21963)
(1.90174 0.4498 0 0.463351 0 1.1973)
(1.87482 0.442641 0 0.454216 0 1.17724)
(1.8501 0.4362 0 0.446114 0 1.15912)
(1.82722 0.430356 0 0.438855 0 1.14264)
(1.80632 0.425024 0 0.432314 0 1.12768)
(1.78674 0.420169 0 0.426399 0 1.11389)
(1.76906 0.415619 0 0.420959 0 1.1014)
(1.75201 0.411404 0 0.4161 0 1.08962)
(0.00726656 0.00225585 0 0.0242292 0 0.0210578)
(0.0201364 1.03004e-05 0 0.0399313 0 0.0489528)
(0.0342892 -0.00159926 0 0.0518335 0 0.0704349)
(0.0453984 -0.00538888 0 0.0578275 0 0.0823941)
(0.0552898 -0.00845969 0 0.0604981 0 0.0908698)
(0.0640718 -0.0104057 0 0.0603155 0 0.0967014)
(0.0718412 -0.0116983 0 0.0594096 0 0.100987)
(0.0785585 -0.0127177 0 0.0581338 0 0.104068)
(0.0844944 -0.013597 0 0.0568248 0 0.106388)
(0.0897825 -0.0144414 0 0.0554664 0 0.108117)
(0.0945988 -0.0152707 0 0.0540998 0 0.109438)
(0.0990391 -0.016085 0 0.0526971 0 0.110436)
(0.103187 -0.0168618 0 0.0512734 0 0.111192)
(0.107077 -0.0175821 0 0.0498331 0 0.111743)
(0.110726 -0.0182314 0 0.0483963 0 0.11212)
(0.114133 -0.0188059 0 0.0469759 0 0.112332)
(0.117287 -0.0193092 0 0.0455857 0 0.112384)
(0.120179 -0.0197515 0 0.0442267 0 0.112267)
(0.122759 -0.0201404 0 0.0429343 0 0.111995)
(0.125488 -0.0205606 0 0.041419 0 0.111402)
(0.127402 -0.0208201 0 0.0402289 0 0.110672)
(0.128995 -0.0211099 0 0.0390926 0 0.109823)
(0.129826 -0.0210577 0 0.0379422 0 0.108675)
(0.129886 -0.0206642 0 0.0365423 0 0.106817)
(0.128975 -0.0200801 0 0.0350432 0 0.104352)
(0.127118 -0.019343 0 0.0334402 0 0.101296)
(0.124333 -0.0184402 0 0.0317192 0 0.0976524)
(0.120549 -0.0173478 0 0.0298376 0 0.0933391)
(0.115698 -0.0160311 0 0.0278161 0 0.0883704)
(0.109452 -0.0145015 0 0.0256188 0 0.0825164)
(0.101585 -0.0127848 0 0.023241 0 0.0756516)
(0.0920384 -0.0109636 0 0.0207018 0 0.0677967)
(0.0810906 -0.00913949 0 0.0180477 0 0.059182)
(0.0689333 -0.00736969 0 0.0152866 0 0.0499437)
(0.0612336 -0.00541336 0 0.0129194 0 0.0436896)
(0.0575471 -0.00340882 0 0.0112404 0 0.0402398)
(0.0575077 -0.0014378 0 0.0104297 0 0.0394749)
(0.0594054 -0.000369436 0 0.0104049 0 0.0404651)
(0.0634408 0.00054148 0 0.0108973 0 0.0430646)
(0.0661251 0.000700498 0 0.0114682 0 0.0451371)
(0.0668393 0.000137714 0 0.0116818 0 0.0457548)
(0.0651445 -0.000489528 0 0.0114621 0 0.0446743)
(0.0596759 -0.000610312 0 0.0107815 0 0.0413543)
(0.0527932 -0.000208116 0 0.00993055 0 0.0372937)
(0.049379 0.000457057 0 0.00958639 0 0.0354692)
(0.0510507 0.0017762 0 0.0100544 0 0.0367616)
(0.0554616 0.00348818 0 0.0113943 0 0.0401209)
(0.062429 0.00539559 0 0.0134891 0 0.0453734)
(0.0718142 0.00735256 0 0.0161653 0 0.0523039)
(0.0845348 0.00936956 0 0.0193509 0 0.0614756)
(0.101131 0.0114555 0 0.022867 0 0.0731886)
(0.117717 0.0135948 0 0.0262976 0 0.0849061)
(0.132847 0.0157493 0 0.0295583 0 0.0956409)
(0.14717 0.0179181 0 0.0327051 0 0.105781)
(0.160878 0.0201488 0 0.0357219 0 0.11538)
(0.173734 0.0223132 0 0.0385893 0 0.124369)
(0.185779 0.0243572 0 0.0413148 0 0.132795)
(0.197113 0.0262854 0 0.0439042 0 0.140716)
(0.207812 0.0281013 0 0.0463665 0 0.148186)
(0.217946 0.0298145 0 0.0487125 0 0.155254)
(0.227584 0.031436 0 0.0509545 0 0.161969)
(0.236788 0.0329779 0 0.0531058 0 0.168379)
(0.245618 0.0344519 0 0.0551796 0 0.174526)
(0.254129 0.0358689 0 0.057189 0 0.180452)
(0.262372 0.037239 0 0.059146 0 0.186196)
(0.270392 0.0385708 0 0.0610621 0 0.191791)
(0.278232 0.039872 0 0.0629473 0 0.197267)
(0.285927 0.0411489 0 0.0648106 0 0.202653)
(0.293511 0.0424065 0 0.0666596 0 0.207971)
(0.30101 0.0436492 0 0.0685008 0 0.213242)
(0.308448 0.0448802 0 0.0703397 0 0.218482)
(0.315844 0.0461021 0 0.0721808 0 0.223707)
(0.323216 0.0473166 0 0.0740275 0 0.228927)
(0.330575 0.0485249 0 0.0758827 0 0.234153)
(0.337931 0.0497279 0 0.0777483 0 0.23939)
(0.345293 0.0509257 0 0.0796257 0 0.244645)
(0.352665 0.0521184 0 0.0815158 0 0.249921)
(0.360049 0.0533054 0 0.0834189 0 0.25522)
(0.367447 0.0544862 0 0.0853349 0 0.260544)
(0.374859 0.0556597 0 0.0872632 0 0.265891)
(0.382281 0.0568249 0 0.0892029 0 0.271261)
(0.389709 0.0579804 0 0.0911527 0 0.27665)
(0.397139 0.0591247 0 0.093111 0 0.282055)
(0.404562 0.0602561 0 0.0950758 0 0.287472)
(0.411971 0.061373 0 0.0970448 0 0.292895)
(0.419354 0.0624733 0 0.0990156 0 0.298316)
(0.4267 0.0635552 0 0.100986 0 0.30373)
(0.433995 0.0646167 0 0.102952 0 0.309126)
(0.441224 0.0656556 0 0.104912 0 0.314498)
(0.448372 0.0666695 0 0.106864 0 0.319835)
(0.455421 0.0676559 0 0.108804 0 0.325128)
(0.462354 0.0686115 0 0.110732 0 0.330367)
(0.469156 0.0695317 0 0.112645 0 0.335546)
(0.475816 0.0704101 0 0.114545 0 0.34066)
(0.482325 0.071239 0 0.11643 0 0.345704)
(0.488673 0.0720127 0 0.118301 0 0.350676)
(0.494845 0.0727267 0 0.120163 0 0.355565)
(0.500846 0.0733718 0 0.122031 0 0.360378)
(0.506761 0.0739851 0 0.123925 0 0.365169)
(0.51261 0.0745809 0 0.125846 0 0.369953)
(0.518397 0.0751508 0 0.127796 0 0.374732)
(0.524115 0.0756937 0 0.129777 0 0.3795)
(0.529752 0.0761987 0 0.131783 0 0.384245)
(0.53529 0.076665 0 0.133798 0 0.38895)
(0.540714 0.0770933 0 0.135818 0 0.393599)
(0.545994 0.0774834 0 0.137833 0 0.398171)
(0.5511 0.077835 0 0.139836 0 0.402641)
(0.556004 0.0781486 0 0.14182 0 0.406991)
(0.560696 0.0784269 0 0.143783 0 0.411213)
(0.565238 0.0786624 0 0.145732 0 0.415355)
(0.569596 0.0788447 0 0.147654 0 0.419391)
(0.573734 0.0789644 0 0.149539 0 0.423301)
(0.577578 0.0790068 0 0.151365 0 0.42704)
(0.581002 0.0789483 0 0.153104 0 0.430539)
(0.583776 0.0787315 0 0.154709 0 0.433687)
(0.585422 0.0781777 0 0.156062 0 0.436214)
(0.585574 0.0767627 0 0.157199 0 0.438203)
(0.586127 0.0754875 0 0.158406 0 0.440302)
(0.586171 0.074037 0 0.159523 0 0.442152)
(0.586115 0.0725228 0 0.160638 0 0.443943)
(0.585787 0.0708928 0 0.161714 0 0.445599)
(0.585284 0.0691707 0 0.162765 0 0.447153)
(0.584636 0.0673032 0 0.163802 0 0.448612)
(0.583782 0.0655664 0 0.164704 0 0.44983)
(0.58267 0.0632572 0 0.165814 0 0.451266)
(0.581718 0.0613011 0 0.166686 0 0.452333)
(0.580769 0.0593152 0 0.167514 0 0.453311)
(0.579503 0.057096 0 0.168372 0 0.454275)
(0.578152 0.0548266 0 0.169188 0 0.455148)
(0.576742 0.0526119 0 0.169924 0 0.455883)
(0.574433 0.0495342 0 0.170855 0 0.456737)
(0.57355 0.0476544 0 0.171429 0 0.457273)
(0.570755 0.0444008 0 0.172226 0 0.457825)
(0.569266 0.0417752 0 0.172938 0 0.458407)
(0.567274 0.0389318 0 0.173575 0 0.45881)
(0.565428 0.0360623 0 0.174213 0 0.459216)
(0.563516 0.0331132 0 0.174813 0 0.459546)
(0.561638 0.0301075 0 0.175393 0 0.45984)
(0.559777 0.0270418 0 0.175945 0 0.460089)
(0.557959 0.0239237 0 0.176474 0 0.460306)
(0.556193 0.0207545 0 0.176984 0 0.460496)
(0.554493 0.017538 0 0.177476 0 0.460662)
(0.552869 0.0142769 0 0.177954 0 0.460811)
(0.551333 0.0109744 0 0.17842 0 0.460947)
(0.549896 0.0076309 0 0.178881 0 0.461078)
(0.548557 0.00424525 0 0.179339 0 0.461205)
(0.547339 0.000793133 0 0.179799 0 0.461342)
(0.546218 -0.00289628 0 0.180303 0 0.461532)
(0.545661 -0.00576509 0 0.180716 0 0.461722)
(0.544582 -0.00991867 0 0.181261 0 0.461896)
(0.544249 -0.0129765 0 0.181718 0 0.462142)
(0.543697 -0.0166392 0 0.182229 0 0.462338)
(0.543392 -0.0204149 0 0.182812 0 0.462626)
(0.543304 -0.0240695 0 0.183407 0 0.462936)
(0.543392 -0.0277784 0 0.184048 0 0.463286)
(0.543673 -0.0315475 0 0.184745 0 0.463688)
(0.544151 -0.0353724 0 0.185506 0 0.464139)
(0.544827 -0.0392635 0 0.186342 0 0.464635)
(0.545686 -0.0432499 0 0.187259 0 0.465165)
(0.546778 -0.0473495 0 0.188265 0 0.46576)
(0.548159 -0.0515591 0 0.189387 0 0.466425)
(0.549865 -0.0562329 0 0.190743 0 0.467204)