/*--------------------------------*- C++ -*----------------------------------*\
| =========                 |                                                 |
| \\      /  F ield         | OpenFOAM: The Open Source CFD Toolbox           |
|  \\    /   O peration     | Version:  v1906                                 |
|   \\  /    A nd           | Web:      www.OpenFOAM.com                      |
|    \\/     M anipulation  |                                                 |
\*---------------------------------------------------------------------------*/
FoamFile
{
    version     2.0;
    format      ascii;
    class       volVectorField;
    location    "1276";
    object      U;
}
// * * * * * * * * * * * * * * * * * * * * * * * * * * * * * * * * * * * * * //

dimensions      [0 1 -1 0 0 0 0];


internalField   nonuniform List<vector> 
12225
(
(9.79726 -0.108749 0)
(9.50669 -0.356753 0)
(9.26436 -0.488265 0)
(9.06593 -0.540811 0)
(8.90295 -0.559437 0)
(8.76181 -0.565108 0)
(8.63561 -0.565538 0)
(8.52228 -0.563508 0)
(8.42045 -0.560096 0)
(8.32868 -0.555879 0)
(8.24597 -0.550949 0)
(8.17018 -0.545318 0)
(8.10101 -0.539463 0)
(8.03819 -0.533643 0)
(7.98234 -0.528056 0)
(7.93451 -0.524064 0)
(7.8959 -0.516462 0)
(7.87279 -0.536668 0)
(10.0492 0.150443 0)
(10.0911 0.25975 0)
(10.0684 0.319249 0)
(10.0256 0.363328 0)
(9.98275 0.392939 0)
(9.93996 0.411581 0)
(9.89715 0.423527 0)
(9.85561 0.431325 0)
(9.81597 0.436168 0)
(9.77799 0.438918 0)
(9.74189 0.44017 0)
(9.70773 0.440372 0)
(9.6756 0.439583 0)
(9.64524 0.438066 0)
(9.61681 0.435341 0)
(9.58927 0.432652 0)
(9.56525 0.425124 0)
(9.53972 0.421248 0)
(10.0166 0.00775867 0)
(10.0499 -0.0105774 0)
(10.0415 -0.0528629 0)
(10.0182 -0.0930395 0)
(9.99667 -0.127443 0)
(9.97698 -0.155808 0)
(9.95811 -0.178116 0)
(9.94035 -0.195487 0)
(9.9237 -0.20926 0)
(9.90798 -0.220435 0)
(9.89299 -0.229527 0)
(9.87898 -0.237003 0)
(9.86579 -0.243253 0)
(9.85384 -0.248922 0)
(9.84253 -0.254113 0)
(9.8326 -0.260199 0)
(9.82346 -0.266266 0)
(9.80738 -0.281175 0)
(10.0096 0.0582938 0)
(10.039 0.0976387 0)
(10.0507 0.115024 0)
(10.0511 0.134096 0)
(10.0492 0.152973 0)
(10.0453 0.169403 0)
(10.0394 0.183393 0)
(10.0326 0.195177 0)
(10.0255 0.204939 0)
(10.0183 0.212981 0)
(10.0112 0.219659 0)
(10.0044 0.22522 0)
(9.99794 0.229752 0)
(9.99214 0.233254 0)
(9.98683 0.235752 0)
(9.98219 0.236907 0)
(9.978 0.236757 0)
(9.97546 0.233857 0)
(10.0094 0.0199274 0)
(10.0406 0.0291289 0)
(10.0562 0.0220001 0)
(10.0605 0.010958 0)
(10.0618 -0.0022322 0)
(10.0614 -0.0166416 0)
(10.0598 -0.0306041 0)
(10.0576 -0.0433555 0)
(10.0554 -0.0548736 0)
(10.0531 -0.0652723 0)
(10.0508 -0.0746543 0)
(10.0486 -0.0831759 0)
(10.0466 -0.091065 0)
(10.0449 -0.0986311 0)
(10.0434 -0.106097 0)
(10.0417 -0.114097 0)
(10.0405 -0.122267 0)
(10.0334 -0.133244 0)
(10.0058 0.0332873 0)
(10.0286 0.0620096 0)
(10.045 0.0731107 0)
(10.0548 0.081187 0)
(10.0625 0.0887358 0)
(10.0684 0.0957809 0)
(10.0725 0.102651 0)
(10.0756 0.109296 0)
(10.078 0.115486 0)
(10.0799 0.121113 0)
(10.0814 0.126177 0)
(10.0829 0.130679 0)
(10.0842 0.134581 0)
(10.0856 0.137777 0)
(10.087 0.140241 0)
(10.0884 0.141712 0)
(10.0895 0.142339 0)
(10.0923 0.142129 0)
(10.0046 0.0160022 0)
(10.0242 0.0297632 0)
(10.0401 0.0320473 0)
(10.0498 0.0302168 0)
(10.057 0.0259248 0)
(10.0623 0.019772 0)
(10.0662 0.0127759 0)
(10.0693 0.00555931 0)
(10.0719 -0.00163759 0)
(10.0743 -0.0086917 0)
(10.0765 -0.0155319 0)
(10.0786 -0.0221683 0)
(10.0806 -0.028676 0)
(10.0826 -0.0352084 0)
(10.0845 -0.0418364 0)
(10.0858 -0.0488752 0)
(10.0869 -0.0559259 0)
(10.0843 -0.0644029 0)
(10.0032 0.0203288 0)
(10.0185 0.0433558 0)
(10.0328 0.0542954 0)
(10.0435 0.0607708 0)
(10.0529 0.0653356 0)
(10.0609 0.0688961 0)
(10.0676 0.0721696 0)
(10.0735 0.0754013 0)
(10.0788 0.0785596 0)
(10.0837 0.0815829 0)
(10.0882 0.0844257 0)
(10.0924 0.0870303 0)
(10.0964 0.0893297 0)
(10.1003 0.0912258 0)
(10.104 0.0926794 0)
(10.1075 0.093588 0)
(10.1106 0.0939898 0)
(10.115 0.0945041 0)
(10.0019 0.0115379 0)
(10.0136 0.0247837 0)
(10.0264 0.0300967 0)
(10.0365 0.0316142 0)
(10.0451 0.0307589 0)
(10.0522 0.0282085 0)
(10.0582 0.0246711 0)
(10.0634 0.020573 0)
(10.068 0.016125 0)
(10.0722 0.011457 0)
(10.0762 0.00665201 0)
(10.0799 0.00173603 0)
(10.0834 -0.00330002 0)
(10.0866 -0.00851461 0)
(10.0896 -0.0139072 0)
(10.092 -0.0195932 0)
(10.0939 -0.0252983 0)
(10.0934 -0.0319037 0)
(10.0017 0.0127306 0)
(10.0116 0.0307159 0)
(10.023 0.0409946 0)
(10.0329 0.0472406 0)
(10.0421 0.0511904 0)
(10.0504 0.0538125 0)
(10.0578 0.055826 0)
(10.0646 0.0575839 0)
(10.0708 0.0592107 0)
(10.0767 0.0607437 0)
(10.0821 0.0621831 0)
(10.0873 0.0634994 0)
(10.0923 0.0646546 0)
(10.097 0.0655944 0)
(10.1014 0.0663055 0)
(10.1056 0.0667763 0)
(10.1095 0.0670277 0)
(10.1143 0.0677642 0)
(10.0007 0.00803236 0)
(10.0075 0.0191767 0)
(10.0171 0.0249963 0)
(10.0261 0.027714 0)
(10.0345 0.0282965 0)
(10.042 0.0273789 0)
(10.0487 0.0254995 0)
(10.0547 0.0229842 0)
(10.0601 0.0200176 0)
(10.0652 0.0167148 0)
(10.0699 0.0131484 0)
(10.0743 0.00935296 0)
(10.0783 0.00534466 0)
(10.0821 0.00111444 0)
(10.0855 -0.00331516 0)
(10.0883 -0.00798583 0)
(10.0907 -0.0127233 0)
(10.0916 -0.0181473 0)
(10.0008 0.0081838 0)
(10.0074 0.0214951 0)
(10.0162 0.0300729 0)
(10.0248 0.0356375 0)
(10.0332 0.0391252 0)
(10.041 0.0412903 0)
(10.0483 0.0426966 0)
(10.0551 0.0436772 0)
(10.0614 0.0444095 0)
(10.0674 0.0449852 0)
(10.0731 0.0454481 0)
(10.0784 0.0458087 0)
(10.0834 0.0460679 0)
(10.0882 0.0462135 0)
(10.0926 0.0462646 0)
(10.0969 0.0462472 0)
(10.1008 0.0461947 0)
(10.1051 0.0467383 0)
(10.0002 0.00573371 0)
(10.0046 0.0146133 0)
(10.0119 0.0198575 0)
(10.0195 0.0227691 0)
(10.0271 0.0238706 0)
(10.0344 0.0236962 0)
(10.0411 0.0226419 0)
(10.0473 0.0209667 0)
(10.0531 0.0188324 0)
(10.0585 0.0163408 0)
(10.0635 0.0135563 0)
(10.0682 0.010517 0)
(10.0725 0.00724663 0)
(10.0765 0.00376067 0)
(10.0801 7.54303e-05 0)
(10.0833 -0.00380833 0)
(10.086 -0.00782798 0)
(10.0881 -0.0124856 0)
(10.0005 0.00538512 0)
(10.005 0.0151636 0)
(10.0118 0.0222069 0)
(10.019 0.0272636 0)
(10.0264 0.030715 0)
(10.0337 0.0330761 0)
(10.0407 0.03474 0)
(10.0474 0.0359754 0)
(10.0537 0.0369547 0)
(10.0597 0.0377823 0)
(10.0654 0.0385208 0)
(10.0707 0.0392037 0)
(10.0758 0.0398551 0)
(10.0805 0.0404885 0)
(10.085 0.0411376 0)
(10.0892 0.0418508 0)
(10.0931 0.0426267 0)
(10.0969 0.0440712 0)
(10.0001 0.00340541 0)
(10.0028 0.00898399 0)
(10.008 0.0123961 0)
(10.0141 0.0142596 0)
(10.0207 0.0148008 0)
(10.0273 0.0143447 0)
(10.0338 0.0131371 0)
(10.0399 0.0113505 0)
(10.0457 0.00910379 0)
(10.0512 0.00647615 0)
(10.0563 0.00352002 0)
(10.0612 0.000272163 0)
(10.0656 -0.00324503 0)
(10.0698 -0.00700879 0)
(10.0736 -0.0110135 0)
(10.0771 -0.0152531 0)
(10.0803 -0.0196647 0)
(10.0833 -0.0246911 0)
(10.0002 0.00302805 0)
(10.0031 0.00893788 0)
(10.008 0.0137484 0)
(10.0137 0.0176371 0)
(10.0199 0.0206917 0)
(10.0262 0.023133 0)
(10.0325 0.025164 0)
(10.0385 0.0269428 0)
(10.0443 0.0285881 0)
(10.0498 0.0301828 0)
(10.055 0.0317846 0)
(10.0599 0.0334313 0)
(10.0644 0.0351533 0)
(10.0686 0.0369699 0)
(10.0725 0.0389045 0)
(10.076 0.0409924 0)
(10.0792 0.043153 0)
(10.082 0.0459151 0)
(10.0001 0.0010084 0)
(10.0022 0.00249134 0)
(10.0063 0.00298029 0)
(10.0115 0.00266896 0)
(10.0174 0.00162611 0)
(10.0235 -3.71762e-05 0)
(10.0298 -0.0022245 0)
(10.036 -0.0048669 0)
(10.0421 -0.00791312 0)
(10.0479 -0.0113251 0)
(10.0536 -0.0150752 0)
(10.059 -0.0191381 0)
(10.0641 -0.0234947 0)
(10.069 -0.0281189 0)
(10.0736 -0.0329856 0)
(10.078 -0.0380703 0)
(10.0822 -0.0432487 0)
(10.0864 -0.0488959 0)
(10 0.000968666 0)
(10.0016 0.00307335 0)
(10.0049 0.00525318 0)
(10.0091 0.00750546 0)
(10.0139 0.00980993 0)
(10.0188 0.0121916 0)
(10.0237 0.0146842 0)
(10.0284 0.0173182 0)
(10.0328 0.0201208 0)
(10.0369 0.0231122 0)
(10.0406 0.0263056 0)
(10.044 0.0297076 0)
(10.047 0.0333174 0)
(10.0495 0.0371315 0)
(10.0518 0.0411222 0)
(10.0536 0.045297 0)
(10.0553 0.0494854 0)
(10.0563 0.0541348 0)
(10.0003 -0.00191387 0)
(10.0031 -0.00588571 0)
(10.008 -0.00982444 0)
(10.0139 -0.013708 0)
(10.0206 -0.0175966 0)
(10.0277 -0.0215646 0)
(10.0351 -0.0256864 0)
(10.0426 -0.0300238 0)
(10.0502 -0.0346194 0)
(10.0577 -0.0394988 0)
(10.0651 -0.0446741 0)
(10.0723 -0.0501459 0)
(10.0794 -0.0559073 0)
(10.0863 -0.0619433 0)
(10.093 -0.0682308 0)
(10.0995 -0.0747471 0)
(10.1054 -0.0813972 0)
(10.1113 -0.0883497 0)
(9.99985 -0.00210687 0)
(10.0009 -0.00537045 0)
(10.0038 -0.00724689 0)
(10.0075 -0.00802403 0)
(10.0116 -0.0078984 0)
(10.0156 -0.00702344 0)
(10.0193 -0.00553818 0)
(10.0227 -0.00355248 0)
(10.0256 -0.00114845 0)
(10.028 0.00161313 0)
(10.0299 0.00469022 0)
(10.0314 0.00805726 0)
(10.0324 0.0117089 0)
(10.033 0.0156514 0)
(10.0333 0.0199194 0)
(10.0332 0.0245471 0)
(10.0331 0.0295607 0)
(10.0325 0.0352228 0)
(10.0006 -0.00470537 0)
(10.005 -0.013671 0)
(10.0115 -0.0209185 0)
(10.0187 -0.0267602 0)
(10.0263 -0.0316061 0)
(10.0342 -0.0358123 0)
(10.0419 -0.039682 0)
(10.0496 -0.0434243 0)
(10.0571 -0.0471595 0)
(10.0644 -0.0509498 0)
(10.0716 -0.0548235 0)
(10.0786 -0.0587927 0)
(10.0855 -0.0628686 0)
(10.0924 -0.0670705 0)
(10.0991 -0.0714488 0)
(10.106 -0.0760779 0)
(10.1127 -0.081067 0)
(10.1198 -0.0867731 0)
(9.99993 -0.00474588 0)
(10.0025 -0.0119573 0)
(10.0076 -0.0160157 0)
(10.013 -0.0178381 0)
(10.0182 -0.0179682 0)
(10.0227 -0.0167587 0)
(10.0266 -0.0145508 0)
(10.0298 -0.0116289 0)
(10.0324 -0.00820311 0)
(10.0345 -0.00443287 0)
(10.0361 -0.000441855 0)
(10.0372 0.00367924 0)
(10.0379 0.00787324 0)
(10.038 0.0121163 0)
(10.0377 0.0164387 0)
(10.0365 0.0209291 0)
(10.035 0.0257672 0)
(10.0318 0.0315053 0)
(10.0012 -0.00957432 0)
(10.0087 -0.0254416 0)
(10.0184 -0.0362095 0)
(10.0277 -0.0439615 0)
(10.0367 -0.0501042 0)
(10.0454 -0.055391 0)
(10.0536 -0.0603312 0)
(10.0613 -0.0651949 0)
(10.0686 -0.0700569 0)
(10.0754 -0.0749054 0)
(10.0819 -0.0797031 0)
(10.0881 -0.0844063 0)
(10.0941 -0.0889734 0)
(10.1 -0.0933768 0)
(10.106 -0.097622 0)
(10.1126 -0.101778 0)
(10.1195 -0.106042 0)
(10.1287 -0.111089 0)
(10.0009 -0.00810122 0)
(10.0084 -0.0182471 0)
(10.0179 -0.0220136 0)
(10.0253 -0.0220606 0)
(10.031 -0.019585 0)
(10.0353 -0.0151568 0)
(10.0385 -0.00946438 0)
(10.0409 -0.00309391 0)
(10.0427 0.0035822 0)
(10.044 0.0103166 0)
(10.0451 0.0169297 0)
(10.0458 0.0232974 0)
(10.0462 0.0293344 0)
(10.0463 0.0349803 0)
(10.0459 0.0401998 0)
(10.0445 0.0450069 0)
(10.0421 0.0495594 0)
(10.0358 0.0546576 0)
(10.0027 -0.0199658 0)
(10.0162 -0.0448958 0)
(10.0301 -0.0584713 0)
(10.0411 -0.0683345 0)
(10.0508 -0.0773026 0)
(10.0594 -0.085909 0)
(10.0667 -0.0944148 0)
(10.073 -0.102851 0)
(10.0785 -0.11104 0)
(10.0833 -0.118819 0)
(10.0876 -0.126101 0)
(10.0914 -0.132849 0)
(10.095 -0.139034 0)
(10.0983 -0.144637 0)
(10.1016 -0.149617 0)
(10.1055 -0.153935 0)
(10.1101 -0.157587 0)
(10.1195 -0.161134 0)
(10.0045 -0.0117391 0)
(10.0233 -0.0210046 0)
(10.037 -0.0181286 0)
(10.043 -0.00988932 0)
(10.0456 0.0014603 0)
(10.0467 0.0147781 0)
(10.0467 0.0285398 0)
(10.046 0.0417458 0)
(10.0452 0.0540165 0)
(10.0443 0.0652431 0)
(10.0433 0.0754041 0)
(10.0422 0.0845267 0)
(10.041 0.0926624 0)
(10.0396 0.0998598 0)
(10.0381 0.10613 0)
(10.0358 0.111436 0)
(10.0329 0.115705 0)
(10.0238 0.119418 0)
(10.0057 -0.0439034 0)
(10.0279 -0.0818163 0)
(10.0434 -0.101285 0)
(10.051 -0.120668 0)
(10.0557 -0.140537 0)
(10.0584 -0.158884 0)
(10.059 -0.175284 0)
(10.0582 -0.189753 0)
(10.0566 -0.202264 0)
(10.0545 -0.212937 0)
(10.0521 -0.221999 0)
(10.0494 -0.229679 0)
(10.0466 -0.236157 0)
(10.0438 -0.241592 0)
(10.041 -0.24607 0)
(10.0387 -0.249621 0)
(10.0367 -0.252064 0)
(10.0416 -0.253138 0)
(10.0127 -0.00410114 0)
(10.0433 0.00727132 0)
(10.0436 0.0413108 0)
(10.029 0.0774617 0)
(10.0138 0.110686 0)
(10.0004 0.139464 0)
(9.98763 0.163111 0)
(9.97566 0.182063 0)
(9.96458 0.197267 0)
(9.95417 0.209555 0)
(9.94423 0.219511 0)
(9.93469 0.227564 0)
(9.92551 0.234043 0)
(9.91662 0.239202 0)
(9.9081 0.243202 0)
(9.89951 0.246145 0)
(9.89143 0.247916 0)
(9.87638 0.248741 0)
(10.0321 -0.126625 0)
(10.0676 -0.225596 0)
(10.0594 -0.280262 0)
(10.0339 -0.322902 0)
(10.008 -0.353512 0)
(9.9831 -0.374033 0)
(9.95835 -0.387994 0)
(9.93445 -0.39764 0)
(9.91186 -0.404165 0)
(9.89045 -0.408332 0)
(9.86999 -0.410702 0)
(9.8504 -0.41169 0)
(9.8316 -0.411589 0)
(9.81359 -0.410627 0)
(9.79627 -0.408961 0)
(9.77998 -0.406839 0)
(9.76433 -0.404201 0)
(9.75798 -0.400587 0)
(9.86117 0.0769215 0)
(9.66243 0.274095 0)
(9.48809 0.393153 0)
(9.34018 0.447739 0)
(9.21733 0.47036 0)
(9.10938 0.479056 0)
(9.01035 0.481319 0)
(8.91878 0.480326 0)
(8.83414 0.47759 0)
(8.75576 0.47383 0)
(8.68301 0.469386 0)
(8.61544 0.464437 0)
(8.55266 0.459086 0)
(8.49426 0.453417 0)
(8.43981 0.447419 0)
(8.38873 0.44126 0)
(8.3407 0.43402 0)
(8.28969 0.426442 0)
(-0.0373324 -0.087616 -3.00817e-19)
(0.0771624 -0.161523 1.63666e-19)
(0.163198 -0.201685 0)
(0.242187 -0.202166 0)
(0.31658 -0.193365 0)
(0.382565 -0.182257 -7.05602e-20)
(0.440493 -0.172063 0)
(0.492478 -0.162515 0)
(0.539734 -0.154083 0)
(0.583135 -0.14648 0)
(0.623154 -0.139683 5.31002e-20)
(0.660118 -0.133485 0)
(0.694163 -0.127823 0)
(0.725371 -0.122589 0)
(0.753783 -0.117726 0)
(0.779447 -0.113154 4.66891e-20)
(0.80238 -0.108802 0)
(0.822575 -0.104577 0)
(0.840044 -0.100357 0)
(0.854383 -0.0960105 0)
(0.865525 -0.091239 0)
(0.872945 -0.0860046 0)
(0.876334 -0.079804 0)
(0.873392 -0.0714565 4.43728e-20)
(0.864195 -0.0609537 -4.47345e-20)
(0.848337 -0.0486206 4.53403e-20)
(0.824977 -0.0348052 4.62143e-20)
(0.793257 -0.0199264 0)
(0.752527 -0.00516105 0)
(0.702711 0.00831614 -5.12216e-20)
(0.644482 0.0195139 -5.40549e-20)
(0.579276 0.0276564 0)
(0.510407 0.0326538 0)
(0.439662 0.034742 -6.78211e-20)
(0.368786 0.0332285 0)
(0.302824 0.026682 0)
(0.245891 0.0151259 9.16248e-20)
(0.200323 -0.000716917 0)
(0.168253 -0.0196282 1.08194e-19)
(0.150803 -0.0368319 2.27527e-19)
(0.1383 -0.047113 0)
(0.121975 -0.0456343 0)
(0.094537 -0.0295879 0)
(0.047337 -0.00752362 0)
(-0.0230263 0.00440904 0)
(-0.0983138 0.0111834 2.40183e-19)
(-0.181124 0.0177712 1.98449e-19)
(-0.271794 0.02233 1.67357e-19)
(-0.36722 0.0244186 0)
(-0.465968 0.0241102 -1.26508e-19)
(-0.563724 0.0227522 0)
(-0.660036 0.0207215 1.02597e-19)
(-0.754786 0.0175012 9.43116e-20)
(-0.846313 0.012868 0)
(-0.933424 0.00708277 0)
(-1.01567 0.0004372 0)
(-1.09276 -0.00682076 7.39849e-20)
(-1.16459 -0.0144018 0)
(-1.23133 -0.0220666 0)
(-1.29326 -0.0296466 0)
(-1.35081 -0.0370374 0)
(-1.4044 -0.0441879 0)
(-1.45448 -0.0510866 0)
(-1.50149 -0.0577491 0)
(-1.54582 -0.0642081 0)
(-1.58783 -0.0705056 -5.67876e-20)
(-1.62781 -0.0766868 0)
(-1.66602 -0.0827971 0)
(-1.70269 -0.0888787 5.38021e-20)
(-1.73799 -0.0949695 5.29286e-20)
(-1.77206 -0.101102 0)
(-1.80502 -0.107304 -5.13148e-20)
(-1.83694 -0.113595 5.05631e-20)
(-1.86791 -0.119992 0)
(-1.89795 -0.126505 -4.91485e-20)
(-1.9271 -0.133138 0)
(-1.95538 -0.139892 0)
(-1.9828 -0.146763 4.72022e-20)
(-2.00934 -0.15374 0)
(-2.035 -0.160813 -4.59949e-20)
(-2.05977 -0.167965 0)
(-2.0836 -0.175176 4.48437e-20)
(-2.10648 -0.182425 4.42858e-20)
(-2.12837 -0.189688 4.37381e-20)
(-2.14922 -0.196938 8.63992e-20)
(-2.16899 -0.204147 -8.53387e-20)
(-2.18763 -0.211288 0)
(-2.20508 -0.218329 0)
(-2.22127 -0.22524 0)
(-2.23614 -0.231986 -8.1232e-20)
(-2.24961 -0.238529 -8.02339e-20)
(-2.26159 -0.244822 7.9246e-20)
(-2.27198 -0.250805 0)
(-2.28071 -0.2564 -7.72994e-20)
(-2.28769 -0.261497 -7.63397e-20)
(-2.29286 -0.265937 -7.53869e-20)
(-2.29614 -0.269506 0)
(-2.29757 -0.272094 0)
(-2.298 -0.27412 0)
(-2.29735 -0.275733 -7.14191e-20)
(-2.29566 -0.276992 0)
(-2.29286 -0.277994 0)
(-2.28894 -0.278879 6.81588e-20)
(-2.28393 -0.279794 0)
(-2.27785 -0.280791 0)
(-2.27066 -0.281894 6.45835e-20)
(-2.26237 -0.283113 0)
(-2.25292 -0.284445 0)
(-2.24228 -0.285877 -6.06618e-20)
(-2.23042 -0.287383 -5.92718e-20)
(-2.21729 -0.288937 0)
(-2.20287 -0.290508 5.63333e-20)
(-2.18714 -0.292062 0)
(-2.17013 -0.293559 -5.31638e-20)
(-2.15185 -0.29497 0)
(-2.13235 -0.296351 -4.9733e-20)
(-2.11175 -0.297913 -4.79126e-20)
(-2.08996 -0.299645 0)
(-2.06685 -0.301415 0)
(-2.04254 -0.303288 0)
(-2.01693 -0.305244 0)
(-1.99007 -0.307297 0)
(-1.96193 -0.309413 0)
(-1.93248 -0.311648 0)
(-1.90179 -0.313991 -3.05859e-20)
(-1.86978 -0.316415 2.80213e-20)
(-1.83645 -0.318899 0)
(-1.80181 -0.321484 0)
(-1.76593 -0.324164 0)
(-1.72874 -0.326916 0)
(-1.69046 -0.329869 2.71396e-20)
(-1.65093 -0.332769 0)
(-1.61009 -0.33585 -1.3856e-20)
(-1.56841 -0.339108 6.79896e-21)
(-1.52529 -0.342373 0)
(-1.48126 -0.345777 0)
(-1.43607 -0.349276 0)
(-1.38989 -0.352884 2.45617e-20)
(-1.34271 -0.356612 3.32716e-20)
(-1.29458 -0.360466 0)
(-1.24554 -0.364446 5.1877e-20)
(-1.19563 -0.368557 6.18215e-20)
(-1.14489 -0.372811 -7.22301e-20)
(-1.09336 -0.377213 0)
(-1.04108 -0.381766 0)
(-0.98806 -0.386476 -1.06575e-19)
(-0.9343 -0.391379 0)
(-0.879967 -0.396586 0)
(-0.825093 -0.401816 0)
(-0.769131 -0.407334 0)
(-0.713124 -0.41313 1.76844e-19)
(-0.656107 -0.419063 1.9339e-19)
(-0.598636 -0.425397 0)
(-0.54054 -0.432013 2.29698e-19)
(-0.481709 -0.438955 0)
(-0.42212 -0.446307 0)
(-0.361716 -0.454073 2.94223e-19)
(-0.30038 -0.462284 0)
(-0.238053 -0.470889 3.46363e-19)
(-0.174536 -0.479511 0)
(-0.109606 -0.488287 0)
(-0.0438029 -0.497467 4.45406e-19)
(0.0234867 -0.500496 0)
(0.0947134 -0.495627 4.57773e-19)
(0.168442 -0.489749 0)
(0.245261 -0.485143 0)
(0.322448 -0.478617 0)
(0.400129 -0.470996 -4.2277e-19)
(0.47896 -0.463699 0)
(0.558951 -0.457119 4.08283e-19)
(0.640552 -0.451135 0)
(0.723214 -0.445516 0)
(0.807542 -0.440174 0)
(0.892074 -0.434968 0)
(0.978208 -0.430051 0)
(1.06119 -0.424984 0)
(1.14745 -0.420151 0)
(1.2185 -0.415622 -7.23115e-19)
(1.30569 -0.409674 0)
(1.30879 -0.412312 0)
(-0.0378605 -0.188607 4.67567e-19)
(0.139029 -0.217697 -2.18049e-19)
(0.16977 -0.219799 0)
(0.208065 -0.177299 7.22801e-20)
(0.240232 -0.149197 0)
(0.273304 -0.119557 2.81971e-20)
(0.304882 -0.100183 -5.33892e-20)
(0.337721 -0.0834578 -5.07665e-20)
(0.369677 -0.0716069 0)
(0.401288 -0.0611312 -4.72413e-20)
(0.431625 -0.0523413 -2.2758e-20)
(0.460372 -0.0437942 0)
(0.48693 -0.0356293 0)
(0.511081 -0.0274543 0)
(0.532663 -0.0194532 0)
(0.551713 -0.011545 -2.08046e-20)
(0.568307 -0.00380398 0)
(0.582595 0.00388924 4.0905e-20)
(0.594694 0.0116454 0)
(0.604751 0.0197421 0)
(0.612774 0.0283308 -4.00084e-20)
(0.619141 0.0378785 0)
(0.623755 0.048542 4.01107e-20)
(0.62903 0.0595575 -2.00575e-20)
(0.63415 0.0705869 2.01772e-20)
(0.638699 0.0821097 -2.02879e-20)
(0.641163 0.0949376 -2.03444e-20)
(0.639568 0.109668 0)
(0.630682 0.126407 0)
(0.610736 0.144049 2.03344e-20)
(0.577804 0.160114 -2.0613e-20)
(0.531621 0.171886 0)
(0.474326 0.177729 0)
(0.409737 0.177279 2.00701e-20)
(0.341305 0.17011 0)
(0.271906 0.155933 0)
(0.204748 0.136168 -2.12232e-20)
(0.140673 0.112228 0)
(0.0763127 0.0880886 2.29815e-20)
(0.00585265 0.0752281 -4.69192e-20)
(-0.074766 0.0810069 0)
(-0.165991 0.101131 0)
(-0.263414 0.128793 -8.42652e-20)
(-0.363035 0.156824 -8.0302e-20)
(-0.46726 0.180913 -7.68209e-20)
(-0.575371 0.200791 3.71612e-20)
(-0.684631 0.216087 -3.52547e-20)
(-0.791322 0.226567 -1.03056e-19)
(-0.892509 0.231835 6.72082e-20)
(-0.986084 0.232002 3.26477e-20)
(-1.07059 0.228247 0)
(-1.14466 0.221722 -3.19175e-20)
(-1.20783 0.213101 3.22763e-20)
(-1.26038 0.203084 0)
(-1.30323 0.192495 0)
(-1.33763 0.182008 0)
(-1.36488 0.172117 -3.05796e-20)
(-1.38628 0.163158 0)
(-1.403 0.155334 6.05377e-20)
(-1.41604 0.148731 0)
(-1.42623 0.143349 5.95179e-20)
(-1.43423 0.139128 0)
(-1.44056 0.135975 -5.86221e-20)
(-1.44561 0.133778 0)
(-1.44967 0.132424 5.78525e-20)
(-1.45293 0.131804 -2.89042e-20)
(-1.45557 0.13182 0)
(-1.45766 0.132386 -5.68976e-20)
(-1.45928 0.133427 -2.81635e-20)
(-1.46048 0.134881 -2.80303e-20)
(-1.46127 0.136696 0)
(-1.46169 0.138829 -2.80761e-20)
(-1.46174 0.141243 -2.76503e-20)
(-1.46144 0.143907 0)
(-1.4608 0.146794 2.73979e-20)
(-1.45983 0.149878 -5.48619e-20)
(-1.45855 0.153136 0)
(-1.45699 0.156544 -2.69945e-20)
(-1.45516 0.16008 0)
(-1.4531 0.163719 8.045e-20)
(-1.45085 0.167436 0)
(-1.44845 0.171202 -7.94793e-20)
(-1.44595 0.17499 -2.61867e-20)
(-1.44342 0.178768 2.64002e-20)
(-1.44092 0.182505 5.24214e-20)
(-1.43852 0.186165 -5.20196e-20)
(-1.43633 0.189714 0)
(-1.43443 0.193111 0)
(-1.43295 0.196318 0)
(-1.432 0.199289 1.48603e-19)
(-1.43173 0.20198 4.8668e-20)
(-1.43228 0.20434 -4.80927e-20)
(-1.43379 0.206318 0)
(-1.43641 0.207858 -4.79225e-20)
(-1.44026 0.208903 4.62411e-20)
(-1.44537 0.209418 4.5582e-20)
(-1.45172 0.209429 0)
(-1.4593 0.209016 0)
(-1.46686 0.20837 0)
(-1.47442 0.20728 4.27117e-20)
(-1.48174 0.205709 0)
(-1.48878 0.203615 -8.35381e-20)
(-1.49541 0.201132 -1.22148e-19)
(-1.50117 0.198631 8.01576e-20)
(-1.50595 0.196145 0)
(-1.50965 0.193704 3.90137e-20)
(-1.51222 0.191316 0)
(-1.51364 0.188976 7.29136e-20)
(-1.51391 0.186673 -3.62899e-20)
(-1.51302 0.184404 -3.5352e-20)
(-1.511 0.182166 0)
(-1.50786 0.179958 -9.68653e-20)
(-1.50361 0.177785 6.30301e-20)
(-1.49828 0.175663 2.95732e-20)
(-1.49186 0.173619 0)
(-1.4843 0.171651 2.7275e-20)
(-1.47558 0.16973 8.00745e-20)
(-1.4655 0.167836 0)
(-1.45415 0.16597 4.91456e-20)
(-1.44143 0.16417 4.66445e-20)
(-1.42735 0.162421 4.40897e-20)
(-1.41189 0.160732 0)
(-1.39502 0.159098 0)
(-1.37676 0.157546 0)
(-1.35708 0.156034 -1.77299e-20)
(-1.33596 0.154551 -1.41415e-20)
(-1.31344 0.153144 0)
(-1.28961 0.151858 -2.46196e-20)
(-1.26441 0.150665 -2.16059e-20)
(-1.23788 0.149578 0)
(-1.21014 0.14858 -1.30245e-20)
(-1.18085 0.147581 -2.44301e-20)
(-1.15061 0.146777 6.51666e-21)
(-1.11883 0.145987 8.15515e-21)
(-1.08596 0.145265 0)
(-1.05183 0.144661 0)
(-1.01657 0.144115 0)
(-0.980161 0.143662 -1.07339e-20)
(-0.942648 0.143297 9.0286e-21)
(-0.904132 0.143028 3.0652e-20)
(-0.864625 0.142829 -2.17428e-20)
(-0.824188 0.142706 2.00055e-20)
(-0.782856 0.142663 2.93503e-20)
(-0.740694 0.14269 0)
(-0.697709 0.142765 0)
(-0.653957 0.142864 -3.54108e-20)
(-0.609328 0.143046 0)
(-0.564306 0.143352 0)
(-0.5182 0.143532 1.01041e-19)
(-0.471933 0.143781 0)
(-0.424847 0.144138 5.59484e-20)
(-0.377202 0.144395 -6.63417e-20)
(-0.328994 0.14463 0)
(-0.280068 0.144816 6.90492e-20)
(-0.230379 0.14488 0)
(-0.180036 0.144883 0)
(-0.128848 0.144734 -8.92774e-20)
(-0.0767458 0.144359 1.81861e-19)
(-0.0234691 0.143675 -9.91288e-20)
(0.0312398 0.142497 0)
(0.0872696 0.140825 0)
(0.145328 0.13872 1.02611e-19)
(0.205673 0.13688 0)
(0.267106 0.136178 1.08036e-19)
(0.330024 0.136299 0)
(0.39391 0.137243 0)
(0.461252 0.136791 0)
(0.532176 0.135542 1.23942e-19)
(0.606184 0.134251 0)
(0.68244 0.133348 -1.27965e-19)
(0.760839 0.132641 0)
(0.840672 0.132434 0)
(0.922397 0.13215 2.60166e-19)
(1.00451 0.132898 -2.63101e-19)
(1.08884 0.133308 0)
(1.17096 0.135965 0)
(1.25683 0.137614 0)
(1.3329 0.145289 8.24438e-19)
(1.42102 0.155405 0)
(1.48013 0.186834 -5.71318e-19)
(-0.130768 -0.364761 8.33229e-22)
(0.123256 -0.320357 2.48481e-19)
(0.059762 -0.312367 0)
(0.116741 -0.26366 -1.08603e-19)
(0.11858 -0.261459 0)
(0.154312 -0.243525 0)
(0.177114 -0.240057 -1.93787e-22)
(0.211331 -0.227556 3.27568e-20)
(0.242685 -0.219943 3.11496e-20)
(0.277824 -0.208558 2.96714e-20)
(0.310672 -0.197837 0)
(0.342632 -0.184677 0)
(0.371372 -0.171407 -2.70848e-20)
(0.397373 -0.157425 -5.28153e-20)
(0.420113 -0.143935 5.15905e-20)
(0.439978 -0.130789 0)
(0.456947 -0.118379 4.94825e-20)
(0.471284 -0.106455 -2.41942e-20)
(0.482956 -0.0948919 0)
(0.491894 -0.0832991 4.70324e-20)
(0.497549 -0.0713884 2.31402e-20)
(0.498351 -0.0594166 -4.60525e-20)
(0.492974 -0.0482574 -2.284e-20)
(0.482225 -0.0370311 0)
(0.467463 -0.0234203 4.5688e-20)
(0.450301 -0.0053426 4.57264e-20)
(0.431867 0.0190928 0)
(0.412205 0.051828 4.58128e-20)
(0.389638 0.0936334 0)
(0.361296 0.141599 4.59375e-20)
(0.324756 0.1897 2.2884e-20)
(0.279257 0.230737 0)
(0.22592 0.259262 0)
(0.167105 0.273937 0)
(0.10545 0.274947 0)
(0.0421537 0.261646 0)
(-0.0235862 0.237688 0)
(-0.0953153 0.214899 4.97052e-20)
(-0.17866 0.204747 -7.2965e-20)
(-0.275122 0.211939 0)
(-0.380704 0.233494 0)
(-0.490207 0.263348 0)
(-0.598847 0.29559 -2.97768e-22)
(-0.702799 0.324319 4.11101e-20)
(-0.800064 0.344655 8.02015e-20)
(-0.889127 0.354995 -7.83082e-20)
(-0.968242 0.355443 -3.86799e-20)
(-1.03642 0.34644 3.76772e-20)
(-1.09356 0.329058 4.94981e-22)
(-1.14006 0.305246 3.76211e-20)
(-1.17755 0.277184 0)
(-1.2075 0.246905 3.7373e-20)
(-1.23133 0.216126 3.63872e-22)
(-1.25088 0.186283 0)
(-1.26763 0.158437 0)
(-1.28281 0.133203 -3.65576e-20)
(-1.29733 0.110829 0)
(-1.31184 0.0912986 0)
(-1.32671 0.0744211 3.57736e-20)
(-1.34216 0.0599065 7.05737e-20)
(-1.35827 0.0474231 -3.48347e-20)
(-1.37506 0.0366357 0)
(-1.39248 0.0272303 3.42508e-20)
(-1.41048 0.0189255 0)
(-1.42899 0.0114789 3.39595e-20)
(-1.44795 0.00468581 3.34788e-20)
(-1.46728 -0.0016221 -6.67393e-20)
(-1.48695 -0.00758176 -3.32769e-20)
(-1.50689 -0.0133025 0)
(-1.52706 -0.0188706 6.54875e-20)
(-1.5474 -0.024353 0)
(-1.56789 -0.0298008 9.69252e-20)
(-1.58846 -0.0352515 6.43272e-20)
(-1.60907 -0.0407322 6.39433e-20)
(-1.62968 -0.04626 -6.35556e-20)
(-1.65024 -0.0518449 9.4583e-20)
(-1.6707 -0.0574894 0)
(-1.69099 -0.0631907 0)
(-1.71108 -0.0689399 -6.19241e-20)
(-1.73091 -0.0747234 -9.20517e-20)
(-1.75042 -0.0805223 0)
(-1.76955 -0.0863132 3.00967e-20)
(-1.78825 -0.0920678 0)
(-1.80647 -0.0977535 -8.91974e-20)
(-1.82415 -0.103333 4.07682e-22)
(-1.84125 -0.108767 -4.16533e-22)
(-1.8577 -0.114011 5.80181e-20)
(-1.87347 -0.119018 0)
(-1.88852 -0.12374 -5.68902e-20)
(-1.90281 -0.128129 4.48902e-22)
(-1.9163 -0.132137 0)
(-1.92896 -0.135723 0)
(-1.94078 -0.138859 0)
(-1.95171 -0.141533 5.34153e-20)
(-1.96174 -0.143767 0)
(-1.97081 -0.145623 0)
(-1.9788 -0.147246 0)
(-1.98563 -0.148806 0)
(-1.99121 -0.150218 0)
(-1.99543 -0.151309 4.98982e-20)
(-1.99822 -0.152029 0)
(-1.99947 -0.152349 4.77374e-20)
(-1.99931 -0.15255 4.68585e-20)
(-1.99808 -0.152965 -4.59422e-20)
(-1.99582 -0.153492 0)
(-1.99257 -0.154136 -4.40087e-20)
(-1.9883 -0.154867 0)
(-1.98302 -0.155666 -4.19523e-20)
(-1.9767 -0.156515 4.08791e-20)
(-1.96933 -0.157401 1.2062e-19)
(-1.9609 -0.158303 0)
(-1.95137 -0.159202 1.1368e-19)
(-1.94073 -0.160085 3.75897e-20)
(-1.92896 -0.160951 0)
(-1.91602 -0.161818 6.87643e-20)
(-1.90184 -0.16274 6.61335e-20)
(-1.88641 -0.163781 -9.44345e-20)
(-1.86974 -0.164911 0)
(-1.85185 -0.16608 -2.81918e-20)
(-1.83272 -0.167292 -2.67451e-20)
(-1.81233 -0.168533 -7.73298e-20)
(-1.79068 -0.169798 0)
(-1.76774 -0.171076 0)
(-1.74351 -0.172369 0)
(-1.71798 -0.173674 -2.06345e-20)
(-1.69118 -0.174959 0)
(-1.66311 -0.176206 0)
(-1.63375 -0.177434 1.40054e-20)
(-1.60311 -0.178634 1.22722e-20)
(-1.57117 -0.179802 0)
(-1.53796 -0.18097 0)
(-1.50353 -0.182056 1.38027e-20)
(-1.46783 -0.183138 0)
(-1.43092 -0.184196 -6.3768e-21)
(-1.39285 -0.185159 -4.38711e-21)
(-1.35359 -0.186094 0)
(-1.31318 -0.186977 0)
(-1.27166 -0.187803 -7.18673e-21)
(-1.22908 -0.188528 -1.8636e-21)
(-1.18545 -0.189177 -1.88005e-21)
(-1.1408 -0.189777 0)
(-1.09517 -0.190304 -4.82357e-20)
(-1.04859 -0.19076 0)
(-1.00107 -0.191161 0)
(-0.952628 -0.191521 0)
(-0.903291 -0.19184 4.16223e-20)
(-0.853174 -0.192009 0)
(-0.802175 -0.192173 -9.61043e-20)
(-0.750325 -0.192303 -5.43176e-20)
(-0.697705 -0.192304 0)
(-0.644173 -0.192327 -6.29131e-20)
(-0.589737 -0.192363 0)
(-0.534435 -0.192396 0)
(-0.478077 -0.192431 -2.23869e-19)
(-0.420808 -0.192453 1.56686e-19)
(-0.362545 -0.192502 0)
(-0.303086 -0.192607 1.74623e-19)
(-0.242396 -0.192769 -9.40493e-20)
(-0.180433 -0.193031 0)
(-0.117107 -0.193545 0)
(-0.0522334 -0.194306 0)
(0.014112 -0.195038 -3.32954e-19)
(0.0816936 -0.196501 0)
(0.150471 -0.198762 -1.19204e-19)
(0.221149 -0.200991 0)
(0.294375 -0.203329 0)
(0.370048 -0.205074 0)
(0.447397 -0.206184 0)
(0.526594 -0.207161 0)
(0.607514 -0.208116 0)
(0.690473 -0.209174 -2.75402e-19)
(0.774873 -0.209979 0)
(0.861227 -0.210872 -1.44557e-19)
(0.947897 -0.211 4.36807e-19)
(1.03676 -0.211302 0)
(1.12335 -0.209758 0)
(1.21368 -0.208845 -3.0237e-19)
(1.2948 -0.203552 -3.09961e-19)
(1.38665 -0.197301 3.1173e-19)
(1.45881 -0.182611 3.25825e-19)
(-0.204532 -0.436027 -6.61382e-19)
(0.129445 -0.330516 -3.42571e-19)
(-0.0136141 -0.335397 -1.30247e-19)
(0.0841867 -0.279812 -4.76509e-20)
(0.0451363 -0.273475 0)
(0.0900762 -0.248701 6.51213e-20)
(0.081347 -0.246961 -2.91115e-20)
(0.109564 -0.235795 0)
(0.118827 -0.232443 -2.48113e-20)
(0.144014 -0.219259 0)
(0.161476 -0.20599 4.52641e-20)
(0.183775 -0.186409 0)
(0.200717 -0.166602 2.09953e-20)
(0.217698 -0.145005 4.07786e-20)
(0.230969 -0.124678 -3.9704e-20)
(0.242776 -0.104598 0)
(0.251801 -0.0858806 -3.79157e-20)
(0.259107 -0.0675995 0)
(0.264444 -0.0496045 0)
(0.268175 -0.0303972 -3.5949e-20)
(0.269219 -0.00736939 0)
(0.265529 0.0215562 -1.48388e-22)
(0.253735 0.0510207 0)
(0.234049 0.0766099 0)
(0.207656 0.0973835 1.70846e-22)
(0.176311 0.114492 -3.47587e-20)
(0.141361 0.1316 -3.51425e-20)
(0.103767 0.154675 -3.5192e-20)
(0.0643157 0.18863 0)
(0.0238363 0.232868 -7.16832e-20)
(-0.0170511 0.280565 0)
(-0.0578532 0.322381 -3.58246e-20)
(-0.098785 0.35143 0)
(-0.140656 0.365191 0)
(-0.184869 0.365075 3.52682e-20)
(-0.234882 0.356643 0)
(-0.295958 0.349212 -3.46288e-20)
(-0.371152 0.350565 3.65016e-22)
(-0.458622 0.36224 6.65202e-20)
(-0.552883 0.381578 -6.53958e-20)
(-0.647333 0.404405 0)
(-0.736572 0.426453 0)
(-0.816608 0.44414 -3.07594e-20)
(-0.884954 0.454363 0)
(-0.940886 0.455128 -2.87515e-20)
(-0.984973 0.446195 2.82367e-20)
(-1.01837 0.42859 2.78334e-20)
(-1.04295 0.404226 0)
(-1.06122 0.375454 -2.73401e-20)
(-1.0756 0.344716 -2.71997e-20)
(-1.08815 0.314144 5.48093e-20)
(-1.10045 0.285094 -2.6984e-20)
(-1.11362 0.258643 -2.6883e-20)
(-1.12827 0.235376 0)
(-1.14459 0.215419 0)
(-1.16246 0.198633 2.65042e-20)
(-1.18162 0.184716 0)
(-1.20174 0.173305 0)
(-1.22249 0.164037 -5.20434e-20)
(-1.2436 0.156578 -5.17165e-20)
(-1.26484 0.150637 0)
(-1.28605 0.145966 0)
(-1.3071 0.142354 0)
(-1.32791 0.139626 0)
(-1.34844 0.137632 -5.02993e-20)
(-1.36865 0.13625 5.03591e-20)
(-1.38852 0.135374 4.98502e-20)
(-1.40805 0.134919 9.9585e-20)
(-1.42723 0.134813 0)
(-1.44605 0.134996 3.02894e-22)
(-1.46452 0.135421 0)