/*--------------------------------*- C++ -*----------------------------------*\
| =========                 |                                                 |
| \\      /  F ield         | OpenFOAM: The Open Source CFD Toolbox           |
|  \\    /   O peration     | Version:  2112                                  |
|   \\  /    A nd           | Website:  www.openfoam.com                      |
|    \\/     M anipulation  |                                                 |
\*---------------------------------------------------------------------------*/
FoamFile
{
    version     2.0;
    format      ascii;
    arch        "LSB;label=32;scalar=64";
    class       volScalarField;
    location    "0";
    object      yPlus;
}
// * * * * * * * * * * * * * * * * * * * * * * * * * * * * * * * * * * * * * //

dimensions      [0 0 0 0 0 0 0];

internalField   uniform 0;

boundaryField
{
    rotor
    {
        type            calculated;
        value           nonuniform List<scalar> 
200
(
305.706617639
306.044174343
308.224530986
311.934295312
313.057359035
313.838627955
313.711727405
313.723339632
313.61541769
313.59004625
313.563987854
313.558500751
313.555522371
313.555241894
313.55443771
313.55488062
313.555369816
313.554773161
313.555214791
313.554730035
313.55518745
313.554941671
313.55527819
313.554956416
313.555522381
313.555039981
313.554623863
313.555223211
313.554742602
313.55513305
313.554614667
313.555174484
313.554938878
313.55508916
313.555063527
313.555054988
313.596559673
313.596904474
313.596300023
313.596724534
313.596230722
313.596616321
313.596010486
313.596501818
313.555058528
313.555223026
313.554925337
313.555394475
313.554852299
313.555277668
313.554809765
313.555374282
313.596967199
313.596331879
313.596817236
313.596310925
313.596399526
313.596518589
313.59609731
313.596720613
313.554931332
313.555207032
313.555014495
313.555002679
313.55485598
313.555217815
313.596284963
313.596693416
313.554778098
313.596247153
313.555167039
313.596869382
313.596441981
313.596035631
313.596795735
313.596425968
313.554662847
313.554899744
313.554820667
313.555345128
313.596580154
313.596166019
313.596696594
313.596128307
313.554940094
313.555123463
313.555190341
313.554688515
313.596627003
313.596392954
313.596575507
313.596694256
313.596262521
313.596760887
313.596553925
313.596892666
313.59635205
313.595947072
313.596618067
313.596292205
313.596794263
313.596313507
313.596758368
313.59634164
313.596783261
313.596098526
313.59642341
313.596767029
313.59613725
313.596641739
313.596252836
313.596684978
313.59617657
313.596651602
313.596190108
313.596586645
313.596172644
313.596876173
313.596479864
313.596067261
313.596816484
313.596374441
313.596463539
313.596614907
313.596152747
313.596547206
313.596275661
313.596833419
313.596587757
313.597142167
313.597226564
313.597501871
313.59751119
313.596468715
313.593038279
313.555257572
313.55472398
313.555175473
313.554870906
313.555037858
313.555058772
313.555074422
313.555076282
313.555080652
313.55524276
313.554944013
313.555425788
313.554946822
313.555461535
313.555023633
313.555531144
313.555033469
313.555172928
313.555336839
313.554886419
313.555408758
313.554924069
313.555358851
313.554830513
313.555325489
313.555205352
313.555039478
313.555449774
313.554871085
313.555331416
313.554927137
313.555480491
313.555287222
313.556723441
313.558998094
313.564327699
313.571446606
313.580524855
313.587928059
313.593600042
313.595620117
313.596059617
313.59675416
313.596081485
313.596447667
313.596992189
313.596665576
313.596857984
313.596313756
313.596683482
313.596519865
313.596502893
313.596502464
313.596504386
313.59634103
313.596632635
313.596214298
313.59695371
313.596503268
313.596043273
313.596679084
313.596177397
313.59654602
313.596171546
307.554048142
)
;
    }
    box1_wall
    {
        type            calculated;
        value           nonuniform List<scalar> 
50
(
313.586509482
313.578357098
313.569175202
313.562497697
313.557777304
313.556270618
313.555250542
313.555429183
313.555000769
313.55531857
313.554892317
313.555344654
313.555162898
313.555507776
313.554940908
313.554400902
313.555058823
313.555546944
313.554883425
313.555364566
313.555015347
313.555379792
313.555066216
313.55547642
313.55499369
313.555121517
313.555220018
313.554796486
313.555496042
313.555098032
313.555368686
313.554996828
313.555309098
313.554957728
313.555455792
313.554810666
313.555693806
313.55880844
313.562340084
313.590770973
313.603130598
313.723472403
313.666268266
313.820145795
312.927140034
311.828503788
307.942703705
305.8486329
305.698192086
307.203505585
)
;
    }
    outlet
    {
        type            calculated;
        value           uniform 0;
    }
    box2_wall
    {
        type            calculated;
        value           nonuniform List<scalar> 
55
(
305.992184022
306.013179632
308.102819928
311.860824256
313.009981712
313.82194902
313.704086109
313.72282334
313.615649479
313.590655998
313.564268706
313.558855587
313.555868966
313.554776625
313.555225973
313.554802138
313.55531213
313.554901755
313.555447981
313.554943916
313.555215099
313.555073346
313.554944251
313.555259262
313.554812915
313.555310274
313.554620732
313.55501626
313.555466179
313.554694575
313.55496543
313.555364872
313.554987376
313.555158428
313.554662459
313.555747238
313.558846581
313.56232555
313.590723179
313.603076018
313.723422877
313.666222478
313.820104285
312.9271068
311.828435999
307.942145426
305.845675441
305.687127229
306.854580192
307.008725766
307.178286474
307.364803283
307.56997231
307.79565869
307.195403905
)
;
    }
    box3_wall
    {
        type            calculated;
        value           nonuniform List<scalar> 
56
(
237.939711718
290.932336074
301.371988328
305.504248401
308.879610161
311.01045542
312.540858702
313.132707163
313.432114342
313.495184964
313.527167482
313.533309729
313.536427475
313.537450956
313.537200548
313.537502861
313.537018743
313.537569369
313.537082157
313.537468211
313.537005519
313.537492862
313.537059748
313.537517169
313.537081933
313.537641225
313.537180375
313.537472169
313.537137331
313.537419216
313.536946456
313.537488934
313.537030798
313.537457895
313.537002213
313.537588205
313.537019482
313.537593285
313.540731062
313.54444374
313.572834564
313.585205442
313.70561594
313.648844296
313.803220322
312.911368238
311.813462748
307.92875839
305.831789696
305.671154477
306.822877866
306.934223804
307.056703257
307.191430714
307.339630814
307.50264985
)
;
    }
    stator1_wall
    {
        type            calculated;
        value           nonuniform List<scalar> 
101
(
313.596733217
313.596577043
313.596395626
313.59666785
313.596223537
313.596837982
313.596304241
313.596730209
313.5965825
313.596990443
313.596575656
313.596251917
313.596882454
313.596358195
313.59683473
313.596534304
313.596845916
313.596555333
313.597015081
313.596427736
313.596883831
313.596471074
313.596986577
313.596441514
313.596715
313.596631546
313.59688408
313.596348411
313.596868304
313.596450324
313.597077704
313.596686281
313.59625503
313.596793748
313.596316719
313.596788216
313.596203096
313.596495149
313.59683865
313.596360198
313.596594721
313.596390708
313.596584236
313.596173204
313.596611899
313.596380438
313.596759487
313.596170541
313.596711285
313.596315766
313.596668227
313.596578432
313.596918036
313.596361893
313.596506901
313.596626644
313.596223434
313.596844453
313.596377296
313.596766769
313.596233885
313.596739022
313.596414853
313.595844461
313.592566118
313.5863476
313.554214883
313.490521366
313.18672566
312.578833425
311.017436639
308.861065206
305.502977718
301.440440794
291.033494941
237.976445078
278.151071241
303.300235747
310.623078126
312.867518969
313.453985001
313.57302177
313.59338175
313.596089096
313.596785889
313.596487462
313.596823466
313.596309335
313.596676972
313.596458369
313.596712147
313.596415151
313.596679429
313.596444468
313.596824324
313.596383763
313.596087901
313.596736495
313.596295781
313.596850959
313.596411501
)
;
    }
    stator2_wall
    {
        type            calculated;
        value           nonuniform List<scalar> 
91
(
275.566971398
202.183412109
190.113547484
252.936196242
231.297503497
223.147761025
275.603695653
202.169118735
190.1387269
218.861276137
208.631714908
275.602637873
275.595108447
202.172880006
190.132561746
231.313416585
223.141838486
257.9210853
237.73415076
218.865308617
208.624237574
257.913735696
237.742063291
231.315828723
223.141009034
218.857346204
208.619634524
202.163253142
190.133653827
275.592285566
218.867098941
208.616624248
202.170666597
190.127555859
231.31700405
223.131154664
275.582716908
202.177724028
190.124691521
218.869318552
208.614557522
257.925277518
237.723327726
275.577672743
257.922702486
237.720579789
231.323371963
223.119282982
218.865133261
208.599290519
202.172173316
190.116764719
231.321612904
223.116797754
257.93043723
237.709033124
218.874194235
208.60109459
257.919375948
237.737711801
231.326396585
223.138280015
275.230416399
213.074827347
206.099333982
200.5084827
189.569326112
243.02617916
223.881895616
218.734077463
215.454245689
257.779394736
237.71172253
231.015932226
222.535087184
275.243048457
202.185382436
190.863540432
218.339633073
208.185510041
275.491964153
218.877185045
208.587622074
202.178662645
190.091225219
257.930741087
237.709252162
231.336298578
223.109490023
257.836124846
237.44091674
)
;
    }
    stator3_wall
    {
        type            calculated;
        value           nonuniform List<scalar> 
86
(
299.66542497
248.879729996
187.775968224
229.365038031
265.446270728
294.986543703
203.14868503
247.808025079
244.490879765
184.093118912
223.996506669
295.086896713
244.697089059
184.378849098
224.895039943
299.697830818
248.900543288
187.78230614
229.420257431
265.470034309
203.159917776
247.888080654
259.382408511
196.743514155
236.40786226
271.551697523
206.585814944
251.770333281
265.453075964
299.687268209
248.889708753
187.773357118
229.386874798
203.155951158
247.864188003
295.07604718
244.689906882
184.377352191
224.87057691
259.373192363
196.740407931
236.379648623
271.539938473
206.579688044
251.732738351
263.102845303
198.760115167
240.071703187
257.58508844
194.262296467
230.828881577
282.16583615
285.191460609
244.715831745
184.990299474
227.034974314
263.223173983
294.376478488
201.949023832
247.12334449
244.509966707
184.323201973
224.903012856
271.560018104
206.588413791
251.812577666
299.710787043
248.905332533
265.470063726
187.778094636
229.428444354
203.162217443
247.912543556
295.101943393
244.706146029
184.381663557
224.914708502
259.390204467
196.74634889
236.429861965
271.560560318
206.587550604
251.790887027
259.374458985
196.740342448
236.437763492
)
;
    }
    nozzle_wall
    {
        type            calculated;
        value           nonuniform List<scalar> 
100
(
289.872804414
306.414989483
311.272124884
312.779504491
313.175233326
313.252946337
313.26548942
313.267111824
313.267556374
313.26728788
313.267691522
313.26748753
313.267097247
313.267611881
313.26715565
313.267681213
313.267286147
313.267532514
313.26717224
313.267869698
313.267419005
313.266987746
313.267621356
313.267241409
313.267737007
313.267172966
313.267541352
313.267855625
313.267127574
313.267631342
313.267422194
313.267522823
313.267110785
313.26760699
313.26724693
313.267380365
313.267521155
313.267223704
313.267719169
313.26722627
313.267768709
313.267218064
313.267311923
313.267140171
313.267697703
313.267113908
313.267490198
313.26720975
313.267576953
313.267051966
313.267531797
313.267073894
313.267605693
313.267254397
313.267639458
313.267364553
313.267795438
313.267314698
313.267439154
313.267522971
313.267050042
313.267609834
313.267059192
313.267449157
313.26725778
313.267638106
313.267032333
313.267608555
313.267447299
313.267709345
313.267438088
313.267614311
313.267184454
313.267541046
313.267086764
313.267468647
313.267821448
313.267275979
313.267905719
313.267493157
313.267615371
313.267702183
313.267197931
313.26771754
313.267151073
313.26764329
313.268135459
313.271173641
313.276651223
313.302996207
313.32790482
313.435085452
313.416479189
313.535053252
312.724262228
311.577819283
307.824051863
305.739538805
305.719400365
307.070998634
)
;
    }
    inlet
    {
        type            calculated;
        value           uniform 0;
    }
    axis
    {
        type            calculated;
        value           nonuniform List<scalar> 0();
    }
    bottomEmptyFaces
    {
        type            wedge;
    }
    topEmptyFaces
    {
        type            wedge;
    }
}


// ************************************************************************* //
