/*--------------------------------*- C++ -*----------------------------------*\
| =========                 |                                                 |
| \\      /  F ield         | OpenFOAM: The Open Source CFD Toolbox           |
|  \\    /   O peration     | Version:  v1906                                 |
|   \\  /    A nd           | Web:      www.OpenFOAM.com                      |
|    \\/     M anipulation  |                                                 |
\*---------------------------------------------------------------------------*/
FoamFile
{
    version     2.0;
    format      ascii;
    class       volScalarField;
    location    "900";
    object      epsilon;
}
// * * * * * * * * * * * * * * * * * * * * * * * * * * * * * * * * * * * * * //

dimensions      [0 2 -3 0 0 0 0];


internalField   nonuniform List<scalar> 
12225
(
8534.02
8352.97
7991.43
7605.24
7244.55
6922.77
6639.61
6394.18
6175.92
5989.88
5817.05
5678.2
5567.01
5477.82
5396.47
5338.74
5269.35
5244.03
612.839
1496.61
1698.5
1689.03
1643.03
1564.92
1506.93
1460.9
1422.62
1390.06
1362.63
1338.47
1319.88
1303.52
1289.95
1278.76
1264.4
1255.72
136.092
458.851
618.688
686.905
717.288
720.643
717.537
710.185
700.22
689.656
679.63
669.62
660.547
652.019
643.991
637.341
629.073
625.209
58.4939
196.181
292.426
349.163
383.801
402.624
412.96
418.151
419.586
419.039
417.497
414.741
411.551
408.132
404.501
401.273
396.886
395.212
35.9829
104.797
162.953
203.26
231.263
250.084
262.817
271.449
277.07
280.605
282.777
283.855
284.056
283.832
283.219
282.402
280.857
280.798
26.8376
65.6334
102.216
130.423
151.685
167.441
179.135
187.864
194.343
199.126
202.669
205.246
207.044
208.284
209.084
209.568
209.677
210.225
22.3043
46.1289
70.086
90.0231
105.966
118.521
128.39
136.178
142.327
147.186
151.04
154.095
156.499
158.389
159.866
161.018
161.845
162.887
19.7657
35.3022
51.5618
65.8837
77.8817
87.7537
95.8392
102.469
107.915
112.397
116.097
119.159
121.693
123.792
125.533
126.978
128.16
129.412
18.225
28.7914
40.1553
50.6099
59.7064
67.4536
74.0034
79.5346
84.2099
88.1684
91.5291
94.3896
96.8287
98.9122
100.696
102.226
103.547
104.842
17.2354
24.6376
32.7693
40.5136
47.4707
53.5686
58.8604
63.438
67.3966
70.8233
73.7952
76.3782
78.6279
80.591
82.308
83.8143
85.149
86.4126
16.5719
21.8682
27.7955
33.6054
38.971
43.7928
48.0724
51.8513
55.1824
58.1189
60.7104
63.0008
65.0287
66.8272
68.426
69.8515
71.1348
72.3319
16.15
20.1179
24.628
29.1491
33.4178
37.3321
40.8702
44.0466
46.8899
49.4327
51.7073
53.7439
55.5696
57.2086
58.6828
60.0126
61.2216
62.3437
15.8382
18.8306
22.2845
25.8206
29.2304
32.418
35.35
38.0239
40.4522
42.6529
44.6461
46.4516
48.0881
49.573
50.9222
52.1511
53.277
54.3215
15.58
17.7729
20.3479
23.0452
25.7063
28.2469
30.6285
32.8379
34.8754
36.7483
38.4666
40.042
41.4861
42.8103
44.0257
45.1431
46.1742
47.1324
15.3746
16.9399
18.8139
20.8268
22.863
24.8525
26.7568
28.5564
30.2438
31.8181
33.2822
34.6412
35.9012
37.0689
38.1511
39.1549
40.0878
40.9578
15.2202
16.3202
17.6661
19.1521
20.697
22.2453
23.7609
25.2221
26.6164
27.9376
29.1835
30.3545
31.4525
32.4805
33.4422
34.3416
35.183
35.9707
15.1154
15.9033
16.8898
18.01
19.2075
20.4382
21.6703
22.8815
24.057
25.1875
26.2674
27.2941
28.2667
29.1857
30.0524
30.8688
31.6372
32.3593
15.0629
15.6954
16.5005
17.433
18.4493
19.5122
20.5927
21.6691
22.7258
23.7521
24.741
25.6883
26.5916
27.4502
28.2644
29.0349
29.7635
30.452
15.079
15.7586
16.6173
17.6042
18.6721
19.7825
20.9058
22.0206
23.1116
24.1686
25.1851
26.1573
27.0831
27.9621
28.7945
29.5811
30.323
31.021
15.1988
16.2331
17.5009
18.9061
20.3741
21.8527
23.3076
24.7172
26.0687
27.3553
28.5739
29.7242
30.8071
31.8249
32.78
33.6749
34.5119
35.2919
15.4072
17.0668
19.0416
21.1516
23.2777
25.3493
27.3285
29.1972
30.9486
32.5829
34.1038
35.517
36.8289
38.0464
39.1761
40.2236
41.1933
42.0856
15.7671
18.5251
21.7125
24.9938
28.1797
31.18
33.9607
36.5157
38.8532
40.9872
42.9341
44.7107
46.333
47.8158
49.1729
50.4156
51.5525
52.5824
16.3868
21.0661
26.3186
31.5141
36.3627
40.768
44.7225
48.2531
51.3995
54.2034
56.7048
58.9396
60.9403
62.7353
64.3501
65.8063
67.1213
68.2871
17.4988
25.6605
34.5312
42.8948
50.3484
56.8508
62.482
67.3456
71.5475
75.1845
78.34
81.085
83.4795
85.5741
87.4141
89.0362
90.4785
91.7188
19.6475
34.5758
50.1057
63.8339
75.3849
84.9747
92.9212
99.4933
104.941
109.473
113.253
116.416
119.068
121.296
123.179
124.772
126.162
127.292
24.2998
53.904
82.4125
105.382
123.269
137.153
147.967
156.316
162.799
167.853
171.786
174.843
177.208
179.016
180.417
181.459
182.32
182.865
36.4922
103.326
158.514
197.277
224.162
242.913
255.97
264.573
270.365
274.173
276.49
277.761
278.245
278.147
277.799
277.055
276.307
275.268
81.6127
262.53
372.089
433.132
466.557
484.646
492.88
493.524
492.298
489.379
485.167
480.521
475.773
470.884
466.299
461.544
457.59
453.239
390.158
975.286
1160.2
1205.55
1197.7
1174.14
1134.8
1095.01
1063.62
1037.76
1015.75
996.666
980.056
965.278
952.439
940.71
930.831
921.434
6457.22
6260.42
5992.28
5735.7
5500.23
5289.39
5101.11
4933.57
4784.64
4651.88
4533.08
4426.2
4329.89
4242.34
4163.21
4090.3
4024.57
3962.68
7.69976
10.4397
18.3039
23.0647
27.1027
30.0768
32.7488
34.89
36.8286
38.4527
39.9164
41.1653
42.2681
43.1889
43.9531
44.5303
44.938
45.1649
45.1929
45.1116
44.8288
44.3249
43.6399
42.678
41.2818
38.8729
35.3913
30.6496
24.2064
17.0716
11.4442
8.36408
8.60427
11.694
16.3237
21.7786
27.9199
34.1023
39.5555
44.5324
49.058
53.2563
57.202
60.9549
64.5576
68.0406
71.4249
74.7259
77.954
81.118
84.2233
87.2751
90.2767
93.232
96.1406
99.0048
101.826
104.606
107.344
110.043
112.701
115.32
117.898
120.434
122.93
125.382
127.792
130.155
132.474
134.745
136.963
139.124
141.224
143.259
145.23
147.147
149.021
150.859
152.664
154.44
156.198
157.942
159.686
161.438
163.215
165.029
166.901
168.843
170.877
173.018
175.285
177.699
180.282
183.054
186.035
189.243
192.697
196.418
200.427
204.749
209.411
214.442
219.881
225.766
232.145
239.068
246.591
254.772
263.677
273.367
283.909
295.362
307.783
321.217
335.695
351.229
367.8
385.362
403.819
423.015
442.68
462.432
481.9
501.087
520.154
539.85
560.126
580.844
601.585
618.663
628.386
632.146
629.081
624.34
618.272
610.547
600.756
588.602
574.675
557.529
521.829
450.931
345.807
222.644
140.899
120.859
134.986
170.23
214.097
260.791
300.811
342.182
380.326
414.338
449.705
485.256
518.694
547.648
573.284
598.225
604.011
597.64
584.142
566.473
546.228
524.897
503.66
483.255
464.236
446.77
430.937
416.59
403.787
392.102
381.76
371.839
363.064
353.946
345.132
309.465
18.882
14.1595
14.0344
14.8139
15.687
16.5541
17.3272
18.0537
18.7044
19.3023
19.8308
20.3044
20.7235
21.1027
21.4491
21.7728
22.0784
22.3689
22.6444
22.9094
23.1713
23.4524
23.7744
24.1802
24.7018
25.2914
25.8907
26.4308
26.8562
27.2798
27.7586
28.3879
29.2728
30.3775
31.5441
32.6507
33.6835
34.6457
35.5326
36.3718
37.2123
38.086
39.0077
39.9794
40.996
42.0489
43.1284
44.2257
45.3323
46.4404
47.5437
48.6375
49.7181
50.7827
51.8293
52.8566
53.8637
54.8501
55.8156
56.7601
57.6839
58.5872
59.4705
60.3343
61.1792
62.0059
62.8154
63.6087
64.387
65.1514
65.9034
66.6446
67.377
68.103
68.826
69.5505
70.2819
71.0259
71.7881
72.5743
73.3902
74.2415
75.1337
76.0728
77.0645
78.115
79.2299
80.4154
81.6765
83.018
84.4453
85.9645
87.5817
89.3027
91.133
93.0782
95.144
97.3362
99.661
102.125
104.734
107.496
110.419
113.509
116.774
120.221
123.855
127.681
131.703
135.921
140.332
144.931
149.707
154.64
159.708
164.878
170.111
175.368
180.617
185.843
191.07
196.421
202.188
209.036
217.486
227.143
236.941
246.496
255.334
262.752
268.327
272.185
274.093
274.564
273.983
271.99
268.362
262.7
253.432
237.949
215.305
187.091
156.925
128.255
118.678
122.707
134.005
146.427
155.662
160.377
162.334
165.26
172.207
186.318
201.332
214.532
225.557
234.302
240.771
243.997
242.076
237.75
231.994
225.151
217.568
209.572
201.42
193.33
185.389
177.757
170.544
163.797
157.529
151.731
146.356
141.391
136.737
132.251
129.419
126.626
40.2198
20.5734
17.4836
16.5229
16.4561
16.5904
16.9069
17.2837
17.6892
18.1173
18.5294
18.936
19.332
19.7361
20.1634
20.6291
21.1307
21.6596
22.2118
22.7867
23.3907
24.0373
24.7456
25.5347
26.4172
27.3853
28.4143
29.4661
30.4974
31.414
32.2007
32.8973
33.5521
34.1721
34.75
35.2944
35.8256
36.3691
36.9548
37.6006
38.301
39.0494
39.8391
40.6624
41.5107
42.3759
43.2499
44.1254
44.997
45.862
46.7182
47.564
48.3983
49.2205
50.0302
50.8277
51.6133
52.3875
53.1512
53.9053
54.6506
55.3884
56.1197
56.8459
57.5682
58.2879
59.0067
59.726
60.4476
61.1733
61.9051
62.6452
63.3961
64.1602
64.9407
65.7408
66.564
67.4138
68.2936
69.2067
70.1562
71.145
72.176
73.2521
74.376
75.5504
76.7779
78.061
79.4021
80.8033
82.2669
83.796
85.3939
87.0636
88.8082
90.6308
92.5344
94.522
96.5965
98.7603
101.016
103.364
105.807
108.344
110.976
113.699
116.51
119.406
122.38
125.423
128.527
131.682
134.878
138.103
141.35
144.612
147.887
151.183
154.519
157.935
161.481
165.247
169.338
173.857
178.788
183.976
188.913
193.366
197.144
200.082
202.042
202.946
203.045
202.035
200.014
196.907
192.454
186.154
177.131
164.744
149.484
134.393
122.445
116.5
118.448
125.593
133.828
139.034
139.727
137.041
134.579
134.482
138.235
145.441
153.107
159.862
165.524
169.619
171.615
171.383
169.11
165.737
161.571
156.804
151.778
146.585
141.305
136.03
130.843
125.828
121.036
116.499
112.227
108.241
104.525
101.083
97.8304
94.8254
92.2258
90.5953
50.623
26.3859
21.1855
19.4396
18.7667
18.5996
18.6668
18.8983
19.1991
19.5626
19.9432
20.3506
20.7737
21.2296
21.7184
22.2533
22.8454
23.5086
24.2322
25.0017
25.8045
26.6242
27.4486
28.2701
29.0843
29.8843
30.6558
31.377
32.0268
32.6048
33.1501
33.7266
34.3724
35.0917
35.8827
36.7475
37.6744
38.6446
39.641
40.6474
41.6538
42.6512
43.6323
44.5924
45.5293
46.4421
47.3314
48.1988
49.0463
49.8752
50.6872
51.4844
52.2688
53.0428
53.8086
54.5684
55.3242
56.078
56.8315
57.5864
58.3441
59.1062
59.8739
60.6486
61.4313
62.2235
63.0264
63.8413
64.6698
65.5136
66.3743
67.2539
68.1542
69.0776
70.026
71.0018
72.0072
73.044
74.1142
75.2192
76.3605
77.5394
78.7569
80.0141
81.3119
82.6512
84.033
85.4582
86.9277
88.4426
90.0045
91.6153
93.2774
94.9934
96.7659
98.5973
100.49
102.447
104.469
106.557
108.713
110.936
113.223
115.574
117.984
120.448
122.962
125.519
128.113
130.732
133.369
136.012
138.655
141.29
143.913
146.521
149.114
151.699
154.284
156.899
159.575
162.345
165.245
168.326
171.673
174.892
177.758
180.148
182.01
183.305
183.95
184.087
183.433
181.843
179.291
175.724
171.008
164.801
156.755
147.073
136.756
127.841
122.107
120.067
121.702
125.405
128.384
128.886
126.947
123.964
122.144
122.626
125.981
131.593
137.593
143.332
148.161
151.317
152.521
151.869
149.691
146.342
142.124
137.411
132.716
127.944
123.137
118.372
113.746
109.32
105.122
101.17
97.4781
94.0671
90.9352
88.0608
85.3687
82.8958
80.6896
79.1745
69.8827
32.5917
25.3205
22.682
21.5802
21.1104
21.0185
21.1095
21.3585
21.6722
22.0617
22.4954
22.987
23.5208
24.0997
24.7111
25.3613
26.0517
26.7882
27.5644
28.3727
29.1955
30.0133
30.8042
31.5511
32.2405
32.8658
33.4292
33.9467
34.4544
35.0077
35.6615
36.4195
37.2743
38.2313
39.3016
40.4637
41.6873
42.9395
44.1931
45.4296
46.6375
47.8093
48.9402
50.0283
51.0736
52.0777
53.0433
53.9742
54.8746
55.7493
56.6033
57.4415
58.2687
59.0894
59.9076
60.7272
61.5511
62.3823
63.223
64.0753
64.9406
65.8206
66.7163
67.629
68.5597
69.5094
70.4795
71.471
72.4854
73.5239
74.5882
75.6797
76.7999
77.9505
79.1328
80.3482
81.598
82.8828
84.2033
85.56
86.953
88.3823
89.8477
91.3491
92.8864
94.4595
96.0687
97.7142
99.3968
101.117
102.878
104.681
106.528
108.422
110.366
112.362
114.411
116.515
118.674
120.887
123.152
125.466
127.824
130.221
132.65
135.101
137.565
140.032
142.495
144.946
147.379
149.788
152.168
154.515
156.828
159.105
161.349
163.562
165.739
167.872
169.947
171.943
173.809
175.463
176.786
177.763
178.398
178.723
178.842
178.772
178.463
177.526
175.797
173.218
169.816
165.667
160.68
154.591
147.756
140.817
134.613
129.865
127.124
126.18
125.893
124.952
122.92
120.174
117.83
116.962
118.314
122.075
127.534
133.696
139.689
144.596
147.751
148.906
148.278
146.151
142.74
138.408
133.53
128.398
123.137
117.882
112.733
107.798
103.159
98.8279
94.8145
91.1306
87.7916
84.8143
82.1246
79.6419
77.3826
75.3719
73.8569
81.3311
38.4193
29.3688
26.0387
24.5084
23.8032
23.5543
23.5647
23.7721
24.0851
24.4952
24.9597
25.4877
26.064
26.6932
27.3618
28.0619
28.7814
29.5183
30.2668
31.0221
31.7741
32.5114
33.2196
33.8869
34.5073
35.0856
35.6395
36.202
36.821
37.5509
38.3612
39.238
40.1867
41.2216
42.3574
43.6002
44.9177
46.2766
47.6472
49.0073
50.3419
51.6408
52.8972
54.1072
55.2698
56.3861
57.4591
58.4932
59.4941
60.4676
61.4203
62.3582
63.2875
64.2136
65.1413
66.0748
67.0178
67.9732
68.9434
69.9306
70.9361
71.9615
73.0079
74.0764
75.1679
76.2837
77.4248
78.5926
79.7883
81.0134
82.2693
83.5573
84.879
86.2354
87.6278
89.0569
90.5233
92.0272
93.5685
95.147
96.7618
98.4123
100.097
101.816
103.568
105.352
107.168
109.016
110.896
112.81
114.759
116.746
118.773
120.843
122.958
125.121
127.333
129.594
131.904
134.26
136.659
139.096
141.564
144.055
146.56
149.069
151.573
154.061
156.525
158.956
161.345
163.686
165.973
168.199
170.357
172.441
174.439
176.338
178.118
179.756
181.22
182.473
183.471
184.177
184.567
184.695
184.57
184.25
183.909
183.556
182.862
181.709
179.998
177.677
174.908
171.825
168.251
163.715
158.317
152.392
146.381
140.765
135.969
131.98
128.305
124.707
121.008
117.743
115.696
115.437
117.541
122.082
128.019
134.788
141.368
146.741
150.225
151.561
151.01
148.846
145.244
140.619
135.354
129.749
124.021
118.344
112.838
107.62
102.751
98.2336
94.0751
90.2832
86.8544
83.7826
81.0455
78.5529
76.2989
74.3015
72.6766
99.5133
44.8683
33.5904
29.4066
27.486
26.5383
26.178
26.1199
26.3088
26.6287
27.0607
27.5544
28.1048
28.6941
29.3272
29.996
30.6978
31.4211
32.1578
32.897
33.631
34.3512
35.0519
35.7273
36.3738
36.9928
37.5951
38.2036
38.8534
39.5874
40.4142
41.308
42.261
43.2842
44.3999
45.6185
46.9182
48.2749
49.6652
51.0681
52.4665
53.8474
55.2017
56.5234
57.8094
59.0585
60.2716
61.4512
62.601
63.7258
64.8308
65.9216
67.0038
68.0826
69.1629
70.249
71.3446
72.4529
73.5766
74.718
75.8788
77.0608
78.2652
79.4933
80.7465
82.0259
83.3328
84.6687
86.0351
87.4333
88.865
90.3316
91.8346
93.3752
94.9546
96.5736
98.2326
99.932
101.671
103.45
105.268
107.124
109.016
110.943
112.904
114.897
116.922
118.979
121.068
123.19
125.346
127.539
129.77
132.045
134.365
136.734
139.154
141.626
144.149
146.721
149.34
151.998
154.688
157.401
160.127
162.853
165.569
168.263
170.923
173.538
176.099
178.597
181.022
183.369
185.628
187.79
189.843
191.772
193.559
195.179
196.605
197.804
198.743
199.374
199.677
199.697
199.367
198.717
197.799
196.657
195.316
193.849
192.449
190.954
189.206
187.464
185.592
182.94
179.09
173.936
167.621
160.501
153.084
145.869
139.113
132.832
127.086
122.24
118.616
116.756
117.147
120.247
125.749
132.453
140.023
147.352
153.316
157.174
158.661
158.096
155.769
151.845
146.806
141.072
134.981
128.792
122.698
116.836
111.299
106.127
101.34
96.9436
92.9375
89.3061
86.0315
83.0699
80.3955
77.9762
75.8476
73.9305
110.156
50.6045
37.6125
32.7439
30.4365
29.2677
28.7719
28.6371
28.7893
29.0993
29.5429
30.0618
30.6443
31.264
31.9162
32.591
33.2892
34.0037
34.7294
35.4571
36.1791
36.8889
37.5838
38.2629
38.9283
39.5864
40.2511
40.9462
41.7049
42.5495
43.459
44.4181
45.4251
46.4939
47.65
48.9013
50.2191
51.5788
52.9629
54.3595
55.7592
57.154
58.5374
59.9053
61.2546
62.5841
63.8938
65.1849
66.4599
67.7222
68.9756
70.2243
71.4725
72.7242
73.9832
75.2527
76.5357
77.8349
79.1523
80.49
81.8497
83.2328
84.6409
86.0752
87.5374
89.0287
90.5509
92.1054
93.694
95.3182
96.9796
98.6798
100.42
102.202
104.025
105.892
107.801
109.753
111.748
113.784
115.86
117.975
120.128
122.317
124.54
126.798
129.089
131.413
133.772
136.167
138.6
141.075
143.596
146.166
148.789
151.468
154.205
157
159.852
162.755
165.704
168.689
171.698
174.72
177.74
180.742
183.713
186.638
189.503
192.296
195.007
197.627
200.149
202.567
204.873
207.059
209.118
211.036
212.8
214.392
215.792
216.976
217.917
218.589
218.948
219.016
218.705
217.975
216.825
215.286
213.451
211.497
209.626
208.002
206.514
205.13
203.528
200.987
196.992
191.294
183.954
175.328
165.978
156.522
147.462
139.152
131.893
126.039
122.043
120.367
121.494
125.866
132.3
139.578
147.875
155.967
162.497
166.649
168.176
167.494
164.886
160.553
155.05
148.835
142.274
135.644
129.145
122.911
117.025
111.529
106.442
101.767
97.4949
93.6041
90.0729
86.8617
83.9599
81.3224
78.9653
76.7131
127.404
56.6888
41.5846
35.9379
33.2854
31.9056
31.3124
31.1191
31.2356
31.5298
31.9701
32.4967
33.0937
33.7326
34.4066
35.1031
35.8181
36.5446
37.2797
38.0171
38.7525
39.4824
40.2059
40.9239
41.6405
42.3631
43.105
43.8856
44.7295
45.6457
46.614
47.6228
48.673
49.7808
50.9764
52.247
53.5667
54.9163
56.2863
57.6732
59.0744
60.4866
61.9059
63.3291
64.7533
66.1766
67.5983
69.0186
70.4388
71.861
73.2874
74.7208
76.164
77.6195
79.0899
80.5774
82.0842
83.6121
85.1628
86.7379
88.3388
89.9669
91.6237
93.3106
95.029
96.7804
98.5665
100.389
102.249
104.148
106.088
108.07
110.095
112.164
114.276
116.433
118.634
120.879
123.165
125.493
127.861
130.267
132.71
135.189
137.702
140.249
142.831
145.449
148.104
150.8
153.54
156.329
159.172
162.073
165.036
168.064
171.158
174.315
177.532
180.799
184.106
187.438
190.78
194.112
197.416
200.672
203.863
206.972
209.983
212.885
215.668
218.327
220.86
223.267
225.546
227.699
229.728
231.631
233.41
235.06
236.576
237.949
239.161
240.188
240.988
241.481
241.629
241.316
240.461
239.037
237.089
234.782
232.365
230.085
228.074
226.238
224.083
220.927
216.165
209.446
200.788
190.558
179.376
167.959
156.988
147.025
138.534
131.939
127.666
126.195
128.068
133.569
140.736
148.598
157.656
166.402
173.327
177.589
179.003
178.104
175.133
170.372
164.436
157.803
150.848
143.848
137.002
130.438
124.235
118.434
113.053
108.09
103.536
99.3654
95.5594
92.0822
88.9243
86.0287
83.3863
80.7969
135.282
61.8109
45.2692
39.0298
36.03
34.4522
33.7376
33.4777
33.5668
33.8552
34.308
34.8575
35.4846
36.1559
36.8615
37.5867
38.3286
39.0812
39.8419
40.6068
41.376
42.1492
42.9264
43.7091
44.5015
45.3114
46.15
47.0331
47.975
48.963
49.9852
51.0362
52.1207
53.2557
54.4693
55.7424
57.0564
58.4007
59.7729
61.1744
62.6057
64.0655
65.5511
67.0593
68.5872
70.1327
71.6946
73.2727
74.8675
76.48
78.1116
79.7637
81.438
83.1359
84.8589
86.6084
88.3857
90.1921
92.0287
93.8966
95.797
97.731
99.6997
101.704
103.746
105.826
107.946
110.106
112.308
114.552
116.84
119.172
121.547
123.967
126.429
128.935
131.481
134.068
136.693
139.354
142.05
144.779
147.539
150.328
153.148
155.998
158.879
161.793
164.745
167.738
170.778
173.869
177.017
180.227
183.501
186.841
190.245
193.707
197.217
200.762
204.325
207.884
211.417
214.901
218.311
221.625
224.822
227.885
230.801
233.56
236.16
238.602
240.892
243.038
245.053
246.949
248.742
250.45
252.092
253.685
255.247
256.792
258.326
259.842
261.312
262.672
263.816
264.571
264.802
264.319
263.008
260.909
258.229
255.282
252.327
249.366
246.023
241.678
235.7
227.688
217.623
205.865
193.058
179.982
167.43
156.099
146.561
139.302
134.795
133.607
136.348
142.817
150.488
158.728
168.307
177.457
184.51
188.643
189.78
188.586
185.209
180.069
173.805
166.887
159.679
152.446
145.375
138.587
132.155
126.119
120.495
115.281
110.467
106.032
101.96
98.2162
94.7912
91.6165
88.6751
85.7467
152.604
67.3173
48.8116
41.8598
38.5493
36.7986
36.0011
35.7011
35.7743
36.069
36.5436
37.1291
37.8034
38.5318
39.301
40.0927
40.9002
41.7159
42.5389
43.368
44.2047
45.0503
45.9073
46.7791
47.6705
48.587
49.5366
50.5295
51.5586
52.6159
53.6957
54.7976
55.929
57.1061
58.3461
59.6365
60.9694
62.3427
63.7587
65.22
66.7279
68.2817
69.879
71.5171
73.1938
74.9072
76.6566
78.4416
80.2624
82.1196
84.0136
85.9451
87.9149
89.9235
91.9716
94.0599
96.1888
98.359
100.571
102.825
105.123
107.463
109.847
112.276
114.749
117.268
119.831
122.44
125.094
127.792
130.535
133.32
136.147
139.013
141.917
144.855
147.826
150.825
153.85
156.897
159.964
163.048
166.146
169.258
172.383
175.521
178.676
181.851
185.05
188.278
191.542
194.846
198.197
201.598
205.05
208.551
212.095
215.673
219.269
222.864
226.437
229.961
233.41
236.757
239.978
243.049
245.952
248.674
251.207
253.55
255.707
257.691
259.515
261.2
262.767
264.239
265.645
267.014
268.381
269.782
271.252
272.825
274.532
276.393
278.408
280.544
282.721
284.787
286.515
287.59
287.728
286.712
284.555
281.478
277.78
273.611
268.797
262.882
255.338
245.808
234.272
221.075
206.844
192.369
178.499
166.016
155.574
147.721
143.003
142.113
145.711
152.761
160.609
169.019
178.945
188.183
195.036
198.779
199.494
197.949
194.169
188.762
182.335
175.326
168.068
160.8
153.689
146.843
140.328
134.18
128.415
123.032
118.026
113.38
109.08
105.097
101.418
97.9709
94.7319
91.4854
160.824
71.5975
51.9062
44.4574
40.875
38.9807
38.1172
37.7939
37.8775
38.2026
38.7253
39.3711
40.1172
40.9264
41.7846
42.6723
43.5812
44.5025
45.4337
46.3728
47.3216
48.2818
49.2586
50.2597
51.2882
52.3435
53.4251
54.5323
55.6616
56.8097
57.9752
59.1602
60.3712
61.618
62.9112
64.2599
65.6624
67.1206
68.6385
70.2194
71.8647
73.5742
75.3466
77.18
79.0734
81.0259
83.037
85.1069
87.2356
89.4233
91.67
93.9759
96.341
98.7653
101.249
103.791
106.392
109.052
111.77
114.546
117.38
120.27
123.216
126.217
129.272
132.38
135.539
138.747
142.002
145.301
148.64
152.016
155.425
158.861
162.319
165.794
169.279
172.769
176.256
179.737
183.204
186.653
190.082
193.487
196.868
200.226
203.564
206.886
210.2
213.511
216.825
220.15
223.492
226.852
230.232
233.629
237.036
240.44
243.825
247.17
250.453
253.647
256.727
259.67
262.451
265.055
267.467
269.68
271.694
273.515
275.156
276.634
277.969
279.184
280.301
281.344
282.343
283.331
284.344
285.423
286.608
287.942
289.475
291.251
293.309
295.665
298.301
301.134
303.98
306.531
308.372
309.073
308.355
306.153
302.58
297.763
291.657
284.057
274.701
263.43
250.323
235.729
220.241
204.607
189.667
176.238
165.022
156.627
151.678
151.057
155.406
162.655
170.303
178.662
188.651
197.617
203.928
207.039
207.224
205.276
201.158
195.637
189.246
182.37
175.291
168.215
161.28
154.577
148.161
142.063
136.298
130.869
125.775
121.002
116.545
112.375
108.483
104.794
101.29
97.7564
172.113
75.4692
54.5977
46.6841
42.8966
40.9046
40.0149
39.702
39.8288
40.2201
40.8293
41.5778
42.4412
43.38
44.3789
45.4161
46.4821
47.5658
48.6626
49.7686
50.8837
52.0098
53.1522
54.3166
55.5113
56.7303
57.9705
59.2301
60.5068
61.7998
63.1105
64.4429
65.8034
67.1998
68.6403
70.1326
71.6842
73.3046
75.0065
76.7934
78.6668
80.6271
82.6739
84.8069
87.0261
89.3317
91.724
94.2035
96.7703
99.4246
102.166
104.995
107.911
110.912
113.999
117.17
120.424
123.76
127.176
130.67
134.241
137.885
141.599
145.381
149.228
153.134
157.095
161.106
165.161
169.253
173.375
177.519
181.675
185.834
189.985
194.118
198.221
202.284
206.294
210.244
214.122
217.921
221.636
225.264
228.802
232.253
235.622
238.916
242.146
245.319
248.448
251.542
254.609
257.656
260.688
263.705
266.704
269.675
272.605
275.475
278.265
280.954
283.521
285.944
288.207
290.295
292.2
293.92
295.457
296.82
298.024
299.089
300.031
300.868
301.617
302.3
302.942
303.572
304.223
304.925
305.709
306.611
307.675
308.946
310.466
312.281
314.429
316.927
319.726
322.652
325.364
327.395
328.249
327.565
325.074
320.525
313.741
304.663
293.403
280.192
265.362
249.352
232.712
216.106
200.305
186.103
174.221
165.33
160.174
159.799
164.651
171.611
178.738
187.046
196.768
205.098
210.539
212.78
212.394
209.952
205.658
200.231
194.098
187.576
180.902
174.242
167.702
161.35
155.23
149.365
143.77
138.446
133.398
128.617
124.102
119.83
115.795
111.926
108.211
104.445
178.082
78.274
56.6818
48.5031
44.5817
42.5572
41.6801
41.4178
41.6337
42.1385
42.885
43.7893
44.8269
45.9556
47.1589
48.4132
49.7073
51.0276
52.3674
53.7203
55.084
56.4576
57.8433
59.2446
60.6672
62.117
63.5897
65.0783
66.5823
68.1048
69.6499
71.2232
72.8313
74.4822
76.1848
77.9492
79.7863
81.709
83.734
85.8701
88.1184
90.4803
92.9571
95.5505
98.2623
101.094
104.047
107.122
110.32
113.642
117.086
120.653
124.342
128.15
132.076
136.118
140.273
144.538
148.908
153.38
157.949
162.61
167.355
172.18
177.075
182.034
187.047
192.103
197.192
202.302
207.419
212.529
217.615
222.662
227.652
232.566
237.388
242.098
246.68
251.117
255.396
259.504
263.434
267.18
270.742
274.125
277.337
280.393
283.308
286.097
288.78
291.371
293.886
296.341
298.748
301.119
303.456
305.756
308.007
310.198
312.312
314.33
316.233
318.003
319.624
321.083
322.375
323.498
324.454
325.256
325.928
326.48
326.924
327.275
327.549
327.769
327.96
328.149
328.366
328.633
328.968
329.395
329.946
330.644
331.494
332.508
333.713
335.16
336.905
338.952
341.181
343.296
344.864
345.337
344.188
340.629
333.915
323.849
310.821
295.559
278.838
261.314
243.551
226.103
209.612
194.79
182.348
173.038
167.79
167.852
172.772
178.954
185.367
193.617
202.763
210.007
214.218
215.499
214.609
211.81
207.501
202.296
196.602
190.646
184.589
178.537
172.576
166.76
161.115
155.656
150.393
145.33
140.471
135.813
131.359
127.09
123.006
119.041
115.195
111.271
183.608
80.1683
58.1451
49.8417
45.9004
43.9242
43.1361
42.9893
43.3606
44.0473
45.0034
46.1408
47.4351
48.8412
50.3424
51.9127
53.5394
55.2065
56.9053
58.6262
60.3645
62.1158
63.879
65.6538
67.4414
69.244
71.0638
72.9029
74.7674
76.6625
78.5901
80.556
82.5703
84.6449
86.7944
89.0348
91.3768
93.8315
96.4096
99.1199
101.969
104.963
108.106
111.403
114.859
118.476
122.257
126.203
130.316
134.596
139.042
143.652
148.424
153.355
158.441
163.677
169.057
174.575
180.223
185.995
191.88
197.869
203.952
210.117
216.351
222.641
228.972
235.328
241.692
248.043
254.363
260.629
266.817
272.903
278.861
284.665
290.288
295.705
300.89
305.82
310.476
314.841
318.903
322.655
326.097
329.239
332.095
334.688
337.043
339.184
341.14
342.933
344.586
346.127
347.584
348.986
350.348
351.662
352.921
354.117
355.238
356.267
357.187
357.98
358.629
359.123
359.46
359.638
359.652
359.554
359.371
359.065
358.657
358.166
357.615
357.029
356.44
355.882
355.386
354.975
354.666
354.474
354.444
354.586
354.86
355.216
355.615
356.033
356.501
357.103
357.912
358.903
359.891
360.466
359.982
357.354
351.145
340.649
326.225
308.995
290.273
271.096
252.144
233.888
216.801
201.471
188.589
179.011
173.909
174.619
179.123
184.189
189.937
198.119
206.27
212.173
215.33
215.871
214.564
211.448
207.198
202.285
197.043
191.657
186.249
180.946
175.729
170.595
165.568
160.66
155.874
151.212
146.68
142.277
138.007
133.858
129.833
125.875
121.991
118.002
184.387
80.8238
58.8991
50.7308
46.9028
45.0928
44.4798
44.543
45.1758
46.1556
47.4411
48.9385
50.6257
52.4548
54.4097
56.4616
58.5977
60.7994
63.0564
65.3565
67.6922
70.0564
72.445
74.855
77.286
79.7384
82.2137
84.7137
87.239
89.7953
92.3937
95.0451
97.7664
100.578
103.494
106.529
109.694
113.002
116.465
120.095
123.904
127.899
132.089
136.48
141.079
145.889
150.913
156.153
161.609
167.28
173.162
179.252
185.543
192.028
198.699
205.548
212.562
219.732
227.044
234.484
242.039
249.694
257.43
265.233
273.082
280.958
288.84
296.707
304.532
312.293
319.96
327.505
334.897
342.105
349.093
355.828
362.275
368.401
374.173
379.56
384.536
389.076
393.165
396.791
399.953
402.664
404.945
406.825
408.338
409.522
410.415
411.036
411.416
411.599
411.639
411.613
411.551
411.41
411.181
410.877
410.494
410.02
409.44
408.739
407.906
406.937
405.838
404.613
403.269
401.828
400.302
398.695
397.024
395.306
393.565
391.821
390.099
388.42
386.801
385.258
383.81
382.499
381.358
380.394
379.609
378.978
378.435
377.872
377.202
376.423
375.639
374.99
374.55
374.177
373.312
370.779
364.853
354.22
338.863
319.977
299.309
278.359
258.077
238.954
221.269
205.503
192.353
182.826
178.297
179.637
183.29
187.164
192.668
200.509
207.57
212.292
214.284
214.02
212.076
208.689
204.561
200.058
195.405
190.732
186.096
181.541
177.069
172.706
168.42
164.177
159.979
155.831
151.739
147.702
143.726
139.803
135.94
132.088
128.264
124.306
183.793
80.3689
58.9845
51.1777
47.6455
46.1526
45.8594
46.2913
47.3479
48.7947
50.5986
52.6593
54.9594
57.4469
60.1086
62.9137
65.8505
68.8985
72.0474
75.2827
78.5959
81.9773
85.421
88.9214
92.475
96.0783
99.728
103.42
107.155
110.935
114.762
118.647
122.624
126.724
130.958
135.331
139.857
144.559
149.452
154.553
159.876
165.43
171.226
177.27
183.568
190.125
196.94
204.013
211.34
218.916
226.731
234.776
243.038
251.503
260.157
268.983
277.964
287.081
296.316
305.648
315.057
324.52
334.016
343.522
353.014
362.468
371.858
381.158
390.339
399.372
408.226
416.868
425.262
433.372
441.159
448.587
455.614
462.204
468.317
473.917
478.972
483.451
487.332
490.598
493.244
495.281
496.731
497.635
498.017
497.944
497.483
496.576
495.289
493.713
491.92
489.965
487.878
485.681
483.391
481.018
478.561
476.011
473.364
470.611
467.748
464.783
461.721
458.565
455.324
452.019
448.672
445.299
441.921
438.555
435.218
431.929
428.707
425.571
422.529
419.579
416.722
413.975
411.329
408.771
406.297
403.913
401.615
399.368
397.097
394.737
392.315
389.971
387.867
386
383.937
380.566
374.2
363.293
347.383
327.408
305.216
282.645
261.011
240.928
222.51
206.332
193.208
184.382
181.316
182.643
185.042
188.09
193.891
201.188
207.086
210.42
211.181
210.127
207.49
203.916
199.939
195.844
191.788
187.84
184.013
180.298
176.666
173.085
169.537
166.012
162.502
158.975
155.422
151.85
148.269
144.672
141.071
137.423
133.755
129.926
179.47
78.904
58.5366
51.3293
48.2677
47.2677
47.4686
48.4609
50.1507
52.2876
54.8527
57.7373
60.933
64.3833
68.082
71.9965
76.1199
80.4307
84.9206
89.5739
94.3826
99.335
104.424
109.641
114.978
120.427
125.979
131.621
137.343
143.135
148.998
154.946
161
167.182
173.482
179.915
186.507
193.284
200.274
207.495
214.959
222.675
230.652
238.897
247.413
256.201
265.258
274.577
284.146
293.951
303.977
314.203
324.611
335.178
345.882
356.699
367.606
378.577
389.587
400.611
411.623
422.597
433.508
444.329
455.035
465.6
475.996
486.196
496.172
505.895
515.334
524.455
533.225
541.605
549.561
557.056
564.054
570.516
576.404
581.679
586.306
590.254
593.497
596.016
597.796
598.866
599.238
599.009
598.195
596.71
594.6
591.922
588.758
585.192
581.304
577.161
572.817