/*--------------------------------*- C++ -*----------------------------------*\
| =========                 |                                                 |
| \\      /  F ield         | OpenFOAM: The Open Source CFD Toolbox           |
|  \\    /   O peration     | Version:  v1906                                 |
|   \\  /    A nd           | Web:      www.OpenFOAM.com                      |
|    \\/     M anipulation  |                                                 |
\*---------------------------------------------------------------------------*/
FoamFile
{
    version     2.0;
    format      ascii;
    class       volScalarField;
    location    "900";
    object      k;
}
// * * * * * * * * * * * * * * * * * * * * * * * * * * * * * * * * * * * * * //

dimensions      [0 2 -2 0 0 0 0];


internalField   nonuniform List<scalar> 
12225
(
2.25874
2.22668
2.16196
2.09173
2.02506
1.96464
1.9107
1.86332
1.82067
1.78392
1.74944
1.72149
1.69894
1.68075
1.66407
1.65218
1.63783
1.63258
2.25029
2.13779
1.98565
1.87244
1.78123
1.71369
1.66067
1.61699
1.58114
1.55033
1.52537
1.50229
1.48551
1.46768
1.45718
1.44243
1.4361
1.4219
2.25785
2.21889
2.14361
2.07156
2.00395
1.94415
1.89184
1.84561
1.80509
1.76897
1.73739
1.70859
1.68386
1.66057
1.64134
1.62201
1.60751
1.59157
2.25839
2.23538
2.18791
2.13578
2.08419
2.03589
1.99183
1.95174
1.91553
1.88263
1.85298
1.82583
1.80147
1.77893
1.75887
1.73989
1.72364
1.70661
2.25891
2.24457
2.21501
2.18006
2.14383
2.10824
2.07435
2.04244
2.01265
1.9849
1.95923
1.93533
1.91328
1.89275
1.87386
1.85615
1.84026
1.82445
2.25905
2.24839
2.22761
2.20199
2.17442
2.14647
2.1191
2.09277
2.06769
2.04397
2.02165
2.00065
1.98097
1.9625
1.94524
1.92903
1.91397
1.89922
2.25918
2.25077
2.23561
2.21657
2.1956
2.17389
2.1522
2.13092
2.11033
2.09054
2.07166
2.05368
2.03662
2.02044
2.00516
1.99072
1.97717
1.96403
2.25922
2.25211
2.24034
2.22547
2.20883
2.19132
2.17352
2.15582
2.13846
2.12159
2.10531
2.08966
2.07468
2.06037
2.04674
2.03376
2.02141
2.00948
2.25927
2.2531
2.24365
2.23178
2.2184
2.20416
2.18953
2.17482
2.16025
2.14595
2.13202
2.11853
2.1055
2.09298
2.08096
2.06945
2.05846
2.04785
2.25929
2.25376
2.24586
2.23607
2.22499
2.21312
2.20081
2.18832
2.17583
2.16349
2.15137
2.13955
2.12807
2.11696
2.10623
2.09591
2.08596
2.07636
2.25932
2.2543
2.24753
2.23929
2.22998
2.21996
2.20951
2.19884
2.1881
2.17742
2.16687
2.15651
2.1464
2.13657
2.12703
2.1178
2.10889
2.10026
2.25934
2.25466
2.24864
2.24143
2.23332
2.22458
2.21543
2.20604
2.19655
2.18706
2.17764
2.16835
2.15924
2.15034
2.14167
2.13326
2.12509
2.11718
2.25937
2.25498
2.24954
2.24315
2.23601
2.22831
2.22024
2.21192
2.20348
2.195
2.18655
2.17819
2.16996
2.16189
2.15401
2.14633
2.13886
2.13159
2.25939
2.25525
2.25032
2.24464
2.23834
2.23156
2.22443
2.21707
2.20957
2.20201
2.19444
2.18693
2.1795
2.17219
2.16503
2.15803
2.15119
2.14454
2.25943
2.25552
2.25102
2.24594
2.24036
2.23438
2.22809
2.22157
2.21492
2.20819
2.20143
2.19469
2.18801
2.18141
2.17492
2.16855
2.16233
2.15625
2.25946
2.25574
2.25157
2.24697
2.24196
2.23661
2.23099
2.22517
2.2192
2.21315
2.20706
2.20096
2.1949
2.18889
2.18297
2.17715
2.17145
2.16587
2.25949
2.25592
2.252
2.24774
2.24315
2.23826
2.23314
2.22782
2.22237
2.21683
2.21123
2.20562
2.20003
2.19447
2.18898
2.18357
2.17826
2.17306
2.25951
2.25603
2.25225
2.24818
2.24381
2.23919
2.23434
2.22932
2.22416
2.21892
2.21361
2.20829
2.20298
2.19769
2.19246
2.1873
2.18222
2.17723
2.2595
2.25599
2.25218
2.24806
2.24363
2.23894
2.23402
2.22892
2.22369
2.21835
2.21297
2.20756
2.20216
2.19679
2.19148
2.18625
2.18111
2.17609
2.25949
2.25585
2.25179
2.24732
2.24248
2.23731
2.23189
2.22627
2.22051
2.21466
2.20877
2.20287
2.197
2.19118
2.18544
2.17978
2.17421
2.16874
2.25943
2.25553
2.25102
2.24592
2.24031
2.23429
2.22796
2.2214
2.2147
2.20791
2.2011
2.1943
2.18755
2.18089
2.17433
2.1679
2.16161
2.15552
2.25941
2.25519
2.25002
2.24399
2.23727
2.23003
2.22243
2.2146
2.20664
2.19862
2.19062
2.18269
2.17486
2.16717
2.15964
2.15229
2.14513
2.13812
2.25935
2.25456
2.24826
2.24066
2.23209
2.22284
2.21317
2.20324
2.19322
2.1832
2.17327
2.16349
2.15389
2.14452
2.1354
2.12653
2.11793
2.10969
2.25935
2.25385
2.24584
2.23594
2.22475
2.21278
2.20039
2.18783
2.17527
2.16285
2.15065
2.13875
2.12718
2.11598
2.10517
2.09476
2.08479
2.07515
2.25927
2.25242
2.24124
2.22717
2.21139
2.1947
2.17766
2.16062
2.14384
2.12747
2.11162
2.09634
2.08167
2.0676
2.05414
2.04125
2.02887
2.01716
2.25924
2.25041
2.23397
2.21363
2.19147
2.16866
2.14591
2.12362
2.10205
2.08135
2.06159
2.0428
2.02496
2.00806
1.99207
1.97697
1.96285
1.94963
2.25889
2.24472
2.21618
2.18219
2.14678
2.11175
2.07806
2.04624
2.01648
1.98876
1.963
1.93909
1.91687
1.89625
1.87702
1.85916
1.84216
1.82638
2.25872
2.23436
2.18569
2.13367
2.08299
2.03495
1.99027
1.94959
1.91261
1.87898
1.84837
1.8205
1.79499
1.7717
1.75026
1.73065
1.71252
1.697
2.25333
2.17274
2.05404
1.95318
1.87047
1.80143
1.74471
1.69877
1.66015
1.62709
1.59835
1.5734
1.55126
1.53195
1.51449
1.49933
1.48521
1.47199
2.25474
2.20869
2.14516
2.08348
2.02606
1.97395
1.92682
1.8844
1.84628
1.81197
1.78099
1.75288
1.72736
1.704
1.68274
1.66304
1.64517
1.62826
0.0295089
0.0599405
0.0871287
0.101607
0.113108
0.121199
0.128237
0.133726
0.138593
0.142594
0.146145
0.14913
0.151733
0.153878
0.155636
0.156942
0.157844
0.15832
0.158329
0.158082
0.157366
0.15613
0.154463
0.152129
0.148723
0.142799
0.13405
0.12168
0.103802
0.08218
0.062935
0.0511388
0.0522028
0.0640304
0.0798773
0.0966895
0.113987
0.130184
0.14366
0.155419
0.165732
0.175012
0.183505
0.191396
0.198812
0.205842
0.212551
0.218985
0.225178
0.231157
0.236941
0.242549
0.247994
0.253289
0.258437
0.26345
0.268334
0.273095
0.277739
0.282271
0.286694
0.29101
0.295221
0.299329
0.303335
0.307239
0.31104
0.314739
0.318336
0.321826
0.325207
0.328474
0.331624
0.334659
0.337584
0.340416
0.343168
0.345848
0.348461
0.351016
0.353525
0.355999
0.358454
0.360906
0.363375
0.365879
0.368446
0.371095
0.373853
0.37674
0.379779
0.382999
0.386427
0.390086
0.393999
0.398187
0.402671
0.407472
0.412614
0.41812
0.424018
0.430339
0.43712
0.444402
0.452232
0.460656
0.46973
0.479507
0.490043
0.501391
0.513602
0.526718
0.540772
0.555783
0.57175
0.588652
0.606434
0.625016
0.644272
0.664021
0.683977
0.703765
0.723014
0.741622
0.759819
0.778247
0.796992
0.815888
0.834326
0.850442
0.859843
0.863494
0.860035
0.855864
0.849697
0.842399
0.833164
0.821687
0.808488
0.792982
0.763143
0.698587
0.593059
0.451164
0.324755
0.284026
0.29793
0.346749
0.40471
0.463227
0.511828
0.558123
0.599661
0.635175
0.670569
0.70544
0.737726
0.765137
0.788668
0.810917
0.818027
0.812261
0.799628
0.782851
0.763343
0.742455
0.721308
0.700652
0.681077
0.662817
0.64601
0.630558
0.616563
0.603634
0.592031
0.580814
0.570757
0.560269
0.550127
0.510804
0.0537422
0.128258
0.178874
0.209204
0.233284
0.252388
0.26902
0.283403
0.296575
0.308618
0.319989
0.330689
0.340849
0.35039
0.359297
0.367479
0.374904
0.381548
0.387458
0.39273
0.397551
0.402212
0.407158
0.412866
0.419796
0.428323
0.438635
0.450577
0.463485
0.476159
0.487602
0.498077
0.508336
0.518197
0.526739
0.533511
0.538825
0.54335
0.547979
0.553316
0.559711
0.567282
0.575986
0.585681
0.596183
0.607297
0.618838
0.630643
0.642571
0.654506
0.666354
0.678041
0.68951
0.700721
0.711643
0.722257
0.732552
0.742521
0.752163
0.761481
0.770479
0.77916
0.787533
0.795602
0.803375
0.810859
0.818059
0.824982
0.831637
0.838029
0.844169
0.850068
0.855738
0.861199
0.866475
0.871595
0.876594
0.881506
0.886368
0.891213
0.896077
0.900992
0.905989
0.911101
0.916359
0.921794
0.927439
0.933326
0.939481
0.945927
0.952691
0.959804
0.967302
0.975215
0.983571
0.992393
1.0017
1.01151
1.02183
1.03267
1.04405
1.05598
1.06845
1.08149
1.09511
1.10931
1.12412
1.13954
1.1556
1.17231
1.1897
1.20775
1.22648
1.24584
1.26578
1.28622
1.30699
1.32792
1.34879
1.36934
1.38927
1.40821
1.42574
1.44186
1.45724
1.47266
1.4888
1.50593
1.52376
1.54166
1.55898
1.57485
1.58895
1.59885
1.60254
1.59945
1.58731
1.56646
1.54123
1.51421
1.4749
1.41399
1.35088
1.31059
1.2994
1.30325
1.31089
1.3216
1.33679
1.35395
1.37067
1.3898
1.41589
1.45328
1.49986
1.54748
1.58742
1.61312
1.6245
1.62369
1.61177
1.58701
1.55204
1.51059
1.46559
1.41939
1.37375
1.32984
1.28838
1.24972
1.21401
1.18118
1.15122
1.12376
1.09877
1.07551
1.055
1.0355
1.01587
0.975596
0.0889243
0.185048
0.243646
0.279433
0.308982
0.332669
0.353642
0.372038
0.389129
0.404985
0.420205
0.434795
0.449011
0.462836
0.476383
0.489649
0.502669
0.515395
0.527858
0.54015
0.552482
0.565168
0.578599
0.593137
0.609018
0.626229
0.644454
0.663062
0.681187
0.697949
0.71288
0.726142
0.738084
0.748761
0.758206
0.766697
0.774647
0.78254
0.790831
0.799836
0.809723
0.820527
0.832184
0.844568
0.857518
0.870866
0.884451
0.898132
0.911787
0.925318
0.938647
0.951717
0.964484
0.976922
0.989013
1.00075
1.01213
1.02317
1.03386
1.04423
1.05428
1.06403
1.07351
1.08271
1.09167
1.10039
1.1089
1.1172
1.12532
1.13327
1.14108
1.14876
1.15634
1.16384
1.17129
1.17873
1.18618
1.19368
1.20125
1.20893
1.21674
1.22471
1.23286
1.24122
1.24981
1.25864
1.26774
1.27713
1.28683
1.29685
1.30721
1.31793
1.32904
1.34056
1.35251
1.3649
1.37775
1.39108
1.40488
1.41915
1.4339
1.44911
1.46478
1.48088
1.4974
1.5143
1.53155
1.54911
1.56695
1.58504
1.60331
1.62175
1.64029
1.6589
1.67753
1.69614
1.71468
1.73313
1.75144
1.76961
1.78764
1.80562
1.82376
1.84235
1.86169
1.882
1.90327
1.92531
1.9478
1.97027
1.99228
2.01333
2.03248
2.04832
2.0575
2.0597
2.05271
2.03562
2.00923
1.9746
1.93306
1.88486
1.83923
1.81473
1.81761
1.83633
1.85254
1.85251
1.83335
1.80533
1.78678
1.78732
1.81378
1.86235
1.92246
1.98179
2.03035
2.06157
2.07418
2.06897
2.04725
2.01154
1.96565
1.91332
1.85749
1.8006
1.74446
1.69032
1.63894
1.59076
1.54597
1.50457
1.46652
1.43153
1.39949
1.36999
1.34336
1.3185
1.29401
1.2593
0.103672
0.219439
0.288615
0.330547
0.365135
0.393554
0.418983
0.441409
0.462205
0.481476
0.499993
0.517786
0.535219
0.552277
0.569194
0.586041
0.603013
0.62014
0.637427
0.654808
0.672231
0.689604
0.706883
0.724061
0.741151
0.758078
0.774641
0.790523
0.805416
0.819246
0.832379
0.845484
0.859047
0.873158
0.887801
0.902987
0.918641
0.934641
0.950886
0.967282
0.983741
1.00017
1.01651
1.03268
1.04864
1.06434
1.07975
1.09482
1.10956
1.12393
1.13793
1.15156
1.16483
1.17775
1.19033
1.2026
1.21458
1.22628
1.23772
1.24894
1.25995
1.27077
1.28142
1.29191
1.30227
1.3125
1.32263
1.33267
1.34263
1.35255
1.36242
1.37229
1.38216
1.39206
1.40202
1.41207
1.42222
1.4325
1.44292
1.45352
1.46429
1.47527
1.48645
1.49785
1.50949
1.52135
1.53346
1.54582
1.55845
1.57134
1.58451
1.59798
1.61176
1.62588
1.64036
1.6552
1.67044
1.68608
1.70212
1.71858
1.73543
1.75267
1.77027
1.7882
1.80642
1.82487
1.84351
1.86228
1.88113
1.89999
1.91881
1.93755
1.95617
1.97464
1.99295
2.01109
2.02906
2.04691
2.06467
2.0824
2.1002
2.11815
2.13636
2.15493
2.17389
2.19328
2.21305
2.23315
2.2535
2.27396
2.29441
2.31454
2.33367
2.35049
2.36277
2.36857
2.36631
2.35401
2.33106
2.29807
2.25799
2.21646
2.18116
2.16119
2.15814
2.16139
2.15644
2.13575
2.10274
2.07014
2.05322
2.06003
2.09457
2.15104
2.21746
2.28086
2.331
2.36153
2.37099
2.36054
2.33229
2.28976
2.23706
2.178
2.11569
2.0525
1.99025
1.93021
1.87315
1.81951
1.7695
1.72313
1.68035
1.64092
1.60471
1.57138
1.54101
1.51261
1.48478
1.4507
0.128512
0.258652
0.334635
0.380539
0.418859
0.450673
0.479648
0.505643
0.529959
0.55251
0.574075
0.594745
0.614976
0.63478
0.65433
0.673582
0.692689
0.711728
0.730832
0.749979
0.769129
0.788127
0.806789
0.8249
0.842281
0.85878
0.874309
0.888865
0.902606
0.915917
0.929428
0.943803
0.959426
0.976331
0.994423
1.0136
1.03367
1.05431
1.07519
1.09602
1.11661
1.13683
1.1566
1.17585
1.19454
1.21264
1.23015
1.24708
1.26344
1.27926
1.29456
1.30941
1.32382
1.33786
1.35156
1.36497
1.37813
1.39108
1.40385
1.41647
1.42897
1.44136
1.45368
1.46594
1.47815
1.49033
1.50249
1.51466
1.52684
1.53905
1.55131
1.56365
1.57607
1.5886
1.60126
1.61407
1.62704
1.64019
1.65354
1.66709
1.68084
1.6948
1.70897
1.72335
1.73793
1.75272
1.7677
1.78289
1.79827
1.81385
1.82965
1.84568
1.86195
1.8785
1.89534
1.91249
1.92998
1.94783
1.96604
1.98462
2.00355
2.02282
2.04241
2.06225
2.08232
2.10255
2.12287
2.14322
2.16353
2.18376
2.20385
2.22376
2.24346
2.26295
2.2822
2.30124
2.32008
2.33875
2.35727
2.3757
2.39407
2.4124
2.43072
2.449
2.46715
2.48506
2.50271
2.52023
2.53775
2.55546
2.57357
2.59219
2.61092
2.62875
2.64409
2.65413
2.65701
2.65028
2.63267
2.60452
2.56787
2.52675
2.48749
2.45624
2.43311
2.41082
2.38209
2.34608
2.3088
2.28117
2.27259
2.28969
2.33383
2.39855
2.47161
2.5397
2.59213
2.62259
2.62951
2.61532
2.58222
2.53434
2.47607
2.41144
2.34373
2.27534
2.20809
2.14323
2.08155
2.0235
1.96927
1.9189
1.87233
1.82936
1.78984
1.75341
1.71997
1.68844
1.65752
1.62246
0.142168
0.289044
0.373938
0.42482
0.467058
0.502182
0.534241
0.563214
0.590492
0.616001
0.640379
0.66364
0.686239
0.708274
0.729983
0.751341
0.772362
0.792986
0.81326
0.833168
0.852701
0.87177
0.890265
0.908035
0.924945
0.940922
0.956005
0.970374
0.984379
0.998534
1.01345
1.02964
1.04735
1.06653
1.08697
1.1085
1.13089
1.15387
1.17712
1.20034
1.22329
1.24581
1.2678
1.28915
1.30983
1.32981
1.34909
1.36768
1.38562
1.40296
1.41974
1.43604
1.45191
1.46742
1.48262
1.49757
1.51231
1.52689
1.54134
1.55569
1.56998
1.58422
1.59843
1.61264
1.62685
1.64109
1.65537
1.66971
1.68411
1.69862
1.71323
1.72798
1.74288
1.75795
1.77321
1.78867
1.80435
1.82025
1.83639
1.85275
1.86933
1.88614
1.90315
1.92037
1.93776
1.95533
1.97306
1.99094
2.00898
2.02717
2.04552
2.06406
2.08279
2.10175
2.12097
2.14047
2.16029
2.18043
2.20092
2.22175
2.24291
2.26438
2.28612
2.30807
2.33018
2.35237
2.37458
2.39674
2.41877
2.44062
2.46224
2.4836
2.50467
2.52546
2.54597
2.5662
2.58617
2.6059
2.62538
2.64461
2.66356
2.68218
2.70039
2.71812
2.7353
2.75188
2.76789
2.78345
2.79885
2.81451
2.83092
2.84851
2.86732
2.88684
2.90564
2.92118
2.93012
2.92992
2.9179
2.89347
2.85793
2.81424
2.76672
2.71966
2.67414
2.6279
2.57975
2.53238
2.49206
2.46736
2.46478
2.49009
2.54343
2.61739
2.69855
2.77259
2.82825
2.85924
2.86445
2.84726
2.80973
2.75672
2.69305
2.62296
2.54986
2.47629
2.40412
2.33462
2.26858
2.20645
2.1484
2.09445
2.04453
1.99844
1.95602
1.91684
1.88063
1.84626
1.81258
1.77593
0.162614
0.321767
0.413408
0.468039
0.513384
0.551231
0.585796
0.617209
0.64686
0.67473
0.701392
0.726829
0.751342
0.774992
0.798035
0.820547
0.842622
0.864217
0.885309
0.905827
0.925723
0.944928
0.963396
0.981073
0.997921
1.01396
1.0293
1.04421
1.0591
1.07447
1.09084
1.10861
1.12791
1.14864
1.17057
1.19344
1.21701
1.24101
1.26519
1.28932
1.31322
1.33673
1.35975
1.38222
1.40409
1.42534
1.44597
1.46599
1.48544
1.50437
1.52281
1.54083
1.55848
1.57581
1.59289
1.60974
1.62642
1.64297
1.65941
1.67578
1.6921
1.70839
1.72468
1.74098
1.75732
1.7737
1.79016
1.80672
1.82339
1.84019
1.85716
1.8743
1.89165
1.90922
1.92703
1.94509
1.96341
1.98199
2.00083
2.01993
2.03927
2.05885
2.07865
2.09864
2.11881
2.13915
2.15963
2.18024
2.20099
2.22188
2.24292
2.26412
2.28553
2.30715
2.32905
2.35123
2.37375
2.39661
2.41983
2.44341
2.46732
2.49152
2.51597
2.54061
2.56534
2.5901
2.6148
2.63937
2.66374
2.68784
2.71164
2.73511
2.75824
2.78103
2.8035
2.82565
2.84751
2.86906
2.89029
2.91116
2.9316
2.95151
2.97076
2.98919
3.00665
3.02301
3.03828
3.0526
3.0663
3.07991
3.09416
3.10987
3.12765
3.14755
3.16855
3.18817
3.20228
3.20722
3.19913
3.17582
3.13746
3.08633
3.02632
2.96184
2.89593
2.83029
2.76735
2.71141
2.66847
2.64552
2.6484
2.6818
2.7449
2.82898
2.91906
2.99953
3.05855
3.08992
3.09327
3.07288
3.03068
2.9724
2.90327
2.82776
2.74943
2.67092
2.59412
2.52029
2.45022
2.38432
2.32274
2.26548
2.21244
2.1634
2.11815
2.07623
2.03725
2.00002
1.96349
1.92473
0.173967
0.346899
0.447222
0.506259
0.55498
0.595472
0.63239
0.665909
0.697547
0.727314
0.755829
0.783057
0.809275
0.834478
0.858818
0.882332
0.90516
0.927325
0.948851
0.969697
0.989818
1.00918
1.02776
1.04559
1.06268
1.07913
1.0951
1.11086
1.12678
1.14332
1.16089
1.1798
1.20013
1.22178
1.24453
1.26809
1.29214
1.31644
1.34081
1.3651
1.38921
1.41306
1.43657
1.45968
1.48237
1.50461
1.52639
1.54772
1.56862
1.58911
1.60922
1.62901
1.6485
1.66773
1.68676
1.7056
1.7243
1.74288
1.76138
1.77981
1.7982
1.81658
1.83496
1.85338
1.87184
1.89038
1.90902
1.92779
1.94671
1.96581
1.98511
2.00463
2.02441
2.04445
2.06477
2.08539
2.1063
2.12752
2.14902
2.17081
2.19287
2.21518
2.23772
2.26046
2.28339
2.30648
2.32972
2.3531
2.37662
2.40028
2.4241
2.44811
2.47233
2.4968
2.52157
2.54667
2.57212
2.59795
2.62416
2.65072
2.67761
2.70476
2.73211
2.75956
2.78703
2.81442
2.84163
2.86857
2.89518
2.92141
2.94721
2.97258
2.99753
3.02208
3.04627
3.07012
3.09368
3.11696
3.13997
3.16269
3.18507
3.20703
3.22845
3.24917
3.26902
3.28779
3.30522
3.32115
3.33562
3.34898
3.36198
3.37577
3.39162
3.41026
3.43122
3.45219
3.46864
3.47566
3.46822
3.44303
3.39952
3.3396
3.26723
3.18747
3.10519
3.02466
2.95034
2.88737
2.84153
2.81913
2.82616
2.86708
2.9405
3.03564
3.13518
3.22201
3.28384
3.31483
3.3157
3.29127
3.2439
3.18012
3.10556
3.02486
2.94166
2.85863
2.77764
2.69991
2.62618
2.55683
2.49198
2.43161
2.37558
2.32364
2.27555
2.23078
2.1889
2.14867
2.10922
2.06762
0.191664
0.374138
0.480475
0.542772
0.594063
0.636729
0.675556
0.710826
0.74405
0.775284
0.805135
0.833608
0.860973
0.887237
0.912553
0.936953
0.960514
0.983251
1.00522
1.02641
1.04683
1.0665
1.08543
1.10367
1.12128
1.13838
1.15514
1.17183
1.18876
1.2063
1.22479
1.24445
1.26536
1.28743
1.31043
1.33407
1.35806
1.38218
1.40633
1.43046
1.45454
1.47852
1.50236
1.52602
1.54945
1.57262
1.59552
1.61814
1.64049
1.66256
1.68438
1.70598
1.72736
1.74856
1.76961
1.79051
1.81131
1.83201
1.85265
1.87324
1.89381
1.91438
1.93498
1.95562
1.97635
1.99717
2.01813
2.03925
2.06056
2.08208
2.10384
2.12587
2.14819
2.17081
2.19374
2.217
2.24058
2.26449
2.28871
2.31322
2.33802
2.36307
2.38836
2.41387
2.43955
2.46541
2.49142
2.51759
2.5439
2.57037
2.59703
2.62389
2.65101
2.67841
2.70614
2.73422
2.76269
2.79153
2.82074
2.85026
2.88005
2.91
2.94002
2.97
2.99981
3.02935
3.05849
3.08717
3.11529
3.14284
3.16979
3.19616
3.22202
3.24742
3.27245
3.29721
3.3218
3.34631
3.37083
3.39543
3.42014
3.44497
3.46986
3.49467
3.51916
3.54295
3.56556
3.58644
3.6051
3.62133
3.63544
3.64845
3.66196
3.67745
3.69531
3.71381
3.72853
3.73394
3.72403
3.69474
3.64491
3.57636
3.49326
3.40121
3.30631
3.21437
3.13104
3.06201
3.01327
2.99128
3.00247
3.05145
3.13579
3.242
3.35023
3.44199
3.50487
3.5338
3.53106
3.5016
3.44872
3.37963
3.30018
3.21506
3.12787
3.04121
2.95688
2.876
2.79927
2.72701
2.65933
2.59616
2.53737
2.48267
2.4318
2.38419
2.33937
2.2961
2.25352
2.20893
0.199423
0.393155
0.507596
0.573713
0.627912
0.67272
0.713439
0.750327
0.785049
0.817642
0.848764
0.878402
0.906831
0.934036
0.960161
0.985231
1.00935
1.03257
1.05494
1.07647
1.09722
1.11726
1.13662
1.15537
1.1736
1.19142
1.20902
1.22661
1.24447
1.26289
1.28211
1.30231
1.32352
1.34566
1.36851
1.39186
1.41548
1.43927
1.46317
1.4872
1.51135
1.53559
1.55989
1.58419
1.60844
1.63262
1.65669
1.68064
1.70446
1.72814
1.75169
1.77511
1.79842
1.82162
1.84472
1.86774
1.89071
1.91362
1.9365
1.95938
1.98227
2.0052
2.02819
2.05126
2.07445
2.09778
2.12128
2.14497
2.16889
2.19306
2.21751
2.24224
2.26729
2.29266
2.31836
2.34439
2.37075
2.39743
2.42442
2.45169
2.47923
2.50701
2.53501
2.5632
2.59156
2.62007
2.64873
2.67752
2.70645
2.73555
2.76483
2.79432
2.82406
2.85408
2.8844
2.91505
2.94602
2.97729
3.00881
3.0405
3.07226
3.10397
3.1355
3.16669
3.19742
3.22755
3.25699
3.28564
3.31346
3.34045
3.36664
3.3921
3.41694
3.44131
3.46536
3.48928
3.51325
3.53749
3.56221
3.58763
3.61393
3.64128
3.66979
3.69947
3.73017
3.76152
3.79284
3.82315
3.85129
3.87609
3.89683
3.91364
3.92773
3.94096
3.95464
3.96811
3.97789
3.9785
3.96377
3.9291
3.87298
3.79703
3.70544
3.60411
3.49974
3.39907
3.30846
3.23411
3.18243
3.16051
3.17547
3.23264
3.32807
3.44469
3.55988
3.65412
3.71548
3.74025
3.7326
3.69724
3.63886
3.56511
3.48182
3.39357
3.30375
3.21481
3.12837
3.04546
2.96669
2.89233
2.82247
2.75703
2.69586
2.63868
2.5852
2.53484
2.48713
2.44081
2.39515
2.3475
0.216063
0.416709
0.534663
0.602864
0.658813
0.705151
0.747216
0.785352
0.821202
0.854852
0.886955
0.917533
0.946862
0.974942
1.0019
1.02774
1.05254
1.07634
1.09921
1.12122
1.14243
1.16291
1.18275
1.20204
1.22088
1.2394
1.25777
1.27618
1.29485
1.31399
1.33379
1.35434
1.37567
1.39769
1.42028
1.4433
1.46664
1.49026
1.51417
1.53838
1.56287
1.58763
1.61259
1.63772
1.66297
1.68829
1.71366
1.73906
1.76447
1.78987
1.81527
1.84066
1.86603
1.8914
1.91676
1.94212
1.96749
1.99288
2.01831
2.04379
2.06935
2.095
2.12076
2.14666
2.17272
2.19897
2.22542
2.2521
2.27904
2.30624
2.33373
2.36151
2.38961
2.41801
2.44671
2.47572
2.50501
2.53457
2.56438
2.59442
2.62465
2.65505
2.68559
2.71624
2.74698
2.7778
2.80868
2.83963
2.87065
2.90176
2.93299
2.96435
2.99587
3.02758
3.05947
3.09154
3.12376
3.15608
3.1884
3.22063
3.25263
3.28426
3.31536
3.34578
3.37539
3.40408
3.43175
3.45836
3.48392
3.50846
3.53207
3.55491
3.57714
3.59898
3.62064
3.64238
3.66449
3.68727
3.71106
3.7362
3.76302
3.79185
3.82299
3.85665
3.89288
3.93151
3.97204
4.01345
4.05421
4.09233
4.12577
4.15311
4.17416
4.19009
4.20242
4.21152
4.21527
4.20926
4.18798
4.14695
4.08461
4.00236
3.90419
3.79587
3.68435
3.57682
3.48015
3.40102
3.34649
3.3247
3.34371
3.40952
3.5156
3.64074
3.75982
3.85304
3.90969
3.92802
3.91426
3.8724
3.80905
3.7318
3.64623
3.5566
3.46599
3.37655
3.28969
3.2063
3.12686
3.05161
2.98059
2.91373
2.85088
2.79177
2.73612
2.68337
2.63302
2.58388
2.53529
2.4848
0.22375
0.432526
0.555359
0.626064
0.684075
0.731987
0.775474
0.814846
0.851845
0.886542
0.919626
0.951116
0.981311
1.01021
1.03796
1.06457
1.09011
1.11462
1.13817
1.16082
1.18266
1.20374
1.22418
1.24408
1.26358
1.28281
1.30192
1.32109
1.34047
1.36024
1.38052
1.40138
1.42283
1.44485
1.46737
1.49034
1.51375
1.53759
1.56188
1.58661
1.61177
1.63731
1.66321
1.68941
1.71587
1.74256
1.76945
1.79653
1.82376
1.85114
1.87865
1.90629
1.93403
1.96189
1.98986
2.01794
2.04613
2.07444
2.10289
2.13147
2.1602
2.18911
2.21819
2.24747
2.27695
2.30666
2.33661
2.36681
2.39726
2.42798
2.45895
2.49019
2.52168
2.5534
2.58535
2.6175
2.64981
2.68227
2.71484
2.74747
2.78014
2.8128
2.84543
2.87799
2.91046
2.94282
2.97507
3.00722
3.03928
3.07125
3.10317
3.13506
3.16692
3.19877
3.2306
3.26239
3.29409
3.32562
3.35689
3.38778
3.41815
3.44788
3.4768
3.5048
3.53176
3.5576
3.58227
3.60577
3.62816
3.64952
3.66999
3.68977
3.70905
3.72806
3.74707
3.76634
3.7862
3.80699
3.82909
3.85293
3.87891
3.90748
3.9391
3.97418
4.01307
4.05595
4.10268
4.15268
4.20467
4.25653
4.30548
4.34859
4.38374
4.41011
4.42792
4.43732
4.43707
4.42458
4.39569
4.34728
4.2783
4.19018
4.08661
3.973
3.8561
3.74321
3.64145
3.55796
3.50067
3.47918
3.50263
3.57746
3.69325
3.82417
3.9433
4.03153
4.08026
4.09022
4.06933
4.02086
3.95353
3.87427
3.78823
3.6992
3.60981
3.52186
3.43648
3.35435
3.27586
3.20114
3.13024
3.06307
2.99949
2.93926
2.88212
2.82751
2.77502
2.72347
2.67237
2.61937
0.234071
0.447652
0.572984
0.645138
0.704531
0.7536
0.798189
0.838582
0.876572
0.912228
0.94626
0.97869
1.00982
1.03967
1.06836
1.09591
1.12239
1.14783
1.1723
1.19584
1.21854
1.24047
1.26175
1.28248
1.30279
1.32284
1.34276
1.36271
1.38283
1.40327
1.4241
1.44542
1.46723
1.48957
1.51244
1.53584
1.55978
1.5843
1.60938
1.63503
1.66122
1.68792
1.71511
1.74275
1.77081
1.79926
1.82809
1.85727
1.88677
1.91659
1.94671
1.97711
2.00778
2.0387
2.06989
2.10132
2.13299
2.16491
2.19707
2.22948
2.26213
2.29502
2.32817
2.36156
2.3952
2.42909
2.46322
2.49758
2.53215
2.56693
2.60189
2.63701
2.67225
2.70758
2.74295
2.77833
2.81365
2.84888
2.88395
2.91882
2.95344
2.98775
3.02173
3.05533
3.08855
3.12137
3.1538
3.18585
3.21757
3.24896
3.28008
3.31094
3.34157
3.37199
3.40218
3.43214
3.46182
3.49116
3.52006
3.54843
3.57614
3.60307
3.62911
3.65415
3.6781
3.70091
3.72256
3.7431
3.76259
3.78114
3.7989
3.81606
3.83282
3.84939
3.86604
3.88303
3.90069
3.91938
3.93952
3.96151
3.9858
4.01285
4.04317
4.07727
4.11562
4.15864
4.20662
4.25959
4.31702
4.3775
4.43854
4.49676
4.54861
4.59103
4.62158
4.63821
4.63879
4.62204
4.58555
4.5287
4.45208
4.35769
4.24906
4.13104
4.00987
3.89259
3.78642
3.69901
3.63944
3.61929
3.6485
3.73305
3.8569
3.98997
4.10471
4.18392
4.22185
4.22216
4.19314
4.13886
4.06884
3.98927
3.90468
3.81824
3.73208
3.64758
3.56557
3.48653
3.41068
3.33811
3.26879
3.20265
3.13955
3.07928
3.0216
2.96601
2.91212
2.85886
2.80584
2.75093
0.23944
0.456686
0.58455
0.658074
0.71876
0.768868
0.814482
0.855827
0.894782
0.931395
0.966411
0.999842
1.03201
1.06292
1.09271
1.1214
1.14904
1.17567
1.20134
1.2261
1.25001
1.27315
1.29563
1.31754
1.33902
1.36019
1.3812
1.4022
1.42335
1.44474
1.46649
1.48866
1.51131
1.5345
1.55827
1.58266
1.6077
1.63341
1.65981
1.68688
1.71463
1.74303
1.77206
1.80171
1.83197
1.8628
1.89419
1.92612
1.95858
1.99154
2.02499
2.0589
2.09326
2.12806
2.16328
2.19889
2.2349
2.27128
2.30803
2.34512
2.38254
2.42027
2.4583
2.49661
2.53517
2.57396
2.61294
2.65208
2.69134
2.73067
2.77003
2.80936
2.8486
2.88767
2.92652
2.96506
3.00322
3.04092
3.0781
3.11467
3.15058
3.18578
3.22022
3.25388
3.28675
3.31884
3.35018
3.38083
3.41084
3.44027
3.46918
3.49763
3.52566
3.55332
3.58061
3.60755
3.63411
3.66025
3.68591
3.71098
3.73536
3.75894
3.78162
3.8033
3.8239
3.84336
3.86169
3.87895
3.89522
3.9106
3.92524
3.9393
3.95299
3.96652
3.98015
3.99418
4.00897
4.02493
4.04248
4.06209
4.08422
4.10937
4.13807
4.17082
4.20805
4.25015
4.29743
4.35017
4.40847
4.47186
4.5389
4.60694
4.67236
4.73089
4.77763
4.80713
4.81421
4.79699
4.75427
4.68829
4.60254
4.50065
4.3864
4.2641
4.13918
4.01817
3.90822
3.81762
3.75706
3.74037
3.77743
3.8725
4.00212
4.13315
4.23904
4.30561
4.3305
4.32085
4.28303
4.22421
4.15302
4.07486
3.99352
3.91146
3.83026
3.7509
3.6739
3.59953
3.52787
3.45891
3.3926
3.32882
3.26747
3.20833
3.1512
3.09563
3.04129
2.98721
2.93313
2.87708
0.244352
0.462564
0.591344
0.665503
0.727032
0.777913
0.824385
0.866594
0.906484
0.944078
0.980152
1.0147
1.04807
1.08025
1.11139
1.14148
1.1706
1.19876
1.22601
1.25239
1.27796
1.30278
1.32694
1.35053
1.37369
1.39652
1.41918
1.44181
1.46452
1.48745
1.51071
1.53438
1.55854
1.58329
1.60869
1.6348
1.66167
1.68932
1.71777
1.74704
1.77712
1.80802
1.83974
1.87226
1.90558
1.93969
1.97456
2.01019
2.04654
2.08361
2.12136
2.15978
2.19883
2.23849
2.27873
2.31952
2.36083
2.40263
2.44488
2.48755
2.5306
2.57399
2.61767
2.66161
2.70574
2.75001
2.79436
2.83874
2.88305
2.92724
2.97121
3.01488
3.05816
3.10095
3.14314
3.18464
3.22533
3.26512
3.30392
3.34164
3.3782
3.41355
3.44765
3.48048
3.51203
3.54237
3.57154
3.59965
3.6268
3.65307
3.67858
3.7034
3.72764
3.75135
3.77458
3.79738
3.81974
3.84163
3.86299
3.88375
3.9038
3.92303
3.94133
3.95858
3.9747
3.98964
4.00342
4.01614
4.02789
4.03875
4.04884
4.05829
4.06731
4.07612
4.08502
4.09433
4.10449
4.11596
4.12927
4.14497
4.16366
4.18595
4.21245
4.24377
4.28042
4.32267
4.37062
4.42424
4.48348
4.54826
4.61797
4.69111
4.76498
4.83546
4.89664
4.94038
4.95774
4.94395
4.89773
4.82289
4.72672
4.61554
4.49426
4.36692
4.23812
4.11365
4.00066
3.90841
3.8496
3.83987
3.88793
3.99385
4.12608
4.25055
4.34342
4.39451
4.40505
4.38469
4.33857
4.27685
4.20622
4.13116
4.05456
3.9783
3.90343
3.83055
3.75987
3.69145
3.62524
3.56116
3.49909
3.43892
3.38052
3.32369
3.26825
3.21379
3.16006
3.10617
3.052
2.99577
0.245035
0.462216
0.591639
0.666277
0.728574
0.780192
0.827554
0.870695
0.911649
0.950391
0.987743
1.02368
1.05856
1.09235
1.12523
1.15716
1.18824
1.21846
1.24787
1.2765
1.30441
1.33163
1.35826
1.38438
1.4101
1.43552
1.46079
1.48602
1.5113
1.53676
1.56253
1.58873
1.61546
1.64285
1.67101
1.69998
1.72982
1.76056
1.79223
1.82488
1.85851
1.89314
1.92879
1.96544
2.00309
2.04174
2.08137
2.12196
2.16349
2.20592
2.24921
2.29335
2.33827
2.38394
2.4303
2.47732
2.52492
2.57306
2.62168
2.67071
2.72009
2.76976
2.81964
2.86965
2.91972
2.96976
3.01968
3.0694
3.11881
3.1678
3.21628
3.26411
3.31119
3.35739
3.40257
3.44662
3.48941
3.53082
3.57073
3.60905
3.64568
3.68057
3.71367
3.74497
3.77448
3.80226
3.82842
3.85308
3.87638
3.89845
3.91943
3.93945
3.95864
3.97712
3.99498
4.01228
4.02904
4.04525
4.06086
4.0758
4.09001
4.10339
4.11578
4.12706
4.13713
4.14596
4.15362
4.1603
4.16608
4.17095
4.17498
4.17831
4.18117
4.18378
4.18644
4.1895
4.19335
4.19845
4.20531
4.21461
4.22709
4.24353
4.2648
4.2918
4.32534
4.36607
4.4143
4.46992
4.53242
4.60116
4.67531
4.75354
4.83361
4.91235
4.98401
5.03943
5.06717
5.05884
5.01221
4.92999
4.82297
4.70082
4.57054
4.43668
4.30319
4.17533
4.06051
3.96934
3.91663
3.91861
3.98151
4.09701
4.22774
4.34095
4.41698
4.44972
4.4456
4.41412
4.36228
4.29903
4.22988
4.15886
4.08821
4.01896
3.95156
3.88611
3.82267
3.76112
3.70131
3.64306
3.58621
3.53061
3.47613
3.42259
3.36982
3.31746
3.2653
3.21257
3.15926
3.10378
0.244514
0.458793
0.586921
0.661217
0.723808
0.775931
0.8241
0.868212
0.910379
0.950519
0.989503
1.02723
1.06408
1.1
1.13518
1.16958
1.20331
1.23634
1.26875
1.30053
1.33176
1.36246
1.39272
1.4226
1.4522
1.48161
1.51091
1.54021
1.56959
1.59916
1.62902
1.65927
1.69013
1.72179
1.75432
1.78776
1.82214
1.85753
1.89399
1.93157
1.97029
2.01017
2.05123
2.09346
2.13686
2.18141
2.2271
2.27389
2.32174
2.37061
2.42045
2.47119
2.52278
2.57513
2.62819
2.68186
2.73608
2.79076
2.84582
2.90117
2.95671
3.01236
3.06803
3.12361
3.17901
3.23411
3.28882
3.34301
3.39658
3.4494
3.50135
3.55229
3.6021
3.65064
3.69777
3.74334
3.78723
3.82931
3.86944
3.90752
3.94347
3.97721
4.00869
4.03788
4.06482
4.08956
4.11221
4.13292
4.15184
4.16911
4.18489
4.19935
4.21264
4.22494
4.23641
4.24714
4.25716
4.26646
4.27502
4.28281
4.28987
4.29611
4.30131
4.30528
4.30795
4.30931
4.30945
4.30886
4.3075
4.30502
4.30159
4.29743
4.29277
4.28786
4.28294
4.27836
4.27448
4.27177
4.27071
4.27221
4.27714
4.286
4.29973
4.31954
4.34663
4.38222
4.42728
4.48224
4.54677
4.61979
4.69975
4.78487
4.87268
4.95938
5.039
5.10233
5.1375
5.13403
5.08901
5.00218
4.88611
4.75306
4.61272
4.47094
4.33142
4.20014
4.08584
4.00039
3.96024
3.97849
4.05871
4.18038
4.30449
4.40204
4.45798
4.47303
4.45748
4.41666
4.3603
4.29593
4.22865
4.16158
4.0964
4.0337
3.97357
3.91602
3.86055
3.80669
3.75404
3.70239
3.65159
3.60143
3.55179
3.50247
3.45332
3.40401
3.35439
3.3038
3.2523
3.19855
0.240675
0.450291
0.576364
0.650289
0.713298
0.766153
0.815451
0.860903
0.904702