/*--------------------------------*- C++ -*----------------------------------*\
| =========                 |                                                 |
| \\      /  F ield         | OpenFOAM: The Open Source CFD Toolbox           |
|  \\    /   O peration     | Version:  v1906                                 |
|   \\  /    A nd           | Web:      www.OpenFOAM.com                      |
|    \\/     M anipulation  |                                                 |
\*---------------------------------------------------------------------------*/
FoamFile
{
    version     2.0;
    format      ascii;
    class       volScalarField;
    location    "900";
    object      nut;
}
// * * * * * * * * * * * * * * * * * * * * * * * * * * * * * * * * * * * * * //

dimensions      [0 2 -1 0 0 0 0];


internalField   nonuniform List<scalar> 
12225
(
5.38048e-05
5.34216e-05
5.26395e-05
5.17775e-05
5.09456e-05
5.01799e-05
4.94862e-05
4.88688e-05
4.83063e-05
4.78163e-05
4.73519e-05
4.69722e-05
4.66635e-05
4.6413e-05
4.61822e-05
4.60169e-05
4.58167e-05
4.57432e-05
0.00074366
0.000274831
0.000208921
0.000186819
0.000173796
0.000168895
0.000164709
0.000161078
0.000158159
0.000155616
0.000153679
0.000151755
0.000150473
0.000148726
0.000148148
0.000146434
0.000146799
0.000144907
0.00337131
0.000965696
0.000668437
0.000562264
0.000503876
0.000472046
0.000448917
0.000431669
0.000418797
0.000408369
0.000399729
0.000392363
0.000386325
0.000380625
0.000376498
0.000371516
0.0003697
0.000364643
0.00784749
0.00229239
0.00147328
0.00117578
0.00101862
0.000926509
0.00086465
0.00081989
0.000787041
0.000761235
0.000740167
0.000723413
0.000709697
0.000697849
0.000688318
0.000678966
0.000673701
0.000663257
0.0127628
0.00432675
0.00270977
0.0021044
0.00178861
0.00159954
0.00147351
0.00138309
0.00131579
0.00126364
0.00122171
0.00118757
0.00115984
0.00113597
0.00111581
0.001098
0.00108521
0.00106687
0.0171139
0.00693203
0.00436921
0.00334595
0.00280534
0.00247645
0.00225614
0.00209817
0.00197992
0.00188826
0.00181496
0.00175513
0.00170583
0.0016642
0.0016288
0.00159807
0.0015724
0.00154422
0.0205947
0.009884
0.00641804
0.00491194
0.00409433
0.0035886
0.00324693
0.00300104
0.00281615
0.00267237
0.00255734
0.00246331
0.00238533
0.00231958
0.00226353
0.00221508
0.00217385
0.00213135
0.0232407
0.0129307
0.00876074
0.00676566
0.00563811
0.00492478
0.00443635
0.004082
0.00381383
0.00360422
0.00343601
0.00329813
0.00318331
0.0030863
0.00300337
0.00293166
0.00286944
0.00280827
0.0252064
0.0158687
0.0112826
0.00885751
0.00741824
0.00648221
0.00583032
0.00535222
0.00498753
0.00470075
0.00446957
0.00427943
0.00412051
0.00398585
0.00387042
0.00377043
0.00368289
0.0036
0.0266542
0.018555
0.0138529
0.0111074
0.00938586
0.00822888
0.00740598
0.0067938
0.00632202
0.00594806
0.00564476
0.00539409
0.00518367
0.00500473
0.0048508
0.00471702
0.00459912
0.00449026
0.0277222
0.0209148
0.016356
0.0134293
0.0114842
0.0101281
0.0091398
0.00839206
0.00780866
0.00734189
0.00696055
0.00664355
0.00637617
0.00614783
0.00595071
0.00577881
0.0056269
0.00548857
0.0284468
0.0227417
0.0184778
0.015512
0.0134328
0.0119305
0.0108082
0.00994395
0.00926076
0.00870861
0.00825394
0.00787356
0.00755103
0.00727436
0.00703458
0.00682474
0.00663886
0.0064709
0.0290076
0.0243031
0.0204375
0.0175386
0.0153942
0.0137851
0.0125502
0.0115804
0.0108023
0.0101663
0.00963782
0.00919251
0.00881268
0.00848525
0.0082003
0.00795005
0.00772798
0.00752798
0.0294889
0.0257557
0.0223981
0.0196768
0.017541
0.0158668
0.0145397
0.0134718
0.0125991
0.0118753
0.011267
0.0107497
0.0103051
0.00991953
0.00958217
0.00928463
0.00901991
0.00878197
0.0298838
0.0270287
0.0242394
0.021798
0.0197581
0.0180794
0.0166983
0.0155547
0.014599
0.0137924
0.0131051
0.012514
0.0120013
0.0115533
0.0111589
0.0108093
0.0104972
0.0102165
0.0301877
0.0280605
0.0258271
0.0237258
0.0218569
0.0202388
0.0188528
0.017668
0.0166528
0.0157788
0.0150221
0.014363
0.0137853
0.0132761
0.0128246
0.0124222
0.0120617
0.011737
0.0303978
0.0288006
0.0270244
0.0252476
0.0235769
0.0220608
0.0207113
0.0195218
0.0184771
0.0175599
0.0167531
0.0160412
0.0154108
0.0148503
0.0143499
0.0139014
0.0134978
0.0131337
0.0305044
0.0291849
0.027668
0.0260934
0.0245604
0.0231269
0.0218186
0.0206417
0.019591
0.0186561
0.017825
0.0170852
0.0164255
0.0158355
0.0153062
0.0148299
0.0143998
0.0140099
0.0304715
0.029067
0.0274718
0.0258369
0.0242635
0.0228059
0.0214857
0.020305
0.0192557
0.0183254
0.0175004
0.0167678
0.0161154
0.0155329
0.015011
0.0145422
0.0141198
0.0137385
0.030231
0.0282138
0.0260759
0.024042
0.0222136
0.0206153
0.0192349
0.0180467
0.0170227
0.0161367
0.0153665
0.0146931
0.0141011
0.0135779
0.0131132
0.0126987
0.0123276
0.0119945
0.0298206
0.0268279
0.0239495
0.0214628
0.0194053
0.0177238
0.0163471
0.0152109
0.0142636
0.0134653
0.0127855
0.0122011
0.0116942
0.0112511
0.010861
0.0105157
0.0102087
0.00993604
0.0291395
0.0247086
0.0209847
0.0181322
0.0159861
0.0143545
0.0130895
0.012088
0.0112792
0.0106144
0.0100595
0.00958989
0.00918786
0.00884009
0.00853652
0.00826953
0.00803344
0.00782466
0.0280359
0.0217162
0.0172851
0.0143381
0.0123313
0.0109079
0.00985699
0.00905404
0.00842264
0.00791413
0.00749636
0.00714732
0.00685151
0.0065977
0.00637749
0.00618469
0.00601457
0.005866
0.0262543
0.0178166
0.0131459
0.0104896
0.00884748
0.00775146
0.00697408
0.00639675
0.00595215
0.00559971
0.00531373
0.00507717
0.00487833
0.00470893
0.00456282
0.00443551
0.00432336
0.00422554
0.0233814
0.0132059
0.00902259
0.00699356
0.00583832
0.00510156
0.00459311
0.00422285
0.00394167
0.00372102
0.00354342
0.00339747
0.00327544
0.00317199
0.00308294
0.00300551
0.00293645
0.00287688
0.0189045
0.00845558
0.00545009
0.00418491
0.00350639
0.00308618
0.00280092
0.00259652
0.00244273
0.00232276
0.0022267
0.00214805
0.00208253
0.00202723
0.00197958
0.0019385
0.00190187
0.00187075
0.0125844
0.00438893
0.00278859
0.00217246
0.00185036
0.00165226
0.00151834
0.00142432
0.00135356
0.00129833
0.00125431
0.00121834
0.00118851
0.00116348
0.00114143
0.00112282
0.00110536
0.00109061
0.00562611
0.00171148
0.00115551
0.000945966
0.00083697
0.000768998
0.000723314
0.00069314
0.000668752
0.000649297
0.000633767
0.000620742
0.00060949
0.000599941
0.000591263
0.000584044
0.000576815
0.000571846
0.00117126
0.00043564
0.000327286
0.000284799
0.000262904
0.000248746
0.000241418
0.000237189
0.000233211
0.000229597
0.000226361
0.000223547
0.000220985
0.000218817
0.000216739
0.00021507
0.000213279
0.000211637
7.08579e-05
7.01306e-05
6.91147e-05
6.81138e-05
6.71687e-05
6.62992e-05
6.5503e-05
6.47779e-05
6.41194e-05
6.35208e-05
6.29754e-05
6.24765e-05
6.202e-05
6.15992e-05
6.12138e-05
6.08544e-05
6.05266e-05
6.02148e-05
1.01782e-05
3.09737e-05
3.73269e-05
4.02849e-05
4.2483e-05
4.39552e-05
4.51929e-05
4.61289e-05
4.69394e-05
4.75902e-05
4.81567e-05
4.86231e-05
4.9022e-05
4.9343e-05
4.95992e-05
4.97814e-05
4.98983e-05
4.99472e-05
4.99222e-05
4.98564e-05
4.97173e-05
4.94959e-05
4.92049e-05
4.88049e-05
4.82213e-05
4.7211e-05
4.56961e-05
4.34769e-05
4.00614e-05
3.56041e-05
3.11489e-05
2.814e-05
2.85047e-05
3.15538e-05
3.51779e-05
3.86342e-05
4.18833e-05
4.47272e-05
4.69576e-05
4.88173e-05
5.03903e-05
5.17614e-05
5.29819e-05
5.40878e-05
5.51034e-05
5.60459e-05
5.69273e-05
5.77566e-05
5.85404e-05
5.92841e-05
5.99918e-05
6.0667e-05
6.13126e-05
6.19312e-05
6.25239e-05
6.30933e-05
6.36406e-05
6.41676e-05
6.46753e-05
6.5165e-05
6.56372e-05
6.60928e-05
6.65322e-05
6.6956e-05
6.73643e-05
6.77576e-05
6.81355e-05
6.84988e-05
6.88466e-05
6.9179e-05
6.9496e-05
6.97978e-05
7.00851e-05
7.03597e-05
7.06236e-05
7.08782e-05
7.1123e-05
7.13579e-05
7.15838e-05
7.18017e-05
7.20126e-05
7.22174e-05
7.24177e-05
7.26146e-05
7.28101e-05
7.30057e-05
7.32037e-05
7.34057e-05
7.36141e-05
7.38302e-05
7.40561e-05
7.4294e-05
7.4546e-05
7.48139e-05
7.50996e-05
7.54044e-05
7.573e-05
7.60777e-05
7.64492e-05
7.6846e-05
7.72701e-05
7.77236e-05
7.82091e-05
7.87293e-05
7.92875e-05
7.98868e-05
8.0531e-05
8.12232e-05
8.19671e-05
8.27656e-05
8.36215e-05
8.45366e-05
8.5512e-05
8.65475e-05
8.76416e-05
8.87911e-05
8.99908e-05
9.12339e-05
9.25112e-05
9.38101e-05
9.51121e-05
9.63939e-05
9.7629e-05
9.87858e-05
9.98919e-05
0.000100973
0.000102062
0.000103144
0.00010414
0.000105215
0.00010589
0.000106156
0.00010582
0.000105592
0.000105097
0.000104607
0.000103993
0.000103237
0.000102369
0.000101508
0.000100444
9.74033e-05
9.15387e-05
8.22815e-05
6.7367e-05
6.00731e-05
5.91808e-05
6.35675e-05
6.88525e-05
7.40521e-05
7.83784e-05
8.19303e-05
8.50938e-05
8.76344e-05
8.99916e-05
9.22979e-05
9.44326e-05
9.62098e-05
9.76475e-05
9.89306e-05
9.97085e-05
9.9356e-05
9.85146e-05
9.73691e-05
9.60082e-05
9.45167e-05
9.29708e-05
9.14263e-05
8.99283e-05
8.85007e-05
8.7158e-05
8.58982e-05
8.47317e-05
8.36356e-05
8.26307e-05
8.16512e-05
8.07535e-05
7.98176e-05
7.89192e-05
7.58819e-05
1.37666e-05
0.000104559
0.000205185
0.000265897
0.000312228
0.000346316
0.000375908
0.00040039
0.000423221
0.000444094
0.000464701
0.000484722
0.000504549
0.000523611
0.000541677
0.000558203
0.000572949
0.000585729
0.000596663
0.000605924
0.00061387
0.000620819
0.000627564
0.000634453
0.000642082
0.00065285
0.000668815
0.000691306
0.000719896
0.000748006
0.000770863
0.000786507
0.000794474
0.000795575
0.000791616
0.000784578
0.000775746
0.000766927
0.000760576
0.000757574
0.000757676
0.000760458
0.000765448
0.000772198
0.000780298
0.000789388
0.000799159
0.000809348
0.000819742
0.000830184
0.000840542
0.000850713
0.000860617
0.000870196
0.00087941
0.000888233
0.000896649
0.000904653
0.000912245
0.000919428
0.000926209
0.000932595
0.000938595
0.000944214
0.000949459
0.000954333
0.000958837
0.000962975
0.000966745
0.000970147
0.000973182
0.000975853
0.000978166
0.00098013
0.000981752
0.000983041
0.000984001
0.000984638
0.000984958
0.000984969
0.00098468
0.000984096
0.000983228
0.000982078
0.000980661
0.000978984
0.000977067
0.000974921
0.000972571
0.000970031
0.000967322
0.00096447
0.000961509
0.000958471
0.000955385
0.000952274
0.000949152
0.000946032
0.000942916
0.000939805
0.000936698
0.00093359
0.000930484
0.00092738
0.000924291
0.000921232
0.000918231
0.000915325
0.000912564
0.000910009
0.000907732
0.000905808
0.000904315
0.000903323
0.000902889
0.000903041
0.00090376
0.000904969
0.000906504
0.000908071
0.000909123
0.000908635
0.000904828
0.00089509
0.00087877
0.000859313
0.000841932
0.000828028
0.000818396
0.000814092
0.000815192
0.000820079
0.000829025
0.000837946
0.000843596
0.000846512
0.000844979
0.00084066
0.000843565
0.000867224
0.000909314
0.000961799
0.00104662
0.00120532
0.00128043
0.00124573
0.00115412
0.00107355
0.0010332
0.00102874
0.00104159
0.00105191
0.00104773
0.0010202
0.00100561
0.00100461
0.00100547
0.00099954
0.00098645
0.00097245
0.000965818
0.000953413
0.000934484
0.000912147
0.000888528
0.000865195
0.00084325
0.000823269
0.000805833
0.00079075
0.000777764
0.000766599
0.000757176
0.000749055
0.00074242
0.000736287
0.000732595
0.000729695
0.000717669
0.000676485
1.76947e-05
0.000149797
0.000305585
0.000425314
0.000522132
0.000600358
0.000665745
0.000720745
0.000770409
0.000814755
0.000857636
0.000898509
0.0009386
0.000976863
0.00101296
0.001046
0.0010762
0.00110376
0.001129
0.00115236
0.00117445
0.00119595
0.00121759
0.00124
0.00126362
0.00128882
0.00131549
0.00134285
0.00136934
0.00139562
0.0014204
0.00144253
0.00146128
0.00147658
0.00148889
0.00149894
0.0015075
0.00151539
0.00152314
0.00153126
0.00154066
0.00155172
0.00156449
0.00157877
0.0015943
0.00161074
0.00162782
0.00164526
0.00166282
0.00168024
0.00169731
0.00171388
0.00172983
0.00174508
0.0017596
0.00177334
0.0017863
0.00179848
0.00180989
0.00182054
0.00183045
0.00183965
0.00184815
0.00185597
0.00186313
0.00186964
0.00187552
0.00188079
0.00188544
0.0018895
0.00189298
0.00189588
0.00189823
0.00190003
0.00190132
0.00190211
0.00190241
0.00190225
0.00190164
0.00190062
0.00189921
0.00189743
0.00189531
0.00189287
0.00189015
0.00188716
0.00188395
0.00188053
0.00187695
0.00187323
0.00186942
0.00186553
0.00186162
0.00185771
0.00185383
0.00184999
0.00184622
0.00184252
0.0018389
0.00183534
0.00183186
0.00182843
0.00182504
0.0018217
0.0018184
0.00181513
0.00181191
0.00180876
0.0018057
0.00180278
0.00180005
0.00179755
0.00179533
0.00179341
0.00179179
0.00179045
0.00178929
0.00178813
0.0017867
0.00178451
0.00178106
0.00177567
0.00176776
0.00175709
0.00174469
0.00173269
0.00172577
0.0017253
0.00173199
0.00174617
0.00176808
0.0017976
0.00183106
0.00186901
0.00190485
0.00193904
0.00197047
0.00200339
0.00205119
0.00213006
0.00224977
0.00237917
0.00248641
0.00254413
0.00251025
0.00241645
0.00230796
0.00222147
0.00216498
0.00214044
0.00213505
0.00213788
0.00214186
0.00214623
0.00217251
0.00221113
0.00224144
0.00225509
0.00225621
0.00224792
0.00223056
0.00219726
0.00215224
0.00210116
0.00204592
0.00199061
0.00193822
0.00189036
0.00184766
0.00180998
0.00177717
0.00174884
0.00172473
0.00170394
0.00168642
0.00167109
0.00166017
0.00164997
0.00163406
0.00157541
1.91082e-05
0.000164247
0.000353869
0.00050585
0.000639383
0.00074946
0.000846384
0.000927901
0.00100145
0.00106651
0.00112817
0.00118568
0.00124106
0.00129305
0.00134256
0.001389
0.00143251
0.0014723
0.00150908
0.00154348
0.0015761
0.00160756
0.00163839
0.00166903
0.0016998
0.00173072
0.00176169
0.0017925
0.00182293
0.00185263
0.00188105
0.00190757
0.00193226
0.00195535
0.00197692
0.00199699
0.00201599
0.00203443
0.00205284
0.00207165
0.00209098
0.00211088
0.00213136
0.00215236
0.00217373
0.00219529
0.00221685
0.00223818
0.0022591
0.00227947
0.00229918
0.00231815
0.00233629
0.00235354
0.00236989
0.00238532
0.00239981
0.00241338
0.00242606
0.00243785
0.0024488
0.00245891
0.00246823
0.00247678
0.00248458
0.00249165
0.00249802
0.00250371
0.00250874
0.00251313
0.0025169
0.00252008
0.0025227
0.00252478
0.00252636
0.00252746
0.00252813
0.00252839
0.00252829
0.00252786
0.00252715
0.00252617
0.00252497
0.00252357
0.00252201
0.0025203
0.00251848
0.00251657
0.00251459
0.00251257
0.00251054
0.0025085
0.00250649
0.00250453
0.00250263
0.00250081
0.00249908
0.00249746
0.00249596
0.00249457
0.0024933
0.00249214
0.00249107
0.00249009
0.00248918
0.00248832
0.00248751
0.00248671
0.00248592
0.00248519
0.00248457
0.00248411
0.00248382
0.00248375
0.00248391
0.00248431
0.00248494
0.00248574
0.00248668
0.00248743
0.00248769
0.00248723
0.00248578
0.00248289
0.0024775
0.00247548
0.00247969
0.00249144
0.00251109
0.00253885
0.00257564
0.00261908
0.00267205
0.0027344
0.00280238
0.00287331
0.00294694
0.0030262
0.00311979
0.00323175
0.00335538
0.00345852
0.00350655
0.00350109
0.00344433
0.00335268
0.00325989
0.00318521
0.00313467
0.00311134
0.00310629
0.00311461
0.00313419
0.00316451
0.00321629
0.0032666
0.00330059
0.00331697
0.0033172
0.00330214
0.00327047
0.00322445
0.00316905
0.00310698
0.00303544
0.0029634
0.00289514
0.00283271
0.00277621
0.00272554
0.00268071
0.00264134
0.00260696
0.00257619
0.0025486
0.00252361
0.00250355
0.00248407
0.00245893
0.00239227
2.12695e-05
0.000184742
0.000398028
0.000574591
0.000731683
0.000865905
0.000985115
0.00109007
0.00118346
0.00126771
0.00134444
0.00141517
0.00148073
0.00154183
0.00159891
0.00165246
0.00170273
0.00174999
0.00179446
0.0018365
0.00187646
0.00191478
0.00195187
0.00198809
0.00202368
0.00205875
0.00209328
0.0021271
0.00215993
0.00219134
0.0022208
0.00224805
0.00227474
0.00230158
0.00232791
0.00235271
0.00237652
0.00239981
0.00242301
0.00244638
0.00247005
0.00249402
0.00251824
0.00254261
0.002567
0.00259125
0.00261522
0.00263876
0.00266173
0.00268402
0.00270552
0.00272614
0.00274584
0.00276457
0.0027823
0.00279903
0.00281476
0.00282951
0.00284329
0.00285615
0.00286811
0.00287921
0.00288948
0.00289896
0.00290768
0.00291567
0.00292297
0.00292961
0.00293561
0.00294102
0.00294587
0.00295019
0.00295402
0.00295741
0.00296038
0.00296299
0.00296526
0.00296725
0.00296898
0.0029705
0.00297183
0.002973
0.00297405
0.00297498
0.00297581
0.00297656
0.00297725
0.00297788
0.00297847
0.00297903
0.00297957
0.00298011
0.00298067
0.00298127
0.00298193
0.00298267
0.00298353
0.00298453
0.00298569
0.00298704
0.00298858
0.00299032
0.00299227
0.00299442
0.00299678
0.00299935
0.00300213
0.00300515
0.00300845
0.00301199
0.00301578
0.00301983
0.00302415
0.00302878
0.00303375
0.00303909
0.00304484
0.00305101
0.0030576
0.00306479
0.00307282
0.00308197
0.00309264
0.00310561
0.00312212
0.0031439
0.00317121
0.00320428
0.00324309
0.00328633
0.00333439
0.00338865
0.00345594
0.00353779
0.00363247
0.00373342
0.00383524
0.00393429
0.00403509
0.00413194
0.0042144
0.00426856
0.00428818
0.00427128
0.00422256
0.004155
0.00408709
0.00403
0.00399212
0.00397469
0.00397409
0.00398803
0.00401563
0.00405988
0.00411228
0.00415572
0.00418215
0.00418962
0.00417908
0.0041516
0.00410609
0.00404973
0.00398665
0.00391939
0.00385033
0.00378399
0.00372245
0.00366714
0.00361748
0.00357225
0.00353162
0.00349521
0.00346213
0.00343072
0.00339939
0.00336927
0.00334306
0.00331567
0.0032806
0.00320773
2.23662e-05
0.000195714
0.000428506
0.000623783
0.000801067
0.00095352
0.00109055
0.00121151
0.00132009
0.00141794
0.00150673
0.00158806
0.00166288
0.00173222
0.00179666
0.00185683
0.00191323
0.00196636
0.00201655
0.00206415
0.00210943
0.00215264
0.00219405
0.00223385
0.00227218
0.00230908
0.00234441
0.00237787
0.00240898
0.0024371
0.00246164
0.00248727
0.00251607
0.00254743
0.0025796
0.00261085
0.00263994
0.00266771
0.00269478
0.00272153
0.00274815
0.00277472
0.00280123
0.00282761
0.00285378
0.00287963
0.00290504
0.0029299
0.0029541
0.00297753
0.00300012
0.0030218
0.0030425
0.00306221
0.00308089
0.00309856
0.00311521
0.00313088
0.00314557
0.00315934
0.00317222
0.00318424
0.00319544
0.00320588
0.00321559
0.0032246
0.00323296
0.00324072
0.00324791
0.00325457
0.00326076
0.0032665
0.00327185
0.00327684
0.00328153
0.00328596
0.00329016
0.00329417
0.00329802
0.00330175
0.00330538
0.00330892
0.00331239
0.00331579
0.00331914
0.00332244
0.00332567
0.00332886
0.003332
0.00333509
0.00333814
0.00334117
0.0033442
0.00334725
0.00335035
0.00335355
0.00335687
0.00336037
0.00336407
0.00336803
0.00337225
0.00337678
0.00338162
0.00338679
0.00339229
0.00339813
0.00340431
0.00341084
0.00341772
0.00342497
0.00343262
0.00344071
0.00344931
0.00345849
0.00346837
0.00347907
0.00349074
0.0035036
0.00351789
0.00353393
0.0035521
0.00357282
0.00359663
0.00362422
0.00365608
0.00369273
0.00373324
0.00377788
0.00382642
0.00387654
0.00392941
0.00399349
0.00407212
0.00416697
0.00427654
0.00439088
0.00449704
0.00459194
0.00468052
0.00475942
0.00482373
0.00486945
0.00489417
0.00489589
0.0048764
0.00484414
0.00480294
0.00476966
0.00474706
0.00473575
0.00473647
0.00474766
0.00476903
0.0048162
0.00486244
0.00489397
0.00490597
0.00489781
0.00487233
0.0048316
0.00477347
0.00470902
0.0046418
0.0045746
0.00450994
0.0044499
0.00439551
0.00434728
0.00430387
0.00426426
0.00422877
0.00419672
0.00416701
0.00413842
0.00410993
0.00408023
0.00405215
0.00402079
0.0039796
0.00390573
2.39154e-05
0.000207676
0.000457914
0.000670441
0.000863011
0.00103047
0.00117977
0.00131261
0.00143141
0.00153869
0.00163616
0.0017255
0.00180775
0.00188384
0.00195441
0.00202016
0.00208161
0.00213927
0.00219354
0.0022448
0.00229332
0.00233937
0.00238309
0.00242463
0.00246403
0.00250129
0.00253628
0.00256872
0.00259828
0.00262465
0.00264991
0.00267772
0.00270928
0.00274337
0.00277752
0.00280999
0.00284111
0.00287124
0.00290069
0.00292965
0.00295824
0.00298651
0.00301447
0.00304207
0.00306926
0.00309596
0.00312209
0.00314756
0.00317229
0.0031962
0.00321923
0.00324133
0.00326246
0.00328258
0.00330171
0.00331982
0.00333694
0.00335309
0.0033683
0.00338261
0.00339605
0.00340867
0.00342052
0.00343164
0.00344207
0.00345187
0.00346108
0.00346976
0.00347795
0.00348571
0.00349308
0.00350011
0.00350686
0.00351337
0.00351968
0.00352584
0.00353189
0.00353785
0.00354375
0.00354962
0.00355546
0.00356129
0.0035671
0.00357289
0.00357866
0.00358438
0.00359006
0.00359567
0.00360122
0.00360669
0.0036121
0.00361744
0.00362275
0.00362805
0.00363338
0.00363879
0.00364431
0.00365002
0.00365597
0.00366219
0.00366874
0.00367566
0.00368298
0.00369071
0.00369888
0.00370749
0.00371656
0.0037261
0.00373615
0.00374674
0.00375793
0.0037698
0.00378245
0.00379602
0.00381065
0.00382655
0.00384394
0.00386309
0.0038843
0.00390789
0.00393422
0.00396365
0.00399655
0.00403348
0.00407455
0.0041186
0.00416719
0.00422034
0.00427806
0.00434118
0.00441154
0.00449017
0.00457471
0.00466938
0.00477562
0.00487986
0.00497281
0.00506049
0.00514322
0.00521872
0.00528533
0.00534132
0.00538448
0.00541257
0.00542566
0.00542752
0.00542341
0.00541279
0.00540287
0.0053949
0.00538863
0.00538296
0.00539251
0.00543801
0.00547684
0.00549531
0.00549141
0.00546708
0.0054276
0.0053754
0.00530692
0.00523668
0.00516739
0.00510136
0.00504028
0.0049851
0.00493611
0.00489293
0.0048547
0.00482108
0.00479141
0.00476479
0.00474019
0.00471667
0.00469353
0.00467035
0.00464621
0.00461687
0.00457465
0.0045098
2.47269e-05
0.000214023
0.000478581
0.000704462
0.000910757
0.00109038
0.00125096
0.00139362
0.0015211
0.00163608
0.00174035
0.00183575
0.00192347
0.0020046
0.00207985
0.00214986
0.00221508
0.00227604
0.00233315
0.00238677
0.00243723
0.00248474
0.00252946
0.00257148
0.00261086
0.00264756
0.00268147
0.00271236
0.00273992
0.00276494
0.00279092
0.00282031
0.00285365
0.00288959
0.00292546
0.00295951
0.00299222
0.00302396
0.00305494
0.00308527
0.00311503
0.00314425
0.00317293
0.00320107
0.00322863
0.00325557
0.00328183
0.00330736
0.00333209
0.00335596
0.00337893
0.00340095
0.00342199
0.00344205
0.0034611
0.00347917
0.00349626
0.0035124
0.00352763
0.00354199
0.00355551
0.00356826
0.00358028
0.00359163
0.00360236
0.00361253
0.0036222
0.00363143
0.00364027
0.00364879
0.00365704
0.00366509
0.00367298
0.00368076
0.00368849
0.00369619
0.00370391
0.00371168
0.00371951
0.00372741
0.00373538
0.00374343
0.00375153
0.00375968
0.00376784
0.00377599
0.0037841
0.00379215
0.00380012
0.00380799
0.00381575
0.00382342
0.00383101
0.00383853
0.00384605
0.0038536
0.00386125
0.00386905
0.00387708
0.0038854
0.00389407
0.00390315
0.00391266
0.00392266
0.00393316
0.0039442
0.00395581
0.00396802
0.00398087
0.00399444
0.0040088
0.00402405
0.00404032
0.00405776
0.00407656
0.00409693
0.0041191
0.00414332
0.00416987
0.00419902
0.00423103
0.00426616
0.00430466
0.0043467
0.00439276
0.00444197
0.00449557
0.00455421
0.00461835
0.0046887
0.00476578
0.00484935
0.00493869
0.0050321
0.00513087
0.00522883
0.00532031
0.0054094
0.0054955
0.00557731
0.00565417
0.00572506
0.00578832
0.005842
0.0058849
0.00591709
0.00593972
0.0059531
0.00595433
0.00594245
0.00591674
0.00587777
0.00588197
0.00594188
0.00598234
0.00599048
0.00597256
0.0059342
0.00588341
0.00582063
0.00574371
0.00566907
0.00559822
0.00553285
0.00547398
0.00542198
0.00537672
0.00533767
0.00530413
0.00527544
0.00525071
0.00522905
0.00520954
0.00519141
0.00517393
0.00515618
0.00513597
0.00510944
0.0050705
0.00501551
2.59502e-05
0.000222234
0.000499634
0.000737776
0.000954231
0.00114363
0.00131174
0.00146131
0.00159513
0.00171571
0.00182489
0.00192454
0.00201593
0.00210025
0.0021783
0.00225078
0.00231818
0.00238094
0.00243943
0.00249404
0.00254507
0.00259276
0.00263729
0.00267881
0.00271741
0.00275314
0.00278604
0.00281611
0.00284339
0.00286916
0.00289632
0.00292673
0.00296063
0.00299661
0.00303182
0.00306578
0.00309875
0.00313092
0.00316239
0.00319316
0.00322325
0.00325267
0.00328141
0.00330947
0.00333683
0.00336346
0.00338932
0.00341437
0.00343855
0.00346182
0.00348414
0.00350548
0.00352582
0.00354515
0.00356349
0.00358083
0.00359722
0.00361268
0.00362726
0.003641
0.00365396
0.0036662
0.00367778
0.00368877
0.00369924
0.00370925
0.00371888
0.00372819
0.00373726
0.00374615
0.00375493
0.00376367
0.00377241
0.00378123
0.00379016
0.00379924
0.00380851
0.00381798
0.00382767
0.00383757
0.00384769
0.003858
0.00386848
0.00387908
0.00388978
0.00390052
0.00391125
0.00392195
0.00393256
0.00394306
0.00395342
0.00396364
0.00397373
0.0039837
0.00399359
0.00400347
0.00401337
0.00402339
0.00403359
0.00404405
0.00405485
0.00406603
0.00407767
0.00408982
0.0041025
0.00411578
0.0041297
0.0041443
0.00415965
0.00417583
0.00419293
0.00421107
0.00423039
0.00425103
0.0042732
0.00429708
0.0043229
0.00435088
0.00438124
0.00441421
0.00444999
0.0044888
0.00453081
0.00457619
0.00462514
0.00467832
0.00473531
0.00479715
0.00486444
0.00493759
0.005017
0.00510263
0.00519395
0.0052899
0.00538852
0.00548675
0.00558354
0.00567972
0.0057741
0.00586594
0.00595496
0.00604084
0.00612266
0.0061988
0.00626704
0.00632478
0.00636892
0.00639564
0.00640096
0.00638139
0.00633515
0.00627408
0.00628828
0.00636583
0.00640738
0.00640771
0.0063785
0.00632864
0.0062689
0.00619587
0.00611209
0.00603369
0.00596101
0.00589528
0.00583716
0.00578671
0.00574357
0.00570713
0.00567661
0.00565119
0.00562995
0.00561202
0.00559654
0.00558273
0.00556961
0.00555584
0.00553886
0.00551543
0.00548114
0.00543517
2.64576e-05
0.000225064
0.000512244
0.000758988
0.000984864
0.00118221
0.00135782
0.00151352
0.00165245
0.00177723
0.00188982
0.0019922
0.00208571
0.00217165
0.00225091
0.00232426
0.00239226
0.00245537
0.00251395
0.0025683
0.00261869
0.00266539
0.00270864
0.00274862
0.00278551
0.00281945
0.00285059
0.00287906
0.00290534
0.0029316
0.00295974
0.00299083
0.00302478
0.00306016
0.0030945
0.00312787
0.00316045
0.00319233
0.00322351
0.00325397
0.00328367
0.00331262
0.00334079
0.00336818
0.00339477
0.00342052
0.00344541
0.00346938
0.00349239
0.00351442
0.00353543
0.00355541
0.00357435
0.00359226
0.00360916
0.00362508
0.00364005
0.00365414
0.00366738
0.00367986
0.00369163
0.00370276
0.00371334
0.00372345
0.00373316
0.00374256
0.00375173
0.00376076
0.00376972
0.00377869
0.00378774
0.00379695
0.00380638
0.00381608
0.0038261
0.00383648
0.00384725
0.00385842
0.00387
0.00388198
0.00389435
0.00390707
0.0039201
0.00393339
0.00394688
0.00396051
0.00397421
0.00398792
0.00400158
0.00401513
0.00402854
0.00404178
0.00405485
0.00406775
0.00408052
0.00409319
0.00410583
0.00411851
0.00413131
0.0041443
0.00415756
0.00417117
0.00418518
0.00419967
0.00421469
0.0042303
0.00424654
0.0042635
0.00428124
0.00429985
0.00431945
0.00434016
0.00436211
0.00438547
0.00441042
0.00443717
0.00446592
0.00449688
0.00453026
0.00456628
0.00460512
0.00464696
0.00469199
0.00474036
0.00479227
0.00484793
0.0049076
0.00497213
0.00504118
0.00511565
0.00519632
0.00528342
0.00537677
0.00547554
0.00557817
0.00568296
0.0057886
0.00589448
0.00599931
0.00610224
0.00620339
0.00630301
0.00640081
0.00649543
0.00658386
0.00666136
0.00672168
0.00675766
0.00676216
0.00672863
0.00665594
0.00658533
0.00662409
0.00672805
0.00677659
0.00677198
0.0067337
0.00667425
0.00660716
0.00652359
0.00643444
0.00635257
0.00627762
0.0062106
0.00615193
0.00610149
0.00605882
0.0060232
0.00599381
0.00596978
0.00595023
0.0059343
0.00592114
0.00590988
0.00589931
0.00588791
0.00587315
0.00585242
0.00582247
0.00578412
2.75319e-05
0.000232157
0.000527083
0.00078142
0.00101333
0.00121612
0.00139579
0.00155485
0.00169657
0.00182343
0.00193747
0.00204067
0.00213445
0.00222014
0.00229872
0.00237106
0.00243777
0.00249941
0.00255633
0.00260886
0.00265723
0.0027017
0.00274251
0.00277989
0.00281409
0.00284543
0.00287421
0.00290083
0.00292672
0.00295332
0.00298178
0.00301256
0.00304531
0.00307881
0.00311157
0.0031437
0.00317523
0.00320612
0.00323633
0.00326579
0.00329445
0.00332227
0.00334923
0.0033753
0.00340044
0.00342462
0.00344781
0.00346996
0.00349106
0.00351108
0.00353002
0.00354788
0.00356467
0.00358043
0.0035952
0.00360901
0.00362194
0.00363404
0.0036454
0.00365608
0.00366619
0.00367579
0.00368499
0.00369388
0.00370255
0.00371109
0.0037196
0.00372817
0.00373688
0.00374582
0.00375506
0.00376468
0.00377475
0.00378531
0.00379642
0.00380812
0.00382042
0.00383335
0.0038469
0.00386107
0.00387582
0.00389111
0.00390689
0.00392311
0.00393968
0.00395653
0.00397357
0.00399071
0.00400789
0.00402501
0.00404204
0.00405891
0.0040756
0.0040921
0.00410842
0.00412458
0.00414064
0.00415664
0.00417265
0.00418874
0.00420499
0.00422146
0.00423823
0.00425534
0.00427288
0.0042909
0.00430946
0.00432865
0.00434856
0.00436929
0.00439096
0.00441369
0.00443764
0.00446299
0.00448995
0.00451872
0.00454955
0.00458268
0.00461835
0.00465681
0.00469832
0.00474309
0.00479133
0.00484323
0.00489895
0.00495862
0.0050224
0.00509047
0.00516307
0.00524096
0.00532441
0.0054143
0.00551082
0.00561365
0.00572192
0.00583427
0.00594933
0.00606588
0.00618209
0.00629656
0.00640947
0.00652132
0.00663225
0.00674108
0.00684429
0.00693562
0.00700654
0.00704724
0.00704815
0.00700026
0.00690572
0.00684881
0.00692584
0.00705808
0.00710982
0.00710014
0.00705364
0.00698586
0.00691213
0.00681787
0.00672505
0.00663993
0.00656237
0.00649329
0.00643298
0.00638119
0.00633739
0.00630084
0.00627071
0.00624616
0.00622634
0.00621043
0.00619757
0.00618681
0.00617684
0.00616611
0.00615228
0.00613326
0.00610663
0.00607399
2.80167e-05
0.000235163
0.000534773
0.000793478
0.00103037
0.00123708
0.00141989
0.00158115
0.00172418
0.0018516
0.00196549
0.00206791
0.00216036
0.00224423
0.00232055
0.00239026
0.00245405
0.00251253
0.00256613
0.00261523
0.00266012
0.00270102
0.00273811
0.00277153
0.00280174
0.00282945
0.0028554
0.0028804
0.00290539
0.00293125
0.0029586
0.00298761
0.00301801
0.00304916
0.0030803
0.00311081
0.00314075
0.00317006
0.00319867
0.00322645
0.00325335
0.00327929
0.00330424
0.00332817
0.00335104
0.00337282
0.00339351
0.00341307
0.0034315
0.00344882
0.00346504
0.00348018
0.00349429
0.00350743
0.00351964
0.00353101
0.0035416
0.0035515
0.0035608
0.0035696
0.003578
0.00358608
0.00359396
0.00360172
0.00360948
0.00361733
0.00362536
0.00363366
0.00364233
0.00365144
0.00366107
0.00367128
0.00368215
0.00369373
0.00370606
0.00371918
0.00373311
0.00374786
0.00376344
0.00377983
0.003797
0.00381492
0.00383352
0.00385273
0.00387249
0.00389269
0.00391325
0.00393406
0.00395503
0.00397607
0.00399709
0.00401803
0.00403883
0.00405944
0.00407985
0.00410004
0.00412002
0.00413982
0.00415947
0.00417904
0.00419856
0.0042181
0.0042377
0.00425744
0.00427737
0.00429755
0.00431807
0.00433901
0.00436048
0.0043826
0.00440549
0.0044293
0.0044542
0.00448041
0.00450818
0.00453779
0.00456953
0.00460375
0.00464077
0.00468096
0.00472469
0.00477233
0.0048242
0.00488056
0.00494164
0.00500757
0.00507835