/*--------------------------------*- C++ -*----------------------------------*\
| =========                 |                                                 |
| \\      /  F ield         | OpenFOAM: The Open Source CFD Toolbox           |
|  \\    /   O peration     | Version:  v1906                                 |
|   \\  /    A nd           | Web:      www.OpenFOAM.com                      |
|    \\/     M anipulation  |                                                 |
\*---------------------------------------------------------------------------*/
FoamFile
{
    version     2.0;
    format      ascii;
    class       volScalarField;
    location    "900";
    object      p;
}
// * * * * * * * * * * * * * * * * * * * * * * * * * * * * * * * * * * * * * //

dimensions      [0 2 -2 0 0 0 0];


internalField   nonuniform List<scalar> 
12225
(
-2.91274
-4.11531
-4.16588
-4.17162
-4.30803
-4.44694
-4.55388
-4.64912
-4.7411
-4.82818
-4.90939
-4.98899
-5.0707
-5.15611
-5.24541
-5.34382
-5.46073
-5.60728
-4.67322
-5.18827
-5.34642
-5.3328
-5.3889
-5.45463
-5.50395
-5.55397
-5.60962
-5.66711
-5.72466
-5.78393
-5.8482
-5.91703
-5.9918
-6.07471
-6.16571
-6.29841
-4.08818
-4.86881
-5.00869
-4.97762
-5.01129
-5.06148
-5.10361
-5.14769
-5.19668
-5.24733
-5.29855
-5.35127
-5.40811
-5.46836
-5.53401
-5.60294
-5.67705
-5.73552
-4.74333
-5.21008
-5.42824
-5.50294
-5.5962
-5.68081
-5.74353
-5.79896
-5.85394
-5.90811
-5.96174
-6.01646
-6.0742
-6.1353
-6.20002
-6.26828
-6.33803
-6.41811
-4.55237
-5.01115
-5.2268
-5.28805
-5.35107
-5.40691
-5.44948
-5.48992
-5.5322
-5.57536
-5.61909
-5.66425
-5.71172
-5.762
-5.81347
-5.86744
-5.91205
-5.94877
-4.92966
-5.23173
-5.43828
-5.54169
-5.64603
-5.7392
-5.81547
-5.88361
-5.94799
-6.00941
-6.06874
-6.12748
-6.18668
-6.24703
-6.3075
-6.36887
-6.42726
-6.49181
-4.86415
-5.11182
-5.31221
-5.41112
-5.49861
-5.57043
-5.62716
-5.67745
-5.72524
-5.77139
-5.81651
-5.86147
-5.90666
-5.95235
-5.99679
-6.04019
-6.07315
-6.09464
-5.10487
-5.28864
-5.4639
-5.57206
-5.677
-5.77007
-5.85065
-5.9241
-5.99304
-6.05844
-6.12113
-6.1821
-6.24191
-6.30092
-6.35837
-6.41439
-6.46845
-6.52457
-5.09199
-5.21885
-5.37995
-5.48236
-5.57664
-5.65603
-5.72264
-5.78175
-5.83613
-5.8871
-5.93554
-5.9822
-6.02728
-6.07085
-6.11153
-6.14897
-6.17692
-6.19468
-5.25331
-5.36306
-5.50289
-5.60318
-5.70264
-5.79217
-5.87279
-5.94741
-6.01751
-6.08395
-6.14736
-6.20834
-6.26717
-6.32394
-6.37844
-6.43048
-6.48159
-6.53181
-5.26299
-5.32779
-5.44834
-5.53991
-5.63003
-5.70962
-5.78013
-5.84399
-5.9027
-5.95729
-6.00846
-6.05673
-6.1022
-6.14486
-6.18378
-6.21861
-6.24572
-6.26552
-5.3655
-5.43212
-5.54042
-5.62799
-5.71799
-5.80114
-5.87826
-5.95049
-6.01854
-6.08296
-6.14417
-6.20249
-6.25807
-6.31088
-6.361
-6.40805
-6.45388
-6.49654
-5.38234
-5.41957
-5.50979
-5.58845
-5.6702
-5.74608
-5.81618
-5.88116
-5.94152
-5.99781
-6.05043
-6.09968
-6.14561
-6.18816
-6.22689
-6.26152
-6.29069
-6.31474
-5.46662
-5.51044
-5.59268
-5.66763
-5.74698
-5.82353
-5.89662
-5.96627
-6.03244
-6.09527
-6.15489
-6.21141
-6.26492
-6.31536
-6.36294
-6.40729
-6.44949
-6.48738
-5.48855
-5.51088
-5.57402
-5.63847
-5.70847
-5.77772
-5.84439
-5.90792
-5.96798
-6.02453
-6.07762
-6.1273
-6.1736
-6.21647
-6.25594
-6.29184
-6.32474
-6.35409
-5.55518
-5.5825
-5.64034
-5.70073
-5.76616
-5.83235
-5.89719
-5.95987
-6.01977
-6.07657
-6.13012
-6.18033
-6.22714
-6.27052
-6.31031
-6.34658
-6.37852
-6.407
-5.57954
-5.59895
-5.64636
-5.70128
-5.76267
-5.82706
-5.89179
-5.95564
-6.01774
-6.07759
-6.13493
-6.18959
-6.24159
-6.29075
-6.33759
-6.38136
-6.42432
-6.46259
-5.5889
-5.60329
-5.64157
-5.68699
-5.73683
-5.78844
-5.83921
-5.88778
-5.9333
-5.97522
-6.01321
-6.04721
-6.07705
-6.10306
-6.12475
-6.1436
-6.15706
-6.1712
-5.62776
-5.6558
-5.71014
-5.77244
-5.84152
-5.9153
-5.99118
-6.06786
-6.14451
-6.22047
-6.29534
-6.36876
-6.44057
-6.51022
-6.57789
-6.64196
-6.70416
-6.75874
-5.49164
-5.49865
-5.53337
-5.57454
-5.61753
-5.65966
-5.69826
-5.73226
-5.76125
-5.78505
-5.80366
-5.81727
-5.82597
-5.83036
-5.83028
-5.82785
-5.82112
-5.8182
-5.51907
-5.56467
-5.63998
-5.71567
-5.79499
-5.87611
-5.95642
-6.03529
-6.11244
-6.18768
-6.26109
-6.33286
-6.40348
-6.47315
-6.54299
-6.61207
-6.68362
-6.75008
-5.3337
-5.35267
-5.41718
-5.47629
-5.53054
-5.57858
-5.61846
-5.65091
-5.67699
-5.69739
-5.71257
-5.72285
-5.72814
-5.72845
-5.72251
-5.71093
-5.68886
-5.66423
-5.36111
-5.44284
-5.55746
-5.6545
-5.74952
-5.84227
-5.92941
-6.01128
-6.08874
-6.16214
-6.23194
-6.29877
-6.36363
-6.42752
-6.4928
-6.56083
-6.63917
-6.72407
-5.09771
-5.1722
-5.29516
-5.37478
-5.43602
-5.48495
-5.52094
-5.54787
-5.56924
-5.58645
-5.6001
-5.61058
-5.61786
-5.62161
-5.61995
-5.61132
-5.58598
-5.54348
-5.16152
-5.32021
-5.49054
-5.60718
-5.71469
-5.81634
-5.90491
-5.9827
-6.05324
-6.11779
-6.17712
-6.23224
-6.28423
-6.33404
-6.38383
-6.43601
-6.50219
-6.59021
-4.74767
-4.98992
-5.17692
-5.24621
-5.28939
-5.32497
-5.34849
-5.36585
-5.38238
-5.39841
-5.41327
-5.42688
-5.43918
-5.45002
-5.45833
-5.46278
-5.45269
-5.41547
-4.9394
-5.2405
-5.47085
-5.58568
-5.68971
-5.78489
-5.85627
-5.91255
-5.96238
-6.0077
-6.04898
-6.08719
-6.12319
-6.15738
-6.19052
-6.22354
-6.26583
-6.33408
-4.20295
-4.80781
-4.97197
-4.95145
-4.9566
-4.98511
-5.00817
-5.02944
-5.05444
-5.08083
-5.10639
-5.13084
-5.15418
-5.17629
-5.1969
-5.21621
-5.22814
-5.21747
-4.82784
-5.21424
-5.43771
-5.44978
-5.48934
-5.53721
-5.56925
-5.59759
-5.62956
-5.66326
-5.6964
-5.72868
-5.76017
-5.79068
-5.81995
-5.84807
-5.87968
-5.9294
-2.95708
-4.07768
-4.14779
-4.12722
-4.22581
-4.34362
-4.43447
-4.51091
-4.58323
-4.65067
-4.71196
-4.76787
-4.81935
-4.86674
-4.91013
-4.94923
-4.98253
-5.00846
-6.09959
-6.12272
-6.14043
-6.16121
-6.18369
-6.20888
-6.23447
-6.26117
-6.2876
-6.31406
-6.3397
-6.36459
-6.38819
-6.41052
-6.43128
-6.45047
-6.46789
-6.48362
-6.49754
-6.50916
-6.51795
-6.52339
-6.52527
-6.52336
-6.51647
-6.50292
-6.48178
-6.45245
-6.41428
-6.37015
-6.32868
-6.30168
-6.29871
-6.31765
-6.34808
-6.38366
-6.42108
-6.45717
-6.49006
-6.51964
-6.54607
-6.5696
-6.59045
-6.6088
-6.62478
-6.63853
-6.65012
-6.65966
-6.66719
-6.67282
-6.67657
-6.67852
-6.6787
-6.67717
-6.67394
-6.66907
-6.66254
-6.65443
-6.64469
-6.63338
-6.62045
-6.60594
-6.5898
-6.57206
-6.55266
-6.53162
-6.5089
-6.48451
-6.45841
-6.43062
-6.40108
-6.36984
-6.33686
-6.30218
-6.26578
-6.22773
-6.18805
-6.14679
-6.10405
-6.05985
-6.01431
-5.96748
-5.91955
-5.87051
-5.82062
-5.76988
-5.71859
-5.66677
-5.61474
-5.5626
-5.51043
-5.45838
-5.40662
-5.35533
-5.30463
-5.25467
-5.20558
-5.15749
-5.11049
-5.06474
-5.02033
-4.97738
-4.93603
-4.89637
-4.85854
-4.82261
-4.78865
-4.75664
-4.72654
-4.69817
-4.67128
-4.64546
-4.62011
-4.59446
-4.56749
-4.53789
-4.50384
-4.46306
-4.41295
-4.35104
-4.27437
-4.17794
-4.0535
-3.89276
-3.6893
-3.43788
-3.13211
-2.76539
-2.33204
-1.82788
-1.24829
-0.595903
0.114286
0.85804
1.60794
2.33011
2.98363
3.53525
3.98748
4.35842
4.67107
5.0016
5.395
5.74013
5.89404
5.87116
5.7721
5.65217
5.54271
5.47582
5.50287
5.68397
6.04929
6.58748
7.26375
8.02935
8.82905
9.60852
10.3303
10.9908
11.5836
12.0929
12.5203
12.8742
13.1646
13.4017
13.595
13.7528
13.8819
13.9878
14.0755
14.1484
14.2102
14.2636
14.313
14.3603
14.416
14.4846
14.6175
14.7898
-6.15485
-6.21116
-6.24687
-6.28907
-6.32026
-6.35419
-6.38215
-6.41257
-6.43866
-6.46546
-6.48918
-6.51242
-6.53318
-6.55286
-6.57046
-6.58676
-6.60123
-6.61436
-6.62595
-6.63595
-6.64418
-6.65043
-6.65257
-6.64914
-6.63908
-6.62129
-6.59512
-6.5609
-6.51969
-6.47258
-6.42537
-6.38784
-6.37787
-6.39559
-6.42635
-6.46472
-6.50509
-6.54476
-6.58223
-6.61688
-6.64843
-6.67689
-6.70234
-6.72491
-6.74474
-6.76198
-6.77677
-6.78925
-6.79952
-6.80771
-6.81389
-6.81818
-6.82062
-6.82129
-6.82023
-6.81748
-6.81308
-6.80705
-6.79939
-6.79014
-6.77926
-6.76678
-6.75266
-6.7369
-6.71946
-6.70035
-6.67952
-6.65697
-6.63266
-6.6066
-6.57875
-6.54913
-6.51773
-6.48459
-6.44973
-6.4132
-6.37506
-6.33535
-6.29413
-6.25146
-6.20745
-6.16219
-6.11581
-6.06841
-6.02019
-5.97124
-5.92178
-5.87194
-5.82197
-5.77202
-5.72223
-5.67277
-5.62382
-5.57558
-5.52817
-5.48178
-5.43653
-5.39259
-5.3501
-5.30922
-5.27009
-5.23289
-5.19777
-5.16493
-5.13453
-5.10672
-5.08164
-5.05936
-5.0399
-5.0232
-5.00908
-4.99722
-4.98711
-4.97799
-4.9689
-4.95848
-4.94496
-4.92593
-4.89845
-4.85882
-4.80215
-4.7228
-4.61762
-4.48382
-4.31649
-4.1097
-3.85389
-3.53955
-3.15839
-2.70322
-2.16867
-1.55865
-0.883341
-0.159937
0.586158
1.32479
2.02204
2.64619
3.16427
3.57131
3.89838
4.25237
4.77012
5.30487
5.56233
5.5749
5.49045
5.36861
5.24389
5.15815
5.16611
5.30805
5.60252
6.06217
6.66624
7.37311
8.13307
8.89661
9.62298
10.2755
10.8508
11.357
11.793
12.1641
12.4777
12.7417
12.9636
13.1503
13.3077
13.4407
13.5537
13.6501
13.7338
13.8071
13.8749
13.9382
14.0086
14.0801
14.1977
14.3351
-6.16247
-6.23715
-6.25698
-6.30424
-6.3232
-6.36106
-6.38078
-6.41054
-6.43014
-6.45636
-6.4757
-6.49804
-6.51553
-6.53363
-6.54799
-6.56163
-6.57189
-6.5804
-6.58626
-6.59093
-6.59371
-6.59548
-6.596
-6.59521
-6.59218
-6.58631
-6.5771
-6.56479
-6.5501
-6.53372
-6.51698
-6.50353
-6.4974
-6.49944
-6.50901
-6.52458
-6.54364
-6.56469
-6.58635
-6.60791
-6.62885
-6.6488
-6.66746
-6.68464
-6.7002
-6.71404
-6.72608
-6.73631
-6.74472
-6.75132
-6.75614
-6.75921
-6.76056
-6.76023
-6.75826
-6.75466
-6.74947
-6.74269
-6.73434
-6.72441
-6.71291
-6.69982
-6.68513
-6.66883
-6.65088
-6.63127
-6.60999
-6.58701
-6.5623
-6.53587
-6.5077
-6.47779
-6.44613
-6.41274
-6.37765
-6.34087
-6.30244
-6.2624
-6.2208
-6.17772
-6.13325
-6.08747
-6.04052
-5.9925
-5.94358
-5.89387
-5.84359
-5.79286
-5.74192
-5.69093
-5.64004
-5.5894
-5.53921
-5.48962
-5.4408
-5.3929
-5.34605
-5.3004
-5.25607
-5.21319
-5.17188
-5.1323
-5.09455
-5.05881
-5.02516
-4.99377
-4.9647
-4.93802
-4.91371
-4.89171
-4.87183
-4.85379
-4.83711
-4.82116
-4.80506
-4.78767
-4.7675
-4.74269
-4.7112
-4.6705
-4.61686
-4.54531
-4.4519
-4.33191
-4.17888
-3.98404
-3.73962
-3.43786
-3.07126
-2.63315
-2.11801
-1.52663
-0.872041
-0.167184
0.563391
1.28631
1.97096
2.59432
3.14221
3.61798
4.01678
4.32628
4.68539
5.10132
5.37679
5.48784
5.5016
5.45406
5.37319
5.30148
5.2989
5.41525
5.69132
6.13635
6.72623
7.41715
8.15757
8.89823
9.6055
10.2557
10.8355
11.3471
11.7905
12.1704
12.4931
12.7659
12.996
13.1901
13.3541
13.493
13.6111
13.7119
13.7994
13.8756
13.9459
14.0102
14.0808
14.1487
14.255
14.34
-6.18262
-6.28048
-6.30549
-6.36484
-6.38483
-6.4294
-6.45123
-6.48969
-6.51163
-6.5435
-6.56413
-6.59048
-6.60829
-6.62857
-6.64332
-6.65917
-6.67108
-6.68215
-6.68986
-6.6964
-6.70084
-6.70454
-6.70669
-6.70751
-6.70587
-6.70127
-6.69324
-6.68225
-6.66908
-6.65488
-6.64166
-6.63243
-6.62967
-6.63316
-6.64176
-6.65425
-6.66907
-6.68556
-6.70313
-6.72138
-6.73992
-6.75842
-6.77654
-6.79396
-6.81039
-6.82562
-6.83946
-6.85181
-6.86256
-6.87168
-6.87913
-6.8849
-6.88899
-6.89141
-6.89216
-6.89127
-6.88873
-6.88457
-6.87876
-6.87132
-6.86223
-6.85148
-6.83905
-6.82492
-6.80906
-6.79146
-6.7721
-6.75093
-6.72796
-6.70315
-6.67651
-6.64801
-6.61768
-6.58551
-6.55154
-6.51579
-6.47832
-6.43918
-6.39844
-6.35617
-6.31248
-6.26747
-6.22129
-6.17407
-6.12597
-6.07717
-6.02784
-5.97819
-5.92843
-5.87875
-5.82933
-5.78038
-5.73208
-5.68462
-5.63819
-5.59296
-5.54908
-5.50672
-5.46605
-5.42722
-5.39039
-5.35574
-5.32344
-5.29368
-5.26663
-5.24246
-5.22131
-5.20329
-5.18842
-5.17669
-5.16795
-5.1619
-5.15809
-5.15585
-5.15424
-5.15202
-5.14748
-5.13844
-5.12239
-5.09639
-5.05678
-4.99903
-4.91885
-4.81086
-4.66819
-4.48372
-4.25001
-3.95802
-3.59927
-3.16622
-2.65347
-2.0614
-1.40061
-0.684212
0.0680692
0.823016
1.54785
2.21599
2.80571
3.32113
3.78768
4.21203
4.60591
4.94508
5.14725
5.22246
5.21105
5.13848
5.03
4.93144
4.91065
5.02648
5.31393
5.77181
6.37299
7.07251
7.81885
8.56408
9.27357
9.92451
10.5064
11.02
11.4656
11.8483
12.1749
12.4526
12.6884
12.8887
13.0592
13.2045
13.3289
13.4356
13.5286
13.6095
13.6839
13.7505
13.8218
13.8852
13.9787
14.0472
-6.16994
-6.28343
-6.30242
-6.36955
-6.38075
-6.42939
-6.44438
-6.48242
-6.50047
-6.53234
-6.55062
-6.57531
-6.59131
-6.6104
-6.62341
-6.63751
-6.64715
-6.65669
-6.66299
-6.66905
-6.67323
-6.67757
-6.68143
-6.68581
-6.68993
-6.6937
-6.69642
-6.69804
-6.69856
-6.69835
-6.69788
-6.69775
-6.69839
-6.70004
-6.70321
-6.70818
-6.71477
-6.72297
-6.73259
-6.74342
-6.75513
-6.76739
-6.77985
-6.79219
-6.80414
-6.81547
-6.82594
-6.83542
-6.84376
-6.85086
-6.85665
-6.86105
-6.86403
-6.86554
-6.86557
-6.86409
-6.86107
-6.85651
-6.85038
-6.84266
-6.83333
-6.82237
-6.80975
-6.79545
-6.77944
-6.76169
-6.74217
-6.72087
-6.69776
-6.6728
-6.646
-6.61733
-6.5868
-6.5544
-6.52015
-6.48406
-6.44616
-6.4065
-6.36514
-6.32214
-6.27761
-6.23164
-6.18437
-6.13593
-6.0865
-6.03624
-5.98534
-5.93399
-5.88241
-5.83083
-5.7794
-5.72836
-5.67787
-5.62815
-5.57936
-5.53169
-5.48528
-5.44029
-5.39687
-5.35515
-5.31532
-5.27749
-5.24186
-5.20856
-5.1778
-5.1497
-5.12444
-5.10209
-5.08274
-5.06635
-5.05285
-5.04198
-5.03338
-5.0265
-5.02055
-5.01452
-5.00699
-4.9962
-4.97991
-4.95549
-4.91944
-4.86781
-4.79638
-4.70043
-4.57378
-4.40911
-4.19723
-3.92865
-3.5937
-3.18374
-2.6916
-2.1156
-1.46287
-0.746908
0.0135952
0.788745
1.54548
2.25688
2.8983
3.45463
3.91827
4.29866
4.63936
4.92309
5.09687
5.16495
5.14896
5.07188
4.96258
4.86794
4.8533
4.97852
5.27608
5.74945
6.368
7.08185
7.83716
8.58728
9.30053
9.95514
10.5412
11.0581
11.5069
11.893
12.2229
12.5039
12.7431
12.9467
13.1203
13.2684
13.3956
13.5046
13.5998
13.6822
13.7579
13.8242
13.895
13.9534
14.0392
14.0787
-6.16529
-6.29776
-6.32267
-6.40085
-6.41387
-6.46914
-6.48601
-6.52924
-6.54908
-6.58446
-6.60617
-6.63639
-6.65661
-6.6793
-6.69552
-6.71265
-6.72563
-6.73838
-6.74838
-6.7577
-6.76494
-6.77123
-6.77596
-6.7799
-6.7827
-6.78465
-6.7856
-6.78596
-6.78608
-6.78656
-6.7878
-6.78997
-6.79295
-6.79663
-6.80131
-6.80738
-6.81496
-6.8241
-6.83461
-6.84624
-6.85866
-6.8716
-6.88476
-6.89786
-6.91067
-6.92296
-6.93454
-6.94524
-6.95493
-6.96349
-6.97082
-6.97685
-6.9815
-6.98475
-6.98653
-6.98682
-6.98559
-6.98281
-6.97846
-6.97251
-6.96492
-6.95568
-6.94475
-6.9321
-6.9177
-6.90151
-6.88351
-6.86366
-6.84193
-6.8183
-6.79275
-6.76526
-6.73583
-6.70444
-6.67112
-6.63589
-6.59877
-6.55981
-6.51908
-6.47665
-6.43263
-6.38713
-6.34029
-6.29226
-6.24323
-6.19339
-6.14294
-6.09209
-6.04109
-5.99016
-5.93954
-5.88942
-5.84004
-5.7916
-5.7443
-5.69832
-5.65384
-5.61102
-5.57003
-5.53103
-5.49418
-5.45967
-5.42768
-5.39841
-5.37204
-5.34877
-5.32876
-5.31215
-5.29902
-5.28937
-5.28312
-5.28001
-5.27967
-5.28148
-5.28464
-5.28802
-5.29017
-5.28926
-5.28308
-5.26893
-5.24344
-5.20248
-5.14139
-5.05436
-4.9345
-4.77494
-4.56833
-4.30566
-3.977
-3.57265
-3.08411
-2.50739
-1.84589
-1.11132
-0.322776
0.491114
1.29517
2.05814
2.75519
3.37329
3.89977
4.32172
4.65444
4.88861
5.00775
5.02252
4.94986
4.8135
4.64862
4.5106
4.47258
4.60322
4.93218
5.44632
6.10327
6.84781
7.62538
8.38992
9.11017
9.76728
10.3538
10.8698
11.3174
11.7027
12.0326
12.3143
12.5548
12.76
12.9355
13.0856
13.2145
13.3251
13.4216
13.5044
13.5801
13.6443
13.7118
13.7624
13.836
13.8592
-6.13859
-6.28819
-6.31394
-6.39826
-6.40954
-6.46658
-6.48215
-6.52516
-6.54391
-6.5786
-6.5988
-6.62726
-6.64697
-6.67051
-6.68708
-6.70413
-6.71712
-6.73054
-6.74147
-6.75239
-6.76179
-6.77101
-6.7793
-6.7874
-6.7949
-6.80215
-6.8089
-6.81537
-6.82152
-6.82751
-6.83324
-6.83857
-6.84325
-6.84733
-6.8512
-6.85543
-6.86045
-6.86652
-6.87362
-6.88163
-6.89034
-6.8996
-6.9092
-6.91895
-6.92865
-6.93813
-6.94721
-6.95574
-6.96356
-6.97056
-6.97662
-6.98163
-6.98551
-6.98818
-6.98957
-6.98963
-6.98828
-6.98551
-6.98124
-6.97544
-6.96808
-6.9591
-6.94847
-6.93614
-6.92209
-6.90626
-6.88862
-6.86913
-6.84776
-6.82446
-6.7992
-6.77197
-6.74273
-6.71148
-6.6782
-6.64291
-6.60563
-6.56638
-6.52523
-6.48224
-6.4375
-6.39113
-6.34326
-6.29406
-6.2437
-6.19238
-6.14032
-6.08775
-6.0349
-5.98204
-5.92938
-5.87717
-5.82564
-5.77499
-5.72545
-5.67718
-5.63038
-5.5852
-5.54181
-5.50037
-5.46104
-5.42403
-5.38949
-5.35768
-5.32875
-5.30296
-5.28047
-5.26147
-5.24605
-5.23429
-5.22609
-5.22132
-5.21961
-5.22047
-5.22319
-5.22676
-5.22991
-5.23095
-5.22789
-5.21828
-5.19917
-5.16702
-5.11793
-5.047
-4.94844
-4.81479
-4.63691
-4.40444
-4.10642
-3.73113
-3.26784
-2.70893
-2.05373
-1.31061
-0.498486
0.353393
1.20738
2.02646
2.77757
3.43796
3.99037
4.42569
4.75083
4.95654
5.03771
5.00693
4.88291
4.6946
4.48565
4.31848
4.27126
4.41306
4.76686
5.31578
6.0083
6.78239
7.58129
8.35962
9.08797
9.74987
10.3395
10.8576
11.3076
11.6956
12.0287
12.3142
12.5588
12.7684
12.9483
13.1027
13.2358
13.3503
13.4504
13.5362
13.6145
13.68
13.7483
13.7961
13.8662
13.8777
-6.12289
-6.28942
-6.32044
-6.41571
-6.428
-6.49192
-6.50879
-6.55652
-6.5771
-6.6152
-6.63764
-6.6694
-6.69169
-6.71791
-6.73824
-6.75993
-6.77709
-6.7936
-6.80738
-6.82048
-6.83159
-6.84189
-6.85081
-6.85899
-6.86623
-6.87293
-6.87908
-6.88501
-6.89085
-6.89682
-6.90294
-6.90914
-6.91524
-6.92119
-6.92714
-6.93345
-6.94046
-6.94838
-6.95721
-6.96682
-6.977
-6.98761
-6.99845
-7.00938
-7.0202
-7.03078
-7.04094
-7.05056
-7.05949
-7.06762
-7.07483
-7.08103
-7.08613
-7.09005
-7.09273
-7.09409
-7.0941
-7.09268
-7.0898
-7.08541
-7.07945
-7.07188
-7.06265
-7.05173
-7.03905
-7.02458
-7.00827
-6.99006
-6.96993
-6.94781
-6.92368
-6.89749
-6.86923
-6.83886
-6.80637
-6.77178
-6.73508
-6.69632
-6.65555
-6.61282
-6.56825
-6.52195
-6.47406
-6.42476
-6.37424
-6.32271
-6.27042
-6.21759
-6.16453
-6.11147
-6.05871
-6.00647
-5.95502
-5.90459
-5.85539
-5.80762
-5.76145
-5.71705
-5.67459
-5.63423
-5.59615
-5.56052
-5.52758
-5.49753
-5.47061
-5.44706
-5.4271
-5.41094
-5.39874
-5.39056
-5.38637
-5.38602
-5.3892
-5.39539
-5.40389
-5.41371
-5.42358
-5.43188
-5.4366
-5.43529
-5.42493
-5.40185
-5.36179
-5.29963
-5.20932
-5.0845
-4.91784
-4.69991
-4.41938
-4.06313
-3.61756
-3.07069
-2.4165
-1.65909
-0.815951
0.0820684
0.9938
1.87688
2.6936
3.4164
4.02094
4.49008
4.82047
5.00282
5.03971
4.94671
4.74686
4.47634
4.18979
3.96307
3.88949
4.04582
4.44343
5.04638
5.78953
6.60328
7.42873
8.22212
8.95699
9.62059
10.2094
10.7255
11.1735
11.56
11.8925
12.1779
12.423
12.6334
12.8143
12.9698
13.1039
13.2189
13.3193
13.4046
13.4818
13.5443
13.6088
13.6486
13.7108
13.707
-6.09289
-6.27315
-6.30771
-6.40849
-6.42168
-6.48733
-6.50508
-6.55315
-6.57445
-6.6124
-6.63526
-6.66677
-6.68965
-6.71647
-6.73781
-6.7603
-6.77943
-6.79885
-6.81524
-6.83079
-6.84478
-6.85799
-6.87003
-6.88145
-6.89203
-6.90209
-6.91154
-6.92057
-6.92915
-6.9374
-6.94525
-6.95269
-6.95962
-6.96612
-6.97236
-6.97867
-6.98532
-6.99248
-7.00016
-7.00832
-7.01686
-7.0257
-7.03475
-7.04389
-7.05301
-7.06201
-7.07075
-7.07912
-7.08699
-7.09425
-7.10079
-7.10651
-7.1113
-7.11508
-7.11777
-7.11929
-7.11956
-7.11853
-7.11612
-7.11228
-7.10694
-7.10006
-7.09156
-7.0814
-7.06952
-7.05586
-7.04037
-7.02298
-7.00365
-6.9823
-6.9589
-6.9334
-6.90574
-6.87589
-6.84383
-6.80954
-6.77303
-6.7343
-6.6934
-6.65039
-6.60537
-6.55845
-6.50977
-6.45951
-6.40788
-6.35509
-6.30139
-6.24707
-6.19237
-6.13764
-6.08311
-6.02909
-5.97583
-5.92359
-5.87257
-5.82298
-5.77499
-5.72877
-5.68448
-5.64227
-5.60235
-5.5649
-5.53017
-5.49836
-5.46978
-5.44467
-5.42331
-5.40593
-5.39275
-5.38385
-5.37924
-5.37877
-5.38216
-5.38897
-5.39853
-5.40998
-5.42212
-5.43352
-5.44235
-5.44648
-5.44324
-5.42957
-5.40178
-5.35565
-5.28584
-5.1858
-5.04726
-4.86071
-4.61431
-4.29378
-3.88226
-3.36277
-2.72226
-1.95886
-1.08706
-0.139637
0.83526
1.78611
2.66891
3.45089
4.10306
4.60396
4.9425
5.10822
5.10609
4.95354
4.67934
4.32942
3.97054
3.69162
3.59931
3.77095
4.20871
4.86405
5.65662
6.50823
7.35835
8.1656
8.90696
9.57325
10.163
10.6797
11.1288
11.5172
11.8525
12.1416
12.3908
12.6058
12.7914
12.9516
13.0904
13.2099
13.3143
13.403
13.4834
13.5476
13.6137
13.6522
13.7134
13.7036
-6.07787
-6.27136
-6.30977
-6.42093
-6.43387
-6.50635
-6.52447
-6.57723
-6.59964
-6.64095
-6.66545
-6.69969
-6.72448
-6.75367
-6.7773
-6.80245
-6.82382
-6.84494
-6.86369
-6.88196
-6.89777
-6.91217
-6.92521
-6.93721
-6.94822
-6.95852
-6.96816
-6.97733
-6.98609
-6.99459
-7.00285
-7.01094
-7.01885
-7.02668
-7.03454
-7.04259
-7.05098
-7.05978
-7.06899
-7.07858
-7.08848
-7.09861
-7.10889
-7.11921
-7.12948
-7.1396
-7.14944
-7.15891
-7.16788
-7.17625
-7.18391
-7.19077
-7.19674
-7.20173
-7.20565
-7.20843
-7.21
-7.2103
-7.20924
-7.20677
-7.20283
-7.19735
-7.19027
-7.18153
-7.17106
-7.1588
-7.14467
-7.12862
-7.11058
-7.09048
-7.06825
-7.04384
-7.01719
-6.98825
-6.95697
-6.92335
-6.88735
-6.849
-6.80833
-6.7654
-6.72028
-6.67312
-6.62405
-6.57327
-6.52099
-6.46746
-6.41294
-6.35772
-6.30214
-6.24646
-6.19106
-6.1362
-6.08218
-6.02924
-5.97763
-5.92752
-5.87909
-5.8325
-5.78789
-5.74544
-5.70532
-5.66775
-5.63296
-5.6012
-5.57278
-5.548
-5.52717
-5.51057
-5.49845
-5.49093
-5.48804
-5.48969
-5.49561
-5.50537
-5.51836
-5.53366
-5.55014
-5.56632
-5.58036
-5.59007
-5.59283
-5.58554
-5.56448
-5.5252
-5.46278
-5.37219
-5.24715
-5.07933
-4.85766
-4.56739
-4.18931
-3.70106
-3.08122
-2.31882
-1.42256
-0.425642
0.615171
1.63971
2.59686
3.44549
4.15033
4.68638
5.03761
5.19044
5.14903
4.93165
4.57189
4.12569
3.67519
3.32848
3.21395
3.4122
3.90798
4.62873
5.47769
6.36929
7.24301
8.06134
8.80577
9.47111
10.0582
10.5719
11.0184
11.4053
11.7398
12.0289
12.2788
12.4947
12.6815
12.8428
12.9826
13.1027
13.2075
13.2958
13.3752
13.4368
13.4998
13.5317
13.5882
13.5667
-6.04993
-6.25635
-6.29559
-6.41093
-6.4253
-6.49898
-6.51886
-6.57198
-6.59595
-6.63762
-6.66348
-6.69831
-6.72445
-6.75477
-6.78005
-6.80683
-6.83034
-6.854
-6.87513
-6.89598
-6.91521
-6.93286
-6.94862
-6.96348
-6.97722
-6.99007
-7.00202
-7.01328
-7.02385
-7.03388
-7.04341
-7.05256
-7.06138
-7.07001
-7.07854
-7.08711
-7.0958
-7.10467
-7.11375
-7.12303
-7.13249
-7.1421
-7.15181
-7.16156
-7.17128
-7.18089
-7.1903
-7.19943
-7.20817
-7.21642
-7.2241
-7.2311
-7.23734
-7.24272
-7.24715
-7.25057
-7.25288
-7.25401
-7.25389
-7.25244
-7.24958
-7.24525
-7.23938
-7.23188
-7.22269
-7.21173
-7.19892
-7.18417
-7.16741
-7.14856
-7.12753
-7.10425
-7.07864
-7.05064
-7.02019
-6.98725
-6.95179
-6.9138
-6.87331
-6.83037
-6.78506
-6.73749
-6.68783
-6.63626
-6.58302
-6.52835
-6.47253
-6.4159
-6.35875
-6.30147
-6.24437
-6.18778
-6.13202
-6.07734
-6.02398
-5.97212
-5.92193
-5.87354
-5.8271
-5.7828
-5.7408
-5.70135
-5.66469
-5.63113
-5.60099
-5.57464
-5.5524
-5.53463
-5.52155
-5.51337
-5.51006
-5.51153
-5.51749
-5.52753
-5.54105
-5.55722
-5.57494
-5.5929
-5.60939
-5.62245
-5.62971
-5.62828
-5.61458
-5.58468
-5.53462
-5.45923
-5.35234
-5.20648
-5.01192
-4.75487
-4.41571
-3.96806
-3.38221
-2.63566
-1.7282
-0.690875
0.413727
1.51439
2.5487
3.46513
4.22296
4.79364
5.15704
5.29746
5.21825
4.93837
4.49586
3.95624
3.41679
3.00781
2.88049
3.10926
3.66496
4.4507
5.35302
6.28038
7.17361
8.00015
8.74646
9.41072
9.99611
10.5084
10.9547
11.3425
11.6791
11.9713
12.2249
12.4451
12.6364
12.8022
12.9465
13.0708
13.1795
13.2711
13.3535
13.4169
13.4815
13.5129
13.5698
13.5445
-6.03629
-6.25783
-6.29781
-6.42094
-6.43467
-6.51354
-6.53357
-6.59034
-6.61522
-6.65957
-6.68674
-6.72368
-6.75129
-6.78336
-6.81015
-6.83852
-6.86359
-6.88873
-6.9115
-6.93367
-6.95372
-6.97299
-6.99092
-7.0072
-7.02181
-7.03557
-7.04843
-7.0605
-7.07183
-7.08266
-7.09301
-7.10309
-7.11295
-7.12272
-7.13247
-7.14228
-7.15222
-7.16233
-7.17263
-7.18313
-7.19379
-7.2046
-7.21551
-7.22645
-7.23737
-7.24819
-7.25882
-7.26918
-7.27917
-7.28871
-7.29771
-7.30606
-7.31369
-7.32051
-7.32642
-7.33136
-7.33523
-7.33796
-7.33947
-7.33969
-7.33853
-7.33592
-7.33177
-7.32601
-7.31854
-7.30929
-7.29817
-7.28508
-7.26992
-7.25261
-7.23305
-7.21113
-7.18678
-7.1599
-7.13043
-7.0983
-7.06347
-7.02592
-6.98566
-6.94274
-6.89722
-6.84923
-6.79892
-6.74652
-6.69226
-6.6364
-6.57927
-6.52117
-6.4625
-6.4036
-6.34488
-6.28668
-6.22932
-6.17309
-6.11822
-6.06488
-6.01322
-5.9634
-5.91557
-5.86989
-5.82658
-5.78588
-5.74806
-5.71345
-5.6824
-5.65529
-5.6325
-5.61435
-5.60112
-5.59299
-5.58997
-5.59197
-5.59874
-5.60992
-5.62493
-5.64293
-5.66278
-5.6831
-5.70205
-5.71759
-5.72729
-5.72821
-5.71689
-5.68941
-5.64165
-5.5693
-5.46738
-5.32977
-5.14851
-4.9119
-4.60184
-4.19094
-3.64368
-2.92644
-2.0262
-0.965522
0.192328
1.36387
2.47269
3.45524
4.26449
4.86895
5.24648
5.3782
5.26426
4.92329
4.39667
3.75921
3.12436
2.65101
2.51871
2.79107
3.4169
4.27148
5.22545
6.184
7.09138
7.92118
8.66547
9.32521
9.90577
10.4138
10.857
11.2429
11.5788
11.8711
12.1254
12.3467
12.5393
12.7064
12.852
12.9772
13.0865
13.178
13.2599
13.3213
13.3837
13.4103
13.4647
13.4312
-6.01716
-6.24895
-6.2868
-6.41382
-6.42669
-6.5076
-6.52777
-6.58576
-6.61132
-6.65672
-6.68493
-6.72303
-6.75199
-6.78551
-6.81399
-6.84417
-6.87129
-6.89861
-6.92374
-6.94827
-6.97098
-6.99254
-7.01237
-7.03134
-7.04928
-7.06562
-7.08051
-7.09465
-7.1077
-7.1201
-7.13187
-7.14324
-7.15426
-7.16507
-7.17575
-7.18639
-7.19705
-7.20779
-7.21863
-7.22959
-7.24068
-7.25187
-7.26314
-7.27446
-7.28577
-7.29701
-7.30813
-7.31904
-7.32966
-7.33992
-7.34972
-7.35899
-7.36763
-7.37557
-7.38271
-7.38897
-7.39426
-7.3985
-7.40161
-7.4035
-7.40408
-7.40326
-7.40096
-7.39707
-7.39151
-7.38418
-7.37496
-7.36374
-7.35043
-7.3349
-7.31704
-7.29673
-7.27387
-7.24835
-7.22008
-7.18896
-7.15496
-7.11801
-7.07813
-7.03534
-6.98971
-6.94135
-6.89044
-6.83719
-6.78184
-6.72469
-6.66603
-6.60624
-6.54566
-6.48476
-6.42391
-6.36352
-6.30394
-6.24548
-6.18839
-6.13286
-6.07902
-6.02701
-5.97701
-5.9292
-5.88381
-5.84109
-5.80136
-5.76494
-5.73225
-5.70368
-5.67962
-5.66041
-5.64639
-5.6377
-5.63438
-5.63626
-5.6431
-5.65445
-5.66974
-5.6881
-5.70846
-5.72948
-5.74946
-5.76649
-5.7784
-5.78236
-5.77497
-5.75227
-5.70971
-5.64255
-5.54571
-5.41361
-5.23955
-5.01435
-4.72286
-4.33981
-3.82759
-3.14457
-2.26478
-1.19791
-0.00257205
1.22881
2.40602
3.45233
4.31177
4.94829
5.33776
5.45984
5.3128
4.91487
4.31
3.58117
2.85826
2.3332
2.2091
2.53182
3.22772
4.14583
5.14313
6.12465
7.03981
7.86892
8.60931
9.26404
9.84009
10.3449
10.7865
11.1724
11.5096
11.8041
12.0615
12.2863
12.4827
12.6538
12.8031
12.932
13.0447
13.1391
13.2234
13.2865
13.3503
13.3768
13.4321
13.3958
-6.00922
-6.24979
-6.28721
-6.41901
-6.43175
-6.51605
-6.53678
-6.59732
-6.62392
-6.67137
-6.70086
-6.7407
-6.77102
-6.80607
-6.83591
-6.86751
-6.89598
-6.92465
-6.95114
-6.97701
-7.00107
-7.0241
-7.04556
-7.06573
-7.08438
-7.10226
-7.11938
-7.1351
-7.14948
-7.16331
-7.17633
-7.18896
-7.20124
-7.21329
-7.22521
-7.2371
-7.24903
-7.26104
-7.27317
-7.28545
-7.29786
-7.31042
-7.32309
-7.33584
-7.34863
-7.36141
-7.37409
-7.38663
-7.39894
-7.41094
-7.42255
-7.43369
-7.44426
-7.45419
-7.46338
-7.47174
-7.47919
-7.48563
-7.49097
-7.49512
-7.49798
-7.49947
-7.49946
-7.49786
-7.49457
-7.48946
-7.48243
-7.47334
-7.46207
-7.4485
-7.43248
-7.41388
-7.39258
-7.36846
-7.34139
-7.31127
-7.27803
-7.24162
-7.202
-7.15921
-7.1133
-7.06441
-7.01268
-6.95838
-6.90175
-6.84309
-6.78273
-6.72103
-6.65842
-6.59532
-6.53224
-6.46958
-6.40776
-6.34709
-6.28784
-6.23017
-6.17423
-6.1202
-6.06825
-6.0186
-5.97151
-5.92724
-5.88609
-5.84842
-5.81463
-5.78517
-5.76033
-5.74048
-5.72596
-5.71692
-5.71336
-5.71516
-5.7221
-5.73383
-5.74984
-5.76929
-5.79106
-5.81376
-5.83546
-5.85415
-5.86761
-5.87269
-5.86578
-5.84301
-5.80013
-5.73242
-5.63461
-5.50103
-5.32541
-5.10025
-4.8135
-4.44326
-3.95323
-3.29816
-2.44312
-1.38597
-0.175096
1.09484
2.32323
3.42147
4.32322
4.98736
5.38892
5.50662
5.33473
4.88982
4.21683
3.4048
2.60118
2.0366
1.93195
2.31322
3.07797
4.05136
5.08113
6.07526
6.99038
7.81348
8.54599
9.19285
9.76198
10.2615
10.6995
11.0833
11.4196
11.7141
11.9722
12.198
12.3957
12.5681
12.7186
12.8485
12.9619
13.0565
13.1405
13.2023
13.2646
13.2879
13.3417
13.2999
-6.00214
-6.24623
-6.28091
-6.41402
-6.42558
-6.51098
-6.53143
-6.59297
-6.61993
-6.66849
-6.69888
-6.74006
-6.77169
-6.80833
-6.83981
-6.87324
-6.90363
-6.93435
-6.96297
-6.99105
-7.01741
-7.04274
-7.06652
-7.08909
-7.11034
-7.13023
-7.14939
-7.16773
-7.18443
-7.19992
-7.21484
-7.22932
-7.24328
-7.25684
-7.27022
-7.28344
-7.29666
-7.30992
-7.32328
-7.33676
-7.35039
-7.36418
-7.37811
-7.39216
-7.4063
-7.42048
-7.43464
-7.44873
-7.46268
-7.4764
-7.48982
-7.50285
-7.51541
-7.52742
-7.53876
-7.54935
-7.55909
-7.56789
-7.57564
-7.58224
-7.58758
-7.59156
-7.59406
-7.59495
-7.59413
-7.59146
-7.58681
-7.58004
-7.571
-7.55955
-7.54553
-7.5288
-7.50922
-7.48663
-7.46091
-7.43194
-7.39962
-7.36389
-7.32472
-7.2821
-7.23609
-7.18681
-7.13443
-7.07922
-7.02143
-6.96135
-6.89929
-6.83563
-6.7708
-6.7053
-6.63963
-6.57431
-6.50976
-6.44633
-6.38431
-6.32388
-6.26522
-6.20853
-6.15399
-6.10187
-6.05243
-6.00598
-5.96277
-5.92321
-5.88769
-5.85666
-5.83039
-5.80936
-5.79391
-5.78418
-5.7801
-5.7815
-5.78809
-5.79939
-5.81474
-5.83322
-5.85365
-5.87467
-5.89455
-5.91162
-5.92396
-5.92856
-5.92238
-5.90139
-5.86102
-5.79603
-5.70067
-5.56817
-5.39158
-5.16352
-4.87439
-4.50552
-4.02363
-3.38362
-2.54696
-1.5047
-0.294685
0.993873
2.25605
3.39492
4.33278
5.02062
5.43129
5.54397
5.35015
4.86519
4.13361
3.24939
2.38132
1.80163
1.73058
2.17443
3.00051
4.01499
5.06295
6.05797
6.96546
7.77864
8.50109
9.13924
9.70161
10.1965
10.6319
11.0149
11.3516
11.6476
11.9079
12.1364
12.337
12.5124
12.6659
12.7986
12.9146
13.0114
13.0972
13.1604
13.2236
13.247
13.3013
13.2578
-6.00243
-6.24633
-6.28019
-6.41451
-6.42634
-6.51358
-6.53478
-6.59826
-6.62636
-6.67678
-6.70848
-6.75139
-6.78453
-6.82291
-6.85601
-6.8912
-6.9233
-6.95582
-6.98626
-7.01622
-7.0445
-7.07184
-7.09767
-7.12233
-7.14561
-7.16767
-7.18862
-7.20821
-7.22714
-7.24553
-7.26256
-7.27863
-7.29451
-7.30967
-7.32465
-7.33963
-7.35457
-7.36961
-7.38476
-7.40009
-7.41561
-7.43136
-7.44731
-7.46347
-7.47979
-7.49624
-7.51274
-7.52925
-7.54568
-7.56197
-7.57802
-7.59375
-7.60906
-7.62385
-7.63801
-7.65145
-7.66405
-7.67572
-7.68632
-7.69576
-7.70391
-7.71066
-7.71586
-7.71939
-7.72112
-7.72093
-7.71865
-7.71415
-7.70725
-7.69782
-7.68568
-7.67068
-7.65264
-7.63144
-7.60691
-7.57893
-7.5474
-7.51223
-7.47338
-7.43083
-7.38465
-7.33493
-7.28187
-7.2257
-7.16672
-7.10517
-7.04137
-6.97567
-6.90853
-6.84047
-6.77211
-6.70399
-6.6366
-6.57032
-6.50549
-6.4423
-6.38092
-6.32156
-6.26447
-6.20992
-6.15829
-6.10984
-6.06482
-6.02355
-5.98645
-5.95396
-5.92642