/*--------------------------------*- C++ -*----------------------------------*\
| =========                 |                                                 |
| \\      /  F ield         | OpenFOAM: The Open Source CFD Toolbox           |
|  \\    /   O peration     | Version:  v1906                                 |
|   \\  /    A nd           | Web:      www.OpenFOAM.com                      |
|    \\/     M anipulation  |                                                 |
\*---------------------------------------------------------------------------*/
FoamFile
{
    version     2.0;
    format      ascii;
    class       surfaceScalarField;
    location    "900";
    object      phi;
}
// * * * * * * * * * * * * * * * * * * * * * * * * * * * * * * * * * * * * * //

dimensions      [0 3 -1 0 0 0 0];
oriented        oriented;


internalField   nonuniform List<scalar> 
24170
(
3.08283e-06
1.05575e-07
2.98703e-06
9.57994e-08
2.92076e-06
6.62757e-08
2.86479e-06
5.5969e-08
2.81601e-06
4.87791e-08
2.77322e-06
4.27856e-08
2.73521e-06
3.801e-08
2.70109e-06
3.4119e-08
2.67037e-06
3.07263e-08
2.64267e-06
2.76923e-08
2.61757e-06
2.51008e-08
2.59466e-06
2.29111e-08
2.57384e-06
2.08253e-08
2.55512e-06
1.87205e-08
2.53881e-06
1.63063e-08
2.52527e-06
1.35401e-08
2.51535e-06
9.91875e-09
-1.13398e-09
2.51648e-06
3.44276e-06
8.00673e-08
3.44404e-06
9.45117e-08
3.43234e-06
7.79833e-08
3.41874e-06
6.95607e-08
3.40403e-06
6.34933e-08
3.38926e-06
5.75603e-08
3.37492e-06
5.23498e-08
3.36112e-06
4.79153e-08
3.34789e-06
4.39523e-08
3.33527e-06
4.03136e-08
3.32332e-06
3.70568e-08
3.31207e-06
3.41558e-08
3.30146e-06
3.14358e-08
3.2915e-06
2.86855e-08
3.28204e-06
2.57625e-08
3.27319e-06
2.23887e-08
3.26554e-06
1.75658e-08
7.84322e-09
3.25657e-06
3.67627e-06
6.63091e-08
3.67858e-06
9.22071e-08
3.67282e-06
8.37436e-08
3.66532e-06
7.70552e-08
3.65777e-06
7.1047e-08
3.65064e-06
6.46866e-08
3.644e-06
5.89932e-08
3.63777e-06
5.41427e-08
3.6319e-06
4.98267e-08
3.62634e-06
4.58776e-08
3.6211e-06
4.22967e-08
3.61621e-06
3.90372e-08
3.6117e-06
3.59501e-08
3.60757e-06
3.28186e-08
3.60379e-06
2.9539e-08
3.60055e-06
2.56343e-08
3.59667e-06
2.14441e-08
1.50343e-08
3.58947e-06
3.93547e-06
5.62283e-08
3.94304e-06
8.46389e-08
3.94515e-06
8.16353e-08
3.94519e-06
7.70108e-08
3.94405e-06
7.21912e-08
3.94208e-06
6.6656e-08
3.93964e-06
6.14279e-08
3.93699e-06
5.67953e-08
3.93425e-06
5.25609e-08
3.93152e-06
4.8612e-08
3.92887e-06
4.49496e-08
3.92637e-06
4.15336e-08
3.92408e-06
3.82393e-08
3.92203e-06
3.48748e-08
3.92022e-06
3.13437e-08
3.91861e-06
2.72446e-08
3.91749e-06
2.25653e-08
1.5168e-08
3.91736e-06
4.21811e-06
4.52488e-08
4.2276e-06
7.51447e-08
4.23156e-06
7.76791e-08
4.23295e-06
7.56211e-08
4.23317e-06
7.19721e-08
4.23273e-06
6.70898e-08
4.23199e-06
6.21702e-08
4.23113e-06
5.76503e-08
4.23024e-06
5.34509e-08
4.22935e-06
4.95046e-08
4.22849e-06
4.58065e-08
4.22772e-06
4.23084e-08
4.22705e-06
3.89069e-08
4.2265e-06
3.54284e-08
4.22601e-06
3.18329e-08
4.22552e-06
2.77383e-08
4.22431e-06
2.37718e-08
1.89722e-08
4.22051e-06
4.5171e-06
3.72363e-08
4.52584e-06
6.6405e-08
4.53159e-06
7.19285e-08
4.53566e-06
7.15459e-08
4.53874e-06
6.88952e-08
4.54101e-06
6.48247e-08
4.54268e-06
6.04921e-08
4.54398e-06
5.63545e-08
4.54502e-06
5.24123e-08
4.54588e-06
4.86408e-08
4.54665e-06
4.50416e-08
4.54738e-06
4.15764e-08
4.54812e-06
3.81647e-08
4.54888e-06
3.4674e-08
4.54966e-06
3.10477e-08
4.55034e-06
2.70565e-08
4.55139e-06
2.27283e-08
1.74784e-08
4.55288e-06
4.83986e-06
3.00916e-08
4.84841e-06
5.78602e-08
4.85444e-06
6.58937e-08
4.85863e-06
6.73559e-08
4.86169e-06
6.58435e-08
4.86393e-06
6.25782e-08
4.86567e-06
5.87534e-08
4.86713e-06
5.48999e-08
4.86841e-06
5.1124e-08
4.8696e-06
4.74567e-08
4.87072e-06
4.39166e-08
4.87182e-06
4.04758e-08
4.87291e-06
3.70783e-08
4.87396e-06
3.36192e-08
4.87492e-06
3.00953e-08
4.87563e-06
2.63473e-08
4.87555e-06
2.28055e-08
1.90938e-08
4.87393e-06
5.18534e-06
2.4333e-08
5.19299e-06
5.02061e-08
5.19939e-06
5.94996e-08
5.20468e-06
6.20596e-08
5.2092e-06
6.1325e-08
5.21305e-06
5.87275e-08
5.21639e-06
5.54171e-08
5.21936e-06
5.19282e-08
5.22206e-06
4.84206e-08
5.22456e-06
4.49564e-08
5.22692e-06
4.15639e-08
5.22917e-06
3.8228e-08
5.23133e-06
3.49094e-08
5.23341e-06
3.15391e-08
5.23542e-06
2.80915e-08
5.23728e-06
2.44849e-08
5.23938e-06
2.07011e-08
1.67544e-08
5.24172e-06
5.55573e-06
1.99381e-08
5.56257e-06
4.33666e-08
5.56884e-06
5.32307e-08
5.57411e-06
5.67929e-08
5.57851e-06
5.69187e-08
5.58219e-06
5.50468e-08
5.58534e-06
5.22721e-08
5.58812e-06
4.91456e-08
5.59065e-06
4.58895e-08
5.593e-06
4.2608e-08
5.59521e-06
3.93523e-08
5.59732e-06
3.61259e-08
5.59931e-06
3.29158e-08
5.60117e-06
2.96783e-08
5.60282e-06
2.64408e-08
5.60415e-06
2.31595e-08
5.60474e-06
2.01089e-08
1.70623e-08
5.60443e-06
5.95382e-06
1.58909e-08
5.96022e-06
3.69671e-08
5.9665e-06
4.69556e-08
5.97225e-06
5.10444e-08
5.97747e-06
5.16954e-08
5.98218e-06
5.03382e-08
5.98645e-06
4.79953e-08
5.9904e-06
4.52049e-08
5.99407e-06
4.2216e-08
5.99752e-06
3.91527e-08
6.0008e-06
3.6077e-08
6.00392e-06
3.30054e-08
6.0069e-06
2.99351e-08
6.00973e-06
2.68455e-08
6.01244e-06
2.37358e-08
6.015e-06
2.05939e-08
6.01771e-06
1.74082e-08
1.43723e-08
6.0204e-06
6.37949e-06
1.32154e-08
6.38482e-06
3.16341e-08
6.39068e-06
4.10942e-08
6.39627e-06
4.54585e-08
6.40137e-06
4.65973e-08
6.40593e-06
4.57747e-08
6.41003e-06
4.38982e-08
6.41375e-06
4.14794e-08
6.41718e-06
3.87867e-08
6.42037e-06
3.59658e-08
6.42335e-06
3.30961e-08
6.42614e-06
3.02111e-08
6.42875e-06
2.73301e-08
6.43114e-06
2.4451e-08
6.43327e-06
2.16136e-08
6.43504e-06
1.88158e-08
6.43623e-06
1.62178e-08
1.37205e-08
6.43689e-06
5.74325e-06
1.08046e-08
5.74771e-06
2.7165e-08
5.75268e-06
3.61311e-08
5.75758e-06
4.05531e-08
5.76227e-06
4.19118e-08
5.76665e-06
4.13914e-08
5.77074e-06
3.98087e-08
5.77457e-06
3.76484e-08
5.77818e-06
3.51815e-08
5.78158e-06
3.25601e-08
5.78481e-06
2.98696e-08
5.78787e-06
2.71523e-08
5.79077e-06
2.44312e-08
5.7935e-06
2.17171e-08
5.79609e-06
1.90255e-08
5.79853e-06
1.6378e-08
5.80097e-06
1.37708e-08
1.14031e-08
5.80329e-06
6.99987e-06
9.0936e-09
7.00403e-06
2.3004e-08
7.0092e-06
3.09563e-08
7.01459e-06
3.51634e-08
7.01983e-06
3.66712e-08
7.02476e-06
3.64631e-08
7.02935e-06
3.52236e-08
7.03361e-06
3.33856e-08
7.03758e-06
3.12101e-08
7.04129e-06
2.88518e-08
7.04475e-06
2.64036e-08
7.04799e-06
2.39181e-08
7.05099e-06
2.14312e-08
7.05374e-06
1.89645e-08
7.05621e-06
1.65523e-08
7.05838e-06
1.42142e-08
7.06014e-06
1.20061e-08
9.82899e-09
7.06172e-06
8.5332e-06
6.7445e-09
8.53811e-06
1.80896e-08
8.54407e-06
2.50003e-08
8.55038e-06
2.88454e-08
8.5567e-06
3.03513e-08
8.56284e-06
3.0326e-08
8.56872e-06
2.93434e-08
8.57432e-06
2.77826e-08
8.57965e-06
2.58845e-08
8.5847e-06
2.37972e-08
8.5895e-06
2.1612e-08
8.59403e-06
1.93841e-08
8.59831e-06
1.71494e-08
8.60234e-06
1.49339e-08
8.60613e-06
1.27605e-08
8.60969e-06
1.06598e-08
8.61305e-06
8.6482e-09
6.89105e-09
8.61599e-06
1.04007e-05
5.2804e-09
1.0405e-05
1.38216e-08
1.04108e-05
1.91252e-08
1.04175e-05
2.21735e-08
1.04244e-05
2.34465e-08
1.04312e-05
2.35015e-08
1.04378e-05
2.27585e-08
1.04441e-05
2.1508e-08
1.045e-05
1.99467e-08
1.04556e-05
1.82032e-08
1.04609e-05
1.63608e-08
1.04658e-05
1.44749e-08
1.04703e-05
1.25822e-08
1.04746e-05
1.07118e-08
1.04784e-05
8.87933e-09
1.0482e-05
7.10739e-09
1.04853e-05
5.38802e-09
3.70627e-09
1.04884e-05
1.26789e-05
3.16383e-09
1.2684e-05
8.75908e-09
1.26907e-05
1.24132e-08
1.26983e-05
1.45674e-08
1.27063e-05
1.54785e-08
1.27143e-05
1.54995e-08
1.27221e-05
1.49196e-08
1.27297e-05
1.39463e-08
1.27369e-05
1.27273e-08
1.27437e-05
1.13622e-08
1.27502e-05
9.91867e-09
1.27562e-05
8.44219e-09
1.27618e-05
6.968e-09
1.2767e-05
5.52187e-09
1.27717e-05
4.13191e-09
1.2776e-05
2.81726e-09
1.27798e-05
1.60483e-09
5.34675e-10
1.2783e-05
1.5455e-05
1.37886e-09
1.54599e-05
3.7907e-09
1.54671e-05
5.26359e-09
1.54756e-05
6.01674e-09
1.54849e-05
6.16384e-09
1.54946e-05
5.86525e-09
1.55042e-05
5.25866e-09
1.55137e-05
4.4442e-09
1.5523e-05
3.49647e-09
1.55319e-05
2.46956e-09
1.55404e-05
1.40075e-09
1.55485e-05
3.19234e-10
1.55562e-05
-7.57862e-10
1.55636e-05
-1.80902e-09
1.55705e-05
-2.83554e-09
1.55772e-05
-3.80752e-09
1.55835e-05
-4.75444e-09
-5.55926e-09
1.55896e-05
1.88392e-05
-1.521e-10
1.8844e-05
-9.94854e-10
1.8851e-05
-1.78286e-09
1.88594e-05
-2.40933e-09
1.88685e-05
-2.92524e-09
1.88778e-05
-3.36972e-09
1.88868e-05
-3.77208e-09
1.88954e-05
-4.153e-09
1.89034e-05
-4.52308e-09
1.89108e-05
-4.88723e-09
1.89174e-05
-5.2464e-09
1.89233e-05
-5.60047e-09
1.89285e-05
-5.9481e-09
1.8933e-05
-6.29139e-09
1.89368e-05
-6.62878e-09
1.89399e-05
-6.96268e-09
1.89425e-05
-7.3107e-09
-7.73771e-09
1.89447e-05
2.29673e-05
-4.07737e-09
2.29763e-05
-9.9827e-09
2.29885e-05
-1.40453e-08
2.30029e-05
-1.68465e-08
2.30188e-05
-1.87493e-08
2.30354e-05
-2.00055e-08
2.30525e-05
-2.08172e-08
2.30696e-05
-2.13321e-08
2.30868e-05
-2.16488e-08
2.31037e-05
-2.18302e-08
2.31204e-05
-2.19141e-08
2.31367e-05
-2.1918e-08
2.31526e-05
-2.18462e-08
2.3168e-05
-2.16874e-08
2.31828e-05
-2.14267e-08
2.31968e-05
-2.1028e-08
2.321e-05
-2.04844e-08
-1.94404e-08
2.32217e-05
1.68112e-05
-4.60831e-09
1.68147e-05
-1.34714e-08
1.68202e-05
-1.95564e-08
1.68267e-05
-2.33572e-08
1.68335e-05
-2.54823e-08
1.68399e-05
-2.64547e-08
1.68458e-05
-2.66923e-08
1.6851e-05
-2.64827e-08
1.68553e-05
-2.60068e-08
1.68589e-05
-2.53752e-08
1.68616e-05
-2.46519e-08
1.68636e-05
-2.38751e-08
1.68648e-05
-2.30629e-08
1.68653e-05
-2.22357e-08
1.68653e-05
-2.13985e-08
1.68649e-05
-2.05987e-08
1.68642e-05
-1.98335e-08
-1.95722e-08
1.68643e-05
1.46387e-05
-8.70498e-09
1.46468e-05
-2.15716e-08
1.46567e-05
-2.94961e-08
1.46675e-05
-3.41811e-08
1.46788e-05
-3.67065e-08
1.46901e-05
-3.77604e-08
1.47013e-05
-3.78873e-08
1.47122e-05
-3.74669e-08
1.4723e-05
-3.6734e-08
1.47334e-05
-3.5834e-08
1.47436e-05
-3.48608e-08
1.47536e-05
-3.38729e-08
1.47635e-05
-3.29113e-08
1.47732e-05
-3.19934e-08
1.4783e-05
-3.11441e-08
1.47927e-05
-3.03292e-08
1.48025e-05
-2.95823e-08
-2.82661e-08
1.48112e-05
1.27416e-05
-1.01716e-08
1.27467e-05
-2.66962e-08
1.27533e-05
-3.6075e-08
1.276e-05
-4.08504e-08
1.27661e-05
-4.28102e-08
1.27713e-05
-4.303e-08
1.27757e-05
-4.22826e-08
1.27793e-05
-4.10536e-08
1.27822e-05
-3.9596e-08
1.27844e-05
-3.80393e-08
1.2786e-05
-3.64514e-08
1.2787e-05
-3.4864e-08
1.27873e-05
-3.32774e-08
1.2787e-05
-3.16843e-08
1.27859e-05
-3.00373e-08
1.27839e-05
-2.83397e-08
1.27808e-05
-2.64774e-08
-2.51741e-08
1.27777e-05
1.10965e-05
-1.57832e-08
1.11062e-05
-3.63284e-08
1.11165e-05
-4.63791e-08
1.11266e-05
-5.09864e-08
1.11364e-05
-5.25924e-08
1.11457e-05
-5.23076e-08
1.11544e-05
-5.09995e-08
1.11626e-05
-4.92341e-08
1.11703e-05
-4.7285e-08
1.11775e-05
-4.52884e-08
1.11844e-05
-4.33283e-08
1.1191e-05
-4.14554e-08
1.11974e-05
-3.97088e-08
1.12038e-05
-3.81181e-08
1.12106e-05
-3.67581e-08
1.12179e-05
-3.56665e-08
1.12265e-05
-3.50823e-08
-3.42426e-08
1.12356e-05
9.65973e-06
-2.02983e-08
9.66813e-06
-4.47336e-08
9.67601e-06
-5.42513e-08
9.6823e-06
-5.72817e-08
9.68711e-06
-5.73981e-08
9.69065e-06
-5.58489e-08
9.69323e-06
-5.35771e-08
9.69513e-06
-5.11385e-08
9.69656e-06
-4.87097e-08
9.69761e-06
-4.63409e-08
9.69834e-06
-4.40625e-08
9.69878e-06
-4.18892e-08
9.69888e-06
-3.98084e-08
9.69856e-06
-3.77984e-08
9.69756e-06
-3.57606e-08
9.6955e-06
-3.3605e-08
9.69128e-06
-3.08693e-08
-2.80503e-08
9.68509e-06
8.41351e-06
-2.84567e-08
8.42506e-06
-5.62836e-08
8.4352e-06
-6.43932e-08
8.44393e-06
-6.60047e-08
8.45159e-06
-6.50577e-08
8.45818e-06
-6.24447e-08
8.46382e-06
-5.92122e-08
8.46867e-06
-5.59951e-08
8.4729e-06
-5.29367e-08
8.47661e-06
-5.00508e-08
8.4799e-06
-4.73539e-08
8.48286e-06
-4.4852e-08
8.4856e-06
-4.25439e-08
8.48823e-06
-4.04262e-08
8.49103e-06
-3.85649e-08
8.49446e-06
-3.70363e-08
8.50002e-06
-3.64271e-08
-3.64887e-08
8.50846e-06
7.32785e-06
-3.90191e-08
7.33965e-06
-6.80845e-08
7.34633e-06
-7.10771e-08
7.34957e-06
-6.92384e-08
7.35095e-06
-6.64418e-08
7.35122e-06
-6.27177e-08
7.3509e-06
-5.88916e-08
7.35032e-06
-5.54144e-08
7.34961e-06
-5.22308e-08
7.34882e-06
-4.9256e-08
7.34794e-06
-4.64769e-08
7.34698e-06
-4.38934e-08
7.34593e-06
-4.14884e-08
7.34476e-06
-3.92549e-08
7.34331e-06
-3.7117e-08
7.34129e-06
-3.5017e-08
7.33705e-06
-3.21843e-08
-2.81043e-08
7.32866e-06
6.38126e-06
-5.02151e-08
6.39309e-06
-7.99159e-08
6.39984e-06
-7.78192e-08
6.40399e-06
-7.33955e-08
6.40638e-06
-6.88346e-08
6.40727e-06
-6.36053e-08
6.40712e-06
-5.87376e-08
6.4063e-06
-5.45925e-08
6.40505e-06
-5.0981e-08
6.40352e-06
-4.77266e-08
6.40181e-06
-4.47666e-08
6.39998e-06
-4.20692e-08
6.3981e-06
-3.96043e-08
6.39618e-06
-3.73403e-08
6.39437e-06
-3.53003e-08
6.39282e-06
-3.34678e-08
6.39322e-06
-3.25894e-08
-3.3249e-08
6.39837e-06
5.56299e-06
-6.77445e-08
5.56907e-06
-8.59932e-08
5.56464e-06
-7.3391e-08
5.55718e-06
-6.59326e-08
5.54936e-06
-6.10169e-08
5.5419e-06
-5.61409e-08
5.53499e-06
-5.1832e-08
5.52859e-06
-4.81951e-08
5.52258e-06
-4.49648e-08
5.51686e-06
-4.20089e-08
5.51139e-06
-3.92919e-08
5.50612e-06
-3.68002e-08
5.50102e-06
-3.45114e-08
5.49611e-06
-3.24234e-08
5.49131e-06
-3.05039e-08
5.48666e-06
-2.88148e-08
5.48069e-06
-2.66229e-08
-2.24656e-08
5.46991e-06
4.85297e-06
-9.31024e-08
4.85866e-06
-9.16906e-08
4.84878e-06
-6.35135e-08
4.83768e-06
-5.48265e-08
4.82546e-06
-4.87947e-08
4.81323e-06
-4.39194e-08
4.8015e-06
-4.00931e-08
4.79031e-06
-3.70106e-08
4.77967e-06
-3.43234e-08
4.76952e-06
-3.18592e-08
4.75981e-06
-2.95854e-08
4.75051e-06
-2.74951e-08
4.74158e-06
-2.5583e-08
4.733e-06
-2.38411e-08
4.7248e-06
-2.23034e-08
4.71695e-06
-2.09725e-08
4.71104e-06
-2.07085e-08
-2.19114e-08
4.71048e-06
4.10957e-06
4.01788e-06
3.95437e-06
3.89954e-06
3.85075e-06
3.80683e-06
3.76674e-06
3.72973e-06
3.6954e-06
3.66354e-06
3.63396e-06
3.60646e-06
3.58088e-06
3.55704e-06
3.53473e-06
3.51376e-06
3.49305e-06
3.47114e-06
1.6048e-08
-1.60531e-08
5.85815e-08
-4.2547e-08
1.24039e-07
-6.54557e-08
1.83674e-07
-5.96419e-08
2.42998e-07
-5.93226e-08
2.95292e-07
-5.22981e-08
3.44483e-07
-4.919e-08
3.88092e-07
-4.36133e-08
4.28238e-07
-4.01451e-08
4.63807e-07
-3.5575e-08
4.95881e-07
-3.20729e-08
5.23998e-07
-2.81233e-08
5.4882e-07
-2.48224e-08
5.70248e-07
-2.14353e-08
5.8876e-07
-1.85138e-08
6.04399e-07
-1.56469e-08
6.1753e-07
-1.31353e-08
6.28271e-07
-1.0749e-08
6.36827e-07
-8.5649e-09
6.42838e-07
-6.01615e-09
6.45326e-07
-2.49877e-09
6.43093e-07
2.23302e-09
6.35055e-07
8.02815e-09
6.19974e-07
1.50847e-08
5.96503e-07
2.34721e-08
5.62995e-07
3.35026e-08
5.17324e-07
4.56853e-08
4.56749e-07
6.05482e-08
3.77514e-07
7.92433e-08
2.75467e-07
1.02013e-07
1.50263e-07
1.25201e-07
1.21242e-08
1.38129e-07
-1.17714e-07
1.29834e-07
-2.28003e-07
1.10296e-07
-3.21654e-07
9.36484e-08
-4.0244e-07
8.07844e-08
-4.7285e-07
7.04104e-08
-5.35296e-07
6.24336e-08
-5.91627e-07
5.63339e-08
-6.43238e-07
5.15935e-08
-6.9103e-07
4.77956e-08
-7.35698e-07
4.4649e-08
-7.77675e-07
4.1983e-08
-8.17368e-07
3.96735e-08
-8.55002e-07
3.76417e-08
-8.90842e-07
3.5823e-08
-9.25018e-07
3.41829e-08
-9.57722e-07
3.26862e-08
-9.89031e-07
3.13174e-08
-1.0191e-06
3.0053e-08
-1.04798e-06
2.88862e-08
-1.0758e-06
2.77986e-08
-1.10259e-06
2.67875e-08
-1.12845e-06
2.58378e-08
-1.15339e-06
2.49481e-08
-1.17751e-06
2.41031e-08
-1.20081e-06
2.33016e-08
-1.22336e-06
2.25297e-08
-1.24514e-06
2.17867e-08
-1.26621e-06
2.10591e-08
-1.28655e-06
2.0347e-08
-1.30621e-06
1.96395e-08
-1.32514e-06
1.89375e-08
-1.34338e-06
1.82319e-08
-1.36089e-06
1.75256e-08
-1.37771e-06
1.68124e-08
-1.3938e-06
1.60978e-08
-1.40919e-06
1.53782e-08
-1.42384e-06
1.46624e-08
-1.4378e-06
1.39498e-08
-1.45104e-06
1.32545e-08
-1.46363e-06
1.25782e-08
-1.47556e-06
1.19381e-08
-1.4869e-06
1.13353e-08
-1.49768e-06
1.07789e-08
-1.50794e-06
1.02617e-08
-1.51773e-06
9.7851e-09
-1.52708e-06
9.34982e-09
-1.53605e-06
8.96279e-09
-1.54468e-06
8.63662e-09
-1.55307e-06
8.37345e-09
-1.56125e-06
8.18961e-09
-1.56936e-06
8.08301e-09
-1.57742e-06
8.07783e-09
-1.58561e-06
8.16092e-09
-1.59394e-06
8.35898e-09
-1.60263e-06
8.64628e-09
-1.6117e-06
9.05243e-09
-1.62134e-06
9.55639e-09
-1.63165e-06
1.01831e-08
-1.6427e-06
1.0944e-08
-1.65461e-06
1.18285e-08
-1.66749e-06
1.28289e-08
-1.68148e-06
1.39353e-08
-1.69667e-06
1.51451e-08
-1.71316e-06
1.64526e-08
-1.73104e-06
1.78551e-08
-1.75041e-06
1.93481e-08
-1.77135e-06
2.09264e-08
-1.79394e-06
2.25861e-08
-1.81825e-06
2.43164e-08
-1.84434e-06
2.61139e-08
-1.87227e-06
2.79574e-08
-1.90207e-06
2.98391e-08
-1.93377e-06
3.17265e-08
-1.96735e-06
3.36056e-08
-2.0028e-06
3.54367e-08
-2.04001e-06
3.71969e-08
-2.0789e-06
3.88342e-08
-2.11927e-06
4.03086e-08
-2.1609e-06
4.15528e-08
-2.2035e-06
4.2505e-08
-2.24669e-06
4.30794e-08
-2.28999e-06
4.31809e-08
-2.33282e-06
4.26979e-08
-2.37447e-06
4.15015e-08
-2.41408e-06
3.94697e-08
-2.45064e-06
3.64327e-08
-2.48292e-06
3.21885e-08
-2.50946e-06
2.64605e-08
-2.52859e-06
1.90157e-08
-2.53863e-06
9.86332e-09
-2.53844e-06
-3.65e-10
-2.52769e-06
-1.09493e-08
-2.50521e-06
-2.25793e-08
-2.46857e-06
-3.67297e-08
-2.41532e-06
-5.31922e-08
-2.34262e-06
-7.26479e-08
-2.24725e-06
-9.51817e-08
-2.12645e-06
-1.20638e-07
-1.97797e-06
-1.48222e-07
-1.80082e-06
-1.76932e-07
-1.59352e-06
-2.07057e-07
-1.35669e-06
-2.36598e-07
-1.09331e-06
-2.63115e-07
-8.07769e-07
-2.85235e-07
-5.07265e-07
-3.00197e-07
-2.04617e-07
-3.0233e-07
8.6723e-08
-2.91184e-07
3.5659e-07
-2.6976e-07
5.58485e-07
-2.0162e-07
6.02615e-07
-4.35408e-08
4.14987e-07
1.88424e-07
3.16529e-08
3.83868e-07
-3.83861e-07
4.15673e-07
-7.22601e-07
3.38757e-07
-9.82086e-07
2.59484e-07
-1.18095e-06
1.98897e-07
-1.33205e-06
1.51123e-07
-1.43529e-06
1.0341e-07
-1.48204e-06
4.70745e-08
-1.46584e-06
-1.57098e-08
-1.38916e-06
-7.61432e-08
-1.25732e-06
-1.31467e-07
-1.07625e-06
-1.80848e-07
-8.55711e-07
-2.20593e-07
-6.07557e-07
-2.48371e-07
-3.44221e-07
-2.63711e-07
-7.70725e-08
-2.67544e-07
1.90773e-07
-2.68156e-07
4.55465e-07
-2.64907e-07
7.059e-07
-2.50574e-07
9.35655e-07
-2.29863e-07
1.14316e-06
-2.0756e-07
1.3289e-06
-1.85781e-07
1.49432e-06
-1.65435e-07
1.64119e-06
-1.46893e-07
1.77141e-06
-1.30243e-07
1.88686e-06
-1.15475e-07
1.98924e-06
-1.02414e-07
2.08012e-06
-9.09195e-08
2.16072e-06
-8.06398e-08
2.23217e-06
-7.15025e-08
2.29495e-06
-6.28359e-08
2.34977e-06
-5.48711e-08
2.3955e-06
-4.57895e-08
2.43106e-06
-3.56086e-08
2.44762e-06
-1.65982e-08
2.41444e-06
3.3157e-08
9.40785e-08
2.32034e-06
6.02882e-08
-7.63482e-08
8.54422e-08
-6.77079e-08
1.06352e-07
-8.63672e-08
1.20849e-07
-7.41412e-08
1.42206e-07
-8.06812e-08
1.61731e-07
-7.18252e-08
1.8435e-07
-7.18107e-08
2.03827e-07
-6.30922e-08
2.22643e-07
-5.89626e-08
2.37788e-07
-5.07219e-08
2.50654e-07
-4.49401e-08
2.59989e-07
-3.74606e-08
2.66954e-07
-3.17885e-08
2.71391e-07
-2.58745e-08
2.74309e-07
-2.14326e-08
2.75922e-07
-1.72625e-08
2.77101e-07
-1.43152e-08
2.78076e-07
-1.17272e-08
2.78934e-07
-9.42475e-09
2.79433e-07
-6.51731e-09
2.79579e-07
-2.64824e-09
2.78369e-07
3.44279e-09
2.73723e-07
1.26714e-08
2.62755e-07
2.6052e-08
2.42528e-07
4.36984e-08
2.10522e-07
6.55069e-08
1.65241e-07
9.09661e-08
1.05966e-07
1.19818e-07
3.28843e-08
1.52323e-07
-5.25191e-08
1.87412e-07
-1.44588e-07
2.17267e-07
-2.3455e-07
2.2809e-07
-3.20611e-07
2.15894e-07
-4.04435e-07
1.9412e-07
-4.83481e-07
1.72693e-07
-5.54364e-07
1.51666e-07
-6.16124e-07
1.32169e-07
-6.68902e-07
1.1521e-07
-7.13253e-07
1.00684e-07
-7.50082e-07
8.84189e-08
-7.80513e-07
7.82262e-08
-8.05739e-07
6.98718e-08
-8.26843e-07
6.30856e-08
-8.44763e-07
5.75913e-08
-8.60277e-07
5.31553e-08
-8.74033e-07
4.95771e-08
-8.86538e-07
4.66876e-08
-8.98198e-07
4.43429e-08
-9.09312e-07
4.24314e-08
-9.20122e-07
4.08601e-08
-9.30795e-07
3.95582e-08
-9.41466e-07
3.84658e-08
-9.5222e-07
3.75394e-08
-9.63125e-07
3.67395e-08
-9.74217e-07
3.60387e-08
-9.85528e-07
3.54096e-08
-9.97062e-07
3.48349e-08
-1.00883e-06
3.42951e-08
-1.02082e-06
3.37782e-08
-1.03304e-06
3.32695e-08
-1.04545e-06
3.27614e-08
-1.05806e-06
3.2243e-08
-1.07083e-06
3.17097e-08
-1.08375e-06
3.11542e-08
-1.0968e-06
3.05749e-08
-1.10996e-06
2.99676e-08
-1.12319e-06
2.93327e-08
-1.13648e-06
2.8668e-08
-1.14979e-06
2.79757e-08
-1.1631e-06
2.72549e-08
-1.17636e-06
2.65103e-08
-1.18952e-06
2.5742e-08
-1.20254e-06
2.49559e-08
-1.21536e-06
2.41513e-08
-1.22791e-06
2.33315e-08
-1.24014e-06
2.24941e-08
-1.252e-06
2.16418e-08
-1.26344e-06
2.07845e-08
-1.27442e-06
1.994e-08
-1.28491e-06
1.91299e-08
-1.29491e-06
1.83666e-08
-1.30439e-06
1.76718e-08
-1.31337e-06
1.70561e-08
-1.32183e-06
1.65434e-08
-1.32981e-06
1.61364e-08
-1.33731e-06
1.58587e-08
-1.34437e-06
1.57063e-08
-1.35103e-06
1.57008e-08
-1.35736e-06
1.5838e-08
-1.36337e-06
1.61402e-08
-1.36909e-06
1.66119e-08
-1.37454e-06
1.72434e-08
-1.37977e-06
1.8035e-08
-1.38484e-06
1.89798e-08
-1.3898e-06
2.00842e-08
-1.39471e-06
2.13426e-08
-1.39963e-06
2.27621e-08
-1.40463e-06
2.43365e-08
-1.40978e-06
2.60717e-08
-1.41516e-06
2.79611e-08
-1.42085e-06
3.00077e-08
-1.42693e-06
3.22052e-08
-1.4335e-06
3.45464e-08
-1.44067e-06
3.70222e-08
-1.44854e-06
3.96132e-08
-1.45724e-06
4.23062e-08
-1.46688e-06
4.5073e-08
-1.47759e-06
4.78928e-08
-1.48952e-06
5.07257e-08
-1.50279e-06
5.35398e-08
-1.51757e-06
5.62832e-08
-1.53404e-06
5.89116e-08
-1.5524e-06
6.13565e-08
-1.57284e-06
6.355e-08
-1.59563e-06
6.53932e-08
-1.62101e-06
6.67761e-08
-1.64918e-06
6.75412e-08
-1.68031e-06
6.74806e-08
-1.71448e-06
6.62972e-08
-1.75172e-06
6.36357e-08
-1.7919e-06
5.90896e-08
-1.83427e-06
5.21046e-08
-1.8765e-06
4.17077e-08
-1.91466e-06
2.70841e-08
-1.9451e-06
7.73984e-09
-1.9645e-06
-1.73758e-08
-1.96874e-06
-4.89717e-08
-1.95442e-06
-8.69363e-08
-1.91834e-06
-1.31175e-07
-1.85749e-06
-1.81396e-07
-1.76914e-06
-2.36427e-07
-1.65088e-06
-2.95075e-07
-1.501e-06
-3.56788e-07
-1.3203e-06
-4.17174e-07
-1.11238e-06
-4.70895e-07
-8.83268e-07
-5.14233e-07
-6.42205e-07
-5.41156e-07
-4.01963e-07
-5.42534e-07
-1.85509e-07
-5.07633e-07
-3.08523e-08
-4.24422e-07
4.06499e-08
-2.73093e-07
3.52009e-08
-3.78848e-08
-2.87337e-08
2.52617e-07
-1.14947e-07
4.70295e-07
-2.02008e-07
5.02852e-07
-2.9923e-07
4.36074e-07
-4.11719e-07
3.72035e-07
-5.39306e-07
3.26537e-07
-6.7397e-07
2.85825e-07
-8.03486e-07
2.3303e-07
-9.13306e-07
1.5708e-07
-9.82461e-07
5.37138e-08
-9.90573e-07
-6.77707e-08
-9.30016e-07
-1.91865e-07
-8.07912e-07
-3.02905e-07
-6.3737e-07
-3.91215e-07
-4.32436e-07
-4.53453e-07
-2.05509e-07
-4.9083e-07
3.38059e-08
-5.07032e-07
2.7341e-07
-5.07898e-07
5.04457e-07
-4.96053e-07
7.23582e-07
-4.69771e-07
9.28795e-07
-4.35131e-07
1.11869e-06
-3.97491e-07
1.2929e-06
-3.60019e-07
1.4518e-06
-3.2436e-07
1.5962e-06
-2.91318e-07
1.72713e-06
-2.61204e-07
1.84572e-06
-2.34091e-07
1.95305e-06
-2.0978e-07
2.05018e-06
-1.88085e-07
2.13797e-06
-1.68474e-07
2.2172e-06
-1.50778e-07
2.28831e-06
-1.33991e-07
2.35156e-06
-1.18171e-07
2.40666e-06
-1.00938e-07
2.45277e-06
-8.17616e-08
2.49098e-06
-5.48453e-08
2.53292e-06
-8.80997e-09
6.38712e-08
2.56309e-06
1.68853e-08
-9.32391e-08
2.63321e-08
-7.71586e-08
3.50977e-08
-9.51341e-08
4.03268e-08
-7.93719e-08
5.02907e-08
-9.06462e-08
6.16947e-08
-8.32305e-08
7.86424e-08
-8.87597e-08
9.61283e-08
-8.05792e-08
1.16069e-07
-7.89039e-08
1.336e-07
-6.82544e-08
1.49531e-07
-6.08715e-08
1.61409e-07
-4.93397e-08
1.70063e-07
-4.04424e-08
1.74452e-07
-3.02651e-08
1.75158e-07
-2.21386e-08
1.70926e-07
-1.30309e-08
1.61781e-07
-5.17009e-09
1.48292e-07
1.76039e-09
1.31914e-07
6.95294e-09
1.13079e-07
1.23172e-08
9.25204e-08
1.79095e-08
7.01316e-08
2.58312e-08
4.51316e-08
3.76705e-08
1.59716e-08
5.52113e-08
-1.91225e-08
7.87917e-08
-6.15965e-08
1.07979e-07
-1.11996e-07
1.41365e-07
-1.69796e-07
1.77616e-07
-2.32837e-07
2.15362e-07
-2.96566e-07
2.51139e-07
-3.55242e-07
2.75942e-07
-4.06974e-07
2.79821e-07
-4.54562e-07
2.63481e-07
-4.99596e-07
2.39153e-07
-5.41406e-07
2.14502e-07
-5.79305e-07
1.89564e-07
-6.12908e-07
1.65772e-07
-6.4249e-07
1.4479e-07
-6.68739e-07
1.26931e-07
-6.92306e-07
1.11985e-07
-7.13684e-07
9.96036e-08
-7.33239e-07
8.94255e-08
-7.51293e-07
8.11394e-08
-7.68168e-07
7.44649e-08
-7.84149e-07
6.91368e-08
-7.99491e-07
6.4918e-08
-8.14413e-07
6.16103e-08
-8.29113e-07
5.90412e-08
-8.43744e-07
5.70633e-08
-8.58435e-07
5.55497e-08
-8.73273e-07
5.43961e-08
-8.88323e-07
5.3514e-08
-9.03617e-07
5.28326e-08
-9.1917e-07
5.22914e-08
-9.34975e-07
5.18431e-08
-9.51014e-07
5.1447e-08
-9.67252e-07
5.10729e-08
-9.83653e-07
5.06941e-08
-1.00017e-06
5.0291e-08
-1.01674e-06
4.98462e-08
-1.03333e-06
4.93482e-08
-1.04988e-06
4.8787e-08
-1.06632e-06
4.81573e-08
-1.08262e-06
4.74544e-08
-1.09873e-06
4.66771e-08
-1.11458e-06
4.58239e-08
-1.13015e-06
4.48956e-08
-1.14537e-06
4.38924e-08
-1.16022e-06
4.28173e-08
-1.17463e-06
4.16729e-08
-1.18859e-06
4.04658e-08
-1.20205e-06
3.92014e-08
-1.21498e-06
3.78878e-08
-1.22736e-06
3.65307e-08
-1.23917e-06
3.51379e-08
-1.25039e-06
3.37161e-08
-1.26103e-06
3.22782e-08
-1.27109e-06
3.08452e-08
-1.2806e-06
2.94446e-08
-1.28958e-06
2.81055e-08
-1.29806e-06
2.68512e-08
-1.3061e-06
2.57104e-08
-1.31375e-06
2.47055e-08
-1.32107e-06
2.38649e-08
-1.32814e-06
2.3204e-08
-1.33503e-06
2.27487e-08
-1.34183e-06
2.25073e-08
-1.34864e-06
2.25003e-08
-1.35556e-06
2.27313e-08
-1.36267e-06
2.32197e-08
-1.37005e-06
2.39652e-08
-1.3778e-06
2.49685e-08
-1.386e-06
2.62232e-08
-1.39477e-06
2.77323e-08
-1.40419e-06
2.94943e-08
-1.41437e-06
3.15142e-08
-1.42541e-06
3.37943e-08
-1.43742e-06
3.63405e-08
-1.45052e-06
3.91592e-08
-1.46482e-06
4.2255e-08
-1.48045e-06
4.56388e-08
-1.49755e-06
4.93093e-08
-1.51627e-06
5.3275e-08
-1.53677e-06
5.75221e-08
-1.55919e-06
6.20468e-08
-1.58371e-06
6.68198e-08
-1.61046e-06
7.18176e-08
-1.63957e-06
7.69883e-08
-1.67114e-06
8.22775e-08
-1.70524e-06
8.76029e-08
-1.74186e-06
9.2873e-08
-1.78097e-06
9.79706e-08
-1.82242e-06
1.0276e-07
-1.86601e-06
1.07077e-07
-1.9114e-06
1.10722e-07
-1.95815e-06
1.13461e-07
-2.00568e-06
1.15e-07
-2.05323e-06
1.14973e-07
-2.09989e-06
1.12906e-07
-2.14454e-06
1.08217e-07
-2.18576e-06
1.00216e-07
-2.22181e-06
8.80412e-08
-2.25078e-06
7.05431e-08
-2.27058e-06
4.67771e-08
-2.27902e-06
1.60737e-08
-2.27434e-06
-2.21054e-08
-2.25472e-06
-6.86403e-08
-2.21752e-06
-1.24126e-07
-2.15984e-06
-1.88847e-07
-2.07879e-06
-2.6239e-07
-1.97167e-06
-3.43502e-07
-1.83647e-06
-4.30208e-07
-1.67389e-06
-5.19296e-07
-1.48636e-06
-6.04615e-07
-1.27865e-06
-6.78514e-07
-1.05896e-06
-7.33806e-07
-8.38135e-07
-7.61886e-07
-6.28414e-07
-7.5217e-07
-4.42834e-07
-6.93159e-07
-2.96473e-07
-5.70739e-07
-1.97938e-07
-3.71541e-07
-1.36757e-07
-9.8927e-08
-8.16674e-08
1.97725e-07
-2.56033e-08
4.14381e-07
-2.17492e-08
4.99081e-07
-1.04548e-07
5.18882e-07
-2.6182e-07
5.29299e-07
-4.6413e-07
5.28822e-07
-6.75623e-07
4.97303e-07
-8.60757e-07
4.18176e-07
-9.90702e-07
2.87081e-07
-1.04923e-06
1.12336e-07
-1.03277e-06
-8.41387e-08
-9.48466e-07
-2.76103e-07
-8.08182e-07
-4.43163e-07
-6.26072e-07
-5.7333e-07
-4.16446e-07
-6.63112e-07
-1.9211e-07
-7.15201e-07
3.65109e-08
-7.35682e-07
2.61553e-07
-7.32944e-07
4.77208e-07
-7.11708e-07
6.81917e-07
-6.74468e-07
8.74859e-07
-6.28063e-07
1.05528e-06
-5.77889e-07
1.22282e-06
-5.2753e-07
1.3776e-06
-4.79108e-07
1.52013e-06
-4.33817e-07
1.65113e-06
-3.92166e-07
1.7714e-06
-3.54337e-07
1.88176e-06
-3.2011e-07
1.98297e-06
-2.89276e-07
2.07569e-06
-2.61172e-07
2.16049e-06
-2.35561e-07
2.23769e-06
-2.11185e-07
2.30753e-06
-1.88006e-07
2.36982e-06
-1.63221e-07
2.42433e-06
-1.36269e-07
2.47033e-06
-1.0084e-07
2.51172e-06
-5.01911e-08
3.25276e-08
2.54307e-06
2.04261e-08
-1.13671e-07
2.515e-08
-8.1885e-08
2.86796e-08
-9.86657e-08
2.83908e-08
-7.9084e-08
2.62087e-08
-8.84656e-08
2.23176e-08
-7.93402e-08
1.96039e-08
-8.60472e-08
2.08983e-08
-8.18744e-08
2.50806e-08
-8.30872e-08
3.15484e-08
-7.47229e-08
3.74166e-08
-6.67404e-08
4.09745e-08
-5.28982e-08
4.15365e-08
-4.10046e-08
3.98661e-08
-2.85951e-08
3.64425e-08
-1.87149e-08
3.06913e-08
-7.28006e-09
2.00752e-08
5.44633e-09
2.25284e-09
1.95824e-08
-2.28382e-08
3.20443e-08
-5.46303e-08
4.41087e-08
-9.22701e-08
5.55495e-08
-1.33915e-07
6.74751e-08
-1.76992e-07
8.0748e-08
-2.19431e-07
9.76493e-08
-2.60563e-07
1.19923e-07
-3.00691e-07
1.48106e-07
-3.40348e-07
1.81021e-07
-3.79187e-07
2.16453e-07
-4.14883e-07
2.51056e-07
-4.43387e-07
2.79642e-07
-4.62318e-07
2.94872e-07
-4.73976e-07
2.91478e-07
-4.82969e-07
2.72473e-07
-4.91376e-07
2.4756e-07
-5.00176e-07
2.23301e-07
-5.11254e-07
2.00641e-07
-5.25389e-07
1.79907e-07
-5.42275e-07
1.61675e-07
-5.61387e-07
1.46042e-07
-5.82142e-07
1.32739e-07
-6.03951e-07
1.21413e-07
-6.26262e-07
1.11735e-07
-6.486e-07
1.03477e-07
-6.70666e-07
9.65308e-08
-6.92319e-07
9.07895e-08
-7.13501e-07
8.60995e-08
-7.34209e-07
8.23187e-08
-7.54487e-07
7.93193e-08
-7.74394e-07
7.69701e-08
-7.9399e-07
7.51451e-08
-8.13324e-07
7.37299e-08
-8.32435e-07
7.26247e-08
-8.51346e-07
7.17441e-08
-8.70072e-07
7.1016e-08
-8.88609e-07
7.03805e-08
-9.06951e-07
6.97881e-08
-9.25078e-07
6.91995e-08
-9.42967e-07
6.85831e-08
-9.60591e-07
6.79139e-08
-9.77918e-07
6.71731e-08
-9.94918e-07
6.63477e-08
-1.01156e-06
6.54297e-08
-1.02782e-06
6.44143e-08
-1.04367e-06
6.32999e-08
-1.05908e-06
6.20861e-08
-1.07403e-06
6.07746e-08
-1.0885e-06
5.93676e-08
-1.10248e-06
5.78692e-08
-1.11595e-06
5.62851e-08
-1.1289e-06
5.46233e-08
-1.14133e-06
5.2894e-08
-1.15324e-06
5.11085e-08
-1.16463e-06
4.92793e-08
-1.17552e-06
4.74195e-08
-1.18593e-06
4.55441e-08
-1.19588e-06
4.36711e-08
-1.20543e-06
4.18223e-08
-1.21461e-06
4.00246e-08
-1.22347e-06
3.83084e-08
-1.23207e-06
3.67065e-08
-1.24047e-06
3.52499e-08
-1.24874e-06
3.39726e-08
-1.25694e-06
3.29043e-08
-1.26515e-06
3.20759e-08
-1.27345e-06
3.15104e-08
-1.28194e-06
3.1232e-08
-1.29069e-06
3.12551e-08
-1.29979e-06
3.15948e-08
-1.30933e-06
3.22579e-08
-1.31939e-06
3.32561e-08
-1.33003e-06
3.45875e-08
-1.34133e-06
3.62493e-08
-1.35335e-06
3.82333e-08
-1.36617e-06
4.05384e-08
-1.37984e-06
4.31617e-08
-1.39445e-06
4.6108e-08
-1.41004e-06
4.93815e-08
-1.4267e-06
5.29938e-08
-1.44451e-06
5.69555e-08
-1.46354e-06
6.12813e-08
-1.48389e-06
6.59861e-08
-1.50566e-06
7.10779e-08
-1.52895e-06
7.65658e-08
-1.55386e-06
8.24388e-08
-1.5805e-06
8.86872e-08
-1.60895e-06
9.52714e-08
-1.63929e-06
1.0215e-07
-1.67156e-06
1.09244e-07
-1.70577e-06
1.16466e-07
-1.74188e-06
1.23686e-07
-1.7798e-06
1.30761e-07
-1.81938e-06
1.37507e-07
-1.86038e-06
1.43716e-07
-1.9025e-06
1.49143e-07
-1.94533e-06
1.53503e-07