/*--------------------------------*- C++ -*----------------------------------*\
| =========                 |                                                 |
| \\      /  F ield         | OpenFOAM: The Open Source CFD Toolbox           |
|  \\    /   O peration     | Version:  v1906                                 |
|   \\  /    A nd           | Web:      www.OpenFOAM.com                      |
|    \\/     M anipulation  |                                                 |
\*---------------------------------------------------------------------------*/
FoamFile
{
    version     2.0;
    format      ascii;
    class       volSymmTensorField;
    location    "900";
    object      R;
}
// * * * * * * * * * * * * * * * * * * * * * * * * * * * * * * * * * * * * * //

dimensions      [0 2 -2 0 0 0 0];


internalField   nonuniform List<symmTensor> 
12225
(
(1.62918 -0.333428 0 1.36079 0 1.52752)
(1.99604 -0.597712 0 0.915075 0 1.54225)
(2.14976 -0.586218 0 0.685676 0 1.48847)
(2.16282 -0.548298 0 0.594805 0 1.42583)
(2.13005 -0.521076 0 0.549816 0 1.37026)
(2.08418 -0.501351 0 0.521835 0 1.32327)
(2.03696 -0.485897 0 0.501284 0 1.28315)
(1.9929 -0.473174 0 0.484966 0 1.24877)
(1.95178 -0.462141 0 0.47118 0 1.21839)
(1.91588 -0.45276 0 0.45967 0 1.1923)
(1.8813 -0.444055 0 0.449295 0 1.16829)
(1.85395 -0.437454 0 0.440711 0 1.14831)
(1.83198 -0.432275 0 0.433749 0 1.13215)
(1.81469 -0.428025 0 0.428049 0 1.11876)
(1.79841 -0.42409 0 0.422905 0 1.10682)
(1.78708 -0.421652 0 0.41943 0 1.09785)
(1.77339 -0.41759 0 0.414503 0 1.08777)
(1.76806 -0.418421 0 0.413951 0 1.08315)
(1.52372 -0.0379482 0 1.4601 0 1.51677)
(1.5765 -0.140427 0 1.18695 0 1.51213)
(1.58669 -0.190026 0 0.927646 0 1.45696)
(1.57201 -0.20933 0 0.773806 0 1.39907)
(1.5434 -0.218136 0 0.676236 0 1.34283)
(1.5187 -0.225207 0 0.611112 0 1.29757)
(1.49699 -0.231393 0 0.564433 0 1.25992)
(1.47752 -0.236808 0 0.529075 0 1.22738)
(1.46094 -0.24178 0 0.501479 0 1.19987)
(1.44623 -0.246042 0 0.479118 0 1.1753)
(1.43455 -0.250278 0 0.461046 0 1.15514)
(1.42354 -0.253548 0 0.445382 0 1.13567)
(1.41629 -0.257664 0 0.433281 0 1.12144)
(1.40871 -0.259973 0 0.42133 0 1.10531)
(1.40439 -0.264155 0 0.413881 0 1.09609)
(1.39964 -0.265252 0 0.403353 0 1.08187)
(1.39608 -0.269135 0 0.399745 0 1.07637)
(1.39166 -0.268995 0 0.389843 0 1.0623)
(1.51161 -0.00809761 0 1.49388 0 1.51021)
(1.5345 -0.0358547 0 1.3847 0 1.51857)
(1.5464 -0.0615008 0 1.23522 0 1.5056)
(1.54331 -0.0798277 0 1.11807 0 1.48174)
(1.52913 -0.0934259 0 1.0265 0 1.45227)
(1.51225 -0.105304 0 0.953085 0 1.42298)
(1.49493 -0.115965 0 0.893284 0 1.39546)
(1.47787 -0.125583 0 0.843623 0 1.36973)
(1.46195 -0.134404 0 0.801864 0 1.34636)
(1.44709 -0.142353 0 0.766161 0 1.3247)
(1.43378 -0.149825 0 0.735529 0 1.30547)
(1.42145 -0.156411 0 0.70852 0 1.28721)
(1.41056 -0.162875 0 0.685473 0 1.27169)
(1.4011 -0.168264 0 0.663972 0 1.25607)
(1.39135 -0.173865 0 0.647197 0 1.24414)
(1.38662 -0.178191 0 0.627574 0 1.22983)
(1.37224 -0.18263 0 0.620084 0 1.22269)
(1.38642 -0.185709 0 0.590313 0 1.2064)
(1.51151 -0.00606324 0 1.4942 0 1.51108)
(1.52716 -0.0162663 0 1.42189 0 1.52171)
(1.53965 -0.0294562 0 1.31305 0 1.52311)
(1.54278 -0.0418834 0 1.21371 0 1.51507)
(1.53764 -0.0521679 0 1.12997 0 1.50078)
(1.52855 -0.0612363 0 1.05939 0 1.48384)
(1.51763 -0.0694781 0 0.999867 0 1.46616)
(1.5058 -0.0770389 0 0.949244 0 1.44845)
(1.49387 -0.0840703 0 0.905815 0 1.43137)
(1.48214 -0.0905487 0 0.868169 0 1.41496)
(1.47095 -0.0966475 0 0.835371 0 1.39963)
(1.4603 -0.102223 0 0.806388 0 1.38497)
(1.45029 -0.107552 0 0.781021 0 1.37163)
(1.44118 -0.112274 0 0.758001 0 1.35869)
(1.43205 -0.11685 0 0.738307 0 1.34738)
(1.42517 -0.120703 0 0.718852 0 1.33577)
(1.41565 -0.124278 0 0.704837 0 1.32678)
(1.41234 -0.127368 0 0.68505 0 1.31583)
(1.50985 -0.00453352 0 1.49823 0 1.50974)
(1.52086 -0.00880768 0 1.44956 0 1.51872)
(1.5321 -0.0148849 0 1.37347 0 1.52446)
(1.53776 -0.0219299 0 1.29861 0 1.52375)
(1.53761 -0.0285459 0 1.23209 0 1.51795)
(1.53389 -0.0348341 0 1.17343 0 1.50915)
(1.52804 -0.0409208 0 1.12191 0 1.49876)
(1.52082 -0.0467759 0 1.07654 0 1.48751)
(1.51289 -0.0523922 0 1.03641 0 1.47599)
(1.50462 -0.0577182 0 1.00074 0 1.46444)
(1.49633 -0.0627962 0 0.968927 0 1.4532)
(1.48812 -0.0675586 0 0.940346 0 1.4422)
(1.48011 -0.0720822 0 0.914702 0 1.43175)
(1.47249 -0.0762188 0 0.891388 0 1.42162)
(1.46499 -0.0800849 0 0.870505 0 1.41221)
(1.45836 -0.0835098 0 0.85095 0 1.40299)
(1.4515 -0.0865096 0 0.834081 0 1.39493)
(1.44647 -0.0893609 0 0.815847 0 1.38658)
(1.50976 -0.00410624 0 1.49856 0 1.50978)
(1.51842 -0.00582839 0 1.46079 0 1.51758)
(1.52819 -0.00835318 0 1.40254 0 1.52448)
(1.53465 -0.0121455 0 1.3421 0 1.52723)
(1.53707 -0.0161912 0 1.28568 0 1.52608)
(1.53655 -0.0202928 0 1.23418 0 1.52221)
(1.53398 -0.0244474 0 1.18768 0 1.51655)
(1.52994 -0.0285794 0 1.14588 0 1.50971)
(1.52495 -0.032635 0 1.10828 0 1.50217)
(1.51934 -0.0365648 0 1.07437 0 1.49423)
(1.5134 -0.0403616 0 1.04374 0 1.48616)
(1.50728 -0.04398 0 1.01597 0 1.47806)
(1.5011 -0.0474226 0 0.990745 0 1.47009)
(1.49502 -0.0506185 0 0.967709 0 1.46227)
(1.489 -0.0535718 0 0.946709 0 1.45476)
(1.48335 -0.0562363 0 0.927246 0 1.44747)
(1.47773 -0.0585772 0 0.909565 0 1.44065)
(1.47271 -0.0608748 0 0.891882 0 1.43385)
(1.50945 -0.00338005 0 1.49938 0 1.50953)
(1.5163 -0.00431422 0 1.46919 0 1.51606)
(1.52444 -0.00505934 0 1.42409 0 1.52269)
(1.53067 -0.00672721 0 1.37574 0 1.52674)
(1.53413 -0.00883872 0 1.32916 0 1.52792)
(1.53528 -0.0112169 0 1.28565 0 1.52685)
(1.53468 -0.0138258 0 1.24556 0 1.52414)
(1.53274 -0.0165749 0 1.20887 0 1.52024)
(1.52981 -0.019383 0 1.17533 0 1.51552)
(1.52619 -0.0221886 0 1.14466 0 1.51024)
(1.52211 -0.0249547 0 1.11658 0 1.50463)
(1.51771 -0.0276349 0 1.09083 0 1.49881)
(1.51313 -0.0302003 0 1.06718 0 1.49292)
(1.50848 -0.0326051 0 1.04537 0 1.48703)
(1.50383 -0.0348241 0 1.02525 0 1.48125)
(1.49931 -0.0368482 0 1.00654 0 1.4756)
(1.49496 -0.0386494 0 0.989166 0 1.47022)
(1.49073 -0.0404538 0 0.972436 0 1.4649)
(1.50951 -0.00298189 0 1.49932 0 1.50962)
(1.51527 -0.00358195 0 1.4736 0 1.51535)
(1.52208 -0.00346016 0 1.4372 0 1.5214)
(1.52781 -0.0039293 0 1.39727 0 1.52588)
(1.53165 -0.00485476 0 1.35771 0 1.52831)
(1.53375 -0.00611842 0 1.31992 0 1.52896)
(1.5344 -0.00766992 0 1.28444 0 1.52819)
(1.53387 -0.00941947 0 1.25145 0 1.52631)
(1.53242 -0.0112842 0 1.22089 0 1.5236)
(1.53028 -0.0132028 0 1.19262 0 1.52028)
(1.52761 -0.0151308 0 1.16647 0 1.51653)
(1.52457 -0.0170244 0 1.14228 0 1.51247)
(1.52128 -0.0188479 0 1.11986 0 1.50823)
(1.51782 -0.0205672 0 1.09904 0 1.50389)
(1.51428 -0.0221575 0 1.07966 0 1.49952)
(1.51075 -0.0236184 0 1.06157 0 1.4952)
(1.5072 -0.0249657 0 1.04466 0 1.49096)
(1.5035 -0.0263234 0 1.0287 0 1.48677)
(1.50946 -0.00243998 0 1.49949 0 1.50959)
(1.51435 -0.00302357 0 1.47724 0 1.51461)
(1.52001 -0.00255574 0 1.44733 0 1.51996)
(1.52508 -0.00231604 0 1.41414 0 1.52435)
(1.52887 -0.00241954 0 1.38063 0 1.5273)
(1.53136 -0.0028469 0 1.34809 0 1.52887)
(1.53268 -0.00357159 0 1.31712 0 1.52926)
(1.533 -0.00452319 0 1.28796 0 1.52868)
(1.53251 -0.00562855 0 1.26066 0 1.52733)
(1.53137 -0.00682909 0 1.23514 0 1.52538)
(1.52974 -0.0080775 0 1.21132 0 1.52298)
(1.52772 -0.00933098 0 1.18909 0 1.52024)
(1.52541 -0.0105528 0 1.16833 0 1.51727)
(1.52291 -0.0117148 0 1.14891 0 1.51413)
(1.52028 -0.012797 0 1.13072 0 1.51092)
(1.51759 -0.0138047 0 1.11364 0 1.50768)
(1.51484 -0.0147485 0 1.09761 0 1.50448)
(1.51175 -0.0157365 0 1.08268 0 1.50127)
(1.50949 -0.00208378 0 1.49945 0 1.50964)
(1.51383 -0.0026856 0 1.47951 0 1.51419)
(1.51861 -0.00210024 0 1.45416 0 1.51894)
(1.52306 -0.00149592 0 1.426 0 1.52309)
(1.52663 -0.0011223 0 1.39714 0 1.52622)
(1.52924 -0.00103112 0 1.36869 0 1.5283)
(1.53094 -0.00121684 0 1.34125 0 1.52943)
(1.53181 -0.00162641 0 1.31509 0 1.52973)
(1.53199 -0.00219843 0 1.29033 0 1.52934)
(1.53159 -0.00288008 0 1.26698 0 1.5284)
(1.53072 -0.00362681 0 1.245 0 1.52702)
(1.52948 -0.00439982 0 1.22433 0 1.5253)
(1.52795 -0.00516657 0 1.20488 0 1.52331)
(1.5262 -0.00590435 0 1.18658 0 1.52114)
(1.52429 -0.00660007 0 1.16933 0 1.51884)
(1.52225 -0.00726153 0 1.15309 0 1.51647)
(1.52002 -0.00791708 0 1.13785 0 1.51405)
(1.5174 -0.0086155 0 1.12371 0 1.51161)
(1.50946 -0.00167128 0 1.49957 0 1.50961)
(1.51333 -0.00229606 0 1.48151 0 1.51377)
(1.5174 -0.0017361 0 1.45969 0 1.51797)
(1.52125 -0.000968595 0 1.43555 0 1.52177)
(1.52451 -0.000304209 0 1.41058 0 1.52486)
(1.52706 0.000148858 0 1.38569 0 1.52715)
(1.5289 0.000367918 0 1.36143 0 1.52868)
(1.53007 0.000382697 0 1.33808 0 1.52953)
(1.53065 0.000238395 0 1.31577 0 1.52978)
(1.53073 -2.12765e-05 0 1.29457 0 1.52953)
(1.5304 -0.000357152 0 1.27446 0 1.52887)
(1.52972 -0.000735235 0 1.25542 0 1.52789)
(1.52877 -0.00112764 0 1.23739 0 1.52665)
(1.5276 -0.00151587 0 1.22033 0 1.52521)
(1.52625 -0.00189051 0 1.20419 0 1.52362)
(1.52474 -0.00225866 0 1.18893 0 1.52194)
(1.52301 -0.00263456 0 1.17459 0 1.52019)
(1.52083 -0.00308057 0 1.16131 0 1.51838)
(1.50943 -0.00140603 0 1.49967 0 1.50958)
(1.513 -0.00203146 0 1.48284 0 1.51349)
(1.51658 -0.00153479 0 1.46339 0 1.5173)
(1.51998 -0.000732018 0 1.44207 0 1.52081)
(1.52294 5.46858e-05 0 1.41993 0 1.52377)
(1.52537 0.000688765 0 1.39767 0 1.52613)
(1.52723 0.00112972 0 1.37578 0 1.52786)
(1.52854 0.00139057 0 1.35453 0 1.52902)
(1.52936 0.00150392 0 1.33407 0 1.52967)
(1.52976 0.00150534 0 1.31448 0 1.52988)
(1.52978 0.00142821 0 1.29578 0 1.52972)
(1.52948 0.00130141 0 1.27796 0 1.52925)
(1.52893 0.00114802 0 1.26101 0 1.52853)
(1.52817 0.000982517 0 1.24489 0 1.52762)
(1.52721 0.000810785 0 1.22959 0 1.52655)
(1.52606 0.000625744 0 1.21509 0 1.52536)
(1.52465 0.000407847 0 1.20145 0 1.52408)
(1.52281 0.0001374 0 1.18882 0 1.52273)
(1.50937 -0.00113209 0 1.49984 0 1.50952)
(1.51268 -0.00171888 0 1.48409 0 1.51319)
(1.51585 -0.00129841 0 1.46656 0 1.51667)
(1.51885 -0.000516661 0 1.44758 0 1.51988)
(1.52151 0.000322223 0 1.42782 0 1.52269)
(1.52377 0.0010681 0 1.40784 0 1.52501)
(1.52559 0.00166615 0 1.38805 0 1.52684)
(1.52696 0.00211382 0 1.36869 0 1.52819)
(1.52792 0.0024311 0 1.34993 0 1.52911)
(1.52851 0.00264468 0 1.33184 0 1.52964)
(1.52878 0.00278136 0 1.31448 0 1.52984)
(1.52877 0.00286477 0 1.29785 0 1.52976)
(1.52853 0.00291348 0 1.28195 0 1.52944)
(1.52807 0.00293921 0 1.26678 0 1.52893)
(1.52743 0.00294632 0 1.25232 0 1.52827)
(1.52657 0.00293161 0 1.2386 0 1.52748)
(1.52545 0.00288629 0 1.22566 0 1.52659)
(1.52391 0.00277886 0 1.21366 0 1.52561)
(1.50928 -0.000902998 0 1.50006 0 1.50944)
(1.51236 -0.0014341 0 1.48524 0 1.51291)
(1.51518 -0.00109722 0 1.46936 0 1.51609)
(1.51782 -0.000381863 0 1.45244 0 1.51902)
(1.52019 0.000442452 0 1.43484 0 1.52164)
(1.52225 0.00122615 0 1.41697 0 1.52389)
(1.52398 0.00190598 0 1.39914 0 1.52575)
(1.52535 0.00246729 0 1.38157 0 1.52722)
(1.5264 0.00291895 0 1.36441 0 1.52833)
(1.52714 0.00327895 0 1.34775 0 1.52912)
(1.52761 0.00356718 0 1.33166 0 1.52962)
(1.52783 0.00380152 0 1.31616 0 1.52987)
(1.52784 0.00399585 0 1.30127 0 1.5299)
(1.52765 0.00415821 0 1.287 0 1.52974)
(1.52726 0.00429068 0 1.27336 0 1.52944)
(1.52667 0.00438885 0 1.26038 0 1.529)
(1.52581 0.00444159 0 1.24812 0 1.52846)
(1.52459 0.00445784 0 1.23667 0 1.52782)
(1.50917 -0.000629201 0 1.50036 0 1.50933)
(1.51202 -0.00102508 0 1.48645 0 1.51258)
(1.51452 -0.000745636 0 1.47204 0 1.51548)
(1.51682 -0.000117263 0 1.45692 0 1.51815)
(1.5189 0.000649963 0 1.44127 0 1.52055)
(1.52075 0.00142495 0 1.42533 0 1.52268)
(1.52235 0.00214377 0 1.40932 0 1.5245)
(1.52368 0.0027833 0 1.39344 0 1.52603)
(1.52475 0.00334231 0 1.37782 0 1.52727)
(1.52558 0.00382972 0 1.36256 0 1.52823)
(1.52619 0.00425782 0 1.34772 0 1.52895)
(1.52658 0.00463852 0 1.33335 0 1.52945)
(1.52679 0.00498123 0 1.31948 0 1.52975)
(1.52681 0.00529207 0 1.30612 0 1.52988)
(1.52665 0.00557299 0 1.29332 0 1.52987)
(1.52628 0.00582226 0 1.28109 0 1.52973)
(1.52567 0.00603384 0 1.26951 0 1.52948)
(1.52472 0.00617568 0 1.25865 0 1.52912)
(1.50903 -0.000424831 0 1.5007 0 1.50919)
(1.51166 -0.000692234 0 1.48758 0 1.51224)
(1.51392 -0.000469639 0 1.4743 0 1.51492)
(1.51595 4.1254e-05 0 1.46061 0 1.51737)
(1.51779 0.000690036 0 1.44654 0 1.51959)
(1.51944 0.00137345 0 1.43219 0 1.52158)
(1.5209 0.00203485 0 1.41773 0 1.52334)
(1.52216 0.00264868 0 1.4033 0 1.52487)
(1.52323 0.00320747 0 1.38901 0 1.52616)
(1.52409 0.00371314 0 1.37497 0 1.52724)
(1.52478 0.0041714 0 1.36123 0 1.5281)
(1.52529 0.00458839 0 1.34786 0 1.52878)
(1.52563 0.00496898 0 1.33489 0 1.52928)
(1.52581 0.00531574 0 1.32235 0 1.52963)
(1.52582 0.00562911 0 1.31029 0 1.52984)
(1.52565 0.00590874 0 1.29873 0 1.52993)
(1.52526 0.00615333 0 1.28772 0 1.52992)
(1.52461 0.00638697 0 1.27732 0 1.5298)
(1.50889 -0.000156061 0 1.50104 0 1.50905)
(1.51133 -0.000184981 0 1.48861 0 1.5119)
(1.51339 6.88566e-05 0 1.47621 0 1.51441)
(1.51522 0.000511436 0 1.46358 0 1.51668)
(1.51687 0.0010616 0 1.45068 0 1.51874)
(1.51836 0.00165761 0 1.43754 0 1.52062)
(1.5197 0.00226178 0 1.42427 0 1.52231)
(1.52088 0.00285425 0 1.41096 0 1.52381)
(1.52191 0.00342627 0 1.39772 0 1.52512)
(1.52279 0.00397536 0 1.38463 0 1.52624)
(1.52351 0.00450187 0 1.37177 0 1.52719)
(1.52408 0.00500695 0 1.3592 0 1.52797)
(1.52451 0.00549106 0 1.34695 0 1.5286)
(1.52478 0.0059536 0 1.33508 0 1.52908)
(1.52491 0.00639185 0 1.32361 0 1.52944)
(1.52488 0.00680022 0 1.31259 0 1.52968)
(1.52465 0.00717009 0 1.30206 0 1.52981)
(1.52423 0.00747104 0 1.29204 0 1.52984)
(1.50877 6.58583e-06 0 1.50131 0 1.50894)
(1.51109 0.000153627 0 1.48931 0 1.51166)
(1.51306 0.000400433 0 1.47738 0 1.51407)
(1.51479 0.000720058 0 1.46532 0 1.51624)
(1.51635 0.00108929 0 1.45304 0 1.51823)
(1.51777 0.00148809 0 1.44057 0 1.52004)
(1.51905 0.00190235 0 1.42795 0 1.52168)
(1.5202 0.00232279 0 1.41528 0 1.52316)
(1.52121 0.00274341 0 1.40265 0 1.52447)
(1.5221 0.00316032 0 1.39013 0 1.52561)
(1.52284 0.00357076 0 1.37779 0 1.52659)
(1.52346 0.00397262 0 1.3657 0 1.52743)
(1.52395 0.00436401 0 1.35389 0 1.52812)
(1.52431 0.00474354 0 1.3424 0 1.52867)
(1.52454 0.00511027 0 1.33128 0 1.52911)
(1.52463 0.00546603 0 1.32054 0 1.52943)
(1.52457 0.00581296 0 1.31023 0 1.52965)
(1.52433 0.0061738 0 1.30037 0 1.52976)
(1.50879 0.000354188 0 1.50124 0 1.50896)
(1.51114 0.000887215 0 1.48912 0 1.51171)
(1.51314 0.00128899 0 1.47707 0 1.51414)
(1.51491 0.00162329 0 1.46485 0 1.51634)
(1.51651 0.00194116 0 1.45241 0 1.51834)
(1.51794 0.00227561 0 1.43977 0 1.52017)
(1.51924 0.00264476 0 1.427 0 1.52181)
(1.52038 0.00305569 0 1.41418 0 1.52328)
(1.52139 0.00350826 0 1.40141 0 1.52457)
(1.52225 0.00399815 0 1.38877 0 1.52569)
(1.52297 0.00451878 0 1.37632 0 1.52664)
(1.52356 0.00506234 0 1.36412 0 1.52744)
(1.52402 0.00562026 0 1.35221 0 1.52809)
(1.52435 0.00618336 0 1.34062 0 1.52861)
(1.52458 0.00674145 0 1.32939 0 1.52901)
(1.52469 0.00728238 0 1.31852 0 1.5293)
(1.5247 0.00779165 0 1.30802 0 1.5295)
(1.52464 0.00824223 0 1.29792 0 1.52963)
(1.50904 0.000535881 0 1.50076 0 1.50918)
(1.51172 0.00121524 0 1.48776 0 1.51222)
(1.51403 0.00154664 0 1.47467 0 1.51489)
(1.5161 0.00168872 0 1.46122 0 1.51732)
(1.51799 0.0017591 0 1.44743 0 1.51953)
(1.5197 0.00183262 0 1.43339 0 1.52153)
(1.52123 0.00195021 0 1.41925 0 1.5233)
(1.52257 0.00212831 0 1.40512 0 1.52484)
(1.52373 0.0023684 0 1.39112 0 1.52617)
(1.5247 0.00266377 0 1.37734 0 1.52728)
(1.5255 0.00300366 0 1.36385 0 1.52819)
(1.52614 0.00337549 0 1.3507 0 1.52891)
(1.52661 0.00376648 0 1.33793 0 1.52946)
(1.52694 0.00416442 0 1.32557 0 1.52985)
(1.52713 0.00455975 0 1.31364 0 1.5301)
(1.52718 0.00494672 0 1.30216 0 1.53021)
(1.52708 0.00532851 0 1.29115 0 1.53019)
(1.52681 0.00573059 0 1.28063 0 1.53004)
(1.50921 0.000901315 0 1.5003 0 1.50935)
(1.51222 0.00186582 0 1.48614 0 1.51269)
(1.51492 0.00222117 0 1.47141 0 1.5157)
(1.5174 0.00229759 0 1.45598 0 1.51845)
(1.51966 0.00229843 0 1.44003 0 1.52093)
(1.52167 0.00233462 0 1.4238 0 1.52311)
(1.52341 0.00245896 0 1.40753 0 1.52497)
(1.52488 0.00268664 0 1.39139 0 1.52653)
(1.52608 0.00301259 0 1.37553 0 1.52779)
(1.52703 0.00342327 0 1.36002 0 1.52877)
(1.52775 0.00390284 0 1.34496 0 1.52949)
(1.52824 0.00443626 0 1.33037 0 1.52998)
(1.52854 0.00501091 0 1.3163 0 1.53026)
(1.52866 0.00561774 0 1.30276 0 1.53036)
(1.52862 0.00625086 0 1.28974 0 1.53029)
(1.52844 0.0069076 0 1.27726 0 1.53009)
(1.52816 0.00758242 0 1.26529 0 1.52977)
(1.52784 0.00824993 0 1.2538 0 1.5294)
(1.50941 0.00116666 0 1.49988 0 1.50953)
(1.51281 0.00224005 0 1.48437 0 1.51319)
(1.51602 0.00250465 0 1.4674 0 1.5166)
(1.51907 0.00247555 0 1.44916 0 1.51975)
(1.52181 0.00240528 0 1.43021 0 1.52252)
(1.52417 0.00241129 0 1.41105 0 1.52484)
(1.52613 0.00254508 0 1.39202 0 1.52671)
(1.52769 0.00281585 0 1.37337 0 1.52813)
(1.52887 0.00321084 0 1.35524 0 1.52915)
(1.52971 0.00370986 0 1.33772 0 1.52981)
(1.53024 0.00429146 0 1.32084 0 1.53016)
(1.53051 0.00493477 0 1.30464 0 1.53022)
(1.53056 0.00562008 0 1.2891 0 1.53006)
(1.53041 0.006328 0 1.27423 0 1.5297)
(1.5301 0.00703928 0 1.26001 0 1.52917)
(1.52964 0.00773304 0 1.24644 0 1.52851)
(1.52906 0.0083934 0 1.23349 0 1.52772)
(1.52826 0.00903357 0 1.2212 0 1.52678)
(1.50955 0.00173365 0 1.49949 0 1.50966)
(1.5135 0.00301514 0 1.48183 0 1.51379)
(1.51753 0.00328508 0 1.46113 0 1.51785)
(1.52137 0.0033641 0 1.43842 0 1.52154)
(1.5247 0.00352887 0 1.41488 0 1.5246)
(1.52741 0.00385813 0 1.39131 0 1.52697)
(1.52949 0.00437147 0 1.36818 0 1.52866)
(1.53099 0.00505059 0 1.34577 0 1.52973)
(1.53194 0.00586043 0 1.32423 0 1.53026)
(1.53243 0.00676695 0 1.30364 0 1.53033)
(1.53253 0.0077418 0 1.28401 0 1.53)
(1.53229 0.00876176 0 1.26534 0 1.52935)
(1.53176 0.00980856 0 1.24761 0 1.52842)
(1.53099 0.0108697 0 1.23079 0 1.52727)
(1.53 0.0119393 0 1.21486 0 1.52593)
(1.52884 0.0130236 0 1.19978 0 1.52444)
(1.52753 0.0141382 0 1.18551 0 1.52282)
(1.52624 0.0152898 0 1.17196 0 1.52119)
(1.50959 0.00210231 0 1.49945 0 1.50966)
(1.51416 0.00348667 0 1.47926 0 1.51427)
(1.51925 0.00390912 0 1.4534 0 1.51904)
(1.524 0.00433911 0 1.42472 0 1.52315)
(1.52784 0.00495592 0 1.39547 0 1.52619)
(1.53065 0.00576674 0 1.36679 0 1.52813)
(1.5325 0.00677668 0 1.3392 0 1.52908)
(1.5335 0.00796229 0 1.31295 0 1.5292)
(1.53379 0.00927981 0 1.28812 0 1.52863)
(1.53349 0.0106898 0 1.26469 0 1.52751)
(1.53273 0.0121618 0 1.24262 0 1.52596)
(1.5316 0.0136718 0 1.22183 0 1.52408)
(1.53018 0.0152006 0 1.20225 0 1.52194)
(1.52854 0.0167325 0 1.1838 0 1.51961)
(1.52677 0.0182523 0 1.16641 0 1.51715)
(1.52491 0.0197342 0 1.14999 0 1.51462)
(1.52304 0.0211352 0 1.13447 0 1.51207)
(1.52101 0.0224047 0 1.11985 0 1.50944)
(1.50975 0.00300235 0 1.49898 0 1.5098)
(1.51563 0.00469663 0 1.47376 0 1.51544)
(1.52246 0.00582957 0 1.43876 0 1.52126)
(1.52837 0.00742552 0 1.40032 0 1.52566)
(1.53259 0.00935373 0 1.36199 0 1.5282)
(1.53515 0.0114394 0 1.32517 0 1.52908)
(1.5363 0.0136395 0 1.29042 0 1.5286)
(1.53629 0.0159202 0 1.25791 0 1.52703)
(1.53537 0.0182293 0 1.22767 0 1.52464)
(1.53373 0.0205308 0 1.19957 0 1.52164)
(1.53157 0.0228051 0 1.17347 0 1.5182)
(1.52902 0.0250377 0 1.14923 0 1.51444)
(1.52618 0.0272171 0 1.12668 0 1.51047)
(1.52314 0.0293331 0 1.1057 0 1.50637)
(1.51994 0.0313754 0 1.08615 0 1.50218)
(1.51662 0.0333426 0 1.06794 0 1.49795)
(1.51309 0.0352499 0 1.051 0 1.49364)
(1.50964 0.0371858 0 1.03524 0 1.48944)
(1.50956 0.00335174 0 1.4994 0 1.50954)
(1.51697 0.00627453 0 1.46775 0 1.51609)
(1.52591 0.00945508 0 1.41956 0 1.52247)
(1.53256 0.0131875 0 1.36888 0 1.52581)
(1.53615 0.017016 0 1.3207 0 1.52609)
(1.53717 0.0207496 0 1.27615 0 1.52401)
(1.53625 0.0244391 0 1.23533 0 1.52024)
(1.53392 0.0281181 0 1.19801 0 1.5153)
(1.5306 0.0317371 0 1.16391 0 1.50959)
(1.52659 0.0352612 0 1.13272 0 1.5034)
(1.52214 0.0386767 0 1.10412 0 1.49693)
(1.51742 0.041976 0 1.07783 0 1.49034)
(1.51256 0.045155 0 1.05363 0 1.48373)
(1.50765 0.048216 0 1.03128 0 1.47718)
(1.50277 0.0511641 0 1.01061 0 1.47076)
(1.49799 0.0540086 0 0.991455 0 1.46449)
(1.49357 0.0567405 0 0.973607 0 1.45852)
(1.48937 0.059195 0 0.957057 0 1.45284)
(1.51072 0.00498071 0 1.49653 0 1.51053)
(1.52208 0.0113597 0 1.44804 0 1.51932)
(1.53422 0.0199551 0 1.37291 0 1.52522)
(1.54101 0.0286057 0 1.29826 0 1.52511)
(1.54249 0.0362934 0 1.23078 0 1.52029)
(1.54008 0.0429194 0 1.17104 0 1.51239)
(1.53513 0.0488217 0 1.11838 0 1.50261)
(1.52869 0.0542834 0 1.07192 0 1.49186)
(1.52137 0.0593436 0 1.03089 0 1.4807)
(1.51359 0.0640503 0 0.994462 0 1.46948)
(1.50564 0.0684538 0 0.961958 0 1.45841)
(1.49773 0.0725875 0 0.932811 0 1.44764)
(1.48995 0.0764722 0 0.906548 0 1.43724)
(1.48243 0.0801312 0 0.882786 0 1.42727)
(1.47514 0.0835688 0 0.861184 0 1.41771)
(1.46819 0.0867984 0 0.841504 0 1.40863)
(1.46113 0.0897676 0 0.823442 0 1.39974)
(1.45423 0.0925606 0 0.80719 0 1.39134)
(1.50986 0.00579483 0 1.49843 0 1.50915)
(1.52696 0.0254872 0 1.42426 0 1.51751)
(1.54207 0.0456386 0 1.31345 0 1.51587)
(1.54571 0.0606086 0 1.21732 0 1.50431)
(1.54108 0.0722212 0 1.13747 0 1.48742)
(1.53139 0.0816341 0 1.07053 0 1.46798)
(1.51928 0.0898608 0 1.01348 0 1.44779)
(1.5066 0.0974411 0 0.964442 0 1.42814)
(1.49387 0.104358 0 0.921993 0 1.40935)
(1.48145 0.110677 0 0.884912 0 1.39161)
(1.46954 0.116479 0 0.852264 0 1.37493)
(1.45831 0.121831 0 0.823318 0 1.35937)
(1.44771 0.126769 0 0.797468 0 1.3448)
(1.43785 0.13135 0 0.774283 0 1.33126)
(1.42863 0.135619 0 0.753303 0 1.31858)
(1.42006 0.139579 0 0.734396 0 1.30683)
(1.41231 0.143432 0 0.716952 0 1.29577)
(1.40599 0.146743 0 0.701763 0 1.28625)
(1.5189 0.0284591 0 1.47293 0 1.51483)
(1.5634 0.112019 0 1.26338 0 1.51871)
(1.58323 0.16105 0 1.0377 0 1.48715)
(1.57568 0.181991 0 0.887033 0 1.44364)
(1.55685 0.192605 0 0.784356 0 1.39974)
(1.53316 0.198901 0 0.711434 0 1.35826)
(1.51046 0.204139 0 0.657261 0 1.32169)
(1.49096 0.209225 0 0.615868 0 1.29073)
(1.4736 0.214023 0 0.582964 0 1.26372)
(1.45816 0.218488 0 0.556093 0 1.23992)
(1.4443 0.222591 0 0.533723 0 1.21869)
(1.43214 0.226393 0 0.514818 0 1.19983)
(1.42118 0.229888 0 0.498579 0 1.18276)
(1.41176 0.233128 0 0.484549 0 1.1676)
(1.4031 0.236132 0 0.472241 0 1.15364)
(1.39589 0.238899 0 0.461443 0 1.14132)
(1.38889 0.241533 0 0.451855 0 1.12968)
(1.38203 0.243746 0 0.443092 0 1.11886)
(1.59274 0.291964 0 1.3958 0 1.52093)
(1.91623 0.578693 0 0.968059 0 1.53309)
(2.06903 0.585623 0 0.732299 0 1.48899)
(2.10352 0.552945 0 0.628155 0 1.43529)
(2.09253 0.525575 0 0.573892 0 1.3857)
(2.06464 0.505429 0 0.540715 0 1.34254)
(2.03077 0.489926 0 0.517648 0 1.30523)
(1.99584 0.477382 0 0.500059 0 1.2729)
(1.96222 0.466853 0 0.485767 0 1.24457)
(1.93071 0.45775 0 0.473703 0 1.21953)
(1.90152 0.449723 0 0.463284 0 1.19717)
(1.87455 0.442549 0 0.454136 0 1.17708)
(1.84977 0.436092 0 0.44602 0 1.15893)
(1.82683 0.430231 0 0.438748 0 1.14242)
(1.80587 0.424881 0 0.432192 0 1.12742)
(1.78623 0.420008 0 0.426261 0 1.11359)
(1.76848 0.415438 0 0.420804 0 1.10106)
(1.75136 0.411202 0 0.415928 0 1.08924)
(0.0102082 0.00355167 0 0.0241417 0 0.0246678)
(0.0249885 0.00132407 0 0.0391166 0 0.0557759)
(0.0433452 -0.000199926 0 0.0511041 0 0.0798081)
(0.0556039 -0.00291133 0 0.0549509 0 0.0926593)
(0.0662955 -0.00460898 0 0.0574884 0 0.102432)
(0.0751945 -0.00604838 0 0.0580146 0 0.109189)
(0.083392 -0.00715036 0 0.0583293 0 0.114752)
(0.0906079 -0.00818294 0 0.0578928 0 0.118951)
(0.0973742 -0.00906067 0 0.0573155 0 0.122495)
(0.103554 -0.00985844 0 0.0563514 0 0.125282)
(0.109387 -0.0105169 0 0.0552742 0 0.127628)
(0.114777 -0.0110526 0 0.0540044 0 0.129479)
(0.119802 -0.0114469 0 0.0526887 0 0.130975)
(0.124373 -0.0117236 0 0.0513096 0 0.132075)
(0.1285 -0.011899 0 0.0499422 0 0.13283)
(0.132106 -0.0120079 0 0.048576 0 0.133203)
(0.135215 -0.0120834 0 0.0472485 0 0.133225)
(0.137768 -0.0121756 0 0.04597 0 0.132901)
(0.140236 -0.0123489 0 0.044456 0 0.131967)
(0.141466 -0.0125594 0 0.0435002 0 0.131199)
(0.142584 -0.0129306 0 0.0422677 0 0.129881)
(0.143476 -0.0134923 0 0.0408288 0 0.127956)
(0.144018 -0.0141227 0 0.0393148 0 0.125593)
(0.14399 -0.0146563 0 0.0376345 0 0.122634)
(0.142904 -0.0147525 0 0.0357067 0 0.118835)
(0.138925 -0.0137124 0 0.0333474 0 0.113325)
(0.13174 -0.012128 0 0.030599 0 0.105761)
(0.120423 -0.0102313 0 0.0274268 0 0.0955111)
(0.102861 -0.00809272 0 0.0236168 0 0.0811264)
(0.0811576 -0.00587264 0 0.019156 0 0.0640465)
(0.0622162 -0.00351764 0 0.0146541 0 0.0489997)
(0.0509754 -0.000721809 0 0.0115302 0 0.0397719)
(0.0525011 0.00184266 0 0.0115193 0 0.0403852)
(0.0646591 0.00386281 0 0.0141889 0 0.0492128)
(0.0807881 0.00547528 0 0.017777 0 0.0611894)
(0.0980082 0.00708112 0 0.0214206 0 0.0739503)
(0.115907 0.00873211 0 0.0249441 0 0.0871237)
(0.132713 0.0102839 0 0.0281761 0 0.0994786)
(0.146569 0.0117048 0 0.0310199 0 0.109731)
(0.15862 0.0131156 0 0.0335947 0 0.118623)
(0.169117 0.0144005 0 0.0359409 0 0.126407)
(0.178528 0.0155828 0 0.0381069 0 0.133388)
(0.187136 0.0166843 0 0.0401191 0 0.139755)
(0.195143 0.0177224 0 0.0420017 0 0.145647)
(0.202686 0.0187128 0 0.0437735 0 0.151163)
(0.20986 0.0196658 0 0.0454504 0 0.156375)
(0.216726 0.0205893 0 0.0470453 0 0.161332)
(0.223329 0.0214885 0 0.0485695 0 0.166073)
(0.229699 0.0223671 0 0.050032 0 0.170625)
(0.235862 0.0232274 0 0.0514405 0 0.175011)
(0.241834 0.0240709 0 0.0528015 0 0.179247)
(0.247631 0.0248986 0 0.0541205 0 0.183348)
(0.253263 0.0257114 0 0.0554019 0 0.187324)
(0.258742 0.0265093 0 0.0566499 0 0.191186)
(0.264071 0.0272925 0 0.0578663 0 0.194937)
(0.26926 0.0280611 0 0.0590543 0 0.198586)
(0.274314 0.0288158 0 0.0602161 0 0.202137)
(0.279241 0.0295566 0 0.0613537 0 0.205596)
(0.284044 0.0302837 0 0.0624687 0 0.208966)
(0.288727 0.030997 0 0.0635627 0 0.212252)
(0.293294 0.0316968 0 0.0646362 0 0.215457)
(0.297747 0.0323829 0 0.0656904 0 0.218582)
(0.302088 0.0330551 0 0.0667256 0 0.221628)
(0.306317 0.0337128 0 0.0677424 0 0.224599)
(0.310436 0.0343559 0 0.0687406 0 0.227493)
(0.314445 0.0349835 0 0.0697205 0 0.230312)
(0.318343 0.0355951 0 0.0706818 0 0.233056)
(0.32213 0.0361894 0 0.0716238 0 0.235725)
(0.325807 0.0367659 0 0.0725464 0 0.238319)
(0.32937 0.0373226 0 0.073448 0 0.240835)
(0.332814 0.0378583 0 0.074327 0 0.243272)
(0.336137 0.0383715 0 0.075182 0 0.245629)
(0.339335 0.0388617 0 0.0760115 0 0.247902)
(0.342407 0.039329 0 0.0768155 0 0.250094)
(0.345362 0.0397754 0 0.0775956 0 0.25221)
(0.348215 0.0402036 0 0.0783557 0 0.254261)
(0.350982 0.0406157 0 0.0790986 0 0.256257)
(0.353669 0.0410126 0 0.0798254 0 0.258202)
(0.356285 0.0413951 0 0.0805365 0 0.260101)
(0.358838 0.0417644 0 0.0812332 0 0.26196)
(0.361343 0.0421221 0 0.081918 0 0.263789)
(0.363811 0.0424702 0 0.0825927 0 0.265594)
(0.366259 0.0428116 0 0.0832613 0 0.267389)
(0.368702 0.0431491 0 0.0839269 0 0.269182)
(0.371163 0.0434856 0 0.0845951 0 0.270991)
(0.373661 0.0438243 0 0.0852702 0 0.272827)
(0.376224 0.0441681 0 0.0859593 0 0.274709)
(0.378871 0.0445207 0 0.0866666 0 0.276652)
(0.381631 0.0448862 0 0.0874002 0 0.278675)
(0.384523 0.0452727 0 0.0881644 0 0.280792)
(0.387573 0.0456849 0 0.0889671 0 0.283019)
(0.390807 0.0461241 0 0.0898157 0 0.285376)
(0.394254 0.0465942 0 0.0907173 0 0.287882)
(0.397939 0.0470999 0 0.0916784 0 0.290554)
(0.401884 0.0476465 0 0.0927051 0 0.293408)
(0.406112 0.0482385 0 0.0938037 0 0.296457)
(0.410643 0.048881 0 0.0949801 0 0.299718)
(0.415499 0.0495792 0 0.0962411 0 0.303205)
(0.420699 0.0503389 0 0.0975938 0 0.306934)
(0.426269 0.0511665 0 0.0990462 0 0.310924)
(0.432232 0.052069 0 0.100608 0 0.315195)
(0.438618 0.0530541 0 0.102289 0 0.319771)
(0.445458 0.0541299 0 0.104103 0 0.324679)
(0.452789 0.0553049 0 0.106065 0 0.329951)
(0.460651 0.0565882 0 0.10819 0 0.335623)
(0.469084 0.0579893 0 0.110496 0 0.341732)
(0.478134 0.0595172 0 0.113005 0 0.348322)
(0.487842 0.0611804 0 0.115736 0 0.355435)
(0.498253 0.0629863 0 0.118715 0 0.363118)
(0.509404 0.0649406 0 0.121965 0 0.371414)
(0.521327 0.0670475 0 0.125512 0 0.380366)
(0.53404 0.0693088 0 0.129385 0 0.390011)
(0.547551 0.0717236 0 0.133612 0 0.400382)
(0.561842 0.0742872 0 0.138225 0 0.411499)
(0.576874 0.0769911 0 0.143257 0 0.42337)
(0.59257 0.0798233 0 0.148747 0 0.435988)
(0.608813 0.0827656 0 0.154738 0 0.449318)
(0.625444 0.0857887 0 0.161282 0 0.463307)
(0.642244 0.0888479 0 0.16844 0 0.477861)
(0.658918 0.0918897 0 0.176281 0 0.492843)
(0.67505 0.0948622 0 0.184878 0 0.508026)
(0.6901 0.0977171 0 0.194324 0 0.523106)
(0.703507 0.100414 0 0.204763 0 0.537759)
(0.71499 0.102939 0 0.216404 0 0.551849)
(0.724599 0.105398 0 0.229552 0 0.565486)
(0.732743 0.107721 0 0.244647 0 0.579104)
(0.739313 0.109626 0 0.261973 0 0.592697)
(0.743804 0.110905 0 0.281923 0 0.60605)
(0.745104 0.111208 0 0.30499 0 0.618558)
(0.740963 0.109275 0 0.331428 0 0.628493)
(0.731447 0.104086 0 0.354898 0 0.633341)
(0.715464 0.0942304 0 0.376507 0 0.635017)
(0.68487 0.0688861 0 0.403408 0 0.631792)
(0.661418 0.0424445 0 0.422814 0 0.627497)
(0.639561 0.0124746 0 0.438107 0 0.621726)
(0.622299 -0.0209285 0 0.447849 0 0.614651)
(0.611159 -0.0545487 0 0.448765 0 0.606405)
(0.606198 -0.0873572 0 0.440222 0 0.596955)
(0.608559 -0.118402 0 0.421178 0 0.587239)
(0.619222 -0.142587 0 0.389275 0 0.577468)
(0.626015 -0.153025 0 0.341683 0 0.558588)
(0.611281 -0.137472 0 0.267599 0 0.518294)
(0.548902 -0.0997033 0 0.190218 0 0.446998)
(0.432235 -0.0586207 0 0.124519 0 0.345575)
(0.322408 -0.0255523 0 0.0771594 0 0.249943)
(0.289326 -0.00286434 0 0.0614455 0 0.217282)
(0.304786 0.016781 0 0.0650705 0 0.226003)
(0.352903 0.0294606 0 0.0780603 0 0.262534)
(0.409266 0.039815 0 0.0929154 0 0.307239)
(0.463484 0.0478076 0 0.108758 0 0.354212)
(0.501759 0.0483914 0 0.125196 0 0.3967)
(0.532331 0.0412814 0 0.146656 0 0.437259)
(0.553569 0.0285366 0 0.174015 0 0.471738)
(0.565877 0.00943651 0 0.205744 0 0.498729)
(0.578399 -0.0163952 0 0.239717 0 0.523023)
(0.593749 -0.0466886 0 0.272371 0 0.544761)
(0.611864 -0.0782785 0 0.300307 0 0.563282)
(0.631371 -0.108012 0 0.321061 0 0.577843)
(0.65206 -0.13605 0 0.335748 0 0.589528)
(0.67624 -0.163219 0 0.345031 0 0.600561)
(0.699455 -0.178154 0 0.331677 0 0.604922)
(0.707463 -0.178756 0 0.315183 0 0.601876)
(0.7061 -0.176534 0 0.30011 0 0.593046)