/*--------------------------------*- C++ -*----------------------------------*\
| =========                 |                                                 |
| \\      /  F ield         | OpenFOAM: The Open Source CFD Toolbox           |
|  \\    /   O peration     | Version:  v1906                                 |
|   \\  /    A nd           | Web:      www.OpenFOAM.com                      |
|    \\/     M anipulation  |                                                 |
\*---------------------------------------------------------------------------*/
FoamFile
{
    version     2.0;
    format      ascii;
    class       volVectorField;
    location    "900";
    object      U;
}
// * * * * * * * * * * * * * * * * * * * * * * * * * * * * * * * * * * * * * //

dimensions      [0 1 -1 0 0 0 0];


internalField   nonuniform List<vector> 
12225
(
(9.79727 -0.108753 0)
(9.50674 -0.356763 0)
(9.26449 -0.488283 0)
(9.06618 -0.540841 0)
(8.90335 -0.559481 0)
(8.7624 -0.565168 0)
(8.63643 -0.565619 0)
(8.52337 -0.563612 0)
(8.42185 -0.560228 0)
(8.33044 -0.556041 0)
(8.24815 -0.551151 0)
(8.17285 -0.545565 0)
(8.10423 -0.539758 0)
(8.04204 -0.533988 0)
(7.98686 -0.528455 0)
(7.93978 -0.524505 0)
(7.90185 -0.516937 0)
(7.8796 -0.53702 0)
(10.0492 0.150438 0)
(10.0911 0.259736 0)
(10.0684 0.319229 0)
(10.0256 0.363303 0)
(9.98282 0.392911 0)
(9.94009 0.41155 0)
(9.89733 0.423494 0)
(9.85588 0.431291 0)
(9.81634 0.436135 0)
(9.77848 0.438883 0)
(9.74252 0.440133 0)
(9.70851 0.440332 0)
(9.67657 0.439541 0)
(9.64643 0.438022 0)
(9.61824 0.435297 0)
(9.59101 0.432617 0)
(9.56736 0.42513 0)
(9.5424 0.42134 0)
(10.0166 0.00775388 0)
(10.0499 -0.0105968 0)
(10.0415 -0.0528977 0)
(10.0183 -0.0930935 0)
(9.99685 -0.127521 0)
(9.97724 -0.155913 0)
(9.95848 -0.178255 0)
(9.94084 -0.195666 0)
(9.92433 -0.209484 0)
(9.90877 -0.220713 0)
(9.89398 -0.229869 0)
(9.88018 -0.237418 0)
(9.86724 -0.24375 0)
(9.85556 -0.249511 0)
(9.84457 -0.254803 0)
(9.835 -0.260995 0)
(9.8263 -0.267155 0)
(9.81077 -0.282172 0)
(10.0096 0.0582856 0)
(10.039 0.0976125 0)
(10.0508 0.114983 0)
(10.0512 0.134039 0)
(10.0494 0.152901 0)
(10.0455 0.169316 0)
(10.0398 0.18329 0)
(10.0331 0.195057 0)
(10.0262 0.204801 0)
(10.0192 0.212822 0)
(10.0122 0.219476 0)
(10.0057 0.225009 0)
(9.99949 0.229509 0)
(9.99398 0.232975 0)
(9.989 0.23543 0)
(9.98473 0.236539 0)
(9.98099 0.236329 0)
(9.97899 0.233358 0)
(10.0094 0.0199168 0)
(10.0407 0.029094 0)
(10.0563 0.0219404 0)
(10.0606 0.0108699 0)
(10.062 -0.0023531 0)
(10.0617 -0.0168006 0)
(10.0601 -0.0308076 0)
(10.0581 -0.043611 0)
(10.056 -0.0551899 0)
(10.0539 -0.0656592 0)
(10.0518 -0.0751235 0)
(10.0498 -0.0837407 0)
(10.0481 -0.0917396 0)
(10.0466 -0.0994316 0)
(10.0455 -0.107041 0)
(10.0441 -0.11521 0)
(10.0433 -0.123569 0)
(10.0367 -0.134832 0)
(10.0058 0.0332734 0)
(10.0287 0.0619665 0)
(10.0451 0.0730396 0)
(10.0549 0.0810867 0)
(10.0627 0.0886048 0)
(10.0686 0.0956172 0)
(10.0729 0.102452 0)
(10.0761 0.109058 0)
(10.0786 0.115205 0)
(10.0807 0.120783 0)
(10.0825 0.125791 0)
(10.0841 0.13023 0)
(10.0857 0.134059 0)
(10.0874 0.137171 0)
(10.0891 0.139535 0)
(10.0908 0.140888 0)
(10.0923 0.14136 0)
(10.0955 0.140963 0)
(10.0046 0.0159852 0)
(10.0242 0.0297106 0)
(10.0401 0.0319587 0)
(10.0499 0.0300888 0)
(10.0572 0.025753 0)
(10.0626 0.0195506 0)
(10.0666 0.0124977 0)
(10.0698 0.00521566 0)
(10.0726 -0.00205692 0)
(10.0751 -0.00919861 0)
(10.0775 -0.0161402 0)
(10.0798 -0.0228938 0)
(10.082 -0.029537 0)
(10.0842 -0.0362262 0)
(10.0864 -0.0430367 0)
(10.0881 -0.050293 0)
(10.0894 -0.057599 0)
(10.0872 -0.0664272 0)
(10.0032 0.0203083 0)
(10.0185 0.0432939 0)
(10.0328 0.0541924 0)
(10.0436 0.0606246 0)
(10.0531 0.0651434 0)
(10.0611 0.0686538 0)
(10.068 0.0718723 0)
(10.074 0.0750429 0)
(10.0795 0.0781328 0)
(10.0845 0.0810789 0)
(10.0891 0.0838344 0)
(10.0936 0.0863394 0)
(10.0978 0.0885251 0)
(10.1019 0.0902902 0)
(10.1059 0.0915913 0)
(10.1097 0.09232 0)
(10.1131 0.0925014 0)
(10.1179 0.0927611 0)
(10.0019 0.011514 0)
(10.0136 0.0247117 0)
(10.0264 0.0299758 0)
(10.0366 0.031441 0)
(10.0453 0.0305288 0)
(10.0525 0.0279149 0)
(10.0586 0.0243059 0)
(10.0638 0.0201264 0)
(10.0686 0.0155854 0)
(10.073 0.0108108 0)
(10.0771 0.00588357 0)
(10.0809 0.000827195 0)
(10.0846 -0.00437014 0)
(10.0881 -0.00977061 0)
(10.0914 -0.0153782 0)
(10.094 -0.0213161 0)
(10.0962 -0.0273124 0)
(10.096 -0.0342843 0)
(10.0017 0.012703 0)
(10.0117 0.0306337 0)
(10.0231 0.0408574 0)
(10.033 0.0470459 0)
(10.0423 0.0509341 0)
(10.0506 0.0534891 0)
(10.0581 0.0554286 0)
(10.065 0.0571041 0)
(10.0714 0.0586386 0)
(10.0774 0.0600678 0)
(10.083 0.0613902 0)
(10.0884 0.0625743 0)
(10.0935 0.0635796 0)
(10.0984 0.0643489 0)
(10.103 0.0648653 0)
(10.1075 0.0651132 0)
(10.1117 0.065106 0)
(10.1167 0.0655565 0)
(10.0007 0.0080012 0)
(10.0076 0.019084 0)
(10.0172 0.024841 0)
(10.0262 0.0274928 0)
(10.0346 0.028004 0)
(10.0422 0.0270079 0)
(10.049 0.0250409 0)
(10.0551 0.0224271 0)
(10.0607 0.0193491 0)
(10.0658 0.0159201 0)
(10.0707 0.0122104 0)
(10.0752 0.0082522 0)
(10.0794 0.00405916 0)
(10.0834 -0.000380983 0)
(10.087 -0.00504893 0)
(10.09 -0.00999142 0)
(10.0926 -0.0150336 0)
(10.0937 -0.0208165 0)
(10.0008 0.00814916 0)
(10.0074 0.0213927 0)
(10.0163 0.029902 0)
(10.0249 0.0353951 0)
(10.0333 0.0388064 0)
(10.0412 0.0408882 0)
(10.0486 0.0422028 0)
(10.0555 0.0430815 0)
(10.0619 0.0437 0)
(10.068 0.0441485 0)
(10.0738 0.0444687 0)
(10.0793 0.0446693 0)
(10.0845 0.0447495 0)
(10.0894 0.0446945 0)
(10.094 0.0445214 0)
(10.0984 0.0442542 0)
(10.1025 0.0439237 0)
(10.107 0.0441691 0)
(10.0002 0.00569598 0)
(10.0046 0.0145018 0)
(10.0119 0.0196712 0)
(10.0195 0.0225046 0)
(10.0273 0.0235222 0)
(10.0345 0.0232561 0)
(10.0413 0.0221004 0)
(10.0477 0.0203122 0)
(10.0535 0.0180515 0)
(10.059 0.015418 0)
(10.0641 0.0124744 0)
(10.0689 0.00925656 0)
(10.0734 0.00578628 0)
(10.0775 0.00207682 0)
(10.0813 -0.00185763 0)
(10.0846 -0.00601885 0)
(10.0875 -0.0103428 0)
(10.0896 -0.0153446 0)
(10.0005 0.00534369 0)
(10.005 0.0150413 0)
(10.0118 0.0220028 0)
(10.0191 0.0269745 0)
(10.0266 0.0303355 0)
(10.0339 0.0325984 0)
(10.041 0.0341546 0)
(10.0477 0.0352711 0)
(10.0541 0.0361185 0)
(10.0602 0.0367998 0)
(10.066 0.037376 0)
(10.0714 0.0378792 0)
(10.0766 0.0383322 0)
(10.0815 0.0387474 0)
(10.086 0.0391579 0)
(10.0904 0.0396122 0)
(10.0944 0.0401078 0)
(10.0983 0.0412584 0)
(10.0001 0.00336063 0)
(10.0028 0.00885178 0)
(10.008 0.0121754 0)
(10.0142 0.013947 0)
(10.0208 0.0143905 0)
(10.0275 0.0138284 0)
(10.0339 0.0125049 0)
(10.0401 0.0105904 0)
(10.046 0.00820217 0)
(10.0516 0.00541783 0)
(10.0568 0.00228824 0)
(10.0617 -0.00115121 0)
(10.0662 -0.0048793 0)
(10.0705 -0.00887395 0)
(10.0744 -0.0131305 0)
(10.0779 -0.0176438 0)
(10.0812 -0.022348 0)
(10.0843 -0.0276948 0)
(10.0002 0.00297932 0)
(10.0031 0.00879385 0)
(10.008 0.0135081 0)
(10.0138 0.0172973 0)
(10.02 0.0202463 0)
(10.0264 0.022574 0)
(10.0326 0.0244813 0)
(10.0387 0.0261248 0)
(10.0446 0.0276218 0)
(10.0501 0.029054 0)
(10.0554 0.030478 0)
(10.0603 0.031931 0)
(10.0649 0.0334429 0)
(10.0692 0.035033 0)
(10.0731 0.0367255 0)
(10.0766 0.0385568 0)
(10.0799 0.0404468 0)
(10.0826 0.0429306 0)
(10.0001 0.000957499 0)
(10.0022 0.00234073 0)
(10.0064 0.00272936 0)
(10.0115 0.00231456 0)
(10.0174 0.00116265 0)
(10.0236 -0.000617414 0)
(10.0299 -0.00293093 0)
(10.0361 -0.00571048 0)
(10.0422 -0.00890609 0)
(10.048 -0.0124809 0)
(10.0537 -0.016408 0)
(10.0591 -0.0206637 0)
(10.0642 -0.0252271 0)
(10.0691 -0.0300699 0)
(10.0737 -0.035169 0)
(10.0781 -0.0404997 0)
(10.0822 -0.0459347 0)
(10.0864 -0.0518527 0)
(10 0.000915767 0)
(10.0016 0.00291667 0)
(10.0049 0.00499222 0)
(10.0092 0.007137 0)
(10.0139 0.00932842 0)
(10.0188 0.0115895 0)
(10.0237 0.0139524 0)
(10.0284 0.0164464 0)
(10.0328 0.0190977 0)
(10.0369 0.0219261 0)
(10.0406 0.0249443 0)
(10.044 0.0281597 0)
(10.0469 0.0315699 0)
(10.0495 0.0351695 0)
(10.0517 0.0389329 0)
(10.0535 0.0428689 0)
(10.0551 0.0468079 0)
(10.0561 0.0511951 0)
(10.0003 -0.00196462 0)
(10.0031 -0.00603614 0)
(10.0079 -0.0100747 0)
(10.0139 -0.0140606 0)
(10.0205 -0.0180561 0)
(10.0276 -0.022137 0)
(10.035 -0.026379 0)
(10.0425 -0.0308446 0)
(10.05 -0.0355771 0)
(10.0574 -0.0406023 0)
(10.0647 -0.0459321 0)
(10.0719 -0.0515669 0)
(10.0789 -0.057499 0)
(10.0858 -0.0637122 0)
(10.0923 -0.0701823 0)
(10.0987 -0.0768856 0)
(10.1045 -0.0837251 0)
(10.1103 -0.0908694 0)
(9.99985 -0.00215227 0)
(10.0009 -0.00550508 0)
(10.0038 -0.00747087 0)
(10.0075 -0.00833948 0)
(10.0115 -0.00830919 0)
(10.0155 -0.0075349 0)
(10.0192 -0.00615675 0)
(10.0225 -0.00428548 0)
(10.0253 -0.00200385 0)
(10.0277 0.000626877 0)
(10.0296 0.00356439 0)
(10.031 0.00678296 0)
(10.0319 0.0102771 0)
(10.0324 0.0140532 0)
(10.0326 0.0181461 0)
(10.0323 0.0225903 0)
(10.0321 0.027413 0)
(10.0315 0.0328753 0)
(10.0006 -0.0047459 0)
(10.0049 -0.0137912 0)
(10.0115 -0.0211185 0)
(10.0187 -0.0270417 0)
(10.0262 -0.0319723 0)
(10.034 -0.0362673 0)
(10.0417 -0.040231 0)
(10.0493 -0.0440726 0)
(10.0567 -0.047913 0)
(10.0639 -0.0518142 0)
(10.071 -0.0558044 0)
(10.0779 -0.0598953 0)
(10.0847 -0.0640976 0)
(10.0914 -0.0684299 0)
(10.098 -0.0729414 0)
(10.1047 -0.0777058 0)
(10.1112 -0.0828307 0)
(10.1182 -0.0886725 0)
(9.99993 -0.00478002 0)
(10.0025 -0.0120587 0)
(10.0076 -0.0161846 0)
(10.013 -0.0180762 0)
(10.0181 -0.0182784 0)
(10.0226 -0.0171449 0)
(10.0264 -0.0150179 0)
(10.0295 -0.0121821 0)
(10.032 -0.00884822 0)
(10.034 -0.00517587 0)
(10.0355 -0.00128884 0)
(10.0365 0.00272223 0)
(10.037 0.00680027 0)
(10.0371 0.0109216 0)
(10.0366 0.0151169 0)
(10.0353 0.0194747 0)
(10.0336 0.0241753 0)
(10.0303 0.0297693 0)
(10.0012 -0.00960313 0)
(10.0087 -0.0255276 0)
(10.0184 -0.0363525 0)
(10.0276 -0.0441626 0)
(10.0366 -0.0503654 0)
(10.0452 -0.0557148 0)
(10.0533 -0.0607206 0)
(10.0609 -0.0656532 0)
(10.0681 -0.0705875 0)
(10.0748 -0.0755119 0)
(10.0812 -0.0803886 0)
(10.0872 -0.085174 0)
(10.0931 -0.0898263 0)
(10.0988 -0.0943172 0)
(10.1047 -0.098652 0)
(10.111 -0.102899 0)
(10.1177 -0.107254 0)
(10.1267 -0.112392 0)
(10.0009 -0.00812415 0)
(10.0083 -0.0183161 0)
(10.0178 -0.022129 0)
(10.0252 -0.022224 0)
(10.0308 -0.0197989 0)
(10.0351 -0.0154245 0)
(10.0382 -0.00978973 0)
(10.0405 -0.00348121 0)
(10.0422 0.00312842 0)
(10.0434 0.00979168 0)
(10.0444 0.0163292 0)
(10.045 0.0226167 0)
(10.0453 0.0285694 0)
(10.0452 0.0341271 0)
(10.0446 0.0392551 0)
(10.043 0.0439674 0)
(10.0405 0.0484227 0)
(10.034 0.0534197 0)
(10.0027 -0.019984 0)
(10.0162 -0.0449512 0)
(10.03 -0.0585631 0)
(10.041 -0.0684632 0)
(10.0506 -0.077469 0)
(10.0591 -0.086114 0)
(10.0664 -0.0946598 0)
(10.0726 -0.103137 0)
(10.078 -0.111369 0)
(10.0827 -0.119192 0)
(10.0868 -0.12652 0)
(10.0905 -0.133315 0)
(10.0939 -0.139549 0)
(10.097 -0.145201 0)
(10.1001 -0.150232 0)
(10.1038 -0.154602 0)
(10.1082 -0.158308 0)
(10.1175 -0.161909 0)
(10.0045 -0.0117524 0)
(10.0233 -0.0210465 0)
(10.037 -0.0181993 0)
(10.0429 -0.00999079 0)
(10.0455 0.00132532 0)
(10.0465 0.0146065 0)
(10.0463 0.0283283 0)
(10.0456 0.0414907 0)
(10.0447 0.0537141 0)
(10.0437 0.0648896 0)
(10.0425 0.074996 0)
(10.0413 0.0840604 0)
(10.0399 0.0921349 0)
(10.0384 0.0992681 0)
(10.0367 0.105472 0)
(10.0343 0.11071 0)
(10.0312 0.114909 0)
(10.0219 0.118551 0)
(10.0057 -0.0439133 0)
(10.0279 -0.0818474 0)
(10.0434 -0.101335 0)
(10.0509 -0.120738 0)
(10.0555 -0.140625 0)
(10.0582 -0.158992 0)
(10.0587 -0.17541 0)
(10.0578 -0.189898 0)
(10.056 -0.202428 0)
(10.0538 -0.213119 0)
(10.0513 -0.2222 0)
(10.0485 -0.229899 0)
(10.0455 -0.236398 0)
(10.0426 -0.241853 0)
(10.0395 -0.246351 0)
(10.037 -0.249923 0)
(10.0348 -0.252387 0)
(10.0396 -0.253484 0)
(10.0127 -0.00410657 0)
(10.0433 0.00725098 0)
(10.0436 0.0412751 0)
(10.0289 0.0774085 0)
(10.0137 0.110612 0)
(10.0001 0.139368 0)
(9.98733 0.162989 0)
(9.97527 0.181913 0)
(9.96408 0.197085 0)
(9.95355 0.209339 0)
(9.94349 0.219258 0)
(9.9338 0.227271 0)
(9.92447 0.233709 0)
(9.91542 0.238824 0)
(9.90674 0.24278 0)
(9.89797 0.245676 0)
(9.88971 0.247399 0)
(9.87446 0.248176 0)
(10.0321 -0.12663 0)
(10.0676 -0.225611 0)
(10.0594 -0.280285 0)
(10.0339 -0.322932 0)
(10.008 -0.353549 0)
(9.98302 -0.374076 0)
(9.95822 -0.388042 0)
(9.93428 -0.397691 0)
(9.91163 -0.40422 0)
(9.89015 -0.40839 0)
(9.86961 -0.410763 0)
(9.84993 -0.411754 0)
(9.83104 -0.411655 0)
(9.81292 -0.410695 0)
(9.79548 -0.409031 0)
(9.77906 -0.40691 0)
(9.76329 -0.404274 0)
(9.75679 -0.400661 0)
(9.86116 0.0769172 0)
(9.66239 0.274084 0)
(9.48798 0.393135 0)
(9.33997 0.447711 0)
(9.217 0.47032 0)
(9.1089 0.479002 0)
(9.00969 0.481249 0)
(8.91792 0.48024 0)
(8.83306 0.477485 0)
(8.75443 0.473706 0)
(8.6814 0.46924 0)
(8.61354 0.464268 0)
(8.55044 0.458893 0)
(8.4917 0.453199 0)
(8.43689 0.447174 0)
(8.38544 0.440988 0)
(8.33701 0.43372 0)
(8.28559 0.426114 0)
(-0.076741 -0.0903763 -3.87213e-19)
(0.0335458 -0.156731 2.12503e-19)
(0.0818092 -0.197898 0)
(0.13679 -0.196184 0)
(0.189939 -0.190731 0)
(0.24007 -0.181763 -9.07951e-20)
(0.285071 -0.17466 0)
(0.326528 -0.167286 0)
(0.363805 -0.161272 0)
(0.397677 -0.15547 0)
(0.427891 -0.150448 6.66796e-20)
(0.454882 -0.145688 0)
(0.478614 -0.141409 0)
(0.499412 -0.137327 0)
(0.517401 -0.133474 0)
(0.532816 -0.129643 5.85434e-20)
(0.54593 -0.125742 0)
(0.556682 -0.121578 0)
(0.56553 -0.116839 0)
(0.5725 -0.111447 0)
(0.576836 -0.105001 0)
(0.577623 -0.096378 0)
(0.573422 -0.0848466 0)
(0.563422 -0.0708801 5.65978e-20)
(0.546777 -0.0556719 -5.73643e-20)
(0.522144 -0.0397443 5.85993e-20)
(0.487267 -0.0225721 6.04434e-20)
(0.440619 -0.0035897 0)
(0.38048 0.0187702 0)
(0.301546 0.0454333 -7.42871e-20)
(0.200235 0.0739043 -8.57433e-20)
(0.0780055 0.0937353 0)
(-0.0581979 0.0853292 0)
(-0.163345 0.0586582 -9.03091e-20)
(-0.251944 0.03502 0)
(-0.329884 0.0174314 0)
(-0.397533 0.00382015 6.39078e-20)
(-0.456628 -0.0062445 0)
(-0.510036 -0.0138975 5.64115e-20)
(-0.558875 -0.0200412 1.07417e-19)
(-0.603941 -0.0252702 0)
(-0.646027 -0.0299673 0)
(-0.685542 -0.0342844 0)
(-0.722882 -0.0383212 0)
(-0.758314 -0.0421252 0)
(-0.792058 -0.0457315 8.69541e-20)
(-0.824283 -0.0491563 8.46209e-20)
(-0.855135 -0.0524231 8.24721e-20)
(-0.884731 -0.0555431 0)
(-0.913178 -0.0585379 -7.86412e-20)
(-0.940561 -0.0614181 0)
(-0.966964 -0.0642051 7.53113e-20)
(-0.992453 -0.0669077 7.38002e-20)
(-1.01709 -0.0695448 0)
(-1.04092 -0.0721242 0)
(-1.06401 -0.0746638 0)
(-1.08637 -0.077169 6.85445e-20)
(-1.10806 -0.0796541 0)
(-1.12909 -0.0821223 0)
(-1.14948 -0.0845852 0)
(-1.16925 -0.0870426 0)
(-1.18841 -0.089502 0)
(-1.20695 -0.0919609 0)
(-1.22487 -0.0944237 0)
(-1.24218 -0.0968852 0)
(-1.25887 -0.0993462 -5.9722e-20)
(-1.27494 -0.101798 0)
(-1.29037 -0.10424 0)
(-1.30517 -0.106658 5.73694e-20)
(-1.31935 -0.109046 5.66313e-20)
(-1.3329 -0.111389 0)
(-1.34584 -0.113678 -5.52135e-20)
(-1.3582 -0.1159 5.45298e-20)
(-1.37001 -0.118056 0)
(-1.38132 -0.120152 -5.32013e-20)
(-1.39215 -0.122204 0)
(-1.40256 -0.124216 0)
(-1.41256 -0.126189 5.12785e-20)
(-1.42221 -0.128121 0)
(-1.43154 -0.130014 -5.0026e-20)
(-1.44063 -0.131872 0)
(-1.44952 -0.133695 4.87838e-20)
(-1.45832 -0.135493 4.81627e-20)
(-1.46707 -0.137264 4.75408e-20)
(-1.47589 -0.139026 9.38309e-20)
(-1.48486 -0.140779 -9.25736e-20)
(-1.49409 -0.142549 0)
(-1.50368 -0.14433 0)
(-1.51376 -0.146144 0)
(-1.52446 -0.147983 -8.74204e-20)
(-1.53583 -0.149859 -8.60957e-20)
(-1.54798 -0.151795 8.47548e-20)
(-1.56104 -0.153812 0)
(-1.5751 -0.155927 -8.20234e-20)
(-1.5903 -0.158159 -8.06336e-20)
(-1.60671 -0.160523 -7.9229e-20)
(-1.62444 -0.16304 0)
(-1.64358 -0.165731 0)
(-1.66421 -0.168623 0)
(-1.68642 -0.171742 -7.35033e-20)
(-1.71028 -0.175127 0)
(-1.73587 -0.178813 0)
(-1.76324 -0.182852 6.91777e-20)
(-1.79244 -0.187292 0)
(-1.82352 -0.192199 0)
(-1.85649 -0.197633 6.49389e-20)
(-1.89133 -0.20367 0)
(-1.928 -0.21038 0)
(-1.96643 -0.21785 -6.09015e-20)
(-2.00646 -0.22616 -5.96185e-20)
(-2.04794 -0.235398 0)
(-2.09061 -0.245645 5.71624e-20)
(-2.13415 -0.256982 0)
(-2.17818 -0.269472 -5.48588e-20)
(-2.22217 -0.283159 0)
(-2.26554 -0.298054 -5.26991e-20)
(-2.30751 -0.314111 -5.16641e-20)
(-2.34717 -0.331221 0)
(-2.38341 -0.349147 0)
(-2.41502 -0.367434 0)
(-2.44051 -0.385283 0)
(-2.4581 -0.401658 0)
(-2.46603 -0.415866 0)
(-2.46338 -0.428225 0)
(-2.45087 -0.44074 -4.24079e-20)
(-2.42572 -0.454306 4.05335e-20)
(-2.38556 -0.469944 0)
(-2.32774 -0.487857 0)
(-2.24928 -0.50761 0)
(-2.14699 -0.528424 0)
(-2.01767 -0.550559 4.49624e-20)
(-1.86014 -0.575132 0)
(-1.67287 -0.601353 -1.58348e-20)
(-1.45606 -0.629446 -3.95112e-21)
(-1.20967 -0.659182 0)
(-0.937147 -0.690404 0)
(-0.646194 -0.722388 0)
(-0.348696 -0.752022 1.53121e-19)
(-0.0571156 -0.761019 2.0431e-19)
(0.224558 -0.726803 0)
(0.466361 -0.672972 1.93647e-19)
(0.626833 -0.563262 2.01183e-19)
(0.587983 -0.306554 -2.11906e-19)
(0.277794 -0.0598503 0)
(-0.210634 0.0355765 0)
(-0.584651 0.0013211 -2.13497e-19)
(-0.876165 -0.0625993 0)
(-1.10003 -0.12737 0)
(-1.27675 -0.188508 0)
(-1.40959 -0.245231 0)
(-1.49063 -0.296123 1.47511e-19)
(-1.50562 -0.337879 1.49132e-19)
(-1.45661 -0.374715 0)
(-1.35119 -0.416114 1.76509e-19)
(-1.19153 -0.460595 0)
(-0.98556 -0.506028 0)
(-0.74475 -0.550814 2.9823e-19)
(-0.482852 -0.593932 0)
(-0.214619 -0.634262 4.72552e-19)
(0.0593356 -0.64777 0)
(0.333467 -0.61791 0)
(0.599909 -0.58443 4.38275e-19)
(0.848691 -0.554074 0)
(1.0756 -0.527211 3.88219e-19)
(1.28029 -0.50302 0)
(1.46382 -0.481009 0)
(1.62784 -0.460955 0)
(1.77416 -0.442738 -3.38337e-19)
(1.90472 -0.426276 0)
(2.02129 -0.41148 3.23604e-19)
(2.12558 -0.39826 0)
(2.2189 -0.386478 0)
(2.30257 -0.376054 0)
(2.37719 -0.366811 0)
(2.44373 -0.358731 0)
(2.50116 -0.351565 0)
(2.55052 -0.345177 0)
(2.58187 -0.339632 -5.90857e-19)
(2.60309 -0.325179 0)
(2.49919 -0.307898 0)
(-0.065817 -0.0720436 5.79305e-19)
(0.0843861 -0.0819225 -2.32648e-19)
(0.080669 -0.111979 0)
(0.103182 -0.0885042 7.28535e-20)
(0.114746 -0.0876688 0)
(0.136038 -0.066735 2.83304e-20)
(0.152936 -0.0582785 -5.32812e-20)
(0.173549 -0.0423406 -5.04493e-20)
(0.189751 -0.0325585 0)
(0.205723 -0.0192066 -4.62804e-20)
(0.217879 -0.0090389 -2.20948e-20)
(0.22812 0.00257001 0)
(0.2352 0.0121157 0)
(0.240404 0.0217932 0)
(0.24357 0.0297582 0)
(0.245662 0.0371916 -1.94504e-20)
(0.246811 0.0429706 0)
(0.24792 0.0476916 3.80527e-20)
(0.248814 0.0507839 0)
(0.249677 0.0540298 0)
(0.249962 0.0588258 -3.70812e-20)
(0.249951 0.0647761 0)
(0.24812 0.0712449 3.65695e-20)
(0.241933 0.0796265 -1.8046e-20)
(0.228696 0.0911924 1.7891e-20)
(0.205942 0.107218 -1.76923e-20)
(0.171593 0.128549 -1.74205e-20)
(0.124908 0.155681 0)
(0.0652817 0.189589 0)
(-0.00580834 0.229965 1.60767e-20)
(-0.0878933 0.2681 -1.57256e-20)
(-0.170788 0.282535 0)
(-0.251746 0.265727 0)
(-0.327237 0.237733 1.40335e-20)
(-0.402152 0.213178 0)
(-0.47011 0.19195 0)
(-0.53018 0.173821 -1.40163e-20)
(-0.581999 0.158961 0)
(-0.62601 0.14696 1.43473e-20)
(-0.66278 0.137415 -2.8335e-20)
(-0.693293 0.129837 0)
(-0.71861 0.123808 0)
(-0.739775 0.119001 -5.66789e-20)
(-0.7577 0.115151 -5.63935e-20)
(-0.773151 0.11205 -5.6052e-20)
(-0.786769 0.109524 2.79907e-20)
(-0.799071 0.107455 -2.74709e-20)
(-0.810464 0.105744 -8.20733e-20)
(-0.821263 0.104328 5.43727e-20)
(-0.831709 0.10315 2.68039e-20)
(-0.841984 0.102178 0)
(-0.852222 0.101377 -2.63508e-20)
(-0.862523 0.100729 2.64439e-20)
(-0.872954 0.100213 0)
(-0.883562 0.0998182 0)
(-0.894376 0.0995237 0)
(-0.905415 0.0993226 -2.52726e-20)
(-0.916684 0.0991971 0)
(-0.928185 0.0991404 5.00697e-20)
(-0.93991 0.099136 0)
(-0.951852 0.0991781 4.92981e-20)
(-0.963996 0.0992524 0)
(-0.976326 0.0993541 -4.85495e-20)
(-0.988826 0.0994715 0)
(-1.00148 0.0996023 4.78184e-20)
(-1.01426 0.0997381 -2.39055e-20)
(-1.02715 0.0998794 0)
(-1.04013 0.100021 -4.67446e-20)
(-1.05317 0.100168 -2.30136e-20)
(-1.06625 0.100317 -2.2836e-20)
(-1.07932 0.100477 0)
(-1.09236 0.100647 -2.28568e-20)
(-1.10532 0.10084 -2.23065e-20)
(-1.11814 0.101061 0)
(-1.13078 0.101322 2.19556e-20)
(-1.14317 0.101625 -4.39509e-20)
(-1.15527 0.101975 0)
(-1.16702 0.102375 -2.14328e-20)
(-1.17839 0.102836 0)
(-1.18934 0.103378 6.36648e-20)
(-1.19986 0.104011 0)
(-1.20993 0.104758 -6.26407e-20)
(-1.21955 0.105628 -2.05725e-20)
(-1.22872 0.106649 2.08194e-20)
(-1.23744 0.10782 4.13063e-20)
(-1.24574 0.10917 -4.09755e-20)
(-1.25362 0.110688 0)
(-1.26114 0.112402 0)
(-1.26833 0.114304 0)
(-1.27525 0.116425 1.17249e-19)
(-1.2819 0.118777 3.84589e-20)
(-1.2883 0.121356 -3.813e-20)
(-1.2945 0.124163 0)
(-1.30054 0.127193 -3.84015e-20)
(-1.30646 0.130453 3.7153e-20)
(-1.31233 0.133943 3.68307e-20)
(-1.31821 0.137673 0)
(-1.32415 0.141644 0)
(-1.33021 0.145868 0)
(-1.33648 0.150352 3.55658e-20)
(-1.34302 0.155106 0)
(-1.34992 0.160142 -7.09768e-20)
(-1.35726 0.165466 -1.05067e-19)
(-1.36514 0.171093 6.98519e-20)
(-1.37366 0.177022 0)
(-1.38294 0.18327 3.49781e-20)
(-1.39309 0.189834 0)
(-1.40424 0.196727 6.77857e-20)
(-1.41651 0.203937 -3.42857e-20)
(-1.43004 0.211463 -3.40686e-20)
(-1.44497 0.219276 0)
(-1.46148 0.227349 -9.81422e-20)
(-1.47975 0.235621 6.54085e-20)
(-1.49997 0.244014 3.17036e-20)
(-1.52238 0.252412 0)
(-1.54723 0.260659 3.10745e-20)
(-1.57477 0.26854 9.38256e-20)
(-1.60517 0.275737 0)
(-1.63857 0.281797 6.154e-20)
(-1.67506 0.286123 6.05886e-20)
(-1.71458 0.288061 5.9506e-20)
(-1.7568 0.287006 0)
(-1.8008 0.282509 0)
(-1.84318 0.274427 0)
(-1.87944 0.262513 -2.83034e-20)
(-1.90723 0.245458 -2.40705e-20)
(-1.92194 0.225201 0)
(-1.92014 0.201732 -4.50374e-20)
(-1.89865 0.174931 -4.06673e-20)
(-1.85426 0.144665 0)
(-1.78382 0.112064 -2.3814e-20)
(-1.68508 0.07875 -4.39339e-20)
(-1.5556 0.0430444 7.70835e-21)
(-1.39402 0.00807469 1.15548e-20)
(-1.20325 -0.0238078 0)
(-0.987107 -0.0522328 0)
(-0.753695 -0.074489 0)
(-0.51251 -0.0856136 -4.3019e-20)
(-0.280902 -0.0747558 3.91824e-20)
(-0.0872813 -0.0326156 1.07899e-19)
(0.0210722 0.0436658 -6.43458e-20)
(0.0453816 0.141892 5.80391e-20)
(0.0275323 0.248704 6.57926e-20)
(-0.0626158 0.343754 0)
(-0.163926 0.352382 0)
(-0.250581 0.31211 -6.26444e-20)
(-0.353184 0.279494 0)
(-0.475174 0.264538 0)
(-0.610993 0.259484 1.36051e-19)
(-0.748707 0.252275 0)
(-0.873406 0.232443 6.30045e-20)
(-0.971292 0.19311 -6.57773e-20)
(-1.0155 0.139727 0)
(-0.988869 0.0872228 6.81954e-20)
(-0.894254 0.0418044 0)
(-0.743144 0.00669275 0)
(-0.549691 -0.0176053 -1.00758e-19)
(-0.328127 -0.032456 2.1856e-19)
(-0.0879249 -0.0402486 -1.26991e-19)
(0.15839 -0.039095 0)
(0.401603 -0.0314914 0)
(0.633774 -0.0163114 1.31201e-19)
(0.853426 0.00313228 0)
(1.0586 0.0236934 1.3749e-19)
(1.2483 0.043406 0)
(1.42254 0.0614034 0)
(1.58192 0.0774142 0)
(1.72735 0.0914532 1.53327e-19)
(1.85993 0.103653 0)
(1.98072 0.114253 -1.54713e-19)
(2.09085 0.123457 0)
(2.1912 0.131615 0)
(2.28273 0.138878 3.0497e-19)
(2.36574 0.145808 -3.04729e-19)
(2.44126 0.152374 0)
(2.50773 0.159897 0)
(2.56807 0.168522 0)
(2.61274 0.182534 9.1649e-19)
(2.66294 0.210755 0)
(2.70742 0.241849 -6.23107e-19)
(-0.149813 -0.179683 6.92485e-22)
(0.0753361 -0.15324 2.40818e-19)
(0.000800317 -0.191064 0)
(0.0503978 -0.168655 -9.92419e-20)
(0.0286545 -0.190705 0)
(0.0558237 -0.17825 0)
(0.0571637 -0.18436 -1.76139e-22)
(0.0804953 -0.167195 3.05487e-20)
(0.0921719 -0.160431 2.89608e-20)
(0.113079 -0.143418 2.74651e-20)
(0.125628 -0.13211 0)
(0.139972 -0.116876 0)
(0.14803 -0.106119 -2.46419e-20)
(0.154714 -0.0950118 -4.78264e-20)
(0.156568 -0.0873633 4.6559e-20)
(0.155675 -0.0802424 0)
(0.149469 -0.0755712 4.46765e-20)
(0.139292 -0.0710357 -2.18769e-20)
(0.12567 -0.0657951 0)
(0.109992 -0.0588006 4.28638e-20)
(0.0922062 -0.0502801 2.11257e-20)
(0.0732357 -0.0359411 -4.20143e-20)
(0.0522175 -0.012759 -2.07029e-20)
(0.0284597 0.0206467 0)
(2.23945e-05 0.0630414 4.04779e-20)
(-0.0344534 0.112489 3.95425e-20)
(-0.0761568 0.16631 0)
(-0.124963 0.223103 3.72437e-20)
(-0.180078 0.282652 0)
(-0.238355 0.341729 3.49728e-20)
(-0.294726 0.3858 1.67283e-20)
(-0.34415 0.396098 0)
(-0.388328 0.371303 0)
(-0.430305 0.332189 0)
(-0.469955 0.292136 0)
(-0.506209 0.251103 0)
(-0.538792 0.212155 0)
(-0.567429 0.177826 3.22798e-20)
(-0.592797 0.148086 -4.82818e-20)
(-0.615512 0.122665 0)
(-0.636096 0.10137 0)
(-0.654914 0.0838546 0)
(-0.672252 0.0696057 -1.77954e-22)
(-0.688406 0.0580585 3.18025e-20)
(-0.703654 0.0487327 6.34714e-20)
(-0.718237 0.04122 -6.3128e-20)
(-0.732366 0.0351591 -3.14481e-20)
(-0.746234 0.0302409 3.1102e-20)
(-0.76 0.0262198 1.43958e-22)
(-0.77379 0.0228938 3.08242e-20)
(-0.787704 0.0201035 0)
(-0.801809 0.0177185 3.03994e-20)
(-0.816151 0.0156389 1.50845e-22)
(-0.830749 0.0137813 0)
(-0.845608 0.0120836 0)
(-0.860716 0.010493 -2.95934e-20)
(-0.876049 0.00897199 0)
(-0.891574 0.00748723 0)
(-0.907252 0.00601615 2.92082e-20)
(-0.923039 0.00453774 5.77284e-20)
(-0.938886 0.00303955 -2.85182e-20)
(-0.954746 0.00150943 0)
(-0.970569 -5.79747e-05 2.81788e-20)
(-0.986308 -0.00166805 0)
(-1.00192 -0.00332108 2.82208e-20)
(-1.01735 -0.00501847 2.76888e-20)
(-1.03256 -0.00675806 -5.5439e-20)
(-1.04751 -0.00854048 -2.77564e-20)
(-1.06215 -0.0103631 0)
(-1.07646 -0.0122261 5.45077e-20)
(-1.09037 -0.0141254 0)
(-1.10388 -0.0160609 8.06348e-20)
(-1.11694 -0.0180292 5.35825e-20)
(-1.12952 -0.0200326 5.3273e-20)
(-1.14161 -0.022073 -5.29619e-20)
(-1.15318 -0.0241554 7.8764e-20)
(-1.16424 -0.026277 0)
(-1.17478 -0.0284213 0)
(-1.18482 -0.0305623 -5.16924e-20)
(-1.19437 -0.0326741 -7.68347e-20)
(-1.20347 -0.0347433 0)
(-1.21216 -0.0367491 2.51335e-20)
(-1.22048 -0.0386817 0)
(-1.22848 -0.040522 -7.4798e-20)
(-1.23623 -0.0422689 4.35573e-22)
(-1.24381 -0.043904 -4.36838e-22)
(-1.25127 -0.0454331 4.8936e-20)
(-1.25872 -0.0468426 0)
(-1.26624 -0.0481414 -4.8193e-20)
(-1.27394 -0.0493194 4.42594e-22)
(-1.28187 -0.0503851 0)
(-1.29012 -0.0513531 0)
(-1.29879 -0.0522319 0)
(-1.30795 -0.0530305 4.58028e-20)
(-1.31772 -0.0537528 0)
(-1.32818 -0.054407 0)
(-1.33944 -0.0549967 0)
(-1.35159 -0.0555327 0)
(-1.36474 -0.0560195 0)
(-1.37901 -0.0564709 4.38528e-20)
(-1.39452 -0.0568923 0)
(-1.4114 -0.0573009 4.25535e-20)
(-1.42978 -0.0577091 4.21531e-20)
(-1.44982 -0.0581411 -4.17577e-20)
(-1.47168 -0.0586206 0)
(-1.49551 -0.0591782 -4.09864e-20)
(-1.52146 -0.0598473 0)
(-1.54968 -0.0606657 -4.02461e-20)
(-1.58029 -0.0616756 3.98883e-20)
(-1.61336 -0.0629186 1.1984e-19)
(-1.64895 -0.0644394 0)
(-1.68705 -0.0662762 1.17862e-19)
(-1.72758 -0.0684711 3.98565e-20)
(-1.77039 -0.0710579 0)
(-1.81524 -0.0740781 7.70939e-20)
(-1.86176 -0.077564 7.64329e-20)
(-1.90946 -0.0815574 -1.12843e-19)
(-1.9577 -0.0861044 0)
(-2.0057 -0.0912885 -3.62706e-20)
(-2.05251 -0.0972372 -3.57976e-20)
(-2.09689 -0.104155 -1.07677e-19)
(-2.13724 -0.112385 0)
(-2.17181 -0.122471 0)
(-2.19871 -0.134617 0)
(-2.21571 -0.148634 -3.4814e-20)
(-2.22049 -0.164508 0)
(-2.21199 -0.185183 0)
(-2.18768 -0.210921 2.68009e-20)
(-2.14475 -0.241683 2.40506e-20)
(-2.08026 -0.27712 0)
(-1.99121 -0.316563 0)
(-1.87483 -0.359367 2.52399e-20)
(-1.73064 -0.403562 0)
(-1.55954 -0.446114 -5.56484e-21)
(-1.36523 -0.482202 1.22947e-21)
(-1.15391 -0.508347 0)
(-0.935118 -0.520213 0)
(-0.720442 -0.511761 -3.20704e-20)
(-0.522907 -0.476353 -2.82484e-21)
(-0.354754 -0.402152 -2.1267e-21)
(-0.231915 -0.27075 0)
(-0.165038 -0.0720861 -1.15119e-19)
(-0.111179 0.140084 0)
(-0.0444377 0.268661 0)
(-0.00369623 0.283355 0)
(-0.0423775 0.248465 7.22406e-20)
(-0.168664 0.215445 0)
(-0.357992 0.187747 -1.44742e-19)
(-0.576265 0.153518 -7.25532e-20)
(-0.785616 0.10261 0)
(-0.950983 0.0327297 -6.95672e-20)
(-1.05013 -0.0511321 0)
(-1.07114 -0.13768 0)
(-1.01868 -0.223321 -2.27047e-19)
(-0.90261 -0.298913 1.62101e-19)
(-0.73644 -0.357832 0)
(-0.534738 -0.397784 1.9563e-19)
(-0.311781 -0.419924 -1.10218e-19)
(-0.0787651 -0.427791 0)
(0.154828 -0.426779 0)
(0.38156 -0.417785 0)
(0.598074 -0.400946 -4.17092e-19)
(0.803765 -0.380118 0)
(0.997592 -0.358 -1.51568e-19)
(1.17889 -0.336165 0)
(1.34749 -0.315478 0)
(1.5037 -0.296405 0)
(1.64812 -0.279129 0)
(1.78153 -0.263706 0)
(1.90469 -0.250016 0)
(2.01845 -0.237948 -3.49951e-19)
(2.12342 -0.227209 0)
(2.22035 -0.217701 -1.79055e-19)
(2.3094 -0.208911 5.37076e-19)
(2.39143 -0.200852 0)
(2.4652 -0.192438 0)
(2.53298 -0.183403 -3.60541e-19)
(2.58883 -0.171497 -3.64233e-19)
(2.64367 -0.154387 3.65857e-19)
(2.68274 -0.119956 3.76598e-19)
(-0.181526 -0.193894 -8.38625e-19)
(0.0945172 -0.147552 -3.23912e-19)
(-0.0158526 -0.172609 -1.16577e-19)
(0.054401 -0.132732 -4.24227e-20)
(0.00435446 -0.149675 0)
(0.0371831 -0.132079 5.90796e-20)
(0.00610159 -0.143838 -2.66041e-20)
(0.0259715 -0.129662 0)
(0.0132511 -0.12847 -2.2778e-20)
(0.0298494 -0.105962 0)
(0.0274885 -0.0896409 4.15143e-20)
(0.0382112 -0.0633467 0)
(0.0354807 -0.0420832 1.91567e-20)
(0.0380539 -0.0173617 3.71505e-20)
(0.0334061 0.00336004 -3.61217e-20)
(0.0312927 0.0273481 0)
(0.02363 0.0491118 -3.44851e-20)
(0.0120299 0.0674631 0)
(-0.00795768 0.0790708 0)
(-0.0330053 0.0892753 -3.2427e-20)
(-0.0647275 0.0984588 0)
(-0.100528 0.109087 -1.90216e-22)
(-0.139308 0.123165 0)
(-0.177864 0.144728 0)
(-0.215473 0.175707 2.13288e-22)
(-0.251798 0.216298 -2.85277e-20)
(-0.287648 0.264396 -2.81395e-20)
(-0.32324 0.316952 -2.72624e-20)
(-0.357695 0.369762 0)
(-0.38768 0.4154 -5.2565e-20)
(-0.409269 0.441271 0)
(-0.422159 0.43708 -2.57207e-20)
(-0.430801 0.407319 0)
(-0.438858 0.368602 0)
(-0.44644 0.330903 2.52916e-20)
(-0.455233 0.29451 0)
(-0.466909 0.260548 -2.51512e-20)
(-0.481281 0.231131 2.95336e-22)
(-0.497947 0.206943 4.97511e-20)
(-0.516389 0.187441 -4.98532e-20)
(-0.536067 0.171642 0)
(-0.556468 0.15871 0)
(-0.577102 0.148152 -2.48057e-20)
(-0.597606 0.139643 0)
(-0.617801 0.132844 -2.41524e-20)
(-0.637611 0.127441 2.40179e-20)
(-0.657007 0.123196 2.38787e-20)
(-0.676014 0.119907 0)
(-0.694683 0.117386 -2.3594e-20)
(-0.713071 0.11547 -2.34519e-20)
(-0.731228 0.114018 4.69661e-20)
(-0.749195 0.112915 -2.31733e-20)
(-0.767 0.112062 -2.30382e-20)
(-0.784659 0.111379 0)
(-0.802178 0.1108 0)
(-0.819551 0.110272 2.26543e-20)
(-0.836766 0.109754 0)
(-0.853803 0.109212 0)
(-0.870639 0.108621 -4.46035e-20)
(-0.887246 0.107961 -4.43803e-20)
(-0.903595 0.107219 0)
(-0.919658 0.106385 0)
(-0.935408 0.105455 0)
(-0.95082 0.104428 0)
(-0.965869 0.103303 -4.33218e-20)
(-0.980533 0.102083 4.35334e-20)