# vtk DataFile Version 2.0
track0
ASCII
DATASET POLYDATA
POINTS 10905 double
-0.0205 0.001 1e-05
-0.0202034 0.00100003 1e-05
-0.0199069 0.00100026 1e-05
-0.0196103 0.00100071 1e-05
-0.0193137 0.00100137 1e-05
-0.0190172 0.00100225 1e-05
-0.0187132 0.00100354 1e-05
-0.0184093 0.0010045 1e-05
-0.0181054 0.00100547 1e-05
-0.0178015 0.00100644 1e-05
-0.0174976 0.00100741 1e-05
-0.0172058 0.00100863 1e-05
-0.016914 0.00100939 1e-05
-0.0166222 0.00101011 1e-05
-0.0163305 0.00101076 1e-05
-0.0160387 0.00101136 1e-05
-0.0157586 0.0010122 1e-05
-0.0154784 0.00101261 1e-05
-0.0151983 0.00101297 1e-05
-0.0149182 0.00101329 1e-05
-0.0146381 0.00101356 1e-05
-0.0143692 0.00101412 1e-05
-0.0141002 0.00101426 1e-05
-0.0138313 0.00101437 1e-05
-0.0135624 0.00101444 1e-05
-0.0132934 0.00101448 1e-05
-0.0130353 0.00101483 1e-05
-0.0127771 0.00101477 1e-05
-0.0125189 0.00101469 1e-05
-0.0122607 0.00101458 1e-05
-0.0120025 0.00101443 1e-05
-0.0117547 0.00101465 1e-05
-0.0115068 0.00101444 1e-05
-0.0112589 0.00101421 1e-05
-0.0110111 0.00101396 1e-05
-0.0107632 0.00101368 1e-05
-0.0105252 0.00101381 1e-05
-0.0102873 0.00101349 1e-05
-0.0100493 0.00101315 1e-05
-0.00981133 0.00101278 1e-05
-0.00957337 0.0010124 1e-05
-0.00934491 0.00101247 1e-05
-0.00911645 0.00101206 1e-05
-0.008888 0.00101163 1e-05
-0.00865954 0.00101117 1e-05
-0.00843108 0.0010107 1e-05
-0.00821175 0.00101074 1e-05
-0.00799242 0.00101024 1e-05
-0.00777309 0.00100972 1e-05
-0.00755376 0.00100918 1e-05
-0.00733443 0.00100863 1e-05
-0.00712387 0.00100864 1e-05
-0.0069133 0.00100807 1e-05
-0.00670273 0.00100747 1e-05
-0.00649217 0.00100686 1e-05
-0.0062816 0.00100622 1e-05
-0.00607944 0.00100623 1e-05
-0.00587729 0.00100558 1e-05
-0.00567514 0.00100491 1e-05
-0.00547299 0.00100422 1e-05
-0.00527083 0.0010035 1e-05
-0.00507675 0.0010035 1e-05
-0.00488268 0.00100278 1e-05
-0.0046886 0.00100204 1e-05
-0.00449452 0.00100127 1e-05
-0.00430044 0.00100048 1e-05
-0.00411412 0.00100048 1e-05
-0.0039278 0.000999678 1e-05
-0.00374148 0.000998855 1e-05
-0.00355516 0.000998007 1e-05
-0.00336883 0.000997133 1e-05
-0.00318995 0.000997123 1e-05
-0.00301107 0.000996242 1e-05
-0.0028322 0.000995333 1e-05
-0.00265332 0.000994396 1e-05
-0.00247443 0.000993429 1e-05
-0.0023027 0.000993402 1e-05
-0.00213097 0.000992423 1e-05
-0.00195924 0.000991412 1e-05
-0.00178751 0.000990369 1e-05
-0.00161577 0.000989291 1e-05
-0.0014509 0.000989236 1e-05
-0.00128603 0.000988142 1e-05
-0.00112117 0.000987005 1e-05
-0.000956301 0.000985822 1e-05
-0.000791418 0.000984594 1e-05
-0.000633135 0.000984466 1e-05
-0.000474856 0.000983188 1e-05
-0.000316578 0.00098186 1e-05
-0.0001583 0.000980482 1e-05
0 0.000979052 1e-05
0.000105677 0.000978905 1e-05
0.00021135 0.000977892 1e-05
0.000317023 0.000976847 1e-05
0.000422695 0.000975769 1e-05
0.000528387 0.000974658 1e-05
0.000634886 0.000974515 1e-05
0.000741379 0.000973375 1e-05
0.000847872 0.00097221 1e-05
0.000954365 0.00097102 1e-05
0.00106088 0.000969805 1e-05
0.00116821 0.000969698 1e-05
0.00127553 0.000968484 1e-05
0.00138285 0.000967247 1e-05
0.00149017 0.000965989 1e-05
0.00159752 0.000964761 1e-05
0.00170568 0.00096469 1e-05
0.00181383 0.000963544 1e-05
0.00192199 0.000962276 1e-05
0.00203014 0.000960988 1e-05
0.00213833 0.000959881 1e-05
0.00224733 0.000959845 1e-05
0.00235633 0.00095883 1e-05
0.00246532 0.000957564 1e-05
0.00257432 0.000956277 1e-05
0.00268334 0.000955289 1e-05
0.00279319 0.000955281 1e-05
0.00290303 0.000954381 1e-05
0.00301288 0.000953129 1e-05
0.00312272 0.000951855 1e-05
0.00323259 0.000950969 1e-05
0.00334329 0.000950974 1e-05
0.00345399 0.000950169 1e-05
0.00356469 0.000948935 1e-05
0.00367539 0.000947678 1e-05
0.00378611 0.000946876 1e-05
0.00389767 0.000946881 1e-05
0.00400923 0.00094615 1e-05
0.00412079 0.000944935 1e-05
0.00423235 0.000943697 1e-05
0.00434393 0.00094296 1e-05
0.00445636 0.000942956 1e-05
0.00456879 0.000942281 1e-05
0.00468122 0.000941081 1e-05
0.00479364 0.000939859 1e-05
0.00490609 0.000939171 1e-05
0.0050194 0.000939146 1e-05
0.0051327 0.00093851 1e-05
0.005246 0.000937321 1e-05
0.0053593 0.000936108 1e-05
0.00547262 0.000935453 1e-05
0.00558681 0.000935398 1e-05
0.00570099 0.000934784 1e-05
0.00581517 0.000933616 1e-05
0.00592936 0.00093244 1e-05
0.00604356 0.000931802 1e-05
0.00615863 0.000931711 1e-05
0.0062737 0.000931108 1e-05
0.00638877 0.000929997 1e-05
0.00650384 0.000928876 1e-05
0.00661893 0.000928246 1e-05
0.0067349 0.000928112 1e-05
0.00685087 0.000927509 1e-05
0.00696683 0.000926441 1e-05
0.0070828 0.000925362 1e-05
0.00719878 0.00092473 1e-05
0.00731565 0.000924549 1e-05
0.00743252 0.000923938 1e-05
0.00754939 0.0009229 1e-05
0.00766625 0.00092185 1e-05
0.00778313 0.000921206 1e-05
0.00790091 0.000920974 1e-05
0.00801869 0.000920347 1e-05
0.00813647 0.000919328 1e-05
0.00825424 0.000918296 1e-05
0.00837203 0.000917635 1e-05
0.00849073 0.000917349 1e-05
0.00860942 0.000916699 1e-05
0.00872811 0.000915689 1e-05
0.00884681 0.000914666 1e-05
0.00896551 0.000913981 1e-05
0.00908513 0.000913637 1e-05
0.00920475 0.000912959 1e-05
0.00932436 0.00091195 1e-05
0.00944398 0.000910928 1e-05
0.0095636 0.000910214 1e-05
0.00968415 0.00090981 1e-05
0.0098047 0.000909099 1e-05
0.00992524 0.000908083 1e-05
0.0100458 0.000907054 1e-05
0.0101663 0.000906306 1e-05
0.0102878 0.00090584 1e-05
0.0104093 0.000905091 1e-05
0.0105308 0.000904063 1e-05
0.0106523 0.000903021 1e-05
0.0107738 0.000902235 1e-05
0.0108962 0.000901705 1e-05
0.0110186 0.000900915 1e-05
0.0111411 0.00089989 1e-05
0.0112635 0.000898859 1e-05
0.0113859 0.00089803 1e-05
0.0115093 0.000897435 1e-05
0.0116327 0.0008966 1e-05
0.0117561 0.000895576 1e-05
0.0118794 0.000894544 1e-05
0.0120028 0.00089367 1e-05
0.0121272 0.000893008 1e-05
0.0122515 0.000892124 1e-05
0.0123759 0.000891092 1e-05
0.0125002 0.000890051 1e-05
0.0126245 0.000889129 1e-05
0.0127498 0.000888398 1e-05
0.0128752 0.000887463 1e-05
0.0130005 0.000886414 1e-05
0.0131258 0.000885357 1e-05
0.0132511 0.000884384 1e-05
0.0133774 0.000883583 1e-05
0.0135036 0.000882595 1e-05
0.0136299 0.000881523 1e-05
0.0137562 0.000880442 1e-05
0.0138825 0.000879415 1e-05
0.0140098 0.000878544 1e-05
0.014137 0.000877499 1e-05
0.0142643 0.000876398 1e-05
0.0143915 0.000875287 1e-05
0.0145188 0.000874204 1e-05
0.0146471 0.000873261 1e-05
0.0147753 0.000872159 1e-05
0.0149036 0.000871022 1e-05
0.0150318 0.000869876 1e-05
0.0151601 0.000868736 1e-05
0.0152893 0.000867721 1e-05
0.0154186 0.00086656 1e-05
0.0155478 0.000865382 1e-05
0.0156771 0.000864196 1e-05
0.0158063 0.000863 1e-05
0.0159366 0.000861913 1e-05
0.0160668 0.000860701 1e-05
0.0161971 0.000859479 1e-05
0.0163273 0.000858248 1e-05
0.0164576 0.000857007 1e-05
0.0165889 0.000855847 1e-05
0.0167201 0.000854587 1e-05
0.0168514 0.000853317 1e-05
0.0169827 0.000852037 1e-05
0.0171139 0.000850747 1e-05
0.0172462 0.000849514 1e-05
0.0173785 0.000848202 1e-05
0.0175108 0.00084688 1e-05
0.0176431 0.000845548 1e-05
0.0177754 0.000844206 1e-05
0.0179087 0.0008429 1e-05
0.018042 0.000841533 1e-05
0.0181753 0.000840156 1e-05
0.0183087 0.00083877 1e-05
0.018442 0.000837373 1e-05
0.0185763 0.000835993 1e-05
0.0187107 0.000834569 1e-05
0.018845 0.000833135 1e-05
0.0189794 0.000831692 1e-05
0.0191137 0.000830238 1e-05
0.0192491 0.000828785 1e-05
0.0193845 0.000827302 1e-05
0.0195199 0.000825809 1e-05
0.0196553 0.000824306 1e-05
0.0197907 0.000822794 1e-05
0.0198835 0.000821756 1e-05
0.0199762 0.000820709 1e-05
0.0200689 0.000819658 1e-05
0.0201616 0.000818602 1e-05
0.020251 0.00081758 1e-05
0.0202954 0.00081707 1e-05
0.0203398 0.000816559 1e-05
0.0203842 0.000816047 1e-05
0.0204286 0.000815534 1e-05
0.020473 0.00081502 1e-05
0.0206105 0.000813421 1e-05
0.020748 0.000811815 1e-05
0.0208855 0.000810199 1e-05
0.021023 0.000808574 1e-05
0.0211606 0.000806938 1e-05
0.0212991 0.000805269 1e-05
0.0214377 0.000803599 1e-05
0.0215763 0.00080192 1e-05
0.0217149 0.00080023 1e-05
0.0218535 0.000798531 1e-05
0.0219931 0.000796792 1e-05
0.0221328 0.000795058 1e-05
0.0222724 0.000793314 1e-05
0.0224121 0.00079156 1e-05
0.0225517 0.000789796 1e-05
0.0226925 0.000787987 1e-05
0.0228332 0.000786187 1e-05
0.022974 0.000784377 1e-05
0.0231147 0.000782557 1e-05
0.0232555 0.000780726 1e-05
0.0233973 0.000778846 1e-05
0.0235391 0.000776977 1e-05
0.023681 0.000775098 1e-05
0.0238228 0.000773209 1e-05
0.0239647 0.000771309 1e-05
0.0241076 0.000769358 1e-05
0.0242505 0.000767421 1e-05
0.0243935 0.000765473 1e-05
0.0245364 0.000763516 1e-05
0.0246794 0.000761548 1e-05
0.0248234 0.000759529 1e-05
0.0249675 0.000757523 1e-05
0.0251115 0.000755509 1e-05
0.0252556 0.000753485 1e-05
0.0253996 0.000751446 1e-05
0.0255448 0.000749357 1e-05
0.02569 0.000747277 1e-05
0.0258351 0.000745192 1e-05
0.0259803 0.000743095 1e-05
0.0261255 0.000740981 1e-05
0.0262718 0.000738818 1e-05
0.0264181 0.000736662 1e-05
0.0265644 0.000734501 1e-05
0.0267107 0.000732329 1e-05
0.026857 0.000730137 1e-05
0.0270044 0.000727901 1e-05
0.0271519 0.000725667 1e-05
0.0272993 0.000723431 1e-05
0.0274468 0.000721182 1e-05
0.0275942 0.000718914 1e-05
0.0277428 0.000716604 1e-05
0.0278914 0.000714293 1e-05
0.0280399 0.00071198 1e-05
0.0281885 0.000709656 1e-05
0.0283371 0.000707312 1e-05
0.0284869 0.000704928 1e-05
0.0286366 0.000702543 1e-05
0.0287863 0.000700154 1e-05
0.0289361 0.000697753 1e-05
0.0290858 0.000695335 1e-05
0.0292367 0.000692879 1e-05
0.0293876 0.000690418 1e-05
0.0295385 0.000687953 1e-05
0.0296894 0.000685476 1e-05
0.0298403 0.000682983 1e-05
0.0299924 0.000680455 1e-05
0.0301445 0.00067792 1e-05
0.0302966 0.000675377 1e-05
0.0304486 0.000672824 1e-05
0.0306007 0.000670257 1e-05
0.030754 0.000667656 1e-05
0.0309072 0.000665046 1e-05
0.0310605 0.000662427 1e-05
0.0312138 0.000659797 1e-05
0.031367 0.000657155 1e-05
0.0315215 0.00065448 1e-05
0.0316759 0.000651794 1e-05
0.0318304 0.000649097 1e-05
0.0319848 0.00064639 1e-05
0.0321393 0.000643671 1e-05
0.0322949 0.000640921 1e-05
0.0324506 0.000638158 1e-05
0.0326062 0.000635382 1e-05
0.0327619 0.000632595 1e-05
0.0329175 0.000629799 1e-05
[...]
POINT_DATA 10905
 FIELD attributes 1
U 3 10905 float
10.0021 	0.000980359 	0 10.0076 	0.00792855 	0 10.013 	0.0151183 	0 10.0184 	0.0223213 	0 10.0239 	0.0295375 	0 10.0305 	0.0425882 	0 10.0339 	0.0319219 	0 10.0371 	0.0319419 	0 10.0403 	0.031962 	0 10.0434 	0.0319822 	0 10.0462 	0.0419984 	0 10.0441 	0.0264477 	0 10.0431 	0.0244936 	0 10.0422 	0.0225135 	0 10.0412 	0.020507 	0 10.0402 	0.0301803 	0 10.0367 	0.014643 	0 10.0344 	0.0130595 	0 10.0321 	0.0114485 	0 10.0298 	0.00980948 	0 10.0278 	0.0206595 	0 10.0245 	0.00527917 	0 10.0222 	0.00400729 	0 10.0198 	0.00270927 	0 10.0175 	0.00138457 	0 10.0154 	0.0135753 	0 10.0122 	-0.00218223 	0 10.0098 	-0.00325144 	0 10.0074 	-0.00434517 	0 10.0049 	-0.00546399 	0 10.0027 	0.00849804 	0 9.99959 	-0.00831912 	0 9.99707 	-0.009224 	0 9.99455 	-0.0101511 	0 9.99202 	-0.0111009 	0 9.98953 	0.00518923 	0 9.9867 	-0.0134602 	0 9.9842 	-0.0142875 	0 9.98169 	-0.0151359 	0 9.97918 	-0.0160059 	0 9.97648 	0.00309633 	0 9.97396 	-0.0180962 	0 9.97151 	-0.0189263 	0 9.96905 	-0.0197779 	0 9.96659 	-0.0206517 	0 9.96364 	0.00172512 	0 9.96149 	-0.0226247 	0 9.95908 	-0.0234939 	0 9.95667 	-0.024386 	0 9.95425 	-0.0253014 	0 9.95096 	0.000843767 	0 9.94927 	-0.0272135 	0 9.94692 	-0.0281365 	0 9.94457 	-0.0290836 	0 9.94221 	-0.0300555 	0 9.93853 	0.000345597 	0 9.93741 	-0.031949 	0 9.93515 	-0.0329482 	0 9.93289 	-0.0339732 	0 9.93061 	-0.0350246 	0 9.92645 	9.17527e-05 	0 9.926 	-0.0369616 	0 9.92386 	-0.0380826 	0 9.9217 	-0.0392319 	0 9.91953 	-0.0404104 	0 9.91483 	-0.000154064 	0 9.91519 	-0.0425077 	0 9.91314 	-0.0437894 	0 9.91109 	-0.045103 	0 9.90902 	-0.0464492 	0 9.90362 	-0.000565397 	0 9.90485 	-0.0487856 	0 9.90291 	-0.0503222 	0 9.90096 	-0.0518959 	0 9.89899 	-0.0535078 	0 9.89279 	-0.00154647 	0 9.89511 	-0.0563887 	0 9.89327 	-0.0582328 	0 9.89142 	-0.0601203 	0 9.88956 	-0.0620525 	0 9.88236 	-0.00330386 	0 9.88567 	-0.0655681 	0 9.88356 	-0.0681905 	0 9.88144 	-0.0708729 	0 9.87931 	-0.0736164 	0 9.8703 	-0.00795735 	0 9.87353 	-0.0797539 	1.17931e-21 9.87117 	-0.0828042 	3.92612e-21 9.86879 	-0.0859236 	6.67105e-21 9.86639 	-0.0891139 	9.41405e-21 9.8566 	-0.0137215 	1.10573e-20 9.86057 	-0.0944863 	-1.51661e-20 9.8583 	-0.0974944 	-1.97898e-20 9.856 	-0.100548 	-2.44305e-20 9.85369 	-0.103649 	-2.90885e-20 9.84234 	-0.0131519 	5.28499e-22 9.84999 	-0.105465 	-2.21303e-21 9.84805 	-0.107721 	-4.77393e-21 9.84609 	-0.110012 	-7.33325e-21 9.84412 	-0.112337 	-9.89094e-21 9.82875 	-0.00979936 	-1.1083e-20 9.84217 	-0.111336 	-1.03086e-20 9.84031 	-0.113354 	-6.81912e-21 9.83843 	-0.115402 	-3.32859e-21 9.83563 	-0.11244 	-2.8813e-22 9.81425 	-0.00650958 	-6.46076e-21 9.83268 	-0.104134 	-5.70861e-22 9.83258 	-0.11526 	-9.91804e-21 9.83048 	-0.117113 	-2.08994e-20 9.82379 	-0.100532 	-3.16302e-20 9.79717 	-0.00320262 	-4.13128e-20 9.8196 	-0.0914558 	-6.61539e-20 9.82321 	-0.114135 	-6.73872e-20 9.82088 	-0.115939 	-6.11149e-20 9.80905 	-0.088885 	-4.55485e-20 9.77742 	-0.000695793 	-1.03306e-20 9.80378 	-0.0803214 	-1.00679e-20 9.81212 	-0.111871 	-3.80176e-21 9.80952 	-0.113749 	6.14663e-21 9.79141 	-0.0789694 	1.69246e-20 9.7548 	0.000440727 	2.8711e-20 9.78464 	-0.0712051 	8.84621e-20 9.79846 	-0.109227 	1.1773e-19 9.79547 	-0.111156 	1.14279e-19 9.7701 	-0.0708196 	7.50562e-20 9.72877 	0.00045737 	9.62083e-21 9.76167 	-0.0639699 	-6.82259e-20 9.78157 	-0.106546 	-1.21459e-19 9.77816 	-0.108496 	-1.29035e-19 9.74483 	-0.0643225 	-8.69067e-20 9.69923 	-0.000427585 	-2.3567e-20 9.7348 	-0.0584382 	-1.47925e-20 9.76128 	-0.104116 	-1.06707e-20 9.75743 	-0.106089 	-2.30602e-20 9.7157 	-0.05942 	-4.4332e-20 9.66631 	-0.00214962 	-6.76333e-20 9.70419 	-0.0545036 	-8.03941e-20 9.73761 	-0.102195 	-9.12431e-20 9.7333 	-0.104187 	-8.44372e-20 9.68289 	-0.0560092 	-6.20701e-20 9.63018 	-0.00461445 	-3.87852e-20 9.67001 	-0.0519524 	-2.51265e-20 9.70919 	-0.0993238 	-1.1397e-20 9.70287 	-0.0999905 	-1.85991e-22 9.64667 	-0.0538295 	-3.39328e-21 9.5911 	-0.00762508 	-6.5795e-21 9.63249 	-0.0504808 	-3.51672e-21 9.67327 	-0.0933697 	-4.74474e-22 9.66593 	-0.0941604 	-5.57401e-22 9.60736 	-0.0526095 	-3.764e-21 9.54941 	-0.0110182 	-6.95151e-21 9.59201 	-0.0498536 	-3.88892e-21 9.63402 	-0.0887211 	-8.45063e-22 9.62575 	-0.0895936 	-8.01299e-21 9.56528 	-0.0521674 	-1.84341e-20 9.5054 	-0.0147039 	-2.89314e-20 9.54887 	-0.0499307 	-5.56504e-20 9.59178 	-0.0851879 	-8.22973e-20 9.58267 	-0.0861151 	-8.70287e-20 9.52074 	-0.0523874 	-7.11535e-20 9.45937 	-0.0186255 	-5.53066e-20 9.50341 	-0.0506045 	-1.07282e-19 9.5469 	-0.0826121 	-1.59227e-19 9.53706 	-0.0835707 	-1.49223e-19 9.47407 	-0.0531603 	-7.60875e-20 9.4116 	-0.0227188 	-2.88923e-21 9.45591 	-0.0517616 	-2.31692e-21 9.49971 	-0.0808309 	-1.79736e-21 9.48925 	-0.081802 	2.58014e-21 9.42555 	-0.0543768 	9.75006e-21 9.36234 	-0.0269231 	1.69519e-20 9.40665 	-0.053309 	9.45937e-21 9.45047 	-0.0797195 	1.93625e-21 9.43948 	-0.0806913 	-2.36655e-21 9.37542 	-0.0559575 	-5.55384e-21 9.31181 	-0.0311979 	-8.72955e-21 9.35588 	-0.0551832 	-5.69198e-21 9.39947 	-0.0791911 	-2.6663e-21 9.38807 	-0.0801561 	-8.53924e-22 9.32394 	-0.0578478 	-8.07608e-21 9.26024 	-0.0355161 	-1.53248e-20 9.30384 	-0.0573305 	-7.76545e-21 9.34699 	-0.0791658 	-1.80212e-22 9.33508 	-0.0800367 	-8.26171e-21 9.27135 	-0.0599968 	-3.04329e-20 9.20782 	-0.0398551 	-5.2679e-20 9.25077 	-0.0597031 	-1.43212e-19 9.2881 	-0.0777379 	-2.25001e-19 9.275 	-0.0781419 	-2.22736e-19 9.21795 	-0.0623553 	-1.36708e-19 9.15483 	-0.0441921 	-3.84582e-20 9.19696 	-0.0622584 	-2.36013e-20 9.22714 	-0.0765866 	-1.01777e-20 9.2142 	-0.0770254 	-2.04476e-21 9.16395 	-0.0648869 	0 9.10143 	-0.0485111 	0 9.14262 	-0.0649642 	0 9.1657 	-0.0761107 	0 9.15292 	-0.0765766 	0 9.1095 	-0.0675595 	0 9.04775 	-0.052796 	0 9.08788 	-0.0677862 	0 9.10399 	-0.0762048 	3.85943e-21 9.09137 	-0.0766908 	1.2372e-20 9.05475 	-0.0703388 	2.4017e-20 8.99391 	-0.0570308 	3.88441e-20 9.0329 	-0.0706942 	1.36474e-19 9.0422 	-0.0767794 	1.76565e-19 9.02973 	-0.07728 	1.74283e-19 8.99983 	-0.0731963 	1.36977e-19 8.94001 	-0.0612022 	3.92698e-20 8.97778 	-0.0736609 	2.45589e-20 8.98046 	-0.0777562 	2.09867e-20 8.96815 	-0.0782674 	2.21858e-20 8.94486 	-0.0761081 	2.56827e-20 8.88615 	-0.0653016 	3.6611e-20 8.92265 	-0.0766677 	9.96469e-20 8.91894 	-0.0790728 	1.04228e-19 8.90677 	-0.0795916 	9.65038e-20 8.88993 	-0.0790568 	8.2311e-20 8.83243 	-0.069323 	1.16764e-20 8.8676 	-0.0796991 	-6.44304e-20 8.85776 	-0.0806749 	-8.59339e-20 8.84574 	-0.0811984 	-1.04806e-19 8.8337 	-0.0817214 	-1.23671e-19 8.77891 	-0.0732609 	-7.78835e-20 8.80893 	-0.0819884 	-1.55798e-19 8.79707 	-0.0825142 	-1.47463e-19 8.78519 	-0.0830396 	-1.39119e-19 8.77329 	-0.0835647 	-1.30766e-19 8.72573 	-0.0771083 	-5.19874e-20 8.74872 	-0.0840191 	-3.61384e-20 8.737 	-0.0845438 	-2.52227e-20 8.72526 	-0.0850683 	-1.43083e-20 8.71349 	-0.0855926 	-3.39515e-21 8.67293 	-0.0808564 	0 8.6892 	-0.0861986 	9.91955e-22 8.67761 	-0.0867196 	3.83466e-21 8.666 	-0.0872403 	6.67767e-21 8.65437 	-0.0877609 	9.521e-21 8.62057 	-0.0844969 	1.23703e-20 8.63043 	-0.0884878 	1.10616e-20 8.61896 	-0.0890026 	1.12169e-20 8.60748 	-0.0895172 	1.13729e-20 8.59598 	-0.0900317 	1.15295e-20 8.56869 	-0.0880234 	1.27699e-20 8.57244 	-0.0908528 	1.52895e-20 8.56111 	-0.0913594 	2.09741e-20 8.54975 	-0.0918658 	2.666e-20 8.53837 	-0.0923722 	3.23471e-20 8.51732 	-0.0914309 	4.01688e-20 8.5153 	-0.0932643 	6.05326e-20 8.50408 	-0.093761 	5.79774e-20 8.49284 	-0.0942576 	5.5412e-20 8.48159 	-0.0947542 	5.28363e-20 8.46651 	-0.0947154 	4.08774e-20 8.46257 	-0.0955411 	3.64599e-20 8.45503 	-0.0958709 	3.2884e-20 8.44749 	-0.0962007 	2.93087e-20 8.43993 	-0.0965305 	2.5734e-20 8.43265 	-0.0968482 	2.22912e-20 8.42893 	-0.0970065 	2.03638e-20 8.42522 	-0.0971648 	1.84362e-20 8.4215 	-0.0973231 	1.65086e-20 8.41778 	-0.0974814 	1.45807e-20 8.41342 	-0.0978131 	1.30574e-20 8.40295 	-0.0981317 	6.06186e-21 8.39171 	-0.0986064 	-2.35363e-21 8.38044 	-0.0990813 	-1.07662e-20 8.36916 	-0.0995561 	-1.91757e-20 8.35546 	-0.10065 	-3.25742e-20 8.34725 	-0.100555 	-4.22644e-20 8.33612 	-0.101019 	-4.68272e-20 8.32498 	-0.101483 	-5.13927e-20 8.31381 	-0.101947 	-5.59609e-20 8.29873 	-0.103357 	-5.35646e-20 8.29255 	-0.102958 	-6.99904e-20 8.28154 	-0.103413 	-6.29512e-20 8.27052 	-0.103869 	-5.592e-20 8.25947 	-0.104325 	-4.88968e-20 8.24324 	-0.105951 	-1.01551e-20 8.23889 	-0.105347 	-5.91561e-21 8.228 	-0.105814 	-9.6576e-21 8.21709 	-0.106282 	-1.33988e-20 8.20615 	-0.106749 	-1.71393e-20 8.18898 	-0.108541 	-2.1286e-20 8.18629 	-0.107845 	-4.91437e-20 8.17547 	-0.108303 	-5.72773e-20 8.16464 	-0.10876 	-6.54137e-20 8.15377 	-0.109218 	-7.35528e-20 8.13573 	-0.111042 	-4.2469e-20 8.1345 	-0.11026 	3.07912e-20 8.12371 	-0.110679 	4.71142e-20 8.1129 	-0.111098 	6.34472e-20 8.10205 	-0.111521 	7.95449e-20 8.08324 	-0.11331 	1.32846e-20 8.08252 	-0.112528 	3.12998e-21 8.07252 	-0.112869 	1.69871e-21 8.06177 	-0.113298 	9.49914e-22 8.04975 	-0.113931 	3.47676e-22 8.03156 	-0.115568 	4.6691e-22 8.03039 	-0.115034 	3.3977e-22 8.02213 	-0.115247 	-5.75472e-21 8.01146 	-0.115712 	-1.38557e-20 7.99845 	-0.116504 	-2.19248e-20 7.98081 	-0.117942 	-2.99314e-20 7.9793 	-0.117615 	-2.13819e-20 7.97266 	-0.117742 	-1.28138e-20 7.96208 	-0.118217 	-4.23074e-21 7.94819 	-0.119071 	0 7.93108 	-0.120294 	0 7.92927 	-0.120136 	0 7.92416 	-0.120218 	-1.71197e-21 7.91368 	-0.120687 	-6.19788e-21 7.89905 	-0.12153 	-1.04136e-20 7.88244 	-0.122551 	-1.45011e-20 7.8804 	-0.122535 	-4.72424e-20 7.87675 	-0.122612 	-7.48473e-20 7.86638 	-0.123069 	-8.11195e-20 7.85111 	-0.123854 	-6.57117e-20 7.83496 	-0.124696 	-4.65925e-20 7.83273 	-0.124804 	-1.36503e-19 7.83047 	-0.124915 	-2.26071e-19 7.82006 	-0.12537 	-2.23204e-19 7.80438 	-0.126056 	-1.38735e-19 7.78867 	-0.126744 	-5.42689e-20 7.78629 	-0.126965 	-1.01799e-19 7.78389 	-0.127186 	-1.49331e-19 7.77415 	-0.12761 	-1.4391e-19 7.75887 	-0.128167 	-8.30512e-20 7.74356 	-0.128723 	-2.21936e-20 7.74104 	-0.129047 	-1.29565e-20 7.73851 	-0.129372 	-3.72e-21 7.72946 	-0.12977 	0 7.71454 	-0.130218 	0 7.69958 	-0.130667 	0 7.69696 	-0.131085 	0 7.69431 	-0.131503 	0 7.68595 	-0.131884 	0 7.67135 	-0.132242 	0 7.65672 	-0.132601 	0 7.654 	-0.133106 	0 7.65126 	-0.133611 	0 7.64356 	-0.13398 	0 7.62924 	-0.134265 	0 7.6149 	-0.134551 	0 7.61211 	-0.135137 	0 7.60928 	-0.135722 	0 7.60224 	-0.136086 	0 7.58817 	-0.136313 	0 7.57409 	-0.13654 	0 7.57122 	-0.1372 	0 7.56777 	-0.137822 	0 7.56066 	-0.13819 	0 7.54806 	-0.138405 	0 7.5342 	-0.138587 	0 7.53127 	-0.139317 	0 7.527 	-0.139936 	0 7.51993 	-0.140322 	0 7.50885 	-0.140561 	0 7.49519 	-0.140708 	0 7.4922 	-0.141503 	0 7.48713 	-0.142099 	0 7.4801 	-0.142505 	0 7.47047 	-0.142796 	-2.7922e-21 7.45698 	-0.142917 	-9.74948e-21 7.45394 	-0.143774 	-2.19977e-21 7.4481 	-0.144327 	0 7.44109 	-0.144756 	0 7.43287 	-0.145123 	-1.33136e-21 7.41953 	-0.145227 	-8.33483e-21 7.41643 	-0.146141 	-7.23712e-22 7.40983 	-0.146638 	0 7.40284 	-0.147091 	0 7.39582 	-0.147545 	0 7.38275 	-0.147646 	0 7.37922 	-0.148564 	2.32961e-23 7.37225 	-0.149043 	2.48878e-22 7.36526 	-0.149522 	4.7449e-22 7.35825 	-0.150001 	7.00133e-22 7.3466 	-0.150183 	-1.92979e-21 7.34226 	-0.151047 	-2.06554e-20 7.33529 	-0.151552 	-1.93531e-20 7.32829 	-0.152058 	-1.8046e-20 7.32128 	-0.152564 	-1.67343e-20 7.31101 	-0.152845 	-8.26175e-21 7.30588 	-0.153642 	-3.30239e-21 7.29889 	-0.154175 	-1.14452e-20 7.29188 	-0.154708 	-1.95892e-20 7.28484 	-0.155242 	-2.77343e-20 7.27592 	-0.155637 	-3.90239e-20 7.26999 	-0.156357 	-4.17437e-20 7.26298 	-0.156918 	-4.1178e-20 7.25594 	-0.15748 	-4.06099e-20 7.24888 	-0.158041 	-4.00395e-20 7.24127 	-0.158563 	-3.73586e-20 7.23887 	-0.158834 	-3.48406e-20 7.23618 	-0.15906 	-3.20316e-20 7.23347 	-0.159286 	-2.92228e-20 7.23077 	-0.159512 	-2.64142e-20 7.2281 	-0.159735 	-2.36506e-20 7.2236 	-0.160099 	-1.87044e-20 7.21908 	-0.160464 	-1.37576e-20 7.21455 	-0.160828 	-8.81034e-21 7.21001 	-0.161193 	-3.86251e-21 7.20526 	-0.161426 	0 7.19855 	-0.162167 	0 7.19123 	-0.162785 	0 7.18389 	-0.163403 	0 7.17651 	-0.164021 	0 7.16868 	-0.164308 	0 7.16274 	-0.165267 	0 7.15537 	-0.165912 	0 7.14797 	-0.166558 	0 7.14054 	-0.167204 	0 7.13253 	-0.167332 	0 7.12724 	-0.168497 	-4.93948e-23 7.11981 	-0.16917 	-1.8576e-22 7.11235 	-0.169843 	-3.22094e-22 7.10486 	-0.170517 	-4.58398e-22 7.09675 	-0.170497 	-4.09835e-22 7.092 	-0.171857 	-2.67327e-20 7.08451 	-0.172558 	-2.81674e-20 7.07698 	-0.173258 	-2.96086e-20 7.06939 	-0.173926 	-2.96573e-20 7.06127 	-0.173801 	3.87901e-21 7.05657 	-0.175244 	1.78675e-22 7.0494 	-0.176075 	5.20864e-21 7.0418 	-0.176803 	1.17174e-20 7.03406 	-0.177312 	1.82199e-20 7.02605 	-0.177243 	2.47088e-20 7.02106 	-0.178687 	1.75997e-20 7.01447 	-0.179721 	1.43251e-20 7.00678 	-0.180476 	1.36652e-20 6.99896 	-0.180836 	1.26371e-20 6.99103 	-0.18082 	1.12576e-20 6.98578 	-0.182267 	1.12403e-20 6.97967 	-0.183495 	1.09113e-20 6.97189 	-0.184275 	9.95299e-21 6.96404 	-0.184495 	1.14459e-20 6.95617 	-0.18453 	1.37497e-20 6.95066 	-0.185981 	1.04254e-20 6.94496 	-0.187394 	7.25128e-21 6.93708 	-0.1882 	6.57982e-21 6.92926 	-0.188287 	9.05557e-21 6.92142 	-0.188371 	1.15449e-20 6.91566 	-0.189826 	8.02117e-21 6.90985 	-0.191281 	4.49325e-21 6.90238 	-0.192078 	-9.12521e-22 6.89457 	-0.192208 	-4.66376e-21 6.88675 	-0.192339 	-8.41552e-21 6.88076 	-0.193799 	-5.04876e-21 6.87471 	-0.195259 	-1.68351e-21 6.86776 	-0.196081 	0 6.85995 	-0.196257 	0 6.85212 	-0.196433 	0 6.84591 	-0.197899 	0 6.83963 	-0.199364 	0 6.83319 	-0.20021 	-2.65276e-21 6.82536 	-0.20043 	-6.18847e-21 6.81751 	-0.20065 	-9.72477e-21 6.81107 	-0.202121 	-6.56874e-21 6.80459 	-0.203582 	-3.46306e-21 6.7985 	-0.204417 	-3.65654e-21 6.79076 	-0.204723 	-1.63245e-21 6.78287 	-0.204985 	5.76026e-22 6.77623 	-0.206462 	-2.76537e-20 6.76967 	-0.207765 	-4.75839e-20 6.76345 	-0.208623 	-4.62432e-20 6.75615 	-0.209134 	-2.50472e-20 6.7482 	-0.209436 	8.05677e-21 6.74136 	-0.210919 	-2.62103e-20 6.73477 	-0.21207 	-4.11188e-20 6.7284 	-0.212951 	-4.02627e-20 6.72149 	-0.213659 	-3.10725e-20 6.71347 	-0.214001 	-4.23123e-21 6.70643 	-0.215489 	-7.56799e-21 6.69985 	-0.216494 	-3.05695e-21 6.69333 	-0.217398 	3.1048e-21 6.68676 	-0.218296 	9.28922e-21 6.67866 	-0.218676 	1.7908e-20 6.67151 	-0.22011 	1.0297e-20 6.66488 	-0.221035 	1.37222e-20 6.65821 	-0.221959 	1.71502e-20 6.65151 	-0.222884 	2.05809e-20 6.64377 	-0.223458 	2.97738e-20 6.63662 	-0.224742 	3.51836e-20 6.62985 	-0.225689 	3.12317e-20 6.62303 	-0.226635 	2.72754e-20 6.61617 	-0.22758 	2.33146e-20 6.60877 	-0.228347 	1.34847e-20 6.60166 	-0.229487 	1.07629e-20 6.59473 	-0.230454 	8.04981e-21 6.58776 	-0.231421 	5.33772e-21 6.58075 	-0.232387 	2.6266e-21 6.57366 	-0.233339 	0 6.573 	-0.233443 	1.93186e-22 6.57236 	-0.233533 	4.68393e-22 6.57172 	-0.233623 	7.43608e-22 6.57107 	-0.233713 	1.01883e-21 6.57044 	-0.233802 	1.29267e-21 6.56374 	-0.234698 	3.70797e-21 6.55701 	-0.235594 	6.12243e-21 6.55024 	-0.236489 	8.53603e-21 6.54343 	-0.237385 	1.09488e-20 6.53678 	-0.238087 	1.6855e-20 6.52965 	-0.239291 	2.23104e-20 6.52209 	-0.240297 	2.60854e-20 6.51448 	-0.241302 	2.98655e-20 6.50683 	-0.242308 	3.36508e-20 6.49955 	-0.242903 	2.83092e-20 6.49264 	-0.244349 	3.60194e-20 6.4849 	-0.245375 	3.6682e-20 6.47711 	-0.246401 	3.73488e-20 6.46928 	-0.247427 	3.80198e-20 6.46209 	-0.247818 	2.76037e-20 6.4553 	-0.249472 	3.83613e-20 6.44745 	-0.250561 	3.30512e-20 6.43949 	-0.251607 	2.65458e-20 6.43168 	-0.252474 	1.70046e-20 6.42439 	-0.252832 	-1.1082e-21 6.41738 	-0.254508 	-3.69256e-21 6.40975 	-0.255854 	-8.56255e-21 6.4016 	-0.256922 	-1.53643e-20 6.39389 	-0.257572 	-2.36948e-20 6.38645 	-0.257946 	-3.3041e-20 6.37922 	-0.259645 	-2.22368e-20 6.37179 	-0.261257 	-1.23772e-20 6.36346 	-0.262346 	-8.26408e-21 6.35585 	-0.262772 	-1.95442e-20 6.34825 	-0.263161 	-3.16844e-20 6.34082 	-0.264884 	1.16409e-21 6.33331 	-0.266606 	3.40135e-20 6.3253 	-0.26767 	3.76502e-20 6.31757 	-0.268075 	9.65724e-21 6.30982 	-0.26848 	-1.83395e-20 6.30217 	-0.270227 	-1.12006e-20 6.29446 	-0.271974 	-4.06362e-21 6.28695 	-0.273063 	0 6.27905 	-0.273484 	0 6.27113 	-0.273905 	0 6.26328 	-0.275678 	0 6.25538 	-0.277429 	0 6.24824 	-0.278486 	0 6.24028 	-0.279002 	0 6.23218 	-0.27944 	0 6.22413 	-0.28124 	0 6.21635 	-0.282745 	2.33285e-23 6.20902 	-0.283823 	8.04496e-23 6.20127 	-0.284635 	-6.88537e-22 6.19298 	-0.285092 	-2.56231e-21 6.18473 	-0.286919 	1.82779e-20 6.17708 	-0.28817 	1.74917e-20 6.16955 	-0.289269 	1.10638e-20 6.16197 	-0.290368 	4.62556e-21 6.15353 	-0.290865 	-2.01872e-20 6.14524 	-0.292584 	-1.42816e-20 6.13757 	-0.293708 	-1.03598e-20 6.12984 	-0.294831 	-6.44015e-21 6.12206 	-0.295953 	-2.5227e-21 6.11382 	-0.296767 	1.29168e-21 6.10567 	-0.29822 	2.35736e-21 6.0978 	-0.299369 	7.34577e-21 6.08988 	-0.300516 	1.23362e-20 6.0819 	-0.301663 	1.73287e-20 6.07386 	-0.302805 	2.23624e-20 6.07375 	-0.302825 	2.23178e-20 6.07364 	-0.302841 	2.21818e-20 6.07353 	-0.302857 	2.20457e-20 6.07342 	-0.302873 	2.19097e-20 6.07332 	-0.302889 	2.17738e-20 6.0658 	-0.304052 	1.18535e-20 6.05824 	-0.305215 	1.92541e-21 6.05063 	-0.306377 	-8.0106e-21 6.04296 	-0.307538 	-1.79545e-20 6.03503 	-0.308663 	-2.78235e-20 6.02813 	-0.309911 	-4.22149e-20 6.02026 	-0.311117 	-4.60487e-20 6.01234 	-0.312323 	-4.9903e-20 6.00437 	-0.313528 	-5.37781e-20 5.99587 	-0.314667 	-2.64273e-20 5.98972 	-0.31598 	-1.24976e-20 5.98165 	-0.317215 	-4.34417e-21 5.97352 	-0.31845 	3.80927e-21 5.9652 	-0.319668 	1.09753e-20 5.95633 	-0.320828 	1.46437e-20 5.95006 	-0.32217 	4.22426e-20 5.94269 	-0.323471 	5.64095e-20 5.93435 	-0.324737 	5.87282e-20 5.92551 	-0.325956 	4.1221e-20 5.91638 	-0.327149 	1.28433e-20 5.90991 	-0.328522 	8.44197e-21 5.90337 	-0.329893 	4.0386e-21 5.89474 	-0.331185 	-6.75183e-22 5.88541 	-0.33241 	-9.00696e-21 5.87601 	-0.333635 	-1.73442e-20 5.86933 	-0.335043 	-1.05008e-20 5.86258 	-0.336449 	-3.66185e-21 5.85446 	-0.337781 	-4.42253e-21 5.84484 	-0.339036 	-1.28441e-20 5.83517 	-0.34029 	-2.12713e-20 5.82827 	-0.341736 	-1.43978e-20 5.82131 	-0.34318 	-7.52896e-21 5.81351 	-0.344546 	7.18636e-21 5.8038 	-0.345835 	1.87312e-20 5.79383 	-0.347116 	2.9942e-20 5.78671 	-0.348602 	4.8296e-20 5.77915 	-0.350048 	5.86356e-20 5.77106 	-0.351444 	5.91121e-20 5.76223 	-0.352811 	5.42468e-20 5.75197 	-0.354116 	3.85759e-20 5.74462 	-0.355645 	4.0425e-20 5.73638 	-0.357082 	3.34889e-20 5.72801 	-0.358511 	2.58393e-20 5.71957 	-0.359938 	1.81879e-20 5.70955 	-0.361293 	5.14156e-21 5.70157 	-0.362821 	-1.19339e-20 5.69298 	-0.364283 	-1.77943e-20 5.68431 	-0.365744 	-2.36399e-20 5.67558 	-0.367203 	-2.94704e-20 5.66653 	-0.368649 	-3.23864e-20 5.66505 	-0.368927 	-2.98685e-20 5.66347 	-0.369193 	-3.06898e-20 5.6619 	-0.36946 	-3.15119e-20 5.66032 	-0.369726 	-3.23349e-20 5.65875 	-0.369989 	-3.31498e-20 5.65181 	-0.371221 	-3.91644e-20 5.64482 	-0.372452 	-4.52083e-20 5.63778 	-0.373682 	-5.12816e-20 5.63069 	-0.374911 	-5.73844e-20 5.6236 	-0.375787 	-3.22739e-20 5.61552 	-0.377676 	8.21467e-21 5.60676 	-0.379206 	2.69591e-20 5.59793 	-0.380735 	4.57385e-20 5.58903 	-0.382262 	6.45531e-20 5.58008 	-0.383023 	3.13712e-20 5.57234 	-0.385271 	6.89837e-20 5.56344 	-0.386927 	8.02809e-20 5.55429 	-0.388486 	8.74133e-20 5.54504 	-0.389703 	7.38933e-20 5.5357 	-0.390444 	3.17645e-20 5.5277 	-0.392699 	2.1374e-20 5.51934 	-0.394816 	1.25668e-20 5.50986 	-0.396407 	9.96146e-21 5.50018 	-0.397252 	1.72874e-20 5.49044 	-0.398053 	2.51914e-20 5.48216 	-0.400314 	6.24794e-20 5.47379 	-0.402573 	9.97576e-20 5.46452 	-0.404133 	9.39204e-20 5.45442 	-0.404992 	4.4125e-20 5.44426 	-0.40585 	-5.69894e-21 5.43569 	-0.408118 	-8.40496e-21 5.427 	-0.410359 	-1.13543e-20 5.41796 	-0.411893 	-2.0557e-20 5.4077 	-0.412926 	-3.21697e-20 5.39712 	-0.413842 	-4.43608e-20 5.38823 	-0.416121 	-8.30177e-20 5.37904 	-0.417969 	-9.73134e-20 5.36962 	-0.419529 	-9.52909e-20 5.36002 	-0.421042 	-9.1706e-20 5.34898 	-0.421993 	-6.85432e-20 5.33969 	-0.424142 	-8.84588e-20 5.32994 	-0.425716 	-8.09386e-20 5