# vtk DataFile Version 2.0
track0
ASCII
DATASET POLYDATA
POINTS 10905 double
-0.0205 0.001 1e-05
-0.0202034 0.00100003 1e-05
-0.0199069 0.00100026 1e-05
-0.0196103 0.00100071 1e-05
-0.0193137 0.00100137 1e-05
-0.0190172 0.00100225 1e-05
-0.0187132 0.00100354 1e-05
-0.0184093 0.0010045 1e-05
-0.0181054 0.00100547 1e-05
-0.0178015 0.00100644 1e-05
-0.0174976 0.00100741 1e-05
-0.0172058 0.00100863 1e-05
-0.016914 0.00100939 1e-05
-0.0166222 0.00101011 1e-05
-0.0163305 0.00101076 1e-05
-0.0160387 0.00101136 1e-05
-0.0157586 0.0010122 1e-05
-0.0154784 0.00101261 1e-05
-0.0151983 0.00101297 1e-05
-0.0149182 0.00101329 1e-05
-0.0146381 0.00101356 1e-05
-0.0143692 0.00101412 1e-05
-0.0141002 0.00101426 1e-05
-0.0138313 0.00101437 1e-05
-0.0135624 0.00101444 1e-05
-0.0132934 0.00101448 1e-05
-0.0130353 0.00101483 1e-05
-0.0127771 0.00101477 1e-05
-0.0125189 0.00101469 1e-05
-0.0122607 0.00101458 1e-05
-0.0120025 0.00101443 1e-05
-0.0117547 0.00101465 1e-05
-0.0115068 0.00101444 1e-05
-0.0112589 0.00101421 1e-05
-0.0110111 0.00101396 1e-05
-0.0107632 0.00101368 1e-05
-0.0105252 0.00101381 1e-05
-0.0102873 0.00101349 1e-05
-0.0100493 0.00101315 1e-05
-0.00981133 0.00101278 1e-05
-0.00957337 0.0010124 1e-05
-0.00934491 0.00101247 1e-05
-0.00911645 0.00101206 1e-05
-0.008888 0.00101163 1e-05
-0.00865954 0.00101117 1e-05
-0.00843108 0.0010107 1e-05
-0.00821175 0.00101074 1e-05
-0.00799242 0.00101024 1e-05
-0.00777309 0.00100972 1e-05
-0.00755376 0.00100918 1e-05
-0.00733443 0.00100863 1e-05
-0.00712387 0.00100864 1e-05
-0.0069133 0.00100807 1e-05
-0.00670273 0.00100747 1e-05
-0.00649217 0.00100686 1e-05
-0.0062816 0.00100622 1e-05
-0.00607944 0.00100623 1e-05
-0.00587729 0.00100558 1e-05
-0.00567514 0.00100491 1e-05
-0.00547299 0.00100422 1e-05
-0.00527083 0.0010035 1e-05
-0.00507675 0.0010035 1e-05
-0.00488268 0.00100278 1e-05
-0.0046886 0.00100204 1e-05
-0.00449452 0.00100127 1e-05
-0.00430044 0.00100048 1e-05
-0.00411412 0.00100048 1e-05
-0.0039278 0.000999678 1e-05
-0.00374148 0.000998855 1e-05
-0.00355516 0.000998007 1e-05
-0.00336883 0.000997133 1e-05
-0.00318995 0.000997123 1e-05
-0.00301107 0.000996242 1e-05
-0.0028322 0.000995333 1e-05
-0.00265332 0.000994396 1e-05
-0.00247443 0.000993429 1e-05
-0.0023027 0.000993402 1e-05
-0.00213097 0.000992423 1e-05
-0.00195924 0.000991412 1e-05
-0.00178751 0.000990369 1e-05
-0.00161577 0.000989291 1e-05
-0.0014509 0.000989236 1e-05
-0.00128603 0.000988142 1e-05
-0.00112117 0.000987005 1e-05
-0.000956301 0.000985822 1e-05
-0.000791418 0.000984594 1e-05
-0.000633135 0.000984466 1e-05
-0.000474856 0.000983188 1e-05
-0.000316578 0.00098186 1e-05
-0.0001583 0.000980482 1e-05
0 0.000979052 1e-05
0.000105677 0.000978905 1e-05
0.00021135 0.000977892 1e-05
0.000317023 0.000976847 1e-05
0.000422695 0.000975769 1e-05
0.000528387 0.000974658 1e-05
0.000634886 0.000974515 1e-05
0.000741379 0.000973375 1e-05
0.000847872 0.00097221 1e-05
0.000954365 0.00097102 1e-05
0.00106088 0.000969805 1e-05
0.00116821 0.000969698 1e-05
0.00127553 0.000968484 1e-05
0.00138285 0.000967247 1e-05
0.00149017 0.000965989 1e-05
0.00159752 0.000964761 1e-05
0.00170568 0.00096469 1e-05
0.00181383 0.000963544 1e-05
0.00192199 0.000962276 1e-05
0.00203014 0.000960988 1e-05
0.00213833 0.000959881 1e-05
0.00224733 0.000959845 1e-05
0.00235633 0.00095883 1e-05
0.00246532 0.000957564 1e-05
0.00257432 0.000956277 1e-05
0.00268334 0.000955289 1e-05
0.00279319 0.000955281 1e-05
0.00290303 0.000954381 1e-05
0.00301288 0.000953129 1e-05
0.00312272 0.000951855 1e-05
0.00323259 0.000950969 1e-05
0.00334329 0.000950974 1e-05
0.00345399 0.000950169 1e-05
0.00356469 0.000948935 1e-05
0.00367539 0.000947678 1e-05
0.00378611 0.000946876 1e-05
0.00389767 0.000946881 1e-05
0.00400923 0.00094615 1e-05
0.00412079 0.000944935 1e-05
0.00423235 0.000943697 1e-05
0.00434393 0.00094296 1e-05
0.00445636 0.000942956 1e-05
0.00456879 0.000942281 1e-05
0.00468122 0.000941081 1e-05
0.00479364 0.000939859 1e-05
0.00490609 0.000939171 1e-05
0.0050194 0.000939146 1e-05
0.0051327 0.00093851 1e-05
0.005246 0.000937321 1e-05
0.0053593 0.000936108 1e-05
0.00547262 0.000935453 1e-05
0.00558681 0.000935398 1e-05
0.00570099 0.000934784 1e-05
0.00581517 0.000933616 1e-05
0.00592936 0.00093244 1e-05
0.00604356 0.000931802 1e-05
0.00615863 0.000931711 1e-05
0.0062737 0.000931108 1e-05
0.00638877 0.000929997 1e-05
0.00650384 0.000928876 1e-05
0.00661893 0.000928246 1e-05
0.0067349 0.000928112 1e-05
0.00685087 0.000927509 1e-05
0.00696683 0.000926441 1e-05
0.0070828 0.000925362 1e-05
0.00719878 0.00092473 1e-05
0.00731565 0.000924549 1e-05
0.00743252 0.000923938 1e-05
0.00754939 0.0009229 1e-05
0.00766625 0.00092185 1e-05
0.00778313 0.000921206 1e-05
0.00790091 0.000920974 1e-05
0.00801869 0.000920347 1e-05
0.00813647 0.000919328 1e-05
0.00825424 0.000918296 1e-05
0.00837203 0.000917635 1e-05
0.00849073 0.000917349 1e-05
0.00860942 0.000916699 1e-05
0.00872811 0.000915689 1e-05
0.00884681 0.000914666 1e-05
0.00896551 0.000913981 1e-05
0.00908513 0.000913637 1e-05
0.00920475 0.000912959 1e-05
0.00932436 0.00091195 1e-05
0.00944398 0.000910928 1e-05
0.0095636 0.000910214 1e-05
0.00968415 0.00090981 1e-05
0.0098047 0.000909099 1e-05
0.00992524 0.000908083 1e-05
0.0100458 0.000907054 1e-05
0.0101663 0.000906306 1e-05
0.0102878 0.00090584 1e-05
0.0104093 0.000905091 1e-05
0.0105308 0.000904063 1e-05
0.0106523 0.000903021 1e-05
0.0107738 0.000902235 1e-05
0.0108962 0.000901705 1e-05
0.0110186 0.000900915 1e-05
0.0111411 0.00089989 1e-05
0.0112635 0.000898859 1e-05
0.0113859 0.00089803 1e-05
0.0115093 0.000897435 1e-05
0.0116327 0.0008966 1e-05
0.0117561 0.000895576 1e-05
0.0118794 0.000894544 1e-05
0.0120028 0.00089367 1e-05
0.0121272 0.000893008 1e-05
0.0122515 0.000892124 1e-05
0.0123759 0.000891092 1e-05
0.0125002 0.000890051 1e-05
0.0126245 0.000889129 1e-05
0.0127498 0.000888398 1e-05
0.0128752 0.000887463 1e-05
0.0130005 0.000886414 1e-05
0.0131258 0.000885357 1e-05
0.0132511 0.000884384 1e-05
0.0133774 0.000883583 1e-05
0.0135036 0.000882595 1e-05
0.0136299 0.000881523 1e-05
0.0137562 0.000880442 1e-05
0.0138825 0.000879415 1e-05
0.0140098 0.000878544 1e-05
0.014137 0.000877499 1e-05
0.0142643 0.000876398 1e-05
0.0143915 0.000875287 1e-05
0.0145188 0.000874204 1e-05
0.0146471 0.000873261 1e-05
0.0147753 0.000872159 1e-05
0.0149036 0.000871022 1e-05
0.0150318 0.000869876 1e-05
0.0151601 0.000868736 1e-05
0.0152893 0.000867721 1e-05
0.0154186 0.00086656 1e-05
0.0155478 0.000865382 1e-05
0.0156771 0.000864196 1e-05
0.0158063 0.000863 1e-05
0.0159366 0.000861913 1e-05
0.0160668 0.000860701 1e-05
0.0161971 0.000859479 1e-05
0.0163273 0.000858248 1e-05
0.0164576 0.000857007 1e-05
0.0165889 0.000855847 1e-05
0.0167201 0.000854587 1e-05
0.0168514 0.000853317 1e-05
0.0169827 0.000852037 1e-05
0.0171139 0.000850747 1e-05
0.0172462 0.000849514 1e-05
0.0173785 0.000848202 1e-05
0.0175108 0.00084688 1e-05
0.0176431 0.000845548 1e-05
0.0177754 0.000844206 1e-05
0.0179087 0.0008429 1e-05
0.018042 0.000841533 1e-05
0.0181753 0.000840156 1e-05
0.0183087 0.00083877 1e-05
0.018442 0.000837373 1e-05
0.0185763 0.000835993 1e-05
0.0187107 0.000834569 1e-05
0.018845 0.000833135 1e-05
0.0189794 0.000831692 1e-05
0.0191137 0.000830238 1e-05
0.0192491 0.000828785 1e-05
0.0193845 0.000827302 1e-05
0.0195199 0.000825809 1e-05
0.0196553 0.000824306 1e-05
0.0197907 0.000822794 1e-05
0.0198835 0.000821756 1e-05
0.0199762 0.000820709 1e-05
0.0200689 0.000819658 1e-05
0.0201616 0.000818602 1e-05
0.020251 0.00081758 1e-05
0.0202954 0.00081707 1e-05
0.0203398 0.000816559 1e-05
0.0203842 0.000816047 1e-05
0.0204286 0.000815534 1e-05
0.020473 0.00081502 1e-05
0.0206105 0.000813421 1e-05
0.020748 0.000811815 1e-05
0.0208855 0.000810199 1e-05
0.021023 0.000808574 1e-05
0.0211606 0.000806938 1e-05
0.0212991 0.000805269 1e-05
0.0214377 0.000803599 1e-05
0.0215763 0.00080192 1e-05
0.0217149 0.00080023 1e-05
0.0218535 0.000798531 1e-05
0.0219931 0.000796792 1e-05
0.0221328 0.000795058 1e-05
0.0222724 0.000793314 1e-05
0.0224121 0.00079156 1e-05
0.0225517 0.000789796 1e-05
0.0226925 0.000787987 1e-05
0.0228332 0.000786187 1e-05
0.022974 0.000784377 1e-05
0.0231147 0.000782557 1e-05
0.0232555 0.000780726 1e-05
0.0233973 0.000778846 1e-05
0.0235391 0.000776977 1e-05
0.023681 0.000775098 1e-05
0.0238228 0.000773209 1e-05
0.0239647 0.000771309 1e-05
0.0241076 0.000769358 1e-05
0.0242505 0.000767421 1e-05
0.0243935 0.000765473 1e-05
0.0245364 0.000763516 1e-05
0.0246794 0.000761548 1e-05
0.0248234 0.000759529 1e-05
0.0249675 0.000757523 1e-05
0.0251115 0.000755509 1e-05
0.0252556 0.000753485 1e-05
0.0253996 0.000751446 1e-05
0.0255448 0.000749357 1e-05
0.02569 0.000747277 1e-05
0.0258351 0.000745192 1e-05
0.0259803 0.000743095 1e-05
0.0261255 0.000740981 1e-05
0.0262718 0.000738818 1e-05
0.0264181 0.000736662 1e-05
0.0265644 0.000734501 1e-05
0.0267107 0.000732329 1e-05
0.026857 0.000730137 1e-05
0.0270044 0.000727901 1e-05
0.0271519 0.000725667 1e-05
0.0272993 0.000723431 1e-05
0.0274468 0.000721182 1e-05
0.0275942 0.000718914 1e-05
0.0277428 0.000716604 1e-05
0.0278914 0.000714293 1e-05
0.0280399 0.00071198 1e-05
0.0281885 0.000709656 1e-05
0.0283371 0.000707312 1e-05
0.0284869 0.000704928 1e-05
0.0286366 0.000702543 1e-05
0.0287863 0.000700154 1e-05
0.0289361 0.000697753 1e-05
0.0290858 0.000695335 1e-05
0.0292367 0.000692879 1e-05
0.0293876 0.000690418 1e-05
0.0295385 0.000687953 1e-05
0.0296894 0.000685476 1e-05
0.0298403 0.000682983 1e-05
0.0299924 0.000680455 1e-05
0.0301445 0.00067792 1e-05
0.0302966 0.000675377 1e-05
0.0304486 0.000672824 1e-05
0.0306007 0.000670257 1e-05
0.030754 0.000667656 1e-05
0.0309072 0.000665046 1e-05
0.0310605 0.000662427 1e-05
0.0312138 0.000659797 1e-05
0.031367 0.000657155 1e-05
0.0315215 0.00065448 1e-05
0.0316759 0.000651794 1e-05
0.0318304 0.000649097 1e-05
0.0319848 0.00064639 1e-05
0.0321393 0.000643671 1e-05
0.0322949 0.000640921 1e-05
0.0324506 0.000638158 1e-05
0.0326062 0.000635382 1e-05
0.0327619 0.000632595 1e-05
0.0329175 0.000629799 1e-05
[...]
POINT_DATA 10905
 FIELD attributes 2
p 1 10905 float
-4.96545 -5.01554 -5.07559 -5.1362 -5.19737 -5.32266 -5.39588 -5.47581 -5.55574 -5.63567 -5.7208 -5.72494 -5.7454 -5.76581 -5.78616 -5.81823 -5.80751 -5.81653 -5.82548 -5.83437 -5.85955 -5.85548 -5.86859 -5.88165 -5.89465 -5.92372 -5.91905 -5.93067 -5.94224 -5.95377 -5.982 -5.97463 -5.98419 -5.9937 -6.00318 -6.03118 -6.02217 -6.03142 -6.04064 -6.04982 -6.07983 -6.06892 -6.07821 -6.08746 -6.09667 -6.12945 -6.11578 -6.12488 -6.13395 -6.14299 -6.17887 -6.16193 -6.17094 -6.17992 -6.18886 -6.22849 -6.20807 -6.21734 -6.22658 -6.23578 -6.2801 -6.25595 -6.26568 -6.27537 -6.28502 -6.33465 -6.30624 -6.31649 -6.32669 -6.33685 -6.39254 -6.35941 -6.37014 -6.38082 -6.39146 -6.4537 -6.41485 -6.42588 -6.43685 -6.44777 -6.51751 -6.47186 -6.48253 -6.49312 -6.50363 -6.58157 -6.52005 -6.52248 -6.52483 -6.52709 -6.6048 -6.49581 -6.48813 -6.48037 -6.47254 -6.58355 -6.46268 -6.45817 -6.45361 -6.44899 -6.57699 -6.47107 -6.4715 -6.47189 -6.47776 -6.59666 -6.51138 -6.50416 -6.50531 -6.52396 -6.61936 -6.55371 -6.53963 -6.54199 -6.56961 -6.65087 -6.60254 -6.58699 -6.59174 -6.62585 -6.69583 -6.65893 -6.64278 -6.64901 -6.68687 -6.74793 -6.71852 -6.70192 -6.70925 -6.75002 -6.8051 -6.78118 -6.76437 -6.77284 -6.81623 -6.8672 -6.84719 -6.82994 -6.83932 -6.8849 -6.9327 -6.91536 -6.89809 -6.90922 -6.95454 -6.99976 -6.98428 -6.9689 -6.98095 -7.02419 -7.06731 -7.05322 -7.03927 -7.05192 -7.09335 -7.13463 -7.12163 -7.10877 -7.12178 -7.16157 -7.20121 -7.18913 -7.17721 -7.1904 -7.22867 -7.26678 -7.25551 -7.24439 -7.25763 -7.29446 -7.33114 -7.32058 -7.31018 -7.32332 -7.35877 -7.39405 -7.38421 -7.37452 -7.38748 -7.4215 -7.45537 -7.44625 -7.43727 -7.45004 -7.48255 -7.515 -7.50657 -7.50026 -7.51298 -7.54179 -7.57283 -7.5651 -7.56169 -7.57388 -7.59922 -7.62889 -7.62186 -7.62111 -7.63281 -7.65493 -7.68327 -7.67694 -7.67861 -7.68986 -7.70897 -7.73601 -7.73035 -7.7342 -7.74502 -7.76135 -7.78713 -7.78212 -7.78792 -7.79834 -7.81212 -7.8367 -7.83234 -7.83989 -7.84994 -7.86138 -7.88479 -7.88109 -7.89017 -7.89988 -7.9096 -7.93146 -7.92943 -7.93882 -7.94822 -7.95763 -7.9768 -7.97684 -7.98596 -7.99508 -8.00421 -8.02093 -8.02284 -8.03171 -8.0406 -8.04948 -8.06399 -8.06756 -8.07622 -8.08488 -8.09355 -8.10607 -8.1111 -8.11958 -8.12806 -8.13655 -8.14729 -8.15362 -8.16195 -8.17028 -8.17862 -8.18781 -8.19265 -8.19823 -8.20381 -8.2094 -8.21478 -8.21748 -8.22019 -8.2229 -8.22561 -8.22821 -8.23646 -8.24468 -8.25289 -8.26112 -8.26883 -8.27727 -8.28543 -8.29361 -8.30179 -8.30894 -8.31769 -8.32584 -8.33399 -8.34215 -8.34866 -8.35787 -8.36601 -8.37415 -8.38229 -8.38808 -8.39778 -8.40586 -8.41394 -8.42203 -8.427 -8.43731 -8.44519 -8.45307 -8.46095 -8.46468 -8.47506 -8.48295 -8.49065 -8.49761 -8.50092 -8.51118 -8.51936 -8.52683 -8.53268 -8.53535 -8.54541 -8.55377 -8.56082 -8.56534 -8.5674 -8.57724 -8.58587 -8.59257 -8.59588 -8.5976 -8.60736 -8.61648 -8.62299 -8.62526 -8.62683 -8.6366 -8.64635 -8.65262 -8.65409 -8.65557 -8.66538 -8.67518 -8.68117 -8.68262 -8.68407 -8.69392 -8.70378 -8.70956 -8.71101 -8.71246 -8.72236 -8.73226 -8.73789 -8.73935 -8.74081 -8.75075 -8.76069 -8.76618 -8.76766 -8.76915 -8.77911 -8.78907 -8.79444 -8.79594 -8.79744 -8.80741 -8.81675 -8.82195 -8.82414 -8.82565 -8.8356 -8.84403 -8.84925 -8.8522 -8.85372 -8.86363 -8.87112 -8.87633 -8.88006 -8.88156 -8.89141 -8.89795 -8.90314 -8.90763 -8.90911 -8.91887 -8.92445 -8.92959 -8.93475 -8.93627 -8.94545 -8.95052 -8.9556 -8.96069 -8.96296 -8.9711 -8.97609 -8.98108 -8.98608 -8.98909 -8.99618 -9.00106 -9.00595 -9.01084 -9.01458 -9.0206 -9.02536 -9.03012 -9.03488 -9.03933 -9.04145 -9.04322 -9.04498 -9.04675 -9.04849 -9.05138 -9.05427 -9.05716 -9.06006 -9.06213 -9.06741 -9.07192 -9.07644 -9.08096 -9.08336 -9.0897 -9.09402 -9.09836 -9.10271 -9.10366 -9.11101 -9.11515 -9.11929 -9.12344 -9.12295 -9.13129 -9.13522 -9.13915 -9.14286 -9.14118 -9.14976 -9.15416 -9.15787 -9.16007 -9.15826 -9.16652 -9.17193 -9.1754 -9.1761 -9.17413 -9.18206 -9.18845 -9.19166 -9.19086 -9.18873 -9.19632 -9.20365 -9.20661 -9.2043 -9.20198 -9.20923 -9.21648 -9.21889 -9.21636 -9.21383 -9.22072 -9.22762 -9.22973 -9.22696 -9.2242 -9.23073 -9.23727 -9.23905 -9.23605 -9.23304 -9.2392 -9.24529 -9.24647 -9.24354 -9.24027 -9.24605 -9.25045 -9.25129 -9.24938 -9.24583 -9.25122 -9.25391 -9.2544 -9.2535 -9.24965 -9.25463 -9.2556 -9.25572 -9.25581 -9.25164 -9.2557 -9.25544 -9.25518 -9.25493 -9.25175 -9.25402 -9.25336 -9.25271 -9.25207 -9.24989 -9.25036 -9.24929 -9.24822 -9.24717 -9.246 -9.24599 -9.24586 -9.24572 -9.24558 -9.24545 -9.24417 -9.24291 -9.24165 -9.2404 -9.238 -9.23733 -9.2355 -9.23368 -9.23187 -9.22765 -9.2278 -9.22552 -9.22325 -9.22099 -9.21508 -9.21576 -9.21326 -9.21052 -9.20678 -9.20018 -9.20031 -9.19863 -9.19541 -9.1899 -9.18286 -9.18243 -9.18154 -9.17782 -9.17053 -9.16304 -9.16201 -9.16101 -9.15652 -9.14855 -9.14059 -9.13896 -9.13735 -9.13234 -9.12387 -9.11541 -9.11316 -9.11081 -9.10496 -9.09637 -9.08738 -9.08449 -9.08015 -9.07369 -9.06592 -9.05638 -9.05283 -9.04647 -9.03938 -9.0323 -9.02229 -9.0174 -9.00964 -9.0019 -8.99416 -8.98495 -8.97796 -8.96952 -8.96109 -8.95267 -8.94424 -8.94414 -8.94401 -8.94389 -8.94376 -8.94364 -8.93458 -8.92553 -8.91649 -8.90746 -8.89677 -8.88855 -8.87863 -8.86873 -8.85883 -8.84556 -8.8383 -8.82761 -8.81693 -8.80533 -8.79048 -8.7825 -8.77266 -8.76117 -8.747 -8.73136 -8.72249 -8.71361 -8.70094 -8.68449 -8.66804 -8.65824 -8.64844 -8.63492 -8.61762 -8.60034 -8.58956 -8.5788 -8.56408 -8.54623 -8.52807 -8.5163 -8.50274 -8.48698 -8.47014 -8.45108 -8.43826 -8.42179 -8.40503 -8.38829 -8.36916 -8.35365 -8.33585 -8.31806 -8.30028 -8.28215 -8.27913 -8.27577 -8.2724 -8.26904 -8.26571 -8.25022 -8.23475 -8.21928 -8.20383 -8.18717 -8.1685 -8.14857 -8.12865 -8.10874 -8.08611 -8.06756 -8.04684 -8.02579 -8.00347 -7.97938 -7.95966 -7.93943 -7.91721 -7.89209 -7.8668 -7.84586 -7.82493 -7.80122 -7.77469 -7.74817 -7.72598 -7.7037 -7.67843 -7.65112 -7.62333 -7.59986 -7.57454 -7.548 -7.52128 -7.49226 -7.46698 -7.43912 -7.41127 -7.38344 -7.35485 -7.34423 -7.33286 -7.32151 -7.31015 -7.29908 -7.28121 -7.26334 -7.24548 -7.22763 -7.20827 -7.17925 -7.14872 -7.1182 -7.0877 -7.05326 -7.02452 -6.99343 -6.96151 -6.92729 -6.8913 -6.861 -6.83072 -6.79689 -6.7596 -6.7223 -6.69057 -6.65886 -6.62369 -6.58494 -6.54619 -6.5129 -6.47771 -6.44054 -6.40297 -6.36282 -6.32737 -6.28872 -6.25007 -6.21144 -6.17222 -6.16451 -6.15625 -6.14799 -6.13973 -6.13158 -6.09979 -6.06801 -6.03624 -6.00448 -5.97097 -5.93135 -5.88989 -5.84845 -5.80625 -5.76161 -5.72108 -5.67994 -5.63706 -5.59113 -5.54505 -5.50302 -5.46102 -5.41633 -5.36888 -5.32141 -5.27793 -5.2331 -5.18653 -5.13964 -5.09082 -5.04529 -4.99732 -4.94937 -4.90143 -4.85343 -4.85277 -4.85208 -4.85138 -4.85068 -4.84999 -4.80153 -4.75309 -4.70466 -4.65625 -4.60491 -4.55711 -4.50699 -4.45659 -4.40413 -4.34999 -4.30086 -4.25174 -4.19955 -4.1443 -4.08902 -4.03863 -3.98755 -3.93364 -3.87865 -3.82229 -3.77056 -3.71553 -3.66051 -3.6055 -3.55012 -3.54444 -3.53844 -3.53245 -3.52645 -3.52049 -3.47053 -3.42058 -3.37064 -3.32071 -3.2687 -3.21357 -3.15698 -3.1001 -3.04156 -2.98201 -2.92592 -2.86984 -2.81165 -2.75132 -2.69094 -2.63398 -2.57592 -2.51646 -2.45699 -2.39587 -2.35661 -2.3158 -2.275 -2.2342 -2.19485 -2.1752 -2.15555 -2.13589 -2.11624 -2.09561 -2.03581 -1.97505 -1.9143 -1.85281 -1.78886 -1.72945 -1.67004 -1.60815 -1.54378 -1.47935 -1.41939 -1.35895 -1.29601 -1.23231 -1.16747 -1.11599 -1.06204 -1.00809 -0.954138 -0.902392 -0.892546 -0.8827 -0.872854 -0.863009 -0.852887 -0.789507 -0.725852 -0.662201 -0.598293 -0.532838 -0.469949 -0.406996 -0.342796 -0.277195 -0.21151 -0.148369 -0.0849004 -0.0201284 0.0449268 0.110764 0.155071 0.200416 0.245831 0.291245 0.335153 0.354968 0.374783 0.394598 0.414457 0.43521 0.499244 0.564258 0.629271 0.695412 0.763474 0.826832 0.890192 0.955846 1.02379 1.09182 1.15524 1.22024 1.28649 1.35273 1.42 1.43769 1.45605 1.47451 1.49297 1.51119 1.559 1.6068 1.65461 1.7025 1.75105 1.8166 1.88245 1.94858 2.01556 2.08272 2.14817 2.2137 2.28002 2.34655 2.41353 2.45393 2.49474 2.53564 2.57655 2.61623 2.64174 2.66725 2.69276 2.71846 2.74511 2.80969 2.87565 2.94161 3.00938 3.07831 3.14244 3.20657 3.27308 3.34128 3.40988 3.45712 3.50589 3.55517 3.60446 3.65218 3.66993 3.68769 3.70545 3.72312 3.74057 3.80745 3.874 3.94058 4.00636 4.07184 4.13843 4.20504 4.27037 4.3354 4.40036 4.43406 4.46728 4.50024 4.53321 4.56533 4.5974 4.62948 4.66156 4.69423 4.72794 4.79071 4.85426 4.91883 4.98643 5.05414 5.11621 5.17979 5.24508 5.31039 5.3762 5.38046 5.38483 5.38931 5.39379 5.39826 5.45871 5.51918 5.57968 5.63843 5.69522 5.76085 5.82651 5.88861 5.94891 6.00888 6.03813 6.06635 6.09356 6.12077 6.14748 6.18087 6.21426 6.24765 6.28248 6.31872 6.37596 6.43317 6.49422 6.55894 6.62362 6.665 6.70818 6.75348 6.79879 6.84441 6.86042 6.87643 6.89244 6.90721 6.92091 6.98469 7.04541 7.10601 7.15786 7.2093 7.26951 7.32559 7.37671 7.42781 7.47845 7.48031 7.48216 7.48401 7.48604 7.48822 7.53945 7.5912 7.64292 7.70027 7.76148 7.80716 7.85354 7.90898 7.96477 8.02411 8.03684 8.05105 8.06676 8.08246 8.09871 8.13715 8.17558 8.21401 8.24683 8.27371 8.33269 8.39173 8.43932 8.47534 8.5112 8.55351 8.58846 8.61858 8.64869 8.67982 8.6902 8.70058 8.71095 8.72281 8.73762 8.77068 8.80993 8.84917 8.89953 8.95586 8.98404 9.01191 9.05499 9.1084 9.16305 9.18351 9.21492 9.24936 9.2838 9.32676 9.33443 9.34209 9.34976 9.35675 9.36009 9.40778 9.45069 9.49359 9.52756 9.54536 9.60018 9.65517 9.69075 9.70657 9.72208 9.77513 9.81607 9.84524 9.87449 9.89171 9.92226 9.93974 9.95726 9.97481 9.99318 10.0039 10.0146 10.0254 10.0361 10.0548 10.0745 10.1031 10.1317 10.1604 10.2179 10.2266 10.2484 10.2767 10.3198 10.3742 10.3785 10.3824 10.4138 10.4747 10.5357 10.5461 10.5559 10.5857 10.6361 10.6867 10.686 10.6844 10.7143 10.7751 10.8363 10.8508 10.87 10.9013 10.9356 10.9783 10.9762 10.9983 11.0206 11.0429 11.0731 11.0775 11.0818 11.0862 11.0906 11.0906 11.126 11.1569 11.1878 11.2145 11.2135 11.2624 11.3086 11.3349 11.3322 11.3289 11.3747 11.4193 11.4338 11.4367 11.4314 11.4747 11.4886 11.501 11.5134 11.5188 11.529 11.5319 11.5348 11.5376 11.5405 11.5472 11.5539 11.5607 11.5675 11.5922 11.5796 11.5849 11.5902 11.5985 11.6415 11.6134 11.6 11.5995 11.6224 11.659 11.624 11.5876 11.5826 11.61 11.6389 11.5956 11.5509 11.5372 11.5551 11.5743 11.5211 11.4747 11.4536 11.4501 11.4581 11.3936 11.3532 11.321 11.289 11.2822 11.2139 11.169 11.1243 11.0798 11.0397 11.0246 11.0136 11.0026 10.9916 10.9791 10.9328 10.8866 10.8407 10.7949 10.7223 10.6733 10.601 10.5292 10.4426 10.3223 10.2635 10.1994 10.1073 9.96477 9.82039 9.73609 9.654 9.5339 9.37507 9.21467 9.11344 8.99421 8.8372 8.66645 8.46741 8.32585 8.15706 7.98325 7.8095 7.61297 7.45361 7.23281 7.0126 6.7929 6.53496 6.30519 6.08129 5.85721 5.63299 5.41282 5.15809 4.82343 4.48987 4.15724 3.76568 3.43348 3.17996 2.92703 2.67461 2.48627 2.15357 1.63414 1.11307 0.590625 0